
     Program PWSCF v.6.4.1 starts on 23Jan2021 at 18:48:28 

     This program is part of the open-source Quantum ESPRESSO suite
     for quantum simulation of materials; please cite
         "P. Giannozzi et al., J. Phys.:Condens. Matter 21 395502 (2009);
         "P. Giannozzi et al., J. Phys.:Condens. Matter 29 465901 (2017);
          URL http://www.quantum-espresso.org", 
     in publications or presentations arising from this work. More details at
     http://www.quantum-espresso.org/quote

     Parallel version (MPI & OpenMP), running on      48 processor cores
     Number of MPI processes:                24
     Threads/MPI process:                     2

     MPI processes distributed on     1 nodes
     R & G space division:  proc/nbgrp/npool/nimage =      24
     Waiting for input...
     Reading input from standard input

     Current dimensions of program PWSCF are:
     Max number of different atomic species (ntypx) = 10
     Max number of k-points (npk) =  40000
     Max angular momentum in pseudopotentials (lmaxx) =  3
               file Sn.rel-pbesol-dn-kjpaw_psl.1.0.0.UPF: wavefunction(s)  5S 5P 5P 4D 4D renormalized
               file I.rel-pbesol-n-kjpaw_psl.1.0.0.UPF: wavefunction(s)  5S renormalized

     Subspace diagonalization in iterative solution of the eigenvalue problem:
     one sub-group per band group will be used
     scalapack distributed-memory algorithm (size of sub-group:  3*  3 procs)

 
     Parallelization info
     --------------------
     sticks:   dense  smooth     PW     G-vecs:    dense   smooth      PW
     Min         579     386    101                51363    27950    3785
     Max         580     387    102                51366    27955    3788
     Sum       13909    9265   2441              1232753   670845   90879
 

     Title: 
     SnI2                                                                       


     bravais-lattice index     =            1
     lattice parameter (alat)  =      14.4199  a.u.
     unit-cell volume          =    2998.4083 (a.u.)^3
     number of atoms/cell      =            6
     number of atomic types    =            2
     number of electrons       =        56.00
     number of Kohn-Sham states=           56
     kinetic-energy cutoff     =     140.0000  Ry
     charge density cutoff     =     840.0000  Ry
     convergence threshold     =      1.0E-06
     mixing beta               =       0.3500
     number of iterations used =            8  plain     mixing
     Exchange-correlation      = SLA PW PSX PSC ( 1  4 10  8 0 0)
     Non magnetic calculation with spin-orbit


     celldm(1)=  14.419945  celldm(2)=   0.000000  celldm(3)=   0.000000
     celldm(4)=   0.000000  celldm(5)=   0.000000  celldm(6)=   0.000000

     crystal axes: (cart. coord. in units of alat)
               a(1) = (   1.000000   0.000000   0.000000 )  
               a(2) = (   0.000000   1.000000   0.000000 )  
               a(3) = (   0.000000   0.000000   1.000000 )  

     reciprocal axes: (cart. coord. in units 2 pi/alat)
               b(1) = (  1.000000  0.000000  0.000000 )  
               b(2) = (  0.000000  1.000000  0.000000 )  
               b(3) = (  0.000000  0.000000  1.000000 )  


     PseudoPot. # 1 for Sn read from file:
     /marconi_scratch/userexternal/cmalosso/degironcoli/pseudo/Sn.rel-pbesol-dn-kjpaw_psl.1.0.0.UPF
     MD5 check sum: e69eff64f15ae39ad43ef58bacbfdf88
     Pseudo is Projector augmented-wave + core cor, Zval = 14.0
     Generated using "atomic" code by A. Dal Corso v.6.3
     Shape of augmentation charge: PSQ
     Using radial grid of 1243 points, 10 beta functions with: 
                l(1) =   0
                l(2) =   0
                l(3) =   1
                l(4) =   1
                l(5) =   1
                l(6) =   1
                l(7) =   2
                l(8) =   2
                l(9) =   2
               l(10) =   2
     Q(r) pseudized with 0 coefficients 


     PseudoPot. # 2 for I  read from file:
     /marconi_scratch/userexternal/cmalosso/degironcoli/pseudo/I.rel-pbesol-n-kjpaw_psl.1.0.0.UPF
     MD5 check sum: 4478c427bd443f303eca1937a163b991
     Pseudo is Projector augmented-wave + core cor, Zval =  7.0
     Generated using "atomic" code by A. Dal Corso v.6.3
     Shape of augmentation charge: PSQ
     Using radial grid of 1247 points, 10 beta functions with: 
                l(1) =   0
                l(2) =   0
                l(3) =   1
                l(4) =   1
                l(5) =   1
                l(6) =   1
                l(7) =   2
                l(8) =   2
                l(9) =   2
               l(10) =   2
     Q(r) pseudized with 0 coefficients 


     atomic species   valence    mass     pseudopotential
        Sn            14.00   118.70000     Sn( 1.00)
        I              7.00   126.90000     I ( 1.00)

     16 Sym. Ops., with inversion, found ( 8 have fractional translation)


                                    s                        frac. trans.

      isym =  1     identity                                     

 cryst.   s( 1) = (     1          0          0      )
                  (     0          1          0      )
                  (     0          0          1      )

 cart.    s( 1) = (  1.0000000  0.0000000  0.0000000 )
                  (  0.0000000  1.0000000  0.0000000 )
                  (  0.0000000  0.0000000  1.0000000 )


      isym =  2     180 deg rotation - cart. axis [0,0,1]        

 cryst.   s( 2) = (    -1          0          0      )
                  (     0         -1          0      )
                  (     0          0          1      )

 cart.    s( 2) = ( -1.0000000  0.0000000  0.0000000 )
                  (  0.0000000 -1.0000000  0.0000000 )
                  (  0.0000000  0.0000000  1.0000000 )


      isym =  3     180 deg rotation - cart. axis [0,1,0]        

 cryst.   s( 3) = (    -1          0          0      )    f =(  0.5000000 )
                  (     0          1          0      )       ( -0.5000000 )
                  (     0          0         -1      )       (  0.5000000 )

 cart.    s( 3) = ( -1.0000000  0.0000000  0.0000000 )    f =(  0.5000000 )
                  (  0.0000000  1.0000000  0.0000000 )       ( -0.5000000 )
                  (  0.0000000  0.0000000 -1.0000000 )       (  0.5000000 )


      isym =  4     180 deg rotation - cart. axis [1,0,0]        

 cryst.   s( 4) = (     1          0          0      )    f =( -0.5000000 )
                  (     0         -1          0      )       (  0.5000000 )
                  (     0          0         -1      )       (  0.5000000 )

 cart.    s( 4) = (  1.0000000  0.0000000  0.0000000 )    f =( -0.5000000 )
                  (  0.0000000 -1.0000000  0.0000000 )       (  0.5000000 )
                  (  0.0000000  0.0000000 -1.0000000 )       (  0.5000000 )


      isym =  5     180 deg rotation - cart. axis [1,1,0]        

 cryst.   s( 5) = (     0          1          0      )
                  (     1          0          0      )
                  (     0          0         -1      )

 cart.    s( 5) = (  0.0000000  1.0000000  0.0000000 )
                  (  1.0000000  0.0000000  0.0000000 )
                  (  0.0000000  0.0000000 -1.0000000 )


      isym =  6     180 deg rotation - cart. axis [1,-1,0]       

 cryst.   s( 6) = (     0         -1          0      )
                  (    -1          0          0      )
                  (     0          0         -1      )

 cart.    s( 6) = (  0.0000000 -1.0000000  0.0000000 )
                  ( -1.0000000  0.0000000  0.0000000 )
                  (  0.0000000  0.0000000 -1.0000000 )


      isym =  7      90 deg rotation - cart. axis [0,0,-1]       

 cryst.   s( 7) = (     0         -1          0      )    f =( -0.5000000 )
                  (     1          0          0      )       (  0.5000000 )
                  (     0          0          1      )       ( -0.5000000 )

 cart.    s( 7) = (  0.0000000  1.0000000  0.0000000 )    f =( -0.5000000 )
                  ( -1.0000000  0.0000000  0.0000000 )       (  0.5000000 )
                  (  0.0000000  0.0000000  1.0000000 )       ( -0.5000000 )


      isym =  8      90 deg rotation - cart. axis [0,0,1]        

 cryst.   s( 8) = (     0          1          0      )    f =(  0.5000000 )
                  (    -1          0          0      )       ( -0.5000000 )
                  (     0          0          1      )       ( -0.5000000 )

 cart.    s( 8) = (  0.0000000 -1.0000000  0.0000000 )    f =(  0.5000000 )
                  (  1.0000000  0.0000000  0.0000000 )       ( -0.5000000 )
                  (  0.0000000  0.0000000  1.0000000 )       ( -0.5000000 )


      isym =  9     inversion                                    

 cryst.   s( 9) = (    -1          0          0      )
                  (     0         -1          0      )
                  (     0          0         -1      )

 cart.    s( 9) = ( -1.0000000  0.0000000  0.0000000 )
                  (  0.0000000 -1.0000000  0.0000000 )
                  (  0.0000000  0.0000000 -1.0000000 )


      isym = 10     inv. 180 deg rotation - cart. axis [0,0,1]   

 cryst.   s(10) = (     1          0          0      )
                  (     0          1          0      )
                  (     0          0         -1      )

 cart.    s(10) = (  1.0000000  0.0000000  0.0000000 )
                  (  0.0000000  1.0000000  0.0000000 )
                  (  0.0000000  0.0000000 -1.0000000 )


      isym = 11     inv. 180 deg rotation - cart. axis [0,1,0]   

 cryst.   s(11) = (     1          0          0      )    f =( -0.5000000 )
                  (     0         -1          0      )       (  0.5000000 )
                  (     0          0          1      )       ( -0.5000000 )

 cart.    s(11) = (  1.0000000  0.0000000  0.0000000 )    f =( -0.5000000 )
                  (  0.0000000 -1.0000000  0.0000000 )       (  0.5000000 )
                  (  0.0000000  0.0000000  1.0000000 )       ( -0.5000000 )


      isym = 12     inv. 180 deg rotation - cart. axis [1,0,0]   

 cryst.   s(12) = (    -1          0          0      )    f =(  0.5000000 )
                  (     0          1          0      )       ( -0.5000000 )
                  (     0          0          1      )       ( -0.5000000 )

 cart.    s(12) = ( -1.0000000  0.0000000  0.0000000 )    f =(  0.5000000 )
                  (  0.0000000  1.0000000  0.0000000 )       ( -0.5000000 )
                  (  0.0000000  0.0000000  1.0000000 )       ( -0.5000000 )


      isym = 13     inv. 180 deg rotation - cart. axis [1,1,0]   

 cryst.   s(13) = (     0         -1          0      )
                  (    -1          0          0      )
                  (     0          0          1      )

 cart.    s(13) = (  0.0000000 -1.0000000  0.0000000 )
                  ( -1.0000000  0.0000000  0.0000000 )
                  (  0.0000000  0.0000000  1.0000000 )


      isym = 14     inv. 180 deg rotation - cart. axis [1,-1,0]  

 cryst.   s(14) = (     0          1          0      )
                  (     1          0          0      )
                  (     0          0          1      )

 cart.    s(14) = (  0.0000000  1.0000000  0.0000000 )
                  (  1.0000000  0.0000000  0.0000000 )
                  (  0.0000000  0.0000000  1.0000000 )


      isym = 15     inv.  90 deg rotation - cart. axis [0,0,-1]  

 cryst.   s(15) = (     0          1          0      )    f =(  0.5000000 )
                  (    -1          0          0      )       ( -0.5000000 )
                  (     0          0         -1      )       (  0.5000000 )

 cart.    s(15) = (  0.0000000 -1.0000000  0.0000000 )    f =(  0.5000000 )
                  (  1.0000000  0.0000000  0.0000000 )       ( -0.5000000 )
                  (  0.0000000  0.0000000 -1.0000000 )       (  0.5000000 )


      isym = 16     inv.  90 deg rotation - cart. axis [0,0,1]   

 cryst.   s(16) = (     0         -1          0      )    f =( -0.5000000 )
                  (     1          0          0      )       (  0.5000000 )
                  (     0          0         -1      )       (  0.5000000 )

 cart.    s(16) = (  0.0000000  1.0000000  0.0000000 )    f =( -0.5000000 )
                  ( -1.0000000  0.0000000  0.0000000 )       (  0.5000000 )
                  (  0.0000000  0.0000000 -1.0000000 )       (  0.5000000 )


     double point group D_4h(4/mmm)
     there are 14 classes and  4 irreducible representations
     the character table:

       E     -E    2C4   -2C4   C2    2C2' 2C2'' i     -i    2S4   -2S4   s_h 
                               -C2   -2C2' -2C2'                         -s_h 
G_6+   2.00 -2.00  1.41 -1.41  0.00  0.00  0.00  2.00 -2.00  1.41 -1.41  0.00
G_7+   2.00 -2.00 -1.41  1.41  0.00  0.00  0.00  2.00 -2.00 -1.41  1.41  0.00
G_6-   2.00 -2.00  1.41 -1.41  0.00  0.00  0.00 -2.00  2.00 -1.41  1.41  0.00
G_7-   2.00 -2.00 -1.41  1.41  0.00  0.00  0.00 -2.00  2.00  1.41 -1.41  0.00

        2s_v  2s_d
       -2s_v -2s_d
G_6+   0.00  0.00
G_7+   0.00  0.00
G_6-   0.00  0.00
G_7-   0.00  0.00

     the symmetry operations in each class and the name of the first element:

     E             1
          identity                                               
     -E           -1
          identity E                                             
     2C4           7    8
           90 deg rotation - cart. axis [0,0,-1]                 
     -2C4         -7   -8
           90 deg rotation - cart. axis [0,0,-1] E               
      C2  -C2      2   -2
          180 deg rotation - cart. axis [0,0,1]                  
      2C2'-2C2'    3   -3    4   -4
          180 deg rotation - cart. axis [0,1,0]                  
     2C2''-2C2'    5   -5   -6    6
          180 deg rotation - cart. axis [1,1,0]                  
     i             9
          inversion                                              
     -i           -9
          inversion E                                            
     2S4          15   16
          inv.  90 deg rotation - cart. axis [0,0,-1]            
     -2S4        -15  -16
          inv.  90 deg rotation - cart. axis [0,0,-1] E          
      s_h -s_h    10  -10
          inv. 180 deg rotation - cart. axis [0,0,1]             
      2s_v-2s_v   11  -11   12  -12
          inv. 180 deg rotation - cart. axis [0,1,0]             
      2s_d-2s_d   13  -13  -14   14
          inv. 180 deg rotation - cart. axis [1,1,0]             

   Cartesian axes

     site n.     atom                  positions (alat units)
         1           Sn  tau(   1) = (   0.0000000   0.0000000   0.0000000  )
         2           Sn  tau(   2) = (   0.5000000   0.5000000   0.5000000  )
         3           I   tau(   3) = (   0.2985210   0.2985210   0.0000000  )
         4           I   tau(   4) = (   0.7014790   0.7014790   0.0000000  )
         5           I   tau(   5) = (   0.7985210   0.2014790   0.5000000  )
         6           I   tau(   6) = (   0.2014790   0.7985210   0.5000000  )

   Crystallographic axes

     site n.     atom                  positions (cryst. coord.)
         1           Sn  tau(   1) = (  0.0000000  0.0000000  0.0000000  )
         2           Sn  tau(   2) = (  0.5000000  0.5000000  0.5000000  )
         3           I   tau(   3) = (  0.2985210  0.2985210  0.0000000  )
         4           I   tau(   4) = (  0.7014790  0.7014790  0.0000000  )
         5           I   tau(   5) = (  0.7985210  0.2014790  0.5000000  )
         6           I   tau(   6) = (  0.2014790  0.7985210  0.5000000  )

     number of k points=    18
                       cart. coord. in units 2pi/alat
        k(    1) = (   0.0833333   0.0833333   0.0833333), wk =   0.0370370
        k(    2) = (   0.0833333   0.0833333   0.2500000), wk =   0.0370370
        k(    3) = (   0.0833333   0.0833333   0.4166667), wk =   0.0370370
        k(    4) = (   0.0833333   0.2500000   0.2500000), wk =   0.0740741
        k(    5) = (   0.0833333   0.2500000   0.4166667), wk =   0.0740741
        k(    6) = (   0.0833333   0.4166667   0.4166667), wk =   0.0740741
        k(    7) = (   0.2500000   0.2500000   0.2500000), wk =   0.0370370
        k(    8) = (   0.2500000   0.2500000   0.4166667), wk =   0.0370370
        k(    9) = (   0.2500000   0.4166667   0.4166667), wk =   0.0740741
        k(   10) = (   0.4166667   0.4166667   0.4166667), wk =   0.0370370
        k(   11) = (   0.0833333   0.2500000   0.0833333), wk =   0.0740741
        k(   12) = (   0.0833333   0.4166667   0.0833333), wk =   0.0740741
        k(   13) = (   0.2500000   0.2500000   0.0833333), wk =   0.0370370
        k(   14) = (   0.2500000   0.4166667   0.0833333), wk =   0.0740741
        k(   15) = (   0.4166667   0.0833333   0.2500000), wk =   0.0740741
        k(   16) = (   0.4166667   0.4166667   0.0833333), wk =   0.0370370
        k(   17) = (   0.2500000   0.4166667   0.2500000), wk =   0.0740741
        k(   18) = (   0.4166667   0.4166667   0.2500000), wk =   0.0370370

                       cryst. coord.
        k(    1) = (   0.0833333   0.0833333   0.0833333), wk =   0.0370370
        k(    2) = (   0.0833333   0.0833333   0.2500000), wk =   0.0370370
        k(    3) = (   0.0833333   0.0833333   0.4166667), wk =   0.0370370
        k(    4) = (   0.0833333   0.2500000   0.2500000), wk =   0.0740741
        k(    5) = (   0.0833333   0.2500000   0.4166667), wk =   0.0740741
        k(    6) = (   0.0833333   0.4166667   0.4166667), wk =   0.0740741
        k(    7) = (   0.2500000   0.2500000   0.2500000), wk =   0.0370370
        k(    8) = (   0.2500000   0.2500000   0.4166667), wk =   0.0370370
        k(    9) = (   0.2500000   0.4166667   0.4166667), wk =   0.0740741
        k(   10) = (   0.4166667   0.4166667   0.4166667), wk =   0.0370370
        k(   11) = (   0.0833333   0.2500000   0.0833333), wk =   0.0740741
        k(   12) = (   0.0833333   0.4166667   0.0833333), wk =   0.0740741
        k(   13) = (   0.2500000   0.2500000   0.0833333), wk =   0.0370370
        k(   14) = (   0.2500000   0.4166667   0.0833333), wk =   0.0740741
        k(   15) = (   0.4166667   0.0833333   0.2500000), wk =   0.0740741
        k(   16) = (   0.4166667   0.4166667   0.0833333), wk =   0.0370370
        k(   17) = (   0.2500000   0.4166667   0.2500000), wk =   0.0740741
        k(   18) = (   0.4166667   0.4166667   0.2500000), wk =   0.0370370

     Dense  grid:  1232753 G-vectors     FFT dimensions: ( 144, 144, 144)

     Smooth grid:   670845 G-vectors     FFT dimensions: ( 120, 120, 120)

     Dynamical RAM for                 wfc:       5.97 MB

     Dynamical RAM for     wfc (w. buffer):     113.45 MB

     Dynamical RAM for           str. fact:       1.57 MB

     Dynamical RAM for           local pot:       0.00 MB

     Dynamical RAM for          nlocal pot:      10.88 MB

     Dynamical RAM for                qrad:      27.93 MB

     Dynamical RAM for          rho,v,vnew:      20.80 MB

     Dynamical RAM for               rhoin:       6.93 MB

     Dynamical RAM for            rho*nmix:      50.16 MB

     Dynamical RAM for           G-vectors:       3.15 MB

     Dynamical RAM for          h,s,v(r/c):       0.25 MB

     Dynamical RAM for          <psi|beta>:       0.35 MB

     Dynamical RAM for                 psi:      23.88 MB

     Dynamical RAM for                hpsi:      23.88 MB

     Dynamical RAM for                spsi:      23.88 MB

     Dynamical RAM for      wfcinit/wfcrot:      10.98 MB

     Dynamical RAM for           addusdens:     481.24 MB

     Dynamical RAM for          addusforce:     491.12 MB

     Dynamical RAM for         addusstress:     492.22 MB

     Estimated static dynamical RAM per process >     244.81 MB

     Estimated max dynamical RAM per process >     737.03 MB

     Estimated total dynamical RAM >      17.27 GB

     Initial potential from superposition of free atoms

     starting charge   55.99771, renormalised to   56.00000
     Starting wfcs are   68 randomized atomic wfcs
     Checking if some PAW data can be deallocated... 
       PAW data deallocated on   16 nodes for type:  1
       PAW data deallocated on    8 nodes for type:  2

     total cpu time spent up to now is       84.2 secs

     Self-consistent Calculation

     iteration #  1     ecut=   140.00 Ry     beta= 0.35
     Davidson diagonalization with overlap
     ethr =  1.00E-02,  avg # of iterations =  1.0

     total cpu time spent up to now is      264.7 secs

     WARNING: integrated charge=    56.00887504, expected=    56.00000000

     total energy              =   -2370.83710649 Ry
     Harris-Foulkes estimate   =   -2371.12005070 Ry
     estimated scf accuracy    <       0.58553002 Ry

     iteration #  2     ecut=   140.00 Ry     beta= 0.35
     Davidson diagonalization with overlap
     ethr =  1.05E-03,  avg # of iterations =  3.1

     total cpu time spent up to now is      488.3 secs

     WARNING: integrated charge=    56.00577419, expected=    56.00000000

     total energy              =   -2370.93873972 Ry
     Harris-Foulkes estimate   =   -2370.94976971 Ry
     estimated scf accuracy    <       0.04061441 Ry

     iteration #  3     ecut=   140.00 Ry     beta= 0.35
     Davidson diagonalization with overlap
     ethr =  7.25E-05,  avg # of iterations =  3.4

     total cpu time spent up to now is      701.6 secs

     WARNING: integrated charge=    56.00222026, expected=    56.00000000

     total energy              =   -2370.94246796 Ry
     Harris-Foulkes estimate   =   -2370.94476825 Ry
     estimated scf accuracy    <       0.00906399 Ry

     iteration #  4     ecut=   140.00 Ry     beta= 0.35
     Davidson diagonalization with overlap
     ethr =  1.62E-05,  avg # of iterations =  3.3

     total cpu time spent up to now is      922.0 secs

     WARNING: integrated charge=    56.00035960, expected=    56.00000000

     total energy              =   -2370.94367822 Ry
     Harris-Foulkes estimate   =   -2370.94363217 Ry
     estimated scf accuracy    <       0.00057676 Ry

     iteration #  5     ecut=   140.00 Ry     beta= 0.35
     Davidson diagonalization with overlap
     ethr =  1.03E-06,  avg # of iterations =  4.8

     total cpu time spent up to now is     1172.1 secs

     WARNING: integrated charge=    56.00035527, expected=    56.00000000

     total energy              =   -2370.94384944 Ry
     Harris-Foulkes estimate   =   -2370.94386736 Ry
     estimated scf accuracy    <       0.00004637 Ry

     iteration #  6     ecut=   140.00 Ry     beta= 0.35
     Davidson diagonalization with overlap
     ethr =  8.28E-08,  avg # of iterations =  3.4

     total cpu time spent up to now is     1391.4 secs

     WARNING: integrated charge=    56.00004021, expected=    56.00000000

     total energy              =   -2370.94386541 Ry
     Harris-Foulkes estimate   =   -2370.94385832 Ry
     estimated scf accuracy    <       0.00000814 Ry

     iteration #  7     ecut=   140.00 Ry     beta= 0.35
     Davidson diagonalization with overlap
     ethr =  1.45E-08,  avg # of iterations =  4.6

     total cpu time spent up to now is     1656.6 secs

     WARNING: integrated charge=    55.99999084, expected=    56.00000000

     total energy              =   -2370.94386675 Ry
     Harris-Foulkes estimate   =   -2370.94386803 Ry
     estimated scf accuracy    <       0.00000413 Ry

     iteration #  8     ecut=   140.00 Ry     beta= 0.35
     Davidson diagonalization with overlap
     ethr =  7.38E-09,  avg # of iterations =  3.6

     total cpu time spent up to now is     1890.1 secs

     End of self-consistent calculation

          k = 0.0833 0.0833 0.0833 ( 83878 PWs)   bands (ev):

   -23.2764 -23.2764 -23.2764 -23.2764 -23.1439 -23.1439 -23.1439 -23.1439
   -22.2567 -22.2567 -22.2567 -22.2567 -22.1414 -22.1414 -22.1414 -22.1414
   -22.0877 -22.0877 -22.0876 -22.0876 -11.6246 -11.6246 -11.5341 -11.5341
   -11.4844 -11.4844 -11.4802 -11.4802  -7.0761  -7.0761  -6.8768  -6.8768
    -2.6889  -2.6889  -2.5273  -2.5273  -2.1411  -2.1411  -2.0299  -2.0299
    -1.8824  -1.8824  -1.5307  -1.5307  -1.2274  -1.2274  -1.1341  -1.1341
    -1.1093  -1.1093  -0.9969  -0.9969  -0.9252  -0.9252  -0.8847  -0.8847

     occupation numbers 
     1.0000   1.0000   1.0000   1.0000   1.0000   1.0000   1.0000   1.0000
     1.0000   1.0000   1.0000   1.0000   1.0000   1.0000   1.0000   1.0000
     1.0000   1.0000   1.0000   1.0000   1.0000   1.0000   1.0000   1.0000
     1.0000   1.0000   1.0000   1.0000   1.0000   1.0000   1.0000   1.0000
     1.0000   1.0000   1.0000   1.0000   1.0000   1.0000   1.0000   1.0000
     1.0000   1.0000   1.0000   1.0000   1.0000   1.0000   1.0000   1.0000
     1.0000   1.0000   1.0000   1.0000   1.0000   1.0000   1.0000   1.0000

          k = 0.0833 0.0833 0.2500 ( 83852 PWs)   bands (ev):

   -23.2764 -23.2764 -23.2764 -23.2764 -23.1439 -23.1439 -23.1439 -23.1439
   -22.2567 -22.2567 -22.2567 -22.2567 -22.1414 -22.1414 -22.1414 -22.1414
   -22.0877 -22.0877 -22.0877 -22.0877 -11.6123 -11.6123 -11.5459 -11.5459
   -11.4844 -11.4844 -11.4800 -11.4800  -7.0560  -7.0560  -6.9105  -6.9105
    -2.6762  -2.6762  -2.5246  -2.5246  -2.1297  -2.1297  -2.0083  -2.0083
    -1.8570  -1.8570  -1.5552  -1.5552  -1.2251  -1.2251  -1.1753  -1.1753
    -1.1327  -1.1327  -1.0248  -1.0248  -0.9355  -0.9355  -0.8981  -0.8981

     occupation numbers 
     1.0000   1.0000   1.0000   1.0000   1.0000   1.0000   1.0000   1.0000
     1.0000   1.0000   1.0000   1.0000   1.0000   1.0000   1.0000   1.0000
     1.0000   1.0000   1.0000   1.0000   1.0000   1.0000   1.0000   1.0000
     1.0000   1.0000   1.0000   1.0000   1.0000   1.0000   1.0000   1.0000
     1.0000   1.0000   1.0000   1.0000   1.0000   1.0000   1.0000   1.0000
     1.0000   1.0000   1.0000   1.0000   1.0000   1.0000   1.0000   1.0000
     1.0000   1.0000   1.0000   1.0000   1.0000   1.0000   1.0000   1.0000

          k = 0.0833 0.0833 0.4167 ( 83878 PWs)   bands (ev):

   -23.2764 -23.2764 -23.2764 -23.2764 -23.1439 -23.1439 -23.1439 -23.1439
   -22.2567 -22.2567 -22.2567 -22.2567 -22.1414 -22.1414 -22.1414 -22.1414
   -22.0877 -22.0877 -22.0877 -22.0877 -11.5911 -11.5911 -11.5665 -11.5665
   -11.4843 -11.4843 -11.4798 -11.4798  -7.0167  -7.0167  -6.9633  -6.9633
    -2.6640  -2.6640  -2.5206  -2.5206  -2.1284  -2.1284  -1.9909  -1.9909
    -1.7905  -1.7905  -1.6121  -1.6121  -1.2239  -1.2239  -1.2041  -1.2041
    -1.1364  -1.1364  -1.0596  -1.0596  -0.9625  -0.9625  -0.9122  -0.9122

     occupation numbers 
     1.0000   1.0000   1.0000   1.0000   1.0000   1.0000   1.0000   1.0000
     1.0000   1.0000   1.0000   1.0000   1.0000   1.0000   1.0000   1.0000
     1.0000   1.0000   1.0000   1.0000   1.0000   1.0000   1.0000   1.0000
     1.0000   1.0000   1.0000   1.0000   1.0000   1.0000   1.0000   1.0000
     1.0000   1.0000   1.0000   1.0000   1.0000   1.0000   1.0000   1.0000
     1.0000   1.0000   1.0000   1.0000   1.0000   1.0000   1.0000   1.0000
     1.0000   1.0000   1.0000   1.0000   1.0000   1.0000   1.0000   1.0000

          k = 0.0833 0.2500 0.2500 ( 83868 PWs)   bands (ev):

   -23.2764 -23.2764 -23.2764 -23.2764 -23.1439 -23.1439 -23.1439 -23.1439
   -22.2567 -22.2567 -22.2567 -22.2567 -22.1414 -22.1414 -22.1414 -22.1414
   -22.0877 -22.0877 -22.0877 -22.0877 -11.5973 -11.5973 -11.5411 -11.5411
   -11.4989 -11.4989 -11.4860 -11.4860  -7.0330  -7.0330  -6.9257  -6.9257
    -2.8234  -2.8234  -2.6494  -2.6494  -2.0996  -2.0996  -1.9422  -1.9422
    -1.8150  -1.8150  -1.5771  -1.5771  -1.2506  -1.2506  -1.1830  -1.1830
    -1.0534  -1.0534  -0.9648  -0.9648  -0.9000  -0.9000  -0.7162  -0.7162

     occupation numbers 
     1.0000   1.0000   1.0000   1.0000   1.0000   1.0000   1.0000   1.0000
     1.0000   1.0000   1.0000   1.0000   1.0000   1.0000   1.0000   1.0000
     1.0000   1.0000   1.0000   1.0000   1.0000   1.0000   1.0000   1.0000
     1.0000   1.0000   1.0000   1.0000   1.0000   1.0000   1.0000   1.0000
     1.0000   1.0000   1.0000   1.0000   1.0000   1.0000   1.0000   1.0000
     1.0000   1.0000   1.0000   1.0000   1.0000   1.0000   1.0000   1.0000
     1.0000   1.0000   1.0000   1.0000   1.0000   1.0000   1.0000   1.0000

          k = 0.0833 0.2500 0.4167 ( 83867 PWs)   bands (ev):

   -23.2764 -23.2764 -23.2764 -23.2764 -23.1439 -23.1439 -23.1439 -23.1439
   -22.2567 -22.2567 -22.2567 -22.2567 -22.1414 -22.1414 -22.1414 -22.1414
   -22.0877 -22.0877 -22.0877 -22.0877 -11.5798 -11.5798 -11.5568 -11.5568
   -11.4988 -11.4988 -11.4870 -11.4870  -7.0062  -7.0062  -6.9656  -6.9656
    -2.8360  -2.8360  -2.6533  -2.6533  -2.0657  -2.0657  -1.8877  -1.8877
    -1.8354  -1.8354  -1.5852  -1.5852  -1.2576  -1.2576  -1.1787  -1.1787
    -1.0688  -1.0688  -0.9808  -0.9808  -0.8933  -0.8933  -0.7154  -0.7154

     occupation numbers 
     1.0000   1.0000   1.0000   1.0000   1.0000   1.0000   1.0000   1.0000
     1.0000   1.0000   1.0000   1.0000   1.0000   1.0000   1.0000   1.0000
     1.0000   1.0000   1.0000   1.0000   1.0000   1.0000   1.0000   1.0000
     1.0000   1.0000   1.0000   1.0000   1.0000   1.0000   1.0000   1.0000
     1.0000   1.0000   1.0000   1.0000   1.0000   1.0000   1.0000   1.0000
     1.0000   1.0000   1.0000   1.0000   1.0000   1.0000   1.0000   1.0000
     1.0000   1.0000   1.0000   1.0000   1.0000   1.0000   1.0000   1.0000

          k = 0.0833 0.4167 0.4167 ( 83868 PWs)   bands (ev):

   -23.2764 -23.2764 -23.2764 -23.2764 -23.1439 -23.1439 -23.1439 -23.1439
   -22.2567 -22.2567 -22.2567 -22.2567 -22.1414 -22.1414 -22.1414 -22.1414
   -22.0877 -22.0877 -22.0877 -22.0877 -11.5610 -11.5610 -11.5478 -11.5478
   -11.5119 -11.5119 -11.5022 -11.5022  -6.9899  -6.9899  -6.9735  -6.9735
    -2.9032  -2.9032  -2.8264  -2.8264  -2.0205  -2.0205  -1.9107  -1.9107
    -1.7866  -1.7866  -1.5871  -1.5871  -1.2450  -1.2450  -1.1984  -1.1984
    -0.9694  -0.9694  -0.9361  -0.9361  -0.7192  -0.7192  -0.5763  -0.5763

     occupation numbers 
     1.0000   1.0000   1.0000   1.0000   1.0000   1.0000   1.0000   1.0000
     1.0000   1.0000   1.0000   1.0000   1.0000   1.0000   1.0000   1.0000
     1.0000   1.0000   1.0000   1.0000   1.0000   1.0000   1.0000   1.0000
     1.0000   1.0000   1.0000   1.0000   1.0000   1.0000   1.0000   1.0000
     1.0000   1.0000   1.0000   1.0000   1.0000   1.0000   1.0000   1.0000
     1.0000   1.0000   1.0000   1.0000   1.0000   1.0000   1.0000   1.0000
     1.0000   1.0000   1.0000   1.0000   1.0000   1.0000   1.0000   1.0000

          k = 0.2500 0.2500 0.2500 ( 83902 PWs)   bands (ev):

   -23.2764 -23.2764 -23.2764 -23.2764 -23.1439 -23.1439 -23.1439 -23.1439
   -22.2567 -22.2567 -22.2567 -22.2567 -22.1414 -22.1414 -22.1414 -22.1414
   -22.0877 -22.0877 -22.0877 -22.0877 -11.5888 -11.5888 -11.5410 -11.5410
   -11.5080 -11.5080 -11.4849 -11.4849  -7.0230  -7.0230  -6.9424  -6.9424
    -2.8817  -2.8817  -2.5366  -2.5366  -2.0970  -2.0970  -1.9278  -1.9278
    -1.8738  -1.8738  -1.6047  -1.6047  -1.2968  -1.2968  -1.2292  -1.2292
    -1.1225  -1.1225  -0.9344  -0.9344  -0.8793  -0.8793  -0.5895  -0.5895

     occupation numbers 
     1.0000   1.0000   1.0000   1.0000   1.0000   1.0000   1.0000   1.0000
     1.0000   1.0000   1.0000   1.0000   1.0000   1.0000   1.0000   1.0000
     1.0000   1.0000   1.0000   1.0000   1.0000   1.0000   1.0000   1.0000
     1.0000   1.0000   1.0000   1.0000   1.0000   1.0000   1.0000   1.0000
     1.0000   1.0000   1.0000   1.0000   1.0000   1.0000   1.0000   1.0000
     1.0000   1.0000   1.0000   1.0000   1.0000   1.0000   1.0000   1.0000
     1.0000   1.0000   1.0000   1.0000   1.0000   1.0000   1.0000   1.0000

          k = 0.2500 0.2500 0.4167 ( 83897 PWs)   bands (ev):

   -23.2764 -23.2764 -23.2764 -23.2764 -23.1439 -23.1439 -23.1439 -23.1439
   -22.2567 -22.2567 -22.2567 -22.2567 -22.1414 -22.1414 -22.1414 -22.1414
   -22.0877 -22.0877 -22.0877 -22.0877 -11.5776 -11.5776 -11.5482 -11.5482
   -11.5111 -11.5111 -11.4847 -11.4847  -7.0071  -7.0071  -6.9716  -6.9716
    -2.8996  -2.8996  -2.5219  -2.5219  -2.1177  -2.1177  -1.8885  -1.8885
    -1.8745  -1.8745  -1.5841  -1.5841  -1.3092  -1.3092  -1.2074  -1.2074
    -1.1220  -1.1220  -0.9287  -0.9287  -0.8690  -0.8690  -0.5791  -0.5791

     occupation numbers 
     1.0000   1.0000   1.0000   1.0000   1.0000   1.0000   1.0000   1.0000
     1.0000   1.0000   1.0000   1.0000   1.0000   1.0000   1.0000   1.0000
     1.0000   1.0000   1.0000   1.0000   1.0000   1.0000   1.0000   1.0000
     1.0000   1.0000   1.0000   1.0000   1.0000   1.0000   1.0000   1.0000
     1.0000   1.0000   1.0000   1.0000   1.0000   1.0000   1.0000   1.0000
     1.0000   1.0000   1.0000   1.0000   1.0000   1.0000   1.0000   1.0000
     1.0000   1.0000   1.0000   1.0000   1.0000   1.0000   1.0000   1.0000

          k = 0.2500 0.4167 0.4167 ( 83881 PWs)   bands (ev):

   -23.2764 -23.2764 -23.2764 -23.2764 -23.1439 -23.1439 -23.1439 -23.1439
   -22.2567 -22.2567 -22.2567 -22.2567 -22.1414 -22.1414 -22.1414 -22.1414
   -22.0877 -22.0877 -22.0877 -22.0877 -11.5680 -11.5680 -11.5537 -11.5537
   -11.5064 -11.5064 -11.4926 -11.4926  -7.0006  -7.0006  -6.9852  -6.9852
    -2.8250  -2.8250  -2.6484  -2.6484  -2.0805  -2.0805  -1.9412  -1.9412
    -1.8238  -1.8238  -1.5901  -1.5901  -1.2936  -1.2936  -1.2369  -1.2369
    -1.0306  -1.0306  -0.8992  -0.8992  -0.8329  -0.8329  -0.7231  -0.7231

     occupation numbers 
     1.0000   1.0000   1.0000   1.0000   1.0000   1.0000   1.0000   1.0000
     1.0000   1.0000   1.0000   1.0000   1.0000   1.0000   1.0000   1.0000
     1.0000   1.0000   1.0000   1.0000   1.0000   1.0000   1.0000   1.0000
     1.0000   1.0000   1.0000   1.0000   1.0000   1.0000   1.0000   1.0000
     1.0000   1.0000   1.0000   1.0000   1.0000   1.0000   1.0000   1.0000
     1.0000   1.0000   1.0000   1.0000   1.0000   1.0000   1.0000   1.0000
     1.0000   1.0000   1.0000   1.0000   1.0000   1.0000   1.0000   1.0000

          k = 0.4167 0.4167 0.4167 ( 83942 PWs)   bands (ev):

   -23.2764 -23.2764 -23.2764 -23.2764 -23.1439 -23.1439 -23.1439 -23.1439
   -22.2567 -22.2567 -22.2567 -22.2567 -22.1414 -22.1414 -22.1414 -22.1414
   -22.0877 -22.0877 -22.0877 -22.0877 -11.5697 -11.5697 -11.5640 -11.5640
   -11.4954 -11.4954 -11.4897 -11.4897  -7.0074  -7.0074  -7.0007  -7.0007
    -2.6457  -2.6457  -2.5234  -2.5234  -2.1163  -2.1163  -1.9828  -1.9828
    -1.8684  -1.8684  -1.6653  -1.6653  -1.3337  -1.3337  -1.2822  -1.2822
    -1.0946  -1.0946  -1.0123  -1.0123  -0.8113  -0.8113  -0.7965  -0.7965

     occupation numbers 
     1.0000   1.0000   1.0000   1.0000   1.0000   1.0000   1.0000   1.0000
     1.0000   1.0000   1.0000   1.0000   1.0000   1.0000   1.0000   1.0000
     1.0000   1.0000   1.0000   1.0000   1.0000   1.0000   1.0000   1.0000
     1.0000   1.0000   1.0000   1.0000   1.0000   1.0000   1.0000   1.0000
     1.0000   1.0000   1.0000   1.0000   1.0000   1.0000   1.0000   1.0000
     1.0000   1.0000   1.0000   1.0000   1.0000   1.0000   1.0000   1.0000
     1.0000   1.0000   1.0000   1.0000   1.0000   1.0000   1.0000   1.0000

          k = 0.0833 0.2500 0.0833 ( 83852 PWs)   bands (ev):

   -23.2764 -23.2764 -23.2764 -23.2764 -23.1439 -23.1439 -23.1439 -23.1439
   -22.2567 -22.2567 -22.2567 -22.2567 -22.1414 -22.1414 -22.1414 -22.1414
   -22.0877 -22.0877 -22.0877 -22.0877 -11.6079 -11.6079 -11.5327 -11.5327
   -11.4984 -11.4984 -11.4852 -11.4852  -7.0460  -7.0460  -6.8995  -6.8995
    -2.8079  -2.8079  -2.6444  -2.6444  -2.1568  -2.1568  -1.9724  -1.9724
    -1.8033  -1.8033  -1.5559  -1.5559  -1.2437  -1.2437  -1.1871  -1.1871
    -1.0397  -1.0397  -0.9570  -0.9570  -0.9026  -0.9026  -0.7160  -0.7160

     occupation numbers 
     1.0000   1.0000   1.0000   1.0000   1.0000   1.0000   1.0000   1.0000
     1.0000   1.0000   1.0000   1.0000   1.0000   1.0000   1.0000   1.0000
     1.0000   1.0000   1.0000   1.0000   1.0000   1.0000   1.0000   1.0000
     1.0000   1.0000   1.0000   1.0000   1.0000   1.0000   1.0000   1.0000
     1.0000   1.0000   1.0000   1.0000   1.0000   1.0000   1.0000   1.0000
     1.0000   1.0000   1.0000   1.0000   1.0000   1.0000   1.0000   1.0000
     1.0000   1.0000   1.0000   1.0000   1.0000   1.0000   1.0000   1.0000

          k = 0.0833 0.4167 0.0833 ( 83878 PWs)   bands (ev):

   -23.2764 -23.2764 -23.2764 -23.2764 -23.1439 -23.1439 -23.1439 -23.1439
   -22.2567 -22.2567 -22.2567 -22.2567 -22.1414 -22.1414 -22.1414 -22.1414
   -22.0877 -22.0877 -22.0877 -22.0877 -11.5790 -11.5790 -11.5476 -11.5476
   -11.5038 -11.5038 -11.4949 -11.4949  -6.9961  -6.9961  -6.9422  -6.9422
    -2.8606  -2.8606  -2.7937  -2.7937  -2.1016  -2.1016  -2.0138  -2.0138
    -1.7067  -1.7067  -1.6068  -1.6068  -1.2697  -1.2697  -1.2454  -1.2454
    -0.9979  -0.9979  -0.9494  -0.9494  -0.7253  -0.7253  -0.5973  -0.5973

     occupation numbers 
     1.0000   1.0000   1.0000   1.0000   1.0000   1.0000   1.0000   1.0000
     1.0000   1.0000   1.0000   1.0000   1.0000   1.0000   1.0000   1.0000
     1.0000   1.0000   1.0000   1.0000   1.0000   1.0000   1.0000   1.0000
     1.0000   1.0000   1.0000   1.0000   1.0000   1.0000   1.0000   1.0000
     1.0000   1.0000   1.0000   1.0000   1.0000   1.0000   1.0000   1.0000
     1.0000   1.0000   1.0000   1.0000   1.0000   1.0000   1.0000   1.0000
     1.0000   1.0000   1.0000   1.0000   1.0000   1.0000   1.0000   1.0000

          k = 0.2500 0.2500 0.0833 ( 83868 PWs)   bands (ev):

   -23.2764 -23.2764 -23.2764 -23.2764 -23.1439 -23.1439 -23.1439 -23.1439
   -22.2567 -22.2567 -22.2567 -22.2567 -22.1414 -22.1414 -22.1414 -22.1414
   -22.0877 -22.0877 -22.0877 -22.0877 -11.5969 -11.5969 -11.5374 -11.5374
   -11.5046 -11.5046 -11.4851 -11.4851  -7.0302  -7.0302  -6.9218  -6.9218
    -2.8601  -2.8601  -2.5527  -2.5527  -2.0862  -2.0862  -1.9811  -1.9811
    -1.8700  -1.8700  -1.5877  -1.5877  -1.2961  -1.2961  -1.2505  -1.2505
    -1.1226  -1.1226  -0.9337  -0.9337  -0.8987  -0.8987  -0.5988  -0.5988

     occupation numbers 
     1.0000   1.0000   1.0000   1.0000   1.0000   1.0000   1.0000   1.0000
     1.0000   1.0000   1.0000   1.0000   1.0000   1.0000   1.0000   1.0000
     1.0000   1.0000   1.0000   1.0000   1.0000   1.0000   1.0000   1.0000
     1.0000   1.0000   1.0000   1.0000   1.0000   1.0000   1.0000   1.0000
     1.0000   1.0000   1.0000   1.0000   1.0000   1.0000   1.0000   1.0000
     1.0000   1.0000   1.0000   1.0000   1.0000   1.0000   1.0000   1.0000
     1.0000   1.0000   1.0000   1.0000   1.0000   1.0000   1.0000   1.0000

          k = 0.2500 0.4167 0.0833 ( 83867 PWs)   bands (ev):

   -23.2764 -23.2764 -23.2764 -23.2764 -23.1439 -23.1439 -23.1439 -23.1439
   -22.2567 -22.2567 -22.2567 -22.2567 -22.1414 -22.1414 -22.1414 -22.1414
   -22.0877 -22.0877 -22.0877 -22.0877 -11.5776 -11.5776 -11.5550 -11.5550
   -11.5000 -11.5000 -11.4911 -11.4911  -6.9993  -6.9993  -6.9592  -6.9592
    -2.7910  -2.7910  -2.6405  -2.6405  -2.0661  -2.0661  -2.0080  -2.0080
    -1.7679  -1.7679  -1.6414  -1.6414  -1.3504  -1.3504  -1.3226  -1.3226
    -1.0347  -1.0347  -0.9332  -0.9332  -0.8587  -0.8587  -0.7091  -0.7091

     occupation numbers 
     1.0000   1.0000   1.0000   1.0000   1.0000   1.0000   1.0000   1.0000
     1.0000   1.0000   1.0000   1.0000   1.0000   1.0000   1.0000   1.0000
     1.0000   1.0000   1.0000   1.0000   1.0000   1.0000   1.0000   1.0000
     1.0000   1.0000   1.0000   1.0000   1.0000   1.0000   1.0000   1.0000
     1.0000   1.0000   1.0000   1.0000   1.0000   1.0000   1.0000   1.0000
     1.0000   1.0000   1.0000   1.0000   1.0000   1.0000   1.0000   1.0000
     1.0000   1.0000   1.0000   1.0000   1.0000   1.0000   1.0000   1.0000

          k = 0.4167 0.0833 0.2500 ( 83867 PWs)   bands (ev):

   -23.2764 -23.2764 -23.2764 -23.2764 -23.1439 -23.1439 -23.1439 -23.1439
   -22.2567 -22.2567 -22.2567 -22.2567 -22.1414 -22.1414 -22.1414 -22.1414
   -22.0877 -22.0877 -22.0877 -22.0877 -11.5718 -11.5718 -11.5462 -11.5462
   -11.5081 -11.5081 -11.4981 -11.4981  -6.9953  -6.9953  -6.9555  -6.9555
    -2.8840  -2.8840  -2.8112  -2.8112  -2.0493  -2.0493  -1.9612  -1.9612
    -1.7566  -1.7566  -1.5941  -1.5941  -1.2604  -1.2604  -1.2259  -1.2259
    -0.9994  -0.9994  -0.9279  -0.9279  -0.7260  -0.7260  -0.5897  -0.5897

     occupation numbers 
     1.0000   1.0000   1.0000   1.0000   1.0000   1.0000   1.0000   1.0000
     1.0000   1.0000   1.0000   1.0000   1.0000   1.0000   1.0000   1.0000
     1.0000   1.0000   1.0000   1.0000   1.0000   1.0000   1.0000   1.0000
     1.0000   1.0000   1.0000   1.0000   1.0000   1.0000   1.0000   1.0000
     1.0000   1.0000   1.0000   1.0000   1.0000   1.0000   1.0000   1.0000
     1.0000   1.0000   1.0000   1.0000   1.0000   1.0000   1.0000   1.0000
     1.0000   1.0000   1.0000   1.0000   1.0000   1.0000   1.0000   1.0000

          k = 0.4167 0.4167 0.0833 ( 83868 PWs)   bands (ev):

   -23.2764 -23.2764 -23.2764 -23.2764 -23.1439 -23.1439 -23.1439 -23.1439
   -22.2567 -22.2567 -22.2567 -22.2567 -22.1414 -22.1414 -22.1414 -22.1414
   -22.0877 -22.0877 -22.0877 -22.0877 -11.5730 -11.5730 -11.5649 -11.5649
   -11.4939 -11.4939 -11.4901 -11.4901  -6.9968  -6.9968  -6.9818  -6.9818
    -2.6359  -2.6359  -2.5424  -2.5424  -2.0237  -2.0237  -1.9615  -1.9615
    -1.8500  -1.8500  -1.7237  -1.7237  -1.4114  -1.4114  -1.4018  -1.4018
    -1.1225  -1.1225  -1.0280  -1.0280  -0.8413  -0.8413  -0.8171  -0.8171

     occupation numbers 
     1.0000   1.0000   1.0000   1.0000   1.0000   1.0000   1.0000   1.0000
     1.0000   1.0000   1.0000   1.0000   1.0000   1.0000   1.0000   1.0000
     1.0000   1.0000   1.0000   1.0000   1.0000   1.0000   1.0000   1.0000
     1.0000   1.0000   1.0000   1.0000   1.0000   1.0000   1.0000   1.0000
     1.0000   1.0000   1.0000   1.0000   1.0000   1.0000   1.0000   1.0000
     1.0000   1.0000   1.0000   1.0000   1.0000   1.0000   1.0000   1.0000
     1.0000   1.0000   1.0000   1.0000   1.0000   1.0000   1.0000   1.0000

          k = 0.2500 0.4167 0.2500 ( 83897 PWs)   bands (ev):

   -23.2764 -23.2764 -23.2764 -23.2764 -23.1439 -23.1439 -23.1439 -23.1439
   -22.2567 -22.2567 -22.2567 -22.2567 -22.1414 -22.1414 -22.1414 -22.1414
   -22.0877 -22.0877 -22.0877 -22.0877 -11.5732 -11.5732 -11.5541 -11.5541
   -11.5031 -11.5031 -11.4918 -11.4918  -7.0013  -7.0013  -6.9709  -6.9709
    -2.8096  -2.8096  -2.6447  -2.6447  -2.0670  -2.0670  -1.9628  -1.9628
    -1.8078  -1.8078  -1.6262  -1.6262  -1.3206  -1.3206  -1.2845  -1.2845
    -1.0286  -1.0286  -0.9169  -0.9169  -0.8468  -0.8468  -0.7147  -0.7147

     occupation numbers 
     1.0000   1.0000   1.0000   1.0000   1.0000   1.0000   1.0000   1.0000
     1.0000   1.0000   1.0000   1.0000   1.0000   1.0000   1.0000   1.0000
     1.0000   1.0000   1.0000   1.0000   1.0000   1.0000   1.0000   1.0000
     1.0000   1.0000   1.0000   1.0000   1.0000   1.0000   1.0000   1.0000
     1.0000   1.0000   1.0000   1.0000   1.0000   1.0000   1.0000   1.0000
     1.0000   1.0000   1.0000   1.0000   1.0000   1.0000   1.0000   1.0000
     1.0000   1.0000   1.0000   1.0000   1.0000   1.0000   1.0000   1.0000

          k = 0.4167 0.4167 0.2500 ( 83881 PWs)   bands (ev):

   -23.2764 -23.2764 -23.2764 -23.2764 -23.1439 -23.1439 -23.1439 -23.1439
   -22.2567 -22.2567 -22.2567 -22.2567 -22.1414 -22.1414 -22.1414 -22.1414
   -22.0877 -22.0877 -22.0877 -22.0877 -11.5714 -11.5714 -11.5644 -11.5644
   -11.4946 -11.4946 -11.4899 -11.4899  -7.0025  -7.0025  -6.9909  -6.9909
    -2.6414  -2.6414  -2.5325  -2.5325  -2.0706  -2.0706  -1.9634  -1.9634
    -1.8648  -1.8648  -1.7016  -1.7016  -1.3736  -1.3736  -1.3538  -1.3538
    -1.0996  -1.0996  -1.0097  -1.0097  -0.8271  -0.8271  -0.8104  -0.8104

     occupation numbers 
     1.0000   1.0000   1.0000   1.0000   1.0000   1.0000   1.0000   1.0000
     1.0000   1.0000   1.0000   1.0000   1.0000   1.0000   1.0000   1.0000
     1.0000   1.0000   1.0000   1.0000   1.0000   1.0000   1.0000   1.0000
     1.0000   1.0000   1.0000   1.0000   1.0000   1.0000   1.0000   1.0000
     1.0000   1.0000   1.0000   1.0000   1.0000   1.0000   1.0000   1.0000
     1.0000   1.0000   1.0000   1.0000   1.0000   1.0000   1.0000   1.0000
     1.0000   1.0000   1.0000   1.0000   1.0000   1.0000   1.0000   1.0000

     highest occupied level (ev):    -0.5763

!    total energy              =   -2370.94386761 Ry
     Harris-Foulkes estimate   =   -2370.94386767 Ry
     estimated scf accuracy    <       0.00000024 Ry

     total all-electron energy =    -81634.466073 Ry

     The total energy is the sum of the following terms:

     one-electron contribution =    -248.68811482 Ry
     hartree contribution      =     145.43563904 Ry
     xc contribution           =    -157.08845836 Ry
     ewald contribution        =    -190.25175950 Ry
     one-center paw contrib.   =   -1920.35117396 Ry
      -> PAW hartree energy AE =     107.23848196 Ry
      -> PAW hartree energy PS =    -106.45390480 Ry
      -> PAW xc energy AE      =    -324.23401590 Ry
      -> PAW xc energy PS      =      46.59409383 Ry
      -> total E_H with PAW    =     146.22021620 Ry
      -> total E_XC with PAW   =    -434.72838044 Ry

     convergence has been achieved in   8 iterations

     Forces acting on atoms (cartesian axes, Ry/au):

     atom    1 type  1   force =     0.00000000    0.00000000    0.00000000
     atom    2 type  1   force =     0.00000000    0.00000000   -0.00000000
     atom    3 type  2   force =    -0.01799483   -0.01799483    0.00000000
     atom    4 type  2   force =     0.01799483    0.01799483    0.00000000
     atom    5 type  2   force =    -0.01799483    0.01799483    0.00000000
     atom    6 type  2   force =     0.01799483   -0.01799483    0.00000000
     The non-local contrib.  to forces
     atom    1 type  1   force =     0.00000000    0.00000000    0.00000000
     atom    2 type  1   force =     0.00000000    0.00000000    0.00000000
     atom    3 type  2   force =    -0.04129690   -0.04129690    0.00000000
     atom    4 type  2   force =     0.04129690    0.04129690    0.00000000
     atom    5 type  2   force =    -0.04129690    0.04129690   -0.00000000
     atom    6 type  2   force =     0.04129690   -0.04129690   -0.00000000
     The ionic contribution  to forces
     atom    1 type  1   force =    -0.00000000   -0.00000000   -0.00000000
     atom    2 type  1   force =     0.00000000    0.00000000    0.00000000
     atom    3 type  2   force =     1.38633657    1.38633657    0.00000000
     atom    4 type  2   force =    -1.38633657   -1.38633657    0.00000000
     atom    5 type  2   force =     1.38633657   -1.38633657    0.00000000
     atom    6 type  2   force =    -1.38633657    1.38633657    0.00000000
     The local contribution  to forces
     atom    1 type  1   force =     0.00000000    0.00000000    0.00000000
     atom    2 type  1   force =     0.00000000    0.00000000    0.00000000
     atom    3 type  2   force =    -1.36689563   -1.36689563    0.00000000
     atom    4 type  2   force =     1.36689563    1.36689563    0.00000000
     atom    5 type  2   force =    -1.36689563    1.36689563    0.00000000
     atom    6 type  2   force =     1.36689563   -1.36689563    0.00000000
     The core correction contribution to forces
     atom    1 type  1   force =     0.00000000    0.00000000    0.00000000
     atom    2 type  1   force =     0.00000000    0.00000000    0.00000000
     atom    3 type  2   force =     0.00390489    0.00390489   -0.00000000
     atom    4 type  2   force =    -0.00390489   -0.00390489    0.00000000
     atom    5 type  2   force =     0.00390489   -0.00390489    0.00000000
     atom    6 type  2   force =    -0.00390489    0.00390489   -0.00000000
     The Hubbard contrib.    to forces
     atom    1 type  1   force =     0.00000000    0.00000000    0.00000000
     atom    2 type  1   force =     0.00000000    0.00000000    0.00000000
     atom    3 type  2   force =     0.00000000    0.00000000    0.00000000
     atom    4 type  2   force =     0.00000000    0.00000000    0.00000000
     atom    5 type  2   force =     0.00000000    0.00000000    0.00000000
     atom    6 type  2   force =     0.00000000    0.00000000    0.00000000
     The SCF correction term to forces
     atom    1 type  1   force =     0.00000000   -0.00000000    0.00000000
     atom    2 type  1   force =    -0.00000000    0.00000000    0.00000000
     atom    3 type  2   force =    -0.00004375   -0.00004375   -0.00000000
     atom    4 type  2   force =     0.00004375    0.00004375    0.00000000
     atom    5 type  2   force =    -0.00004375    0.00004375    0.00000000
     atom    6 type  2   force =     0.00004375   -0.00004375    0.00000000

     Total force =     0.050897     Total SCF correction =     0.000124


     Computing stress (Cartesian axis) and pressure

     Message from routine stres:
     noncollinear stress + GGA not implemented

     Writing output data file SnI2.save/
 
     init_run     :     49.13s CPU     78.13s WALL (       1 calls)
     electrons    :   1141.77s CPU   1806.18s WALL (       1 calls)
     forces       :      7.23s CPU      9.99s WALL (       1 calls)

     Called by init_run:
     wfcinit      :     45.03s CPU     72.34s WALL (       1 calls)
     wfcinit:atom :      0.13s CPU      0.15s WALL (      18 calls)
     wfcinit:wfcr :     44.18s CPU     71.05s WALL (      18 calls)
     potinit      :      1.27s CPU      2.06s WALL (       1 calls)
     hinit0       :      0.76s CPU      0.94s WALL (       1 calls)

     Called by electrons:
     c_bands      :    884.61s CPU   1404.05s WALL (       8 calls)
     sum_band     :    234.34s CPU    368.51s WALL (       8 calls)
     v_of_rho     :      2.14s CPU      3.45s WALL (       9 calls)
     v_h          :      0.31s CPU      0.47s WALL (       9 calls)
     v_xc         :      2.18s CPU      3.55s WALL (      10 calls)
     newd         :     14.81s CPU     20.02s WALL (       9 calls)
     PAW_pot      :      2.19s CPU      3.45s WALL (       9 calls)
     mix_rho      :      2.62s CPU      4.26s WALL (       8 calls)

     Called by c_bands:
     init_us_2    :      2.11s CPU      2.77s WALL (     324 calls)
     cegterg      :    850.94s CPU   1368.00s WALL (     144 calls)

     Called by sum_band:
     sum_band:bec :      1.79s CPU      2.42s WALL (     144 calls)
     addusdens    :     14.04s CPU     17.51s WALL (       8 calls)

     Called by *egterg:
     h_psi        :    731.77s CPU   1194.30s WALL (     650 calls)
     s_psi        :      8.20s CPU      8.50s WALL (     650 calls)
     g_psi        :      0.83s CPU      0.90s WALL (     488 calls)
     cdiaghg      :     27.95s CPU     45.45s WALL (     632 calls)
     cegterg:over :     46.39s CPU     69.35s WALL (     488 calls)
     cegterg:upda :     39.98s CPU     57.98s WALL (     488 calls)
     cegterg:last :      7.31s CPU      9.94s WALL (     144 calls)
     cdiaghg:chol :      2.27s CPU      3.30s WALL (     632 calls)
     cdiaghg:inve :      1.48s CPU      2.37s WALL (     632 calls)
     cdiaghg:para :      9.10s CPU     15.10s WALL (    1264 calls)

     Called by h_psi:
     h_psi:pot    :    729.75s CPU   1192.08s WALL (     650 calls)
     h_psi:calbec :     13.07s CPU     15.83s WALL (     650 calls)
     vloc_psi     :    707.99s CPU   1167.20s WALL (     650 calls)
     add_vuspsi   :      8.68s CPU      9.05s WALL (     650 calls)

     General routines
     calbec       :     21.26s CPU     26.68s WALL (     866 calls)
     fft          :      5.92s CPU      9.39s WALL (     198 calls)
     ffts         :      2.07s CPU      3.40s WALL (      68 calls)
     fftw         :    832.30s CPU   1414.62s WALL (  107864 calls)
     interpolate  :      2.75s CPU      4.47s WALL (      36 calls)
 
     Parallel routines
     fft_scatt_xy :     36.92s CPU     39.44s WALL (  108130 calls)
     fft_scatt_yz :    654.31s CPU   1183.95s WALL (  108130 calls)

     PAW routines
     PAW_pot      :      2.19s CPU      3.45s WALL (       9 calls)
     PAW_symme    :      0.12s CPU      0.21s WALL (      17 calls)
 
     PWSCF        :  20m 6.53s CPU  31m49.45s WALL

 
   This run was terminated on:  19:20:17  23Jan2021            

=------------------------------------------------------------------------------=
   JOB DONE.
=------------------------------------------------------------------------------=
