
     Program PWSCF v.6.4.1 starts on 25Jan2021 at 10: 6:45 

     This program is part of the open-source Quantum ESPRESSO suite
     for quantum simulation of materials; please cite
         "P. Giannozzi et al., J. Phys.:Condens. Matter 21 395502 (2009);
         "P. Giannozzi et al., J. Phys.:Condens. Matter 29 465901 (2017);
          URL http://www.quantum-espresso.org", 
     in publications or presentations arising from this work. More details at
     http://www.quantum-espresso.org/quote

     Parallel version (MPI & OpenMP), running on      48 processor cores
     Number of MPI processes:                24
     Threads/MPI process:                     2

     MPI processes distributed on     1 nodes
     R & G space division:  proc/nbgrp/npool/nimage =      24
     Waiting for input...
     Reading input from standard input

     Current dimensions of program PWSCF are:
     Max number of different atomic species (ntypx) = 10
     Max number of k-points (npk) =  40000
     Max angular momentum in pseudopotentials (lmaxx) =  3
               file Cs.rel-pbesol-spn-kjpaw_psl.1.0.0.UPF: wavefunction(s)  5S 6S renormalized
               file I.rel-pbesol-n-kjpaw_psl.1.0.0.UPF: wavefunction(s)  5S renormalized

     Subspace diagonalization in iterative solution of the eigenvalue problem:
     one sub-group per band group will be used
     scalapack distributed-memory algorithm (size of sub-group:  3*  3 procs)

     Found symmetry operation: I + (  0.0000 -0.5000 -0.5000)
     This is a supercell, fractional translations are disabled
 
     Parallelization info
     --------------------
     sticks:   dense  smooth     PW     G-vecs:    dense   smooth      PW
     Min         123      82     21                 5061     2762     377
     Max         124      84     22                 5064     2763     382
     Sum        2965    1993    517               121481    66299    9093
 

     Title: 
     CsIsalt                                                                    


     bravais-lattice index     =            1
     lattice parameter (alat)  =       8.8160  a.u.
     unit-cell volume          =     685.1896 (a.u.)^3
     number of atoms/cell      =            8
     number of atomic types    =            2
     number of electrons       =        64.00
     number of Kohn-Sham states=           64
     kinetic-energy cutoff     =      80.0000  Ry
     charge density cutoff     =     480.0000  Ry
     convergence threshold     =      1.0E-06
     mixing beta               =       0.3500
     number of iterations used =            8  plain     mixing
     Exchange-correlation      = SLA PW PSX PSC ( 1  4 10  8 0 0)
     Non magnetic calculation with spin-orbit


     celldm(1)=   8.815973  celldm(2)=   0.000000  celldm(3)=   0.000000
     celldm(4)=   0.000000  celldm(5)=   0.000000  celldm(6)=   0.000000

     crystal axes: (cart. coord. in units of alat)
               a(1) = (   1.000000   0.000000   0.000000 )  
               a(2) = (   0.000000   1.000000   0.000000 )  
               a(3) = (   0.000000   0.000000   1.000000 )  

     reciprocal axes: (cart. coord. in units 2 pi/alat)
               b(1) = (  1.000000  0.000000  0.000000 )  
               b(2) = (  0.000000  1.000000  0.000000 )  
               b(3) = (  0.000000  0.000000  1.000000 )  


     PseudoPot. # 1 for Cs read from file:
     /marconi_scratch/userexternal/cmalosso/degironcoli/pseudo/Cs.rel-pbesol-spn-kjpaw_psl.1.0.0.UPF
     MD5 check sum: 2adfb289dd462649b099d7edbec69378
     Pseudo is Projector augmented-wave + core cor, Zval =  9.0
     Generated using "atomic" code by A. Dal Corso v.6.4.1
     Shape of augmentation charge: PSQ
     Using radial grid of 1251 points, 15 beta functions with: 
                l(1) =   0
                l(2) =   0
                l(3) =   0
                l(4) =   1
                l(5) =   1
                l(6) =   1
                l(7) =   1
                l(8) =   2
                l(9) =   2
               l(10) =   2
               l(11) =   2
               l(12) =   3
               l(13) =   3
               l(14) =   3
               l(15) =   3
     Q(r) pseudized with 0 coefficients 


     PseudoPot. # 2 for I  read from file:
     /marconi_scratch/userexternal/cmalosso/degironcoli/pseudo/I.rel-pbesol-n-kjpaw_psl.1.0.0.UPF
     MD5 check sum: 4478c427bd443f303eca1937a163b991
     Pseudo is Projector augmented-wave + core cor, Zval =  7.0
     Generated using "atomic" code by A. Dal Corso v.6.3
     Shape of augmentation charge: PSQ
     Using radial grid of 1247 points, 10 beta functions with: 
                l(1) =   0
                l(2) =   0
                l(3) =   1
                l(4) =   1
                l(5) =   1
                l(6) =   1
                l(7) =   2
                l(8) =   2
                l(9) =   2
               l(10) =   2
     Q(r) pseudized with 0 coefficients 


     atomic species   valence    mass     pseudopotential
        Cs             9.00   132.90000     Cs( 1.00)
        I              7.00   126.90000     I ( 1.00)

     48 Sym. Ops., with inversion, found


                                    s                        frac. trans.

      isym =  1     identity                                     

 cryst.   s( 1) = (     1          0          0      )
                  (     0          1          0      )
                  (     0          0          1      )

 cart.    s( 1) = (  1.0000000  0.0000000  0.0000000 )
                  (  0.0000000  1.0000000  0.0000000 )
                  (  0.0000000  0.0000000  1.0000000 )


      isym =  2     180 deg rotation - cart. axis [0,0,1]        

 cryst.   s( 2) = (    -1          0          0      )
                  (     0         -1          0      )
                  (     0          0          1      )

 cart.    s( 2) = ( -1.0000000  0.0000000  0.0000000 )
                  (  0.0000000 -1.0000000  0.0000000 )
                  (  0.0000000  0.0000000  1.0000000 )


      isym =  3     180 deg rotation - cart. axis [0,1,0]        

 cryst.   s( 3) = (    -1          0          0      )
                  (     0          1          0      )
                  (     0          0         -1      )

 cart.    s( 3) = ( -1.0000000  0.0000000  0.0000000 )
                  (  0.0000000  1.0000000  0.0000000 )
                  (  0.0000000  0.0000000 -1.0000000 )


      isym =  4     180 deg rotation - cart. axis [1,0,0]        

 cryst.   s( 4) = (     1          0          0      )
                  (     0         -1          0      )
                  (     0          0         -1      )

 cart.    s( 4) = (  1.0000000  0.0000000  0.0000000 )
                  (  0.0000000 -1.0000000  0.0000000 )
                  (  0.0000000  0.0000000 -1.0000000 )


      isym =  5     180 deg rotation - cart. axis [1,1,0]        

 cryst.   s( 5) = (     0          1          0      )
                  (     1          0          0      )
                  (     0          0         -1      )

 cart.    s( 5) = (  0.0000000  1.0000000  0.0000000 )
                  (  1.0000000  0.0000000  0.0000000 )
                  (  0.0000000  0.0000000 -1.0000000 )


      isym =  6     180 deg rotation - cart. axis [1,-1,0]       

 cryst.   s( 6) = (     0         -1          0      )
                  (    -1          0          0      )
                  (     0          0         -1      )

 cart.    s( 6) = (  0.0000000 -1.0000000  0.0000000 )
                  ( -1.0000000  0.0000000  0.0000000 )
                  (  0.0000000  0.0000000 -1.0000000 )


      isym =  7      90 deg rotation - cart. axis [0,0,-1]       

 cryst.   s( 7) = (     0         -1          0      )
                  (     1          0          0      )
                  (     0          0          1      )

 cart.    s( 7) = (  0.0000000  1.0000000  0.0000000 )
                  ( -1.0000000  0.0000000  0.0000000 )
                  (  0.0000000  0.0000000  1.0000000 )


      isym =  8      90 deg rotation - cart. axis [0,0,1]        

 cryst.   s( 8) = (     0          1          0      )
                  (    -1          0          0      )
                  (     0          0          1      )

 cart.    s( 8) = (  0.0000000 -1.0000000  0.0000000 )
                  (  1.0000000  0.0000000  0.0000000 )
                  (  0.0000000  0.0000000  1.0000000 )


      isym =  9     180 deg rotation - cart. axis [1,0,1]        

 cryst.   s( 9) = (     0          0          1      )
                  (     0         -1          0      )
                  (     1          0          0      )

 cart.    s( 9) = (  0.0000000  0.0000000  1.0000000 )
                  (  0.0000000 -1.0000000  0.0000000 )
                  (  1.0000000  0.0000000  0.0000000 )


      isym = 10     180 deg rotation - cart. axis [-1,0,1]       

 cryst.   s(10) = (     0          0         -1      )
                  (     0         -1          0      )
                  (    -1          0          0      )

 cart.    s(10) = (  0.0000000  0.0000000 -1.0000000 )
                  (  0.0000000 -1.0000000  0.0000000 )
                  ( -1.0000000  0.0000000  0.0000000 )


      isym = 11      90 deg rotation - cart. axis [0,1,0]        

 cryst.   s(11) = (     0          0         -1      )
                  (     0          1          0      )
                  (     1          0          0      )

 cart.    s(11) = (  0.0000000  0.0000000  1.0000000 )
                  (  0.0000000  1.0000000  0.0000000 )
                  ( -1.0000000  0.0000000  0.0000000 )


      isym = 12      90 deg rotation - cart. axis [0,-1,0]       

 cryst.   s(12) = (     0          0          1      )
                  (     0          1          0      )
                  (    -1          0          0      )

 cart.    s(12) = (  0.0000000  0.0000000 -1.0000000 )
                  (  0.0000000  1.0000000  0.0000000 )
                  (  1.0000000  0.0000000  0.0000000 )


      isym = 13     180 deg rotation - cart. axis [0,1,1]        

 cryst.   s(13) = (    -1          0          0      )
                  (     0          0          1      )
                  (     0          1          0      )

 cart.    s(13) = ( -1.0000000  0.0000000  0.0000000 )
                  (  0.0000000  0.0000000  1.0000000 )
                  (  0.0000000  1.0000000  0.0000000 )


      isym = 14     180 deg rotation - cart. axis [0,1,-1]       

 cryst.   s(14) = (    -1          0          0      )
                  (     0          0         -1      )
                  (     0         -1          0      )

 cart.    s(14) = ( -1.0000000  0.0000000  0.0000000 )
                  (  0.0000000  0.0000000 -1.0000000 )
                  (  0.0000000 -1.0000000  0.0000000 )


      isym = 15      90 deg rotation - cart. axis [-1,0,0]       

 cryst.   s(15) = (     1          0          0      )
                  (     0          0         -1      )
                  (     0          1          0      )

 cart.    s(15) = (  1.0000000  0.0000000  0.0000000 )
                  (  0.0000000  0.0000000  1.0000000 )
                  (  0.0000000 -1.0000000  0.0000000 )


      isym = 16      90 deg rotation - cart. axis [1,0,0]        

 cryst.   s(16) = (     1          0          0      )
                  (     0          0          1      )
                  (     0         -1          0      )

 cart.    s(16) = (  1.0000000  0.0000000  0.0000000 )
                  (  0.0000000  0.0000000 -1.0000000 )
                  (  0.0000000  1.0000000  0.0000000 )


      isym = 17     120 deg rotation - cart. axis [-1,-1,-1]     

 cryst.   s(17) = (     0          0          1      )
                  (     1          0          0      )
                  (     0          1          0      )

 cart.    s(17) = (  0.0000000  1.0000000  0.0000000 )
                  (  0.0000000  0.0000000  1.0000000 )
                  (  1.0000000  0.0000000  0.0000000 )


      isym = 18     120 deg rotation - cart. axis [-1,1,1]       

 cryst.   s(18) = (     0          0         -1      )
                  (    -1          0          0      )
                  (     0          1          0      )

 cart.    s(18) = (  0.0000000 -1.0000000  0.0000000 )
                  (  0.0000000  0.0000000  1.0000000 )
                  ( -1.0000000  0.0000000  0.0000000 )


      isym = 19     120 deg rotation - cart. axis [1,1,-1]       

 cryst.   s(19) = (     0          0         -1      )
                  (     1          0          0      )
                  (     0         -1          0      )

 cart.    s(19) = (  0.0000000  1.0000000  0.0000000 )
                  (  0.0000000  0.0000000 -1.0000000 )
                  ( -1.0000000  0.0000000  0.0000000 )


      isym = 20     120 deg rotation - cart. axis [1,-1,1]       

 cryst.   s(20) = (     0          0          1      )
                  (    -1          0          0      )
                  (     0         -1          0      )

 cart.    s(20) = (  0.0000000 -1.0000000  0.0000000 )
                  (  0.0000000  0.0000000 -1.0000000 )
                  (  1.0000000  0.0000000  0.0000000 )


      isym = 21     120 deg rotation - cart. axis [1,1,1]        

 cryst.   s(21) = (     0          1          0      )
                  (     0          0          1      )
                  (     1          0          0      )

 cart.    s(21) = (  0.0000000  0.0000000  1.0000000 )
                  (  1.0000000  0.0000000  0.0000000 )
                  (  0.0000000  1.0000000  0.0000000 )


      isym = 22     120 deg rotation - cart. axis [-1,1,-1]      

 cryst.   s(22) = (     0         -1          0      )
                  (     0          0         -1      )
                  (     1          0          0      )

 cart.    s(22) = (  0.0000000  0.0000000  1.0000000 )
                  ( -1.0000000  0.0000000  0.0000000 )
                  (  0.0000000 -1.0000000  0.0000000 )


      isym = 23     120 deg rotation - cart. axis [1,-1,-1]      

 cryst.   s(23) = (     0         -1          0      )
                  (     0          0          1      )
                  (    -1          0          0      )

 cart.    s(23) = (  0.0000000  0.0000000 -1.0000000 )
                  ( -1.0000000  0.0000000  0.0000000 )
                  (  0.0000000  1.0000000  0.0000000 )


      isym = 24     120 deg rotation - cart. axis [-1,-1,1]      

 cryst.   s(24) = (     0          1          0      )
                  (     0          0         -1      )
                  (    -1          0          0      )

 cart.    s(24) = (  0.0000000  0.0000000 -1.0000000 )
                  (  1.0000000  0.0000000  0.0000000 )
                  (  0.0000000 -1.0000000  0.0000000 )


      isym = 25     inversion                                    

 cryst.   s(25) = (    -1          0          0      )
                  (     0         -1          0      )
                  (     0          0         -1      )

 cart.    s(25) = ( -1.0000000  0.0000000  0.0000000 )
                  (  0.0000000 -1.0000000  0.0000000 )
                  (  0.0000000  0.0000000 -1.0000000 )


      isym = 26     inv. 180 deg rotation - cart. axis [0,0,1]   

 cryst.   s(26) = (     1          0          0      )
                  (     0          1          0      )
                  (     0          0         -1      )

 cart.    s(26) = (  1.0000000  0.0000000  0.0000000 )
                  (  0.0000000  1.0000000  0.0000000 )
                  (  0.0000000  0.0000000 -1.0000000 )


      isym = 27     inv. 180 deg rotation - cart. axis [0,1,0]   

 cryst.   s(27) = (     1          0          0      )
                  (     0         -1          0      )
                  (     0          0          1      )

 cart.    s(27) = (  1.0000000  0.0000000  0.0000000 )
                  (  0.0000000 -1.0000000  0.0000000 )
                  (  0.0000000  0.0000000  1.0000000 )


      isym = 28     inv. 180 deg rotation - cart. axis [1,0,0]   

 cryst.   s(28) = (    -1          0          0      )
                  (     0          1          0      )
                  (     0          0          1      )

 cart.    s(28) = ( -1.0000000  0.0000000  0.0000000 )
                  (  0.0000000  1.0000000  0.0000000 )
                  (  0.0000000  0.0000000  1.0000000 )


      isym = 29     inv. 180 deg rotation - cart. axis [1,1,0]   

 cryst.   s(29) = (     0         -1          0      )
                  (    -1          0          0      )
                  (     0          0          1      )

 cart.    s(29) = (  0.0000000 -1.0000000  0.0000000 )
                  ( -1.0000000  0.0000000  0.0000000 )
                  (  0.0000000  0.0000000  1.0000000 )


      isym = 30     inv. 180 deg rotation - cart. axis [1,-1,0]  

 cryst.   s(30) = (     0          1          0      )
                  (     1          0          0      )
                  (     0          0          1      )

 cart.    s(30) = (  0.0000000  1.0000000  0.0000000 )
                  (  1.0000000  0.0000000  0.0000000 )
                  (  0.0000000  0.0000000  1.0000000 )


      isym = 31     inv.  90 deg rotation - cart. axis [0,0,-1]  

 cryst.   s(31) = (     0          1          0      )
                  (    -1          0          0      )
                  (     0          0         -1      )

 cart.    s(31) = (  0.0000000 -1.0000000  0.0000000 )
                  (  1.0000000  0.0000000  0.0000000 )
                  (  0.0000000  0.0000000 -1.0000000 )


      isym = 32     inv.  90 deg rotation - cart. axis [0,0,1]   

 cryst.   s(32) = (     0         -1          0      )
                  (     1          0          0      )
                  (     0          0         -1      )

 cart.    s(32) = (  0.0000000  1.0000000  0.0000000 )
                  ( -1.0000000  0.0000000  0.0000000 )
                  (  0.0000000  0.0000000 -1.0000000 )


      isym = 33     inv. 180 deg rotation - cart. axis [1,0,1]   

 cryst.   s(33) = (     0          0         -1      )
                  (     0          1          0      )
                  (    -1          0          0      )

 cart.    s(33) = (  0.0000000  0.0000000 -1.0000000 )
                  (  0.0000000  1.0000000  0.0000000 )
                  ( -1.0000000  0.0000000  0.0000000 )


      isym = 34     inv. 180 deg rotation - cart. axis [-1,0,1]  

 cryst.   s(34) = (     0          0          1      )
                  (     0          1          0      )
                  (     1          0          0      )

 cart.    s(34) = (  0.0000000  0.0000000  1.0000000 )
                  (  0.0000000  1.0000000  0.0000000 )
                  (  1.0000000  0.0000000  0.0000000 )


      isym = 35     inv.  90 deg rotation - cart. axis [0,1,0]   

 cryst.   s(35) = (     0          0          1      )
                  (     0         -1          0      )
                  (    -1          0          0      )

 cart.    s(35) = (  0.0000000  0.0000000 -1.0000000 )
                  (  0.0000000 -1.0000000  0.0000000 )
                  (  1.0000000  0.0000000  0.0000000 )


      isym = 36     inv.  90 deg rotation - cart. axis [0,-1,0]  

 cryst.   s(36) = (     0          0         -1      )
                  (     0         -1          0      )
                  (     1          0          0      )

 cart.    s(36) = (  0.0000000  0.0000000  1.0000000 )
                  (  0.0000000 -1.0000000  0.0000000 )
                  ( -1.0000000  0.0000000  0.0000000 )


      isym = 37     inv. 180 deg rotation - cart. axis [0,1,1]   

 cryst.   s(37) = (     1          0          0      )
                  (     0          0         -1      )
                  (     0         -1          0      )

 cart.    s(37) = (  1.0000000  0.0000000  0.0000000 )
                  (  0.0000000  0.0000000 -1.0000000 )
                  (  0.0000000 -1.0000000  0.0000000 )


      isym = 38     inv. 180 deg rotation - cart. axis [0,1,-1]  

 cryst.   s(38) = (     1          0          0      )
                  (     0          0          1      )
                  (     0          1          0      )

 cart.    s(38) = (  1.0000000  0.0000000  0.0000000 )
                  (  0.0000000  0.0000000  1.0000000 )
                  (  0.0000000  1.0000000  0.0000000 )


      isym = 39     inv.  90 deg rotation - cart. axis [-1,0,0]  

 cryst.   s(39) = (    -1          0          0      )
                  (     0          0          1      )
                  (     0         -1          0      )

 cart.    s(39) = ( -1.0000000  0.0000000  0.0000000 )
                  (  0.0000000  0.0000000 -1.0000000 )
                  (  0.0000000  1.0000000  0.0000000 )


      isym = 40     inv.  90 deg rotation - cart. axis [1,0,0]   

 cryst.   s(40) = (    -1          0          0      )
                  (     0          0         -1      )
                  (     0          1          0      )

 cart.    s(40) = ( -1.0000000  0.0000000  0.0000000 )
                  (  0.0000000  0.0000000  1.0000000 )
                  (  0.0000000 -1.0000000  0.0000000 )


      isym = 41     inv. 120 deg rotation - cart. axis [-1,-1,-1]

 cryst.   s(41) = (     0          0         -1      )
                  (    -1          0          0      )
                  (     0         -1          0      )

 cart.    s(41) = (  0.0000000 -1.0000000  0.0000000 )
                  (  0.0000000  0.0000000 -1.0000000 )
                  ( -1.0000000  0.0000000  0.0000000 )


      isym = 42     inv. 120 deg rotation - cart. axis [-1,1,1]  

 cryst.   s(42) = (     0          0          1      )
                  (     1          0          0      )
                  (     0         -1          0      )

 cart.    s(42) = (  0.0000000  1.0000000  0.0000000 )
                  (  0.0000000  0.0000000 -1.0000000 )
                  (  1.0000000  0.0000000  0.0000000 )


      isym = 43     inv. 120 deg rotation - cart. axis [1,1,-1]  

 cryst.   s(43) = (     0          0          1      )
                  (    -1          0          0      )
                  (     0          1          0      )

 cart.    s(43) = (  0.0000000 -1.0000000  0.0000000 )
                  (  0.0000000  0.0000000  1.0000000 )
                  (  1.0000000  0.0000000  0.0000000 )


      isym = 44     inv. 120 deg rotation - cart. axis [1,-1,1]  

 cryst.   s(44) = (     0          0         -1      )
                  (     1          0          0      )
                  (     0          1          0      )

 cart.    s(44) = (  0.0000000  1.0000000  0.0000000 )
                  (  0.0000000  0.0000000  1.0000000 )
                  ( -1.0000000  0.0000000  0.0000000 )


      isym = 45     inv. 120 deg rotation - cart. axis [1,1,1]   

 cryst.   s(45) = (     0         -1          0      )
                  (     0          0         -1      )
                  (    -1          0          0      )

 cart.    s(45) = (  0.0000000  0.0000000 -1.0000000 )
                  ( -1.0000000  0.0000000  0.0000000 )
                  (  0.0000000 -1.0000000  0.0000000 )


      isym = 46     inv. 120 deg rotation - cart. axis [-1,1,-1] 

 cryst.   s(46) = (     0          1          0      )
                  (     0          0          1      )
                  (    -1          0          0      )

 cart.    s(46) = (  0.0000000  0.0000000 -1.0000000 )
                  (  1.0000000  0.0000000  0.0000000 )
                  (  0.0000000  1.0000000  0.0000000 )


      isym = 47     inv. 120 deg rotation - cart. axis [1,-1,-1] 

 cryst.   s(47) = (     0          1          0      )
                  (     0          0         -1      )
                  (     1          0          0      )

 cart.    s(47) = (  0.0000000  0.0000000  1.0000000 )
                  (  1.0000000  0.0000000  0.0000000 )
                  (  0.0000000 -1.0000000  0.0000000 )


      isym = 48     inv. 120 deg rotation - cart. axis [-1,-1,1] 

 cryst.   s(48) = (     0         -1          0      )
                  (     0          0          1      )
                  (     1          0          0      )

 cart.    s(48) = (  0.0000000  0.0000000  1.0000000 )
                  ( -1.0000000  0.0000000  0.0000000 )
                  (  0.0000000  1.0000000  0.0000000 )


     double point group O_h (m-3m) 
     there are 16 classes and  6 irreducible representations
     the character table:

       E     -E    8C3   -8C3   3C2  6C4   -6C4   6C2' i     -i    8S6   -8S6 
                               -3C2              -6C2'                        
G_6+   2.00 -2.00  1.00 -1.00  0.00  1.41 -1.41  0.00  2.00 -2.00  1.00 -1.00
G_7+   2.00 -2.00  1.00 -1.00  0.00 -1.41  1.41  0.00  2.00 -2.00  1.00 -1.00
G_8+   4.00 -4.00 -1.00  1.00  0.00  0.00  0.00  0.00  4.00 -4.00 -1.00  1.00
G_6-   2.00 -2.00  1.00 -1.00  0.00  1.41 -1.41  0.00 -2.00  2.00 -1.00  1.00
G_7-   2.00 -2.00  1.00 -1.00  0.00 -1.41  1.41  0.00 -2.00  2.00 -1.00  1.00
G_8-   4.00 -4.00 -1.00  1.00  0.00  0.00  0.00  0.00 -4.00  4.00  1.00 -1.00

        3s_h 6S4   -6S4   6s_d
       -3s_h             -6s_d
G_6+   0.00  1.41 -1.41  0.00
G_7+   0.00 -1.41  1.41  0.00
G_8+   0.00  0.00  0.00  0.00
G_6-   0.00 -1.41  1.41  0.00
G_7-   0.00  1.41 -1.41  0.00
G_8-   0.00  0.00  0.00  0.00

     the symmetry operations in each class and the name of the first element:

     E             1
          identity                                               
     -E           -1
          identity E                                             
     8C3          17   19   20   18   24   21   22   23
          120 deg rotation - cart. axis [-1,-1,-1]               
     -8C3        -17  -19  -20  -18  -24  -21  -22  -23
          120 deg rotation - cart. axis [-1,-1,-1] E             
      3C2 -3C2     2   -2    4   -4    3   -3
          180 deg rotation - cart. axis [0,0,1]                  
     6C4           7    8   15   16   12   11
           90 deg rotation - cart. axis [0,0,-1]                 
     -6C4         -7   -8  -15  -16  -12  -11
           90 deg rotation - cart. axis [0,0,-1] E               
      6C2'-6C2'    5   -5   -6    6   14  -13  -14   13   10   -9  -10    9
          180 deg rotation - cart. axis [1,1,0]                  
     i            25
          inversion                                              
     -i          -25
          inversion E                                            
     8S6          41   43   44   42   48   45   46   47
          inv. 120 deg rotation - cart. axis [-1,-1,-1]          
     -8S6        -41  -43  -44  -42  -48  -45  -46  -47
          inv. 120 deg rotation - cart. axis [-1,-1,-1] E        
      3s_h-3s_h   26  -26   28  -28   27  -27
          inv. 180 deg rotation - cart. axis [0,0,1]             
     6S4          31   32   39   40   36   35
          inv.  90 deg rotation - cart. axis [0,0,-1]            
     -6S4        -31  -32  -39  -40  -36  -35
          inv.  90 deg rotation - cart. axis [0,0,-1] E          
      6s_d-6s_d   29  -29  -30   30   38  -37  -38   37   34  -33  -34   33
          inv. 180 deg rotation - cart. axis [1,1,0]             

   Cartesian axes

     site n.     atom                  positions (alat units)
         1           Cs  tau(   1) = (   0.0000000   0.0000000   0.0000000  )
         2           Cs  tau(   2) = (   0.0000000   0.5000000   0.5000000  )
         3           Cs  tau(   3) = (   0.5000000   0.0000000   0.5000000  )
         4           Cs  tau(   4) = (   0.5000000   0.5000000   0.0000000  )
         5           I   tau(   5) = (   0.5000000   0.0000000   0.0000000  )
         6           I   tau(   6) = (   0.5000000   0.5000000   0.5000000  )
         7           I   tau(   7) = (   0.0000000   0.0000000   0.5000000  )
         8           I   tau(   8) = (   0.0000000   0.5000000   0.0000000  )

   Crystallographic axes

     site n.     atom                  positions (cryst. coord.)
         1           Cs  tau(   1) = (  0.0000000  0.0000000  0.0000000  )
         2           Cs  tau(   2) = (  0.0000000  0.5000000  0.5000000  )
         3           Cs  tau(   3) = (  0.5000000  0.0000000  0.5000000  )
         4           Cs  tau(   4) = (  0.5000000  0.5000000  0.0000000  )
         5           I   tau(   5) = (  0.5000000  0.0000000  0.0000000  )
         6           I   tau(   6) = (  0.5000000  0.5000000  0.5000000  )
         7           I   tau(   7) = (  0.0000000  0.0000000  0.5000000  )
         8           I   tau(   8) = (  0.0000000  0.5000000  0.0000000  )

     number of k points=     1
                       cart. coord. in units 2pi/alat
        k(    1) = (   0.2500000   0.2500000   0.2500000), wk =   1.0000000

                       cryst. coord.
        k(    1) = (   0.2500000   0.2500000   0.2500000), wk =   1.0000000

     Dense  grid:   121481 G-vectors     FFT dimensions: (  64,  64,  64)

     Smooth grid:    66299 G-vectors     FFT dimensions: (  54,  54,  54)

     Dynamical RAM for                 wfc:       0.67 MB

     Dynamical RAM for     wfc (w. buffer):       0.67 MB

     Dynamical RAM for           str. fact:       0.15 MB

     Dynamical RAM for           local pot:       0.00 MB

     Dynamical RAM for          nlocal pot:       2.04 MB

     Dynamical RAM for                qrad:      39.45 MB

     Dynamical RAM for          rho,v,vnew:       2.05 MB

     Dynamical RAM for               rhoin:       0.68 MB

     Dynamical RAM for            rho*nmix:       4.94 MB

     Dynamical RAM for           G-vectors:       0.31 MB

     Dynamical RAM for          h,s,v(r/c):       0.33 MB

     Dynamical RAM for          <psi|beta>:       0.76 MB

     Dynamical RAM for                 psi:       2.69 MB

     Dynamical RAM for                hpsi:       2.69 MB

     Dynamical RAM for                spsi:       2.69 MB

     Dynamical RAM for      wfcinit/wfcrot:       1.25 MB

     Dynamical RAM for           addusdens:     158.08 MB

     Dynamical RAM for          addusforce:     159.88 MB

     Dynamical RAM for         addusstress:     160.09 MB

     Estimated static dynamical RAM per process >      51.29 MB

     Estimated max dynamical RAM per process >     211.37 MB

     Estimated total dynamical RAM >       4.95 GB

     Initial potential from superposition of free atoms

     starting charge   63.84620, renormalised to   64.00000
     Starting wfcs are   72 randomized atomic wfcs
     Checking if some PAW data can be deallocated... 
       PAW data deallocated on   12 nodes for type:  1
       PAW data deallocated on   12 nodes for type:  2

     total cpu time spent up to now is       13.9 secs

     Self-consistent Calculation

     iteration #  1     ecut=    80.00 Ry     beta= 0.35
     Davidson diagonalization with overlap
     ethr =  1.00E-02,  avg # of iterations =  7.0

     Threshold (ethr) on eigenvalues was too large:
     Diagonalizing with lowered threshold

     Davidson diagonalization with overlap
     ethr =  2.01E-04,  avg # of iterations =  5.0

     total cpu time spent up to now is       27.9 secs

     total energy              =   -3131.12269917 Ry
     Harris-Foulkes estimate   =   -3131.15577974 Ry
     estimated scf accuracy    <       0.12624119 Ry

     iteration #  2     ecut=    80.00 Ry     beta= 0.35
     Davidson diagonalization with overlap
     ethr =  1.97E-04,  avg # of iterations =  1.0

     total cpu time spent up to now is       33.3 secs

     total energy              =   -3131.11159548 Ry
     Harris-Foulkes estimate   =   -3131.12626162 Ry
     estimated scf accuracy    <       0.04364169 Ry

     iteration #  3     ecut=    80.00 Ry     beta= 0.35
     Davidson diagonalization with overlap
     ethr =  6.82E-05,  avg # of iterations =  5.0

     total cpu time spent up to now is       40.8 secs

     total energy              =   -3131.13554545 Ry
     Harris-Foulkes estimate   =   -3131.12910720 Ry
     estimated scf accuracy    <       0.00924156 Ry

     iteration #  4     ecut=    80.00 Ry     beta= 0.35
     Davidson diagonalization with overlap
     ethr =  1.44E-05,  avg # of iterations =  3.0

     total cpu time spent up to now is       48.9 secs

     total energy              =   -3131.12252611 Ry
     Harris-Foulkes estimate   =   -3131.13638260 Ry
     estimated scf accuracy    <       0.02109979 Ry

     iteration #  5     ecut=    80.00 Ry     beta= 0.35
     Davidson diagonalization with overlap
     ethr =  1.44E-05,  avg # of iterations =  4.0

     total cpu time spent up to now is       58.1 secs

     total energy              =   -3131.12547702 Ry
     Harris-Foulkes estimate   =   -3131.12587827 Ry
     estimated scf accuracy    <       0.00049648 Ry

     iteration #  6     ecut=    80.00 Ry     beta= 0.35
     Davidson diagonalization with overlap
     ethr =  7.76E-07,  avg # of iterations =  5.0

     total cpu time spent up to now is       66.5 secs

     total energy              =   -3131.12580641 Ry
     Harris-Foulkes estimate   =   -3131.12588168 Ry
     estimated scf accuracy    <       0.00033030 Ry

     iteration #  7     ecut=    80.00 Ry     beta= 0.35
     Davidson diagonalization with overlap
     ethr =  5.16E-07,  avg # of iterations =  1.0

     total cpu time spent up to now is       72.4 secs

     total energy              =   -3131.12575651 Ry
     Harris-Foulkes estimate   =   -3131.12582140 Ry
     estimated scf accuracy    <       0.00014668 Ry

     iteration #  8     ecut=    80.00 Ry     beta= 0.35
     Davidson diagonalization with overlap
     ethr =  2.29E-07,  avg # of iterations =  6.0

     total cpu time spent up to now is       82.5 secs

     total energy              =   -3131.12574330 Ry
     Harris-Foulkes estimate   =   -3131.12581945 Ry
     estimated scf accuracy    <       0.00027232 Ry

     iteration #  9     ecut=    80.00 Ry     beta= 0.35
     Davidson diagonalization with overlap
     ethr =  2.29E-07,  avg # of iterations =  7.0

     total cpu time spent up to now is       88.8 secs

     total energy              =   -3131.12575659 Ry
     Harris-Foulkes estimate   =   -3131.12576377 Ry
     estimated scf accuracy    <       0.00004359 Ry

     iteration # 10     ecut=    80.00 Ry     beta= 0.35
     Davidson diagonalization with overlap
     ethr =  6.81E-08,  avg # of iterations =  7.0

     total cpu time spent up to now is       95.3 secs

     total energy              =   -3131.12576901 Ry
     Harris-Foulkes estimate   =   -3131.12576933 Ry
     estimated scf accuracy    <       0.00000154 Ry

     iteration # 11     ecut=    80.00 Ry     beta= 0.35
     Davidson diagonalization with overlap
     ethr =  2.41E-09,  avg # of iterations =  8.0

     total cpu time spent up to now is      104.1 secs

     total energy              =   -3131.12577187 Ry
     Harris-Foulkes estimate   =   -3131.12577292 Ry
     estimated scf accuracy    <       0.00000385 Ry

     iteration # 12     ecut=    80.00 Ry     beta= 0.35
     Davidson diagonalization with overlap
     ethr =  2.41E-09,  avg # of iterations =  1.0

     total cpu time spent up to now is      110.4 secs

     total energy              =   -3131.12577046 Ry
     Harris-Foulkes estimate   =   -3131.12577192 Ry
     estimated scf accuracy    <       0.00000229 Ry

     iteration # 13     ecut=    80.00 Ry     beta= 0.35
     Davidson diagonalization with overlap
     ethr =  2.41E-09,  avg # of iterations =  5.0

     total cpu time spent up to now is      118.5 secs

     total energy              =   -3131.12577064 Ry
     Harris-Foulkes estimate   =   -3131.12577278 Ry
     estimated scf accuracy    <       0.00000991 Ry

     iteration # 14     ecut=    80.00 Ry     beta= 0.35
     Davidson diagonalization with overlap
     ethr =  2.41E-09,  avg # of iterations =  7.0

     total cpu time spent up to now is      124.8 secs

     total energy              =   -3131.12577082 Ry
     Harris-Foulkes estimate   =   -3131.12577111 Ry
     estimated scf accuracy    <       0.00000218 Ry

     iteration # 15     ecut=    80.00 Ry     beta= 0.35
     Davidson diagonalization with overlap
     ethr =  2.41E-09,  avg # of iterations =  1.0

     total cpu time spent up to now is      130.8 secs

     total energy              =   -3131.12577057 Ry
     Harris-Foulkes estimate   =   -3131.12577086 Ry
     estimated scf accuracy    <       0.00000147 Ry

     iteration # 16     ecut=    80.00 Ry     beta= 0.35
     Davidson diagonalization with overlap
     ethr =  2.30E-09,  avg # of iterations =  6.0

     total cpu time spent up to now is      137.3 secs

     End of self-consistent calculation

          k = 0.2500 0.2500 0.2500 (  8279 PWs)   bands (ev):

    -0.7393  -0.7393   1.9455   1.9455   1.9456   1.9456   1.9456   1.9456
     7.1615   7.1615   7.1615   7.1615   7.1618   7.1618   9.8867   9.8867
    11.9888  11.9888  11.9888  11.9888  11.9888  11.9888  13.8805  13.8805
    13.8806  13.8806  13.8806  13.8806  15.6402  15.6402  16.5088  16.5088
    16.5088  16.5088  16.5090  16.5090  16.7735  16.7735  21.4587  21.4587
    22.1141  22.1141  22.9715  22.9715  24.3923  24.3923  24.9492  24.9492
    24.9493  24.9493  24.9493  24.9493  25.4392  25.4392  25.4393  25.4393
    25.4393  25.4393  27.1111  27.1111  27.1111  27.1111  27.1111  27.1111

     occupation numbers 
     1.0000   1.0000   1.0000   1.0000   1.0000   1.0000   1.0000   1.0000
     1.0000   1.0000   1.0000   1.0000   1.0000   1.0000   1.0000   1.0000
     1.0000   1.0000   1.0000   1.0000   1.0000   1.0000   1.0000   1.0000
     1.0000   1.0000   1.0000   1.0000   1.0000   1.0000   1.0000   1.0000
     1.0000   1.0000   1.0000   1.0000   1.0000   1.0000   1.0000   1.0000
     1.0000   1.0000   1.0000   1.0000   1.0000   1.0000   1.0000   1.0000
     1.0000   1.0000   1.0000   1.0000   1.0000   1.0000   1.0000   1.0000
     1.0000   1.0000   1.0000   1.0000   1.0000   1.0000   1.0000   1.0000

     highest occupied level (ev):    27.1111

!    total energy              =   -3131.12577044 Ry
     Harris-Foulkes estimate   =   -3131.12577073 Ry
     estimated scf accuracy    <       0.00000031 Ry

     total all-electron energy =   -119218.181898 Ry

     The total energy is the sum of the following terms:

     one-electron contribution =     153.68036492 Ry
     hartree contribution      =       5.40437732 Ry
     xc contribution           =    -157.39069279 Ry
     ewald contribution        =    -332.73169529 Ry
     one-center paw contrib.   =   -2800.08812461 Ry
      -> PAW hartree energy AE =      42.88267407 Ry
      -> PAW hartree energy PS =     -42.77009790 Ry
      -> PAW xc energy AE      =    -381.07841686 Ry
      -> PAW xc energy PS      =      22.83727460 Ry
      -> total E_H with PAW    =       5.51695350 Ry
      -> total E_XC with PAW   =    -515.63183505 Ry

     convergence has been achieved in  16 iterations

     Forces acting on atoms (cartesian axes, Ry/au):

     atom    1 type  1   force =     0.00000000    0.00000000    0.00000000
     atom    2 type  1   force =     0.00000000    0.00000000    0.00000000
     atom    3 type  1   force =     0.00000000    0.00000000    0.00000000
     atom    4 type  1   force =     0.00000000    0.00000000    0.00000000
     atom    5 type  2   force =     0.00000000    0.00000000    0.00000000
     atom    6 type  2   force =     0.00000000    0.00000000    0.00000000
     atom    7 type  2   force =     0.00000000    0.00000000    0.00000000
     atom    8 type  2   force =     0.00000000    0.00000000    0.00000000
     The non-local contrib.  to forces
     atom    1 type  1   force =     0.00000000    0.00000000    0.00000000
     atom    2 type  1   force =     0.00000000    0.00000000    0.00000000
     atom    3 type  1   force =     0.00000000    0.00000000   -0.00000000
     atom    4 type  1   force =     0.00000000    0.00000000    0.00000000
     atom    5 type  2   force =     0.00000000    0.00000000    0.00000000
     atom    6 type  2   force =     0.00000000    0.00000000    0.00000000
     atom    7 type  2   force =     0.00000000    0.00000000    0.00000000
     atom    8 type  2   force =     0.00000000    0.00000000    0.00000000
     The ionic contribution  to forces
     atom    1 type  1   force =    -0.00000000   -0.00000000   -0.00000000
     atom    2 type  1   force =    -0.00000000    0.00000000    0.00000000
     atom    3 type  1   force =     0.00000000   -0.00000000    0.00000000
     atom    4 type  1   force =     0.00000000    0.00000000   -0.00000000
     atom    5 type  2   force =     0.00000000   -0.00000000   -0.00000000
     atom    6 type  2   force =     0.00000000    0.00000000    0.00000000
     atom    7 type  2   force =    -0.00000000   -0.00000000    0.00000000
     atom    8 type  2   force =    -0.00000000    0.00000000   -0.00000000
     The local contribution  to forces
     atom    1 type  1   force =    -0.00000000   -0.00000000   -0.00000000
     atom    2 type  1   force =    -0.00000000    0.00000000    0.00000000
     atom    3 type  1   force =     0.00000000   -0.00000000    0.00000000
     atom    4 type  1   force =     0.00000000    0.00000000   -0.00000000
     atom    5 type  2   force =     0.00000000   -0.00000000    0.00000000
     atom    6 type  2   force =     0.00000000    0.00000000    0.00000000
     atom    7 type  2   force =    -0.00000000   -0.00000000    0.00000000
     atom    8 type  2   force =    -0.00000000    0.00000000    0.00000000
     The core correction contribution to forces
     atom    1 type  1   force =    -0.00000000   -0.00000000    0.00000000
     atom    2 type  1   force =    -0.00000000   -0.00000000    0.00000000
     atom    3 type  1   force =    -0.00000000    0.00000000    0.00000000
     atom    4 type  1   force =    -0.00000000   -0.00000000    0.00000000
     atom    5 type  2   force =    -0.00000000   -0.00000000    0.00000000
     atom    6 type  2   force =    -0.00000000   -0.00000000    0.00000000
     atom    7 type  2   force =    -0.00000000    0.00000000    0.00000000
     atom    8 type  2   force =    -0.00000000   -0.00000000    0.00000000
     The Hubbard contrib.    to forces
     atom    1 type  1   force =     0.00000000    0.00000000    0.00000000
     atom    2 type  1   force =     0.00000000    0.00000000    0.00000000
     atom    3 type  1   force =     0.00000000    0.00000000    0.00000000
     atom    4 type  1   force =     0.00000000    0.00000000    0.00000000
     atom    5 type  2   force =     0.00000000    0.00000000    0.00000000
     atom    6 type  2   force =     0.00000000    0.00000000    0.00000000
     atom    7 type  2   force =     0.00000000    0.00000000    0.00000000
     atom    8 type  2   force =     0.00000000    0.00000000    0.00000000
     The SCF correction term to forces
     atom    1 type  1   force =    -0.00000000    0.00000000   -0.00000000
     atom    2 type  1   force =     0.00000000    0.00000000    0.00000000
     atom    3 type  1   force =     0.00000000    0.00000000   -0.00000000
     atom    4 type  1   force =     0.00000000    0.00000000   -0.00000000
     atom    5 type  2   force =    -0.00000000   -0.00000000    0.00000000
     atom    6 type  2   force =    -0.00000000   -0.00000000   -0.00000000
     atom    7 type  2   force =     0.00000000   -0.00000000    0.00000000
     atom    8 type  2   force =     0.00000000    0.00000000    0.00000000

     Total force =     0.000000     Total SCF correction =     0.000000


     Computing stress (Cartesian axis) and pressure

     Message from routine stres:
     noncollinear stress + GGA not implemented

     Writing output data file CsIsalt.save/
 
     init_run     :      4.53s CPU      6.50s WALL (       1 calls)
     electrons    :     88.55s CPU    123.76s WALL (       1 calls)
     forces       :      1.11s CPU      1.52s WALL (       1 calls)

     Called by init_run:
     wfcinit      :      0.90s CPU      1.43s WALL (       1 calls)
     wfcinit:atom :      0.00s CPU      0.00s WALL (       1 calls)
     wfcinit:wfcr :      0.89s CPU      1.41s WALL (       1 calls)
     potinit      :      1.45s CPU      2.11s WALL (       1 calls)
     hinit0       :      0.70s CPU      1.23s WALL (       1 calls)

     Called by electrons:
     c_bands      :     33.96s CPU     52.63s WALL (      17 calls)
     sum_band     :     13.78s CPU     20.44s WALL (      17 calls)
     v_of_rho     :      0.29s CPU      0.43s WALL (      17 calls)
     v_h          :      0.01s CPU      0.02s WALL (      17 calls)
     v_xc         :      0.28s CPU      0.42s WALL (      18 calls)
     newd         :     21.43s CPU     24.80s WALL (      17 calls)
     PAW_pot      :     13.30s CPU     16.59s WALL (      17 calls)
     mix_rho      :      3.43s CPU      4.77s WALL (      17 calls)

     Called by c_bands:
     init_us_2    :      0.11s CPU      0.20s WALL (      35 calls)
     cegterg      :     32.44s CPU     50.64s WALL (      17 calls)

     Called by sum_band:
     sum_band:bec :      0.81s CPU      1.22s WALL (      17 calls)
     addusdens    :      6.42s CPU      8.53s WALL (      17 calls)

     Called by *egterg:
     h_psi        :     17.36s CPU     27.08s WALL (      97 calls)
     s_psi        :      0.83s CPU      1.14s WALL (      97 calls)
     g_psi        :      0.04s CPU      0.04s WALL (      79 calls)
     cdiaghg      :      5.18s CPU      8.21s WALL (      95 calls)
     cegterg:over :      4.47s CPU      7.03s WALL (      79 calls)
     cegterg:upda :      2.90s CPU      4.49s WALL (      79 calls)
     cegterg:last :      0.58s CPU      0.95s WALL (      21 calls)
     cdiaghg:chol :      0.36s CPU      0.47s WALL (      95 calls)
     cdiaghg:inve :      0.18s CPU      0.28s WALL (      95 calls)
     cdiaghg:para :      1.92s CPU      2.96s WALL (     190 calls)

     Called by h_psi:
     h_psi:pot    :     17.28s CPU     27.00s WALL (      97 calls)
     h_psi:calbec :      0.42s CPU      0.63s WALL (      97 calls)
     vloc_psi     :     16.03s CPU     25.24s WALL (      97 calls)
     add_vuspsi   :      0.83s CPU      1.13s WALL (      97 calls)

     General routines
     calbec       :      0.65s CPU      0.93s WALL (     118 calls)
     fft          :      4.29s CPU      7.05s WALL (     375 calls)
     ffts         :      2.84s CPU      4.57s WALL (     136 calls)
     fftw         :     17.42s CPU     27.64s WALL (   16044 calls)
     interpolate  :      2.18s CPU      3.63s WALL (      68 calls)
 
     Parallel routines
     fft_scatt_xy :      0.83s CPU      0.94s WALL (   16555 calls)
     fft_scatt_yz :     20.09s CPU     33.91s WALL (   16555 calls)

     PAW routines
     PAW_pot      :     13.30s CPU     16.59s WALL (      17 calls)
     PAW_symme    :      0.69s CPU      0.96s WALL (      34 calls)
 
     PWSCF        :   1m41.32s CPU   2m19.76s WALL

 
   This run was terminated on:  10: 9: 5  25Jan2021            

=------------------------------------------------------------------------------=
   JOB DONE.
=------------------------------------------------------------------------------=
