
     Program PWSCF v.6.0 (svn rev. 13079) starts on 27Jan2021 at  8:28: 1 

     This program is part of the open-source Quantum ESPRESSO suite
     for quantum simulation of materials; please cite
         "P. Giannozzi et al., J. Phys.:Condens. Matter 21 395502 (2009);
          URL http://www.quantum-espresso.org", 
     in publications or presentations arising from this work. More details at
     http://www.quantum-espresso.org/quote

     Parallel version (MPI & OpenMP), running on      96 processor cores
     Number of MPI processes:                48
     Threads/MPI process:                     2
     R & G space division:  proc/nbgrp/npool/nimage =      48
     Waiting for input...
     Reading input from standard input

     Current dimensions of program PWSCF are:
     Max number of different atomic species (ntypx) = 10
     Max number of k-points (npk) =  40000
     Max angular momentum in pseudopotentials (lmaxx) =  3
               file Cs.rel-pbesol-spn-rrkjus_psl.1.0.0.UPF: wavefunction(s)  5S 6S renormalized
               file Sn.rel-pbesol-dn-rrkjus_psl.1.0.0.UPF: wavefunction(s)  5S 4D 4D renormalized
               file I.rel-pbesol-n-rrkjus_psl.1.0.0.UPF: wavefunction(s)  5S renormalized

     Subspace diagonalization in iterative solution of the eigenvalue problem:
     a serial algorithm will be used


     Parallelization info
     --------------------
     sticks:   dense  smooth     PW     G-vecs:    dense   smooth      PW
     Min         107      86     23                14667    10498    1499
     Max         108      87     24                14680    10509    1512
     Sum        5183    4145   1133               704507   504115   72215


     Title: 
     CsSnI3                                                                     


     bravais-lattice index     =            8
     lattice parameter (alat)  =       9.1317  a.u.
     unit-cell volume          =    6370.5385 (a.u.)^3
     number of atoms/cell      =           20
     number of atomic types    =            3
     number of electrons       =       176.00
     number of Kohn-Sham states=          176
     kinetic-energy cutoff     =      70.0000  Ry
     charge density cutoff     =     350.0000  Ry
     convergence threshold     =      1.0E-06
     mixing beta               =       0.5000
     number of iterations used =            8  plain     mixing
     Exchange-correlation      = PBESOL ( 1  4 10  8 0 0)
     Non magnetic calculation with spin-orbit


     celldm(1)=   9.131705  celldm(2)=   2.227728  celldm(3)=   3.755420
     celldm(4)=   0.000000  celldm(5)=   0.000000  celldm(6)=   0.000000

     crystal axes: (cart. coord. in units of alat)
               a(1) = (   1.000000   0.000000   0.000000 )  
               a(2) = (   0.000000   2.227728   0.000000 )  
               a(3) = (   0.000000   0.000000   3.755420 )  

     reciprocal axes: (cart. coord. in units 2 pi/alat)
               b(1) = (  1.000000  0.000000  0.000000 )  
               b(2) = (  0.000000  0.448888  0.000000 )  
               b(3) = (  0.000000  0.000000  0.266282 )  


     PseudoPot. # 1 for Cs read from file:
     /scratch/cmalosso/degironcoli/pseudo/pseudo-usp/Cs.rel-pbesol-spn-rrkjus_psl.1.0.0.UPF
     MD5 check sum: 846889b67fb1b19751b5b37931589d70
     Pseudo is Ultrasoft + core correction, Zval =  9.0
     Generated using "atomic" code by A. Dal Corso  v.6.4.1
     Using radial grid of 1251 points, 15 beta functions with: 
                l(1) =   0
                l(2) =   0
                l(3) =   0
                l(4) =   1
                l(5) =   1
                l(6) =   1
                l(7) =   1
                l(8) =   2
                l(9) =   2
               l(10) =   2
               l(11) =   2
               l(12) =   3
               l(13) =   3
               l(14) =   3
               l(15) =   3
     Q(r) pseudized with 0 coefficients 


     PseudoPot. # 2 for Sn read from file:
     /scratch/cmalosso/degironcoli/pseudo/pseudo-usp/Sn.rel-pbesol-dn-rrkjus_psl.1.0.0.UPF
     MD5 check sum: c1cf6ea56b96a3656bdf0d1db379e093
     Pseudo is Ultrasoft + core correction, Zval = 14.0
     Generated using "atomic" code by A. Dal Corso  v.6.3
     Using radial grid of 1243 points, 10 beta functions with: 
                l(1) =   0
                l(2) =   0
                l(3) =   1
                l(4) =   1
                l(5) =   1
                l(6) =   1
                l(7) =   2
                l(8) =   2
                l(9) =   2
               l(10) =   2
     Q(r) pseudized with 0 coefficients 


     PseudoPot. # 3 for  I read from file:
     /scratch/cmalosso/degironcoli/pseudo/pseudo-usp/I.rel-pbesol-n-rrkjus_psl.1.0.0.UPF
     MD5 check sum: 0f96c6bfb1b448f280658f96eb466b08
     Pseudo is Ultrasoft + core correction, Zval =  7.0
     Generated using "atomic" code by A. Dal Corso  v.6.3
     Using radial grid of 1247 points, 10 beta functions with: 
                l(1) =   0
                l(2) =   0
                l(3) =   1
                l(4) =   1
                l(5) =   1
                l(6) =   1
                l(7) =   2
                l(8) =   2
                l(9) =   2
               l(10) =   2
     Q(r) pseudized with 0 coefficients 


     atomic species   valence    mass     pseudopotential
        Cs             9.00   132.90000     Cs( 1.00)
        Sn            14.00   118.70000     Sn( 1.00)
        I              7.00   126.90000      I( 1.00)

      4 Sym. Ops., with inversion, found ( 2 have fractional translation)
          (note:  4 additional sym.ops. were found but ignored
           their fractional translations are incommensurate with FFT grid)

                                    s                        frac. trans.

      isym =  1     identity                                     

 cryst.   s( 1) = (     1          0          0      )
                  (     0          1          0      )
                  (     0          0          1      )

 cart.    s( 1) = (  1.0000000  0.0000000  0.0000000 )
                  (  0.0000000  1.0000000  0.0000000 )
                  (  0.0000000  0.0000000  1.0000000 )


      isym =  2     180 deg rotation - cart. axis [1,0,0]        

 cryst.   s( 2) = (     1          0          0      )    f =( -0.5000000 )
                  (     0         -1          0      )       (  0.0000000 )
                  (     0          0         -1      )       (  0.0000000 )

 cart.    s( 2) = (  1.0000000  0.0000000  0.0000000 )    f =( -0.5000000 )
                  (  0.0000000 -1.0000000  0.0000000 )       (  0.0000000 )
                  (  0.0000000  0.0000000 -1.0000000 )       (  0.0000000 )


      isym =  3     inversion                                    

 cryst.   s( 3) = (    -1          0          0      )
                  (     0         -1          0      )
                  (     0          0         -1      )

 cart.    s( 3) = ( -1.0000000  0.0000000  0.0000000 )
                  (  0.0000000 -1.0000000  0.0000000 )
                  (  0.0000000  0.0000000 -1.0000000 )


      isym =  4     inv. 180 deg rotation - cart. axis [1,0,0]   

 cryst.   s( 4) = (    -1          0          0      )    f =(  0.5000000 )
                  (     0          1          0      )       (  0.0000000 )
                  (     0          0          1      )       (  0.0000000 )

 cart.    s( 4) = ( -1.0000000  0.0000000  0.0000000 )    f =(  0.5000000 )
                  (  0.0000000  1.0000000  0.0000000 )       (  0.0000000 )
                  (  0.0000000  0.0000000  1.0000000 )       (  0.0000000 )


     double point group C_2h (2/m) 
     there are  8 classes and  4 irreducible representations
     the character table:

       E     -E    C2    -C2   i     -i    s_h   -s_h 
                                                      
G_3+   1.00 -1.00  0.00  0.00  1.00 -1.00  0.00  0.00
G_4+   1.00 -1.00  0.00  0.00  1.00 -1.00  0.00  0.00
G_3-   1.00 -1.00  0.00  0.00 -1.00  1.00  0.00  0.00
G_4-   1.00 -1.00  0.00  0.00 -1.00  1.00  0.00  0.00

     imaginary part

       E     -E    C2    -C2   i     -i    s_h   -s_h 
                                                      
G_3+   0.00  0.00  1.00 -1.00  0.00  0.00  1.00 -1.00
G_4+   0.00  0.00 -1.00  1.00  0.00  0.00 -1.00  1.00
G_3-   0.00  0.00  1.00 -1.00  0.00  0.00 -1.00  1.00
G_4-   0.00  0.00 -1.00  1.00  0.00  0.00  1.00 -1.00

     the symmetry operations in each class and the name of the first element:

     E             1
          identity                                               
     -E           -1
          identity E                                             
     C2            2
          180 deg rotation - cart. axis [1,0,0]                  
     -C2          -2
          180 deg rotation - cart. axis [1,0,0] E                
     i             3
          inversion                                              
     -i           -3
          inversion E                                            
     s_h           4
          inv. 180 deg rotation - cart. axis [1,0,0]             
     -s_h         -4
          inv. 180 deg rotation - cart. axis [1,0,0] E           

   Cartesian axes

     site n.     atom                  positions (alat units)
         1           Cs  tau(   1) = (   0.2500000   0.1859640   2.5168147  )
         2           Cs  tau(   2) = (   0.7500000   2.0417636   1.2386050  )
         3           Cs  tau(   3) = (   0.2500000   1.2998278   3.1163149  )
         4           Cs  tau(   4) = (   0.7500000   0.9278998   0.6391048  )
         5           Sn  tau(   5) = (   0.2500000   0.7615710   1.6485466  )
         6           Sn  tau(   6) = (   0.7500000   1.4661567   2.1068731  )
         7           Sn  tau(   7) = (   0.2500000   1.8754348   0.2291632  )
         8           Sn  tau(   8) = (   0.7500000   0.3522928   3.5262565  )
         9           I   tau(   9) = (   0.7500000   0.0581437   0.4202578  )
        10           I   tau(  10) = (   0.2500000   2.1695839   3.3351619  )
        11           I   tau(  11) = (   0.7500000   1.1720075   1.4574521  )
        12           I   tau(  12) = (   0.2500000   1.0557201   2.2979676  )
        13           I   tau(  13) = (   0.7500000   0.6531118   2.9738192  )
        14           I   tau(  14) = (   0.2500000   1.5746158   0.7816005  )
        15           I   tau(  15) = (   0.7500000   1.7669756   2.6593103  )
        16           I   tau(  16) = (   0.2500000   0.4607520   1.0961094  )
        17           I   tau(  17) = (   0.7500000   0.3753632   1.8734812  )
        18           I   tau(  18) = (   0.2500000   1.8523644   1.8819384  )
        19           I   tau(  19) = (   0.7500000   1.4892270   0.0042286  )
        20           I   tau(  20) = (   0.2500000   0.7385006   3.7511911  )

   Crystallographic axes

     site n.     atom                  positions (cryst. coord.)
         1           Cs  tau(   1) = (  0.2500000  0.0834770  0.6701820  )
         2           Cs  tau(   2) = (  0.7500000  0.9165230  0.3298180  )
         3           Cs  tau(   3) = (  0.2500000  0.5834770  0.8298180  )
         4           Cs  tau(   4) = (  0.7500000  0.4165230  0.1701820  )
         5           Sn  tau(   5) = (  0.2500000  0.3418600  0.4389780  )
         6           Sn  tau(   6) = (  0.7500000  0.6581400  0.5610220  )
         7           Sn  tau(   7) = (  0.2500000  0.8418600  0.0610220  )
         8           Sn  tau(   8) = (  0.7500000  0.1581400  0.9389780  )
         9           I   tau(   9) = (  0.7500000  0.0261000  0.1119070  )
        10           I   tau(  10) = (  0.2500000  0.9739000  0.8880930  )
        11           I   tau(  11) = (  0.7500000  0.5261000  0.3880930  )
        12           I   tau(  12) = (  0.2500000  0.4739000  0.6119070  )
        13           I   tau(  13) = (  0.7500000  0.2931740  0.7918740  )
        14           I   tau(  14) = (  0.2500000  0.7068260  0.2081260  )
        15           I   tau(  15) = (  0.7500000  0.7931740  0.7081260  )
        16           I   tau(  16) = (  0.2500000  0.2068260  0.2918740  )
        17           I   tau(  17) = (  0.7500000  0.1684960  0.4988740  )
        18           I   tau(  18) = (  0.2500000  0.8315040  0.5011260  )
        19           I   tau(  19) = (  0.7500000  0.6684960  0.0011260  )
        20           I   tau(  20) = (  0.2500000  0.3315040  0.9988740  )

     number of k points=    10
                       cart. coord. in units 2pi/alat
        k(    1) = (   0.1666667   0.0748147   0.0443803), wk =   0.1481481
        k(    2) = (   0.1666667   0.0748147  -0.1331409), wk =   0.1481481
        k(    3) = (   0.1666667  -0.2244440   0.0443803), wk =   0.1481481
        k(    4) = (   0.1666667  -0.2244440  -0.1331409), wk =   0.0740741
        k(    5) = (  -0.5000000   0.0748147   0.0443803), wk =   0.0740741
        k(    6) = (  -0.5000000   0.0748147  -0.1331409), wk =   0.0740741
        k(    7) = (  -0.5000000  -0.2244440   0.0443803), wk =   0.0740741
        k(    8) = (  -0.5000000  -0.2244440  -0.1331409), wk =   0.0370370
        k(    9) = (  -0.1666667   0.0748147  -0.0443803), wk =   0.1481481
        k(   10) = (   0.5000000   0.0748147  -0.0443803), wk =   0.0740741

                       cryst. coord.
        k(    1) = (   0.1666667   0.1666667   0.1666667), wk =   0.1481481
        k(    2) = (   0.1666667   0.1666667  -0.5000000), wk =   0.1481481
        k(    3) = (   0.1666667  -0.5000000   0.1666667), wk =   0.1481481
        k(    4) = (   0.1666667  -0.5000000  -0.5000000), wk =   0.0740741
        k(    5) = (  -0.5000000   0.1666667   0.1666667), wk =   0.0740741
        k(    6) = (  -0.5000000   0.1666667  -0.5000000), wk =   0.0740741
        k(    7) = (  -0.5000000  -0.5000000   0.1666667), wk =   0.0740741
        k(    8) = (  -0.5000000  -0.5000000  -0.5000000), wk =   0.0370370
        k(    9) = (  -0.1666667   0.1666667  -0.1666667), wk =   0.1481481
        k(   10) = (   0.5000000   0.1666667  -0.1666667), wk =   0.0740741

     Dense  grid:   704507 G-vectors     FFT dimensions: (  60, 125, 216)

     Smooth grid:   504115 G-vectors     FFT dimensions: (  50, 120, 192)

     Estimated max dynamical RAM per process >     195.83Mb

     Estimated total allocated dynamical RAM >    9399.67Mb

     Initial potential from superposition of free atoms

     starting charge  175.84164, renormalised to  176.00000
     Starting wfc are  208 randomized atomic wfcs

     total cpu time spent up to now is       28.8 secs

     per-process dynamical memory:   271.2 Mb

     Self-consistent Calculation

     iteration #  1     ecut=    70.00 Ry     beta=0.50
     Davidson diagonalization with overlap
     ethr =  1.00E-02,  avg # of iterations =  1.0

     Threshold (ethr) on eigenvalues was too large:
     Diagonalizing with lowered threshold

     Davidson diagonalization with overlap
     ethr =  3.13E-04,  avg # of iterations =  3.0

     total cpu time spent up to now is      127.3 secs

     total energy              =   -1268.01127912 Ry
     Harris-Foulkes estimate   =   -1268.26737772 Ry
     estimated scf accuracy    <       0.42408052 Ry

     iteration #  2     ecut=    70.00 Ry     beta=0.50
     Davidson diagonalization with overlap
     ethr =  2.41E-04,  avg # of iterations =  3.0

     total cpu time spent up to now is      177.7 secs

     total energy              =   -1268.10120030 Ry
     Harris-Foulkes estimate   =   -1268.19410964 Ry
     estimated scf accuracy    <       0.21240163 Ry

     iteration #  3     ecut=    70.00 Ry     beta=0.50
     Davidson diagonalization with overlap
     ethr =  1.21E-04,  avg # of iterations =  4.0

     total cpu time spent up to now is      232.9 secs

     total energy              =   -1268.14903503 Ry
     Harris-Foulkes estimate   =   -1268.15155608 Ry
     estimated scf accuracy    <       0.01109286 Ry

     iteration #  4     ecut=    70.00 Ry     beta=0.50
     Davidson diagonalization with overlap
     ethr =  6.30E-06,  avg # of iterations =  3.0

     total cpu time spent up to now is      282.3 secs

     total energy              =   -1268.15164446 Ry
     Harris-Foulkes estimate   =   -1268.15150121 Ry
     estimated scf accuracy    <       0.00160740 Ry

     iteration #  5     ecut=    70.00 Ry     beta=0.50
     Davidson diagonalization with overlap
     ethr =  9.13E-07,  avg # of iterations =  4.0

     total cpu time spent up to now is      340.9 secs

     total energy              =   -1268.15198005 Ry
     Harris-Foulkes estimate   =   -1268.15196475 Ry
     estimated scf accuracy    <       0.00014852 Ry

     iteration #  6     ecut=    70.00 Ry     beta=0.50
     Davidson diagonalization with overlap
     ethr =  8.44E-08,  avg # of iterations =  3.0

     total cpu time spent up to now is      394.8 secs

     total energy              =   -1268.15201345 Ry
     Harris-Foulkes estimate   =   -1268.15201085 Ry
     estimated scf accuracy    <       0.00001097 Ry

     iteration #  7     ecut=    70.00 Ry     beta=0.50
     Davidson diagonalization with overlap
     ethr =  6.23E-09,  avg # of iterations =  4.0

     total cpu time spent up to now is      456.4 secs

     total energy              =   -1268.15201768 Ry
     Harris-Foulkes estimate   =   -1268.15201767 Ry
     estimated scf accuracy    <       0.00000292 Ry

     iteration #  8     ecut=    70.00 Ry     beta=0.50
     Davidson diagonalization with overlap
     ethr =  1.66E-09,  avg # of iterations =  3.7

     total cpu time spent up to now is      507.6 secs

     End of self-consistent calculation

          k = 0.1667 0.0748 0.0444 ( 62954 PWs)   bands (ev):

   -18.4335 -18.4335 -18.4333 -18.4333 -18.4312 -18.4312 -18.4311 -18.4311
   -18.4215 -18.4215 -18.4214 -18.4214 -18.4192 -18.4192 -18.4191 -18.4191
   -17.8442 -17.8442 -17.8440 -17.8440 -17.8433 -17.8433 -17.8432 -17.8432
   -17.3948 -17.3948 -17.3948 -17.3948 -17.3926 -17.3926 -17.3925 -17.3925
   -17.3857 -17.3857 -17.3857 -17.3857 -17.3834 -17.3834 -17.3834 -17.3834
   -17.3788 -17.3788 -17.3785 -17.3785 -17.3765 -17.3765 -17.3762 -17.3762
    -8.8733  -8.8733  -8.8552  -8.8552  -8.6916  -8.6916  -8.6575  -8.6575
    -8.5679  -8.5679  -8.5577  -8.5577  -8.5111  -8.5111  -8.4840  -8.4840
    -8.4004  -8.4004  -8.3933  -8.3933  -8.3706  -8.3706  -8.3488  -8.3488
    -5.7927  -5.7927  -5.7886  -5.7886  -5.7811  -5.7811  -5.7744  -5.7744
    -4.1891  -4.1891  -4.1861  -4.1861  -4.1773  -4.1773  -4.1703  -4.1703
    -4.1652  -4.1652  -4.1589  -4.1589  -4.1443  -4.1443  -4.1394  -4.1394
    -3.0966  -3.0966  -3.0887  -3.0887  -3.0046  -3.0046  -2.9663  -2.9663
    -0.0491  -0.0491   0.0647   0.0647   0.2890   0.2890   0.3484   0.3484
     0.4119   0.4119   0.5059   0.5059   0.6055   0.6055   0.6520   0.6520
     0.7927   0.7927   0.8358   0.8358   0.8886   0.8886   0.9137   0.9137
     1.0708   1.0708   1.1245   1.1245   1.3099   1.3099   1.3735   1.3735
     1.4315   1.4315   1.4807   1.4807   1.5739   1.5739   1.6479   1.6479
     1.7796   1.7796   1.8458   1.8458   1.8975   1.8975   1.9162   1.9162
     1.9408   1.9408   1.9913   1.9913   2.0926   2.0926   2.1341   2.1341
     2.1918   2.1918   2.2411   2.2411   2.3527   2.3527   2.4016   2.4016
     2.6491   2.6491   2.6637   2.6637   2.9053   2.9053   3.0120   3.0120

     occupation numbers 
     1.0000   1.0000   1.0000   1.0000   1.0000   1.0000   1.0000   1.0000
     1.0000   1.0000   1.0000   1.0000   1.0000   1.0000   1.0000   1.0000
     1.0000   1.0000   1.0000   1.0000   1.0000   1.0000   1.0000   1.0000
     1.0000   1.0000   1.0000   1.0000   1.0000   1.0000   1.0000   1.0000
     1.0000   1.0000   1.0000   1.0000   1.0000   1.0000   1.0000   1.0000
     1.0000   1.0000   1.0000   1.0000   1.0000   1.0000   1.0000   1.0000
     1.0000   1.0000   1.0000   1.0000   1.0000   1.0000   1.0000   1.0000
     1.0000   1.0000   1.0000   1.0000   1.0000   1.0000   1.0000   1.0000
     1.0000   1.0000   1.0000   1.0000   1.0000   1.0000   1.0000   1.0000
     1.0000   1.0000   1.0000   1.0000   1.0000   1.0000   1.0000   1.0000
     1.0000   1.0000   1.0000   1.0000   1.0000   1.0000   1.0000   1.0000
     1.0000   1.0000   1.0000   1.0000   1.0000   1.0000   1.0000   1.0000
     1.0000   1.0000   1.0000   1.0000   1.0000   1.0000   1.0000   1.0000
     1.0000   1.0000   1.0000   1.0000   1.0000   1.0000   1.0000   1.0000
     1.0000   1.0000   1.0000   1.0000   1.0000   1.0000   1.0000   1.0000
     1.0000   1.0000   1.0000   1.0000   1.0000   1.0000   1.0000   1.0000
     1.0000   1.0000   1.0000   1.0000   1.0000   1.0000   1.0000   1.0000
     1.0000   1.0000   1.0000   1.0000   1.0000   1.0000   1.0000   1.0000
     1.0000   1.0000   1.0000   1.0000   1.0000   1.0000   1.0000   1.0000
     1.0000   1.0000   1.0000   1.0000   1.0000   1.0000   1.0000   1.0000
     1.0000   1.0000   1.0000   1.0000   1.0000   1.0000   1.0000   1.0000
     1.0000   1.0000   1.0000   1.0000   1.0000   1.0000   1.0000   1.0000

          k = 0.1667 0.0748-0.1331 ( 62964 PWs)   bands (ev):

   -18.4335 -18.4335 -18.4333 -18.4333 -18.4312 -18.4312 -18.4311 -18.4311
   -18.4215 -18.4215 -18.4214 -18.4214 -18.4192 -18.4192 -18.4191 -18.4191
   -17.8442 -17.8442 -17.8441 -17.8441 -17.8433 -17.8433 -17.8432 -17.8432
   -17.3949 -17.3949 -17.3948 -17.3948 -17.3926 -17.3926 -17.3925 -17.3925
   -17.3857 -17.3857 -17.3856 -17.3856 -17.3834 -17.3834 -17.3834 -17.3834
   -17.3788 -17.3788 -17.3785 -17.3785 -17.3765 -17.3765 -17.3762 -17.3762
    -8.8657  -8.8657  -8.8642  -8.8642  -8.6741  -8.6741  -8.6729  -8.6729
    -8.5657  -8.5657  -8.5647  -8.5647  -8.4965  -8.4965  -8.4959  -8.4959
    -8.3977  -8.3977  -8.3970  -8.3970  -8.3586  -8.3586  -8.3584  -8.3584
    -5.7921  -5.7921  -5.7900  -5.7900  -5.7795  -5.7795  -5.7752  -5.7752
    -4.1888  -4.1888  -4.1873  -4.1873  -4.1787  -4.1787  -4.1689  -4.1689
    -4.1654  -4.1654  -4.1586  -4.1586  -4.1440  -4.1440  -4.1388  -4.1388
    -3.0943  -3.0943  -3.0924  -3.0924  -2.9859  -2.9859  -2.9839  -2.9839
    -0.0172  -0.0172   0.0242   0.0242   0.3109   0.3109   0.3332   0.3332
     0.4219   0.4219   0.4947   0.4947   0.6227   0.6227   0.6383   0.6383
     0.8261   0.8261   0.8351   0.8351   0.8821   0.8821   0.8877   0.8877
     1.0715   1.0715   1.1035   1.1035   1.3168   1.3168   1.3614   1.3614
     1.4600   1.4600   1.4886   1.4886   1.5835   1.5835   1.6113   1.6113
     1.7896   1.7896   1.8439   1.8439   1.9020   1.9020   1.9135   1.9135
     1.9448   1.9448   1.9883   1.9883   2.1070   2.1070   2.1262   2.1262
     2.1804   2.1804   2.2405   2.2405   2.3778   2.3778   2.4007   2.4007
     2.6506   2.6506   2.6639   2.6639   2.9345   2.9345   2.9645   2.9645

     occupation numbers 
     1.0000   1.0000   1.0000   1.0000   1.0000   1.0000   1.0000   1.0000
     1.0000   1.0000   1.0000   1.0000   1.0000   1.0000   1.0000   1.0000
     1.0000   1.0000   1.0000   1.0000   1.0000   1.0000   1.0000   1.0000
     1.0000   1.0000   1.0000   1.0000   1.0000   1.0000   1.0000   1.0000
     1.0000   1.0000   1.0000   1.0000   1.0000   1.0000   1.0000   1.0000
     1.0000   1.0000   1.0000   1.0000   1.0000   1.0000   1.0000   1.0000
     1.0000   1.0000   1.0000   1.0000   1.0000   1.0000   1.0000   1.0000
     1.0000   1.0000   1.0000   1.0000   1.0000   1.0000   1.0000   1.0000
     1.0000   1.0000   1.0000   1.0000   1.0000   1.0000   1.0000   1.0000
     1.0000   1.0000   1.0000   1.0000   1.0000   1.0000   1.0000   1.0000
     1.0000   1.0000   1.0000   1.0000   1.0000   1.0000   1.0000   1.0000
     1.0000   1.0000   1.0000   1.0000   1.0000   1.0000   1.0000   1.0000
     1.0000   1.0000   1.0000   1.0000   1.0000   1.0000   1.0000   1.0000
     1.0000   1.0000   1.0000   1.0000   1.0000   1.0000   1.0000   1.0000
     1.0000   1.0000   1.0000   1.0000   1.0000   1.0000   1.0000   1.0000
     1.0000   1.0000   1.0000   1.0000   1.0000   1.0000   1.0000   1.0000
     1.0000   1.0000   1.0000   1.0000   1.0000   1.0000   1.0000   1.0000
     1.0000   1.0000   1.0000   1.0000   1.0000   1.0000   1.0000   1.0000
     1.0000   1.0000   1.0000   1.0000   1.0000   1.0000   1.0000   1.0000
     1.0000   1.0000   1.0000   1.0000   1.0000   1.0000   1.0000   1.0000
     1.0000   1.0000   1.0000   1.0000   1.0000   1.0000   1.0000   1.0000
     1.0000   1.0000   1.0000   1.0000   1.0000   1.0000   1.0000   1.0000

          k = 0.1667-0.2244 0.0444 ( 62990 PWs)   bands (ev):

   -18.4335 -18.4335 -18.4333 -18.4333 -18.4312 -18.4312 -18.4311 -18.4311
   -18.4215 -18.4215 -18.4214 -18.4214 -18.4192 -18.4192 -18.4191 -18.4191
   -17.8440 -17.8440 -17.8438 -17.8438 -17.8436 -17.8436 -17.8434 -17.8434
   -17.3949 -17.3949 -17.3948 -17.3948 -17.3926 -17.3926 -17.3925 -17.3925
   -17.3857 -17.3857 -17.3857 -17.3857 -17.3834 -17.3834 -17.3834 -17.3834
   -17.3788 -17.3788 -17.3785 -17.3785 -17.3765 -17.3765 -17.3762 -17.3762
    -8.8487  -8.8487  -8.8470  -8.8470  -8.7046  -8.7046  -8.7039  -8.7039
    -8.5881  -8.5881  -8.5868  -8.5868  -8.4625  -8.4625  -8.4620  -8.4620
    -8.3869  -8.3869  -8.3856  -8.3856  -8.3666  -8.3666  -8.3654  -8.3654
    -5.7908  -5.7908  -5.7870  -5.7870  -5.7830  -5.7830  -5.7790  -5.7790
    -4.1916  -4.1916  -4.1891  -4.1891  -4.1794  -4.1794  -4.1740  -4.1740
    -4.1630  -4.1630  -4.1594  -4.1594  -4.1465  -4.1465  -4.1414  -4.1414
    -3.0904  -3.0904  -3.0886  -3.0886  -2.9797  -2.9797  -2.9780  -2.9780
    -0.0271  -0.0271   0.0487   0.0487   0.2272   0.2272   0.2889   0.2889
     0.4050   0.4050   0.4678   0.4678   0.6368   0.6368   0.6485   0.6485
     0.7924   0.7924   0.8517   0.8517   0.9229   0.9229   0.9590   0.9590
     1.1378   1.1378   1.1443   1.1443   1.3342   1.3342   1.3890   1.3890
     1.4266   1.4266   1.4902   1.4902   1.6876   1.6876   1.7026   1.7026
     1.7543   1.7543   1.7848   1.7848   1.8820   1.8820   1.9018   1.9018
     1.9703   1.9703   1.9761   1.9761   2.0498   2.0498   2.1293   2.1293
     2.2279   2.2279   2.2478   2.2478   2.3215   2.3215   2.3272   2.3272
     2.6118   2.6118   2.6483   2.6483   2.8634   2.8634   2.9422   2.9422

     occupation numbers 
     1.0000   1.0000   1.0000   1.0000   1.0000   1.0000   1.0000   1.0000
     1.0000   1.0000   1.0000   1.0000   1.0000   1.0000   1.0000   1.0000
     1.0000   1.0000   1.0000   1.0000   1.0000   1.0000   1.0000   1.0000
     1.0000   1.0000   1.0000   1.0000   1.0000   1.0000   1.0000   1.0000
     1.0000   1.0000   1.0000   1.0000   1.0000   1.0000   1.0000   1.0000
     1.0000   1.0000   1.0000   1.0000   1.0000   1.0000   1.0000   1.0000
     1.0000   1.0000   1.0000   1.0000   1.0000   1.0000   1.0000   1.0000
     1.0000   1.0000   1.0000   1.0000   1.0000   1.0000   1.0000   1.0000
     1.0000   1.0000   1.0000   1.0000   1.0000   1.0000   1.0000   1.0000
     1.0000   1.0000   1.0000   1.0000   1.0000   1.0000   1.0000   1.0000
     1.0000   1.0000   1.0000   1.0000   1.0000   1.0000   1.0000   1.0000
     1.0000   1.0000   1.0000   1.0000   1.0000   1.0000   1.0000   1.0000
     1.0000   1.0000   1.0000   1.0000   1.0000   1.0000   1.0000   1.0000
     1.0000   1.0000   1.0000   1.0000   1.0000   1.0000   1.0000   1.0000
     1.0000   1.0000   1.0000   1.0000   1.0000   1.0000   1.0000   1.0000
     1.0000   1.0000   1.0000   1.0000   1.0000   1.0000   1.0000   1.0000
     1.0000   1.0000   1.0000   1.0000   1.0000   1.0000   1.0000   1.0000
     1.0000   1.0000   1.0000   1.0000   1.0000   1.0000   1.0000   1.0000
     1.0000   1.0000   1.0000   1.0000   1.0000   1.0000   1.0000   1.0000
     1.0000   1.0000   1.0000   1.0000   1.0000   1.0000   1.0000   1.0000
     1.0000   1.0000   1.0000   1.0000   1.0000   1.0000   1.0000   1.0000
     1.0000   1.0000   1.0000   1.0000   1.0000   1.0000   1.0000   1.0000

          k = 0.1667-0.2244-0.1331 ( 62992 PWs)   bands (ev):

   -18.4335 -18.4335 -18.4333 -18.4333 -18.4312 -18.4312 -18.4311 -18.4311
   -18.4215 -18.4215 -18.4214 -18.4214 -18.4192 -18.4192 -18.4191 -18.4191
   -17.8440 -17.8440 -17.8438 -17.8438 -17.8436 -17.8436 -17.8434 -17.8434
   -17.3948 -17.3948 -17.3948 -17.3948 -17.3926 -17.3926 -17.3925 -17.3925
   -17.3857 -17.3857 -17.3857 -17.3857 -17.3834 -17.3834 -17.3834 -17.3834
   -17.3788 -17.3788 -17.3786 -17.3786 -17.3765 -17.3765 -17.3763 -17.3763
    -8.8487  -8.8487  -8.8470  -8.8470  -8.7049  -8.7049  -8.7042  -8.7042
    -8.5867  -8.5867  -8.5853  -8.5853  -8.4661  -8.4661  -8.4656  -8.4656
    -8.3773  -8.3773  -8.3770  -8.3770  -8.3729  -8.3729  -8.3725  -8.3725
    -5.7897  -5.7897  -5.7894  -5.7894  -5.7805  -5.7805  -5.7802  -5.7802
    -4.1916  -4.1916  -4.1914  -4.1914  -4.1762  -4.1762  -4.1760  -4.1760
    -4.1619  -4.1619  -4.1617  -4.1617  -4.1429  -4.1429  -4.1428  -4.1428
    -3.0898  -3.0898  -3.0881  -3.0881  -2.9804  -2.9804  -2.9787  -2.9787
     0.0127   0.0127   0.0141   0.0141   0.2485   0.2485   0.2493   0.2493
     0.4614   0.4614   0.4624   0.4624   0.6208   0.6208   0.6216   0.6216
     0.7998   0.7998   0.8001   0.8001   0.9407   0.9407   0.9418   0.9418
     1.1632   1.1632   1.1635   1.1635   1.3696   1.3696   1.3698   1.3698
     1.4570   1.4570   1.4575   1.4575   1.6886   1.6886   1.6892   1.6892
     1.7672   1.7672   1.7681   1.7681   1.8914   1.8914   1.8917   1.8917
     1.9836   1.9836   1.9838   1.9838   2.0862   2.0862   2.0867   2.0867
     2.2333   2.2333   2.2336   2.2336   2.3300   2.3300   2.3301   2.3301
     2.6302   2.6302   2.6314   2.6314   2.8937   2.8937   2.8946   2.8946

     occupation numbers 
     1.0000   1.0000   1.0000   1.0000   1.0000   1.0000   1.0000   1.0000
     1.0000   1.0000   1.0000   1.0000   1.0000   1.0000   1.0000   1.0000
     1.0000   1.0000   1.0000   1.0000   1.0000   1.0000   1.0000   1.0000
     1.0000   1.0000   1.0000   1.0000   1.0000   1.0000   1.0000   1.0000
     1.0000   1.0000   1.0000   1.0000   1.0000   1.0000   1.0000   1.0000
     1.0000   1.0000   1.0000   1.0000   1.0000   1.0000   1.0000   1.0000
     1.0000   1.0000   1.0000   1.0000   1.0000   1.0000   1.0000   1.0000
     1.0000   1.0000   1.0000   1.0000   1.0000   1.0000   1.0000   1.0000
     1.0000   1.0000   1.0000   1.0000   1.0000   1.0000   1.0000   1.0000
     1.0000   1.0000   1.0000   1.0000   1.0000   1.0000   1.0000   1.0000
     1.0000   1.0000   1.0000   1.0000   1.0000   1.0000   1.0000   1.0000
     1.0000   1.0000   1.0000   1.0000   1.0000   1.0000   1.0000   1.0000
     1.0000   1.0000   1.0000   1.0000   1.0000   1.0000   1.0000   1.0000
     1.0000   1.0000   1.0000   1.0000   1.0000   1.0000   1.0000   1.0000
     1.0000   1.0000   1.0000   1.0000   1.0000   1.0000   1.0000   1.0000
     1.0000   1.0000   1.0000   1.0000   1.0000   1.0000   1.0000   1.0000
     1.0000   1.0000   1.0000   1.0000   1.0000   1.0000   1.0000   1.0000
     1.0000   1.0000   1.0000   1.0000   1.0000   1.0000   1.0000   1.0000
     1.0000   1.0000   1.0000   1.0000   1.0000   1.0000   1.0000   1.0000
     1.0000   1.0000   1.0000   1.0000   1.0000   1.0000   1.0000   1.0000
     1.0000   1.0000   1.0000   1.0000   1.0000   1.0000   1.0000   1.0000
     1.0000   1.0000   1.0000   1.0000   1.0000   1.0000   1.0000   1.0000

          k =-0.5000 0.0748 0.0444 ( 63010 PWs)   bands (ev):

   -18.4339 -18.4339 -18.4339 -18.4339 -18.4316 -18.4316 -18.4316 -18.4316
   -18.4210 -18.4210 -18.4210 -18.4210 -18.4187 -18.4187 -18.4187 -18.4187
   -17.8354 -17.8354 -17.8354 -17.8354 -17.8347 -17.8347 -17.8347 -17.8347
   -17.3957 -17.3957 -17.3957 -17.3957 -17.3934 -17.3934 -17.3934 -17.3934
   -17.3856 -17.3856 -17.3856 -17.3856 -17.3834 -17.3834 -17.3834 -17.3834
   -17.3779 -17.3779 -17.3779 -17.3779 -17.3756 -17.3756 -17.3756 -17.3756
    -8.6123  -8.6123  -8.6122  -8.6122  -8.6091  -8.6091  -8.6090  -8.6090
    -8.4432  -8.4432  -8.4430  -8.4430  -8.4336  -8.4336  -8.4333  -8.4333
    -8.4209  -8.4209  -8.4207  -8.4207  -8.4048  -8.4048  -8.4048  -8.4048
    -5.8431  -5.8431  -5.8431  -5.8431  -5.8145  -5.8145  -5.8145  -5.8145
    -4.3141  -4.3141  -4.3141  -4.3141  -4.2616  -4.2616  -4.2613  -4.2613
    -4.1795  -4.1795  -4.1790  -4.1790  -4.1444  -4.1444  -4.1442  -4.1442
    -3.3290  -3.3290  -3.3288  -3.3288  -3.2969  -3.2969  -3.2967  -3.2967
    -0.1897  -0.1897  -0.1808  -0.1808  -0.1602  -0.1602  -0.1497  -0.1497
     0.3351   0.3351   0.3354   0.3354   0.3958   0.3958   0.4008   0.4008
     0.5362   0.5362   0.5438   0.5438   0.6377   0.6377   0.6478   0.6478
     1.0852   1.0852   1.0873   1.0873   1.1990   1.1990   1.2098   1.2098
     1.3874   1.3874   1.3938   1.3938   1.5283   1.5283   1.5506   1.5506
     1.6592   1.6592   1.6686   1.6686   1.7440   1.7440   1.7443   1.7443
     1.8543   1.8543   1.8618   1.8618   1.9549   1.9549   1.9553   1.9553
     2.0801   2.0801   2.0819   2.0819   2.2087   2.2087   2.2152   2.2152
     2.6089   2.6089   2.6112   2.6112   2.8761   2.8761   2.8771   2.8771

     occupation numbers 
     1.0000   1.0000   1.0000   1.0000   1.0000   1.0000   1.0000   1.0000
     1.0000   1.0000   1.0000   1.0000   1.0000   1.0000   1.0000   1.0000
     1.0000   1.0000   1.0000   1.0000   1.0000   1.0000   1.0000   1.0000
     1.0000   1.0000   1.0000   1.0000   1.0000   1.0000   1.0000   1.0000
     1.0000   1.0000   1.0000   1.0000   1.0000   1.0000   1.0000   1.0000
     1.0000   1.0000   1.0000   1.0000   1.0000   1.0000   1.0000   1.0000
     1.0000   1.0000   1.0000   1.0000   1.0000   1.0000   1.0000   1.0000
     1.0000   1.0000   1.0000   1.0000   1.0000   1.0000   1.0000   1.0000
     1.0000   1.0000   1.0000   1.0000   1.0000   1.0000   1.0000   1.0000
     1.0000   1.0000   1.0000   1.0000   1.0000   1.0000   1.0000   1.0000
     1.0000   1.0000   1.0000   1.0000   1.0000   1.0000   1.0000   1.0000
     1.0000   1.0000   1.0000   1.0000   1.0000   1.0000   1.0000   1.0000
     1.0000   1.0000   1.0000   1.0000   1.0000   1.0000   1.0000   1.0000
     1.0000   1.0000   1.0000   1.0000   1.0000   1.0000   1.0000   1.0000
     1.0000   1.0000   1.0000   1.0000   1.0000   1.0000   1.0000   1.0000
     1.0000   1.0000   1.0000   1.0000   1.0000   1.0000   1.0000   1.0000
     1.0000   1.0000   1.0000   1.0000   1.0000   1.0000   1.0000   1.0000
     1.0000   1.0000   1.0000   1.0000   1.0000   1.0000   1.0000   1.0000
     1.0000   1.0000   1.0000   1.0000   1.0000   1.0000   1.0000   1.0000
     1.0000   1.0000   1.0000   1.0000   1.0000   1.0000   1.0000   1.0000
     1.0000   1.0000   1.0000   1.0000   1.0000   1.0000   1.0000   1.0000
     1.0000   1.0000   1.0000   1.0000   1.0000   1.0000   1.0000   1.0000

          k =-0.5000 0.0748-0.1331 ( 63096 PWs)   bands (ev):

   -18.4339 -18.4339 -18.4339 -18.4339 -18.4316 -18.4316 -18.4316 -18.4316
   -18.4210 -18.4210 -18.4210 -18.4210 -18.4187 -18.4187 -18.4187 -18.4187
   -17.8354 -17.8354 -17.8354 -17.8354 -17.8347 -17.8347 -17.8347 -17.8347
   -17.3957 -17.3957 -17.3957 -17.3957 -17.3934 -17.3934 -17.3934 -17.3934
   -17.3856 -17.3856 -17.3856 -17.3856 -17.3834 -17.3834 -17.3834 -17.3834
   -17.3779 -17.3779 -17.3779 -17.3779 -17.3756 -17.3756 -17.3756 -17.3756
    -8.6126  -8.6126  -8.6125  -8.6125  -8.6088  -8.6088  -8.6087  -8.6087
    -8.4427  -8.4427  -8.4427  -8.4427  -8.4341  -8.4341  -8.4341  -8.4341
    -8.4206  -8.4206  -8.4206  -8.4206  -8.4048  -8.4048  -8.4048  -8.4048
    -5.8431  -5.8431  -5.8431  -5.8431  -5.8145  -5.8145  -5.8145  -5.8145
    -4.3140  -4.3140  -4.3140  -4.3140  -4.2615  -4.2615  -4.2615  -4.2615
    -4.1794  -4.1794  -4.1794  -4.1794  -4.1443  -4.1443  -4.1443  -4.1443
    -3.3228  -3.3228  -3.3228  -3.3228  -3.3029  -3.3029  -3.3029  -3.3029
    -0.1830  -0.1830  -0.1827  -0.1827  -0.1563  -0.1563  -0.1560  -0.1560
     0.3393   0.3393   0.3395   0.3395   0.4196   0.4196   0.4199   0.4199
     0.5146   0.5146   0.5147   0.5147   0.6274   0.6274   0.6275   0.6275
     1.1091   1.1091   1.1093   1.1093   1.1918   1.1918   1.1920   1.1920
     1.3979   1.3979   1.3979   1.3979   1.5624   1.5624   1.5626   1.5626
     1.6359   1.6359   1.6359   1.6359   1.7376   1.7376   1.7378   1.7378
     1.8623   1.8623   1.8624   1.8624   1.9525   1.9525   1.9526   1.9526
     2.0669   2.0669   2.0669   2.0669   2.2314   2.2314   2.2315   2.2315
     2.6482   2.6482   2.6483   2.6483   2.8361   2.8361   2.8362   2.8362

     occupation numbers 
     1.0000   1.0000   1.0000   1.0000   1.0000   1.0000   1.0000   1.0000
     1.0000   1.0000   1.0000   1.0000   1.0000   1.0000   1.0000   1.0000
     1.0000   1.0000   1.0000   1.0000   1.0000   1.0000   1.0000   1.0000
     1.0000   1.0000   1.0000   1.0000   1.0000   1.0000   1.0000   1.0000
     1.0000   1.0000   1.0000   1.0000   1.0000   1.0000   1.0000   1.0000
     1.0000   1.0000   1.0000   1.0000   1.0000   1.0000   1.0000   1.0000
     1.0000   1.0000   1.0000   1.0000   1.0000   1.0000   1.0000   1.0000
     1.0000   1.0000   1.0000   1.0000   1.0000   1.0000   1.0000   1.0000
     1.0000   1.0000   1.0000   1.0000   1.0000   1.0000   1.0000   1.0000
     1.0000   1.0000   1.0000   1.0000   1.0000   1.0000   1.0000   1.0000
     1.0000   1.0000   1.0000   1.0000   1.0000   1.0000   1.0000   1.0000
     1.0000   1.0000   1.0000   1.0000   1.0000   1.0000   1.0000   1.0000
     1.0000   1.0000   1.0000   1.0000   1.0000   1.0000   1.0000   1.0000
     1.0000   1.0000   1.0000   1.0000   1.0000   1.0000   1.0000   1.0000
     1.0000   1.0000   1.0000   1.0000   1.0000   1.0000   1.0000   1.0000
     1.0000   1.0000   1.0000   1.0000   1.0000   1.0000   1.0000   1.0000
     1.0000   1.0000   1.0000   1.0000   1.0000   1.0000   1.0000   1.0000
     1.0000   1.0000   1.0000   1.0000   1.0000   1.0000   1.0000   1.0000
     1.0000   1.0000   1.0000   1.0000   1.0000   1.0000   1.0000   1.0000
     1.0000   1.0000   1.0000   1.0000   1.0000   1.0000   1.0000   1.0000
     1.0000   1.0000   1.0000   1.0000   1.0000   1.0000   1.0000   1.0000
     1.0000   1.0000   1.0000   1.0000   1.0000   1.0000   1.0000   1.0000

          k =-0.5000-0.2244 0.0444 ( 63072 PWs)   bands (ev):

   -18.4339 -18.4339 -18.4339 -18.4339 -18.4316 -18.4316 -18.4316 -18.4316
   -18.4210 -18.4210 -18.4210 -18.4210 -18.4187 -18.4187 -18.4187 -18.4187
   -17.8352 -17.8352 -17.8352 -17.8352 -17.8348 -17.8348 -17.8348 -17.8348
   -17.3957 -17.3957 -17.3957 -17.3957 -17.3934 -17.3934 -17.3934 -17.3934
   -17.3856 -17.3856 -17.3856 -17.3856 -17.3834 -17.3834 -17.3834 -17.3834
   -17.3779 -17.3779 -17.3779 -17.3779 -17.3756 -17.3756 -17.3756 -17.3756
    -8.6117  -8.6117  -8.6117  -8.6117  -8.6097  -8.6097  -8.6096  -8.6096
    -8.4398  -8.4398  -8.4395  -8.4395  -8.4386  -8.4386  -8.4383  -8.4383
    -8.4126  -8.4126  -8.4125  -8.4125  -8.4118  -8.4118  -8.4117  -8.4117
    -5.8291  -5.8291  -5.8291  -5.8291  -5.8283  -5.8283  -5.8283  -5.8283
    -4.2894  -4.2894  -4.2884  -4.2884  -4.2877  -4.2877  -4.2868  -4.2868
    -4.1624  -4.1624  -4.1618  -4.1618  -4.1614  -4.1614  -4.1610  -4.1610
    -3.3146  -3.3146  -3.3142  -3.3142  -3.3122  -3.3122  -3.3119  -3.3119
    -0.1060  -0.1060  -0.1001  -0.1001  -0.0949  -0.0949  -0.0880  -0.0880
     0.2751   0.2751   0.2754   0.2754   0.2908   0.2908   0.2966   0.2966
     0.5708   0.5708   0.5772   0.5772   0.5844   0.5844   0.5851   0.5851
     1.0846   1.0846   1.0859   1.0859   1.1473   1.1473   1.1485   1.1485
     1.4177   1.4177   1.4517   1.4517   1.4872   1.4872   1.5121   1.5121
     1.6251   1.6251   1.6467   1.6467   1.6821   1.6821   1.6892   1.6892
     1.8772   1.8772   1.8804   1.8804   1.9237   1.9237   1.9287   1.9287
     2.1755   2.1755   2.1845   2.1845   2.1909   2.1909   2.1995   2.1995
     2.8392   2.8392   2.8411   2.8411   2.8559   2.8559   2.8576   2.8576

     occupation numbers 
     1.0000   1.0000   1.0000   1.0000   1.0000   1.0000   1.0000   1.0000
     1.0000   1.0000   1.0000   1.0000   1.0000   1.0000   1.0000   1.0000
     1.0000   1.0000   1.0000   1.0000   1.0000   1.0000   1.0000   1.0000
     1.0000   1.0000   1.0000   1.0000   1.0000   1.0000   1.0000   1.0000
     1.0000   1.0000   1.0000   1.0000   1.0000   1.0000   1.0000   1.0000
     1.0000   1.0000   1.0000   1.0000   1.0000   1.0000   1.0000   1.0000
     1.0000   1.0000   1.0000   1.0000   1.0000   1.0000   1.0000   1.0000
     1.0000   1.0000   1.0000   1.0000   1.0000   1.0000   1.0000   1.0000
     1.0000   1.0000   1.0000   1.0000   1.0000   1.0000   1.0000   1.0000
     1.0000   1.0000   1.0000   1.0000   1.0000   1.0000   1.0000   1.0000
     1.0000   1.0000   1.0000   1.0000   1.0000   1.0000   1.0000   1.0000
     1.0000   1.0000   1.0000   1.0000   1.0000   1.0000   1.0000   1.0000
     1.0000   1.0000   1.0000   1.0000   1.0000   1.0000   1.0000   1.0000
     1.0000   1.0000   1.0000   1.0000   1.0000   1.0000   1.0000   1.0000
     1.0000   1.0000   1.0000   1.0000   1.0000   1.0000   1.0000   1.0000
     1.0000   1.0000   1.0000   1.0000   1.0000   1.0000   1.0000   1.0000
     1.0000   1.0000   1.0000   1.0000   1.0000   1.0000   1.0000   1.0000
     1.0000   1.0000   1.0000   1.0000   1.0000   1.0000   1.0000   1.0000
     1.0000   1.0000   1.0000   1.0000   1.0000   1.0000   1.0000   1.0000
     1.0000   1.0000   1.0000   1.0000   1.0000   1.0000   1.0000   1.0000
     1.0000   1.0000   1.0000   1.0000   1.0000   1.0000   1.0000   1.0000
     1.0000   1.0000   1.0000   1.0000   1.0000   1.0000   1.0000   1.0000

          k =-0.5000-0.2244-0.1331 ( 63040 PWs)   bands (ev):

   -18.4339 -18.4339 -18.4339 -18.4339 -18.4316 -18.4316 -18.4316 -18.4316
   -18.4210 -18.4210 -18.4210 -18.4210 -18.4187 -18.4187 -18.4187 -18.4187
   -17.8352 -17.8352 -17.8352 -17.8352 -17.8348 -17.8348 -17.8348 -17.8348
   -17.3957 -17.3957 -17.3957 -17.3957 -17.3934 -17.3934 -17.3934 -17.3934
   -17.3856 -17.3856 -17.3856 -17.3856 -17.3834 -17.3834 -17.3834 -17.3834
   -17.3779 -17.3779 -17.3779 -17.3779 -17.3756 -17.3756 -17.3756 -17.3756
    -8.6117  -8.6117  -8.6117  -8.6117  -8.6097  -8.6097  -8.6097  -8.6097
    -8.4393  -8.4393  -8.4393  -8.4393  -8.4387  -8.4387  -8.4387  -8.4387
    -8.4124  -8.4124  -8.4124  -8.4124  -8.4119  -8.4119  -8.4119  -8.4119
    -5.8289  -5.8289  -5.8289  -5.8289  -5.8285  -5.8285  -5.8285  -5.8285
    -4.2891  -4.2891  -4.2891  -4.2891  -4.2870  -4.2870  -4.2870  -4.2870
    -4.1623  -4.1623  -4.1623  -4.1623  -4.1610  -4.1610  -4.1610  -4.1610
    -3.3142  -3.3142  -3.3142  -3.3142  -3.3122  -3.3122  -3.3122  -3.3122
    -0.1108  -0.1108  -0.1108  -0.1108  -0.0882  -0.0882  -0.0882  -0.0882
     0.2665   0.2665   0.2665   0.2665   0.3023   0.3023   0.3023   0.3023
     0.5826   0.5826   0.5826   0.5826   0.6043   0.6043   0.6043   0.6043
     1.0859   1.0859   1.0859   1.0859   1.0898   1.0898   1.0898   1.0898
     1.4544   1.4544   1.4544   1.4544   1.5103   1.5103   1.5103   1.5103
     1.6502   1.6502   1.6502   1.6502   1.6780   1.6780   1.6780   1.6780
     1.9060   1.9060   1.9060   1.9060   1.9095   1.9095   1.9095   1.9095
     2.1758   2.1758   2.1758   2.1758   2.1766   2.1766   2.1766   2.1766
     2.8382   2.8382   2.8382   2.8382   2.8713   2.8713   2.8713   2.8713

     occupation numbers 
     1.0000   1.0000   1.0000   1.0000   1.0000   1.0000   1.0000   1.0000
     1.0000   1.0000   1.0000   1.0000   1.0000   1.0000   1.0000   1.0000
     1.0000   1.0000   1.0000   1.0000   1.0000   1.0000   1.0000   1.0000
     1.0000   1.0000   1.0000   1.0000   1.0000   1.0000   1.0000   1.0000
     1.0000   1.0000   1.0000   1.0000   1.0000   1.0000   1.0000   1.0000
     1.0000   1.0000   1.0000   1.0000   1.0000   1.0000   1.0000   1.0000
     1.0000   1.0000   1.0000   1.0000   1.0000   1.0000   1.0000   1.0000
     1.0000   1.0000   1.0000   1.0000   1.0000   1.0000   1.0000   1.0000
     1.0000   1.0000   1.0000   1.0000   1.0000   1.0000   1.0000   1.0000
     1.0000   1.0000   1.0000   1.0000   1.0000   1.0000   1.0000   1.0000
     1.0000   1.0000   1.0000   1.0000   1.0000   1.0000   1.0000   1.0000
     1.0000   1.0000   1.0000   1.0000   1.0000   1.0000   1.0000   1.0000
     1.0000   1.0000   1.0000   1.0000   1.0000   1.0000   1.0000   1.0000
     1.0000   1.0000   1.0000   1.0000   1.0000   1.0000   1.0000   1.0000
     1.0000   1.0000   1.0000   1.0000   1.0000   1.0000   1.0000   1.0000
     1.0000   1.0000   1.0000   1.0000   1.0000   1.0000   1.0000   1.0000
     1.0000   1.0000   1.0000   1.0000   1.0000   1.0000   1.0000   1.0000
     1.0000   1.0000   1.0000   1.0000   1.0000   1.0000   1.0000   1.0000
     1.0000   1.0000   1.0000   1.0000   1.0000   1.0000   1.0000   1.0000
     1.0000   1.0000   1.0000   1.0000   1.0000   1.0000   1.0000   1.0000
     1.0000   1.0000   1.0000   1.0000   1.0000   1.0000   1.0000   1.0000
     1.0000   1.0000   1.0000   1.0000   1.0000   1.0000   1.0000   1.0000

          k =-0.1667 0.0748-0.0444 ( 62954 PWs)   bands (ev):

   -18.4335 -18.4335 -18.4333 -18.4333 -18.4312 -18.4312 -18.4311 -18.4311
   -18.4215 -18.4215 -18.4214 -18.4214 -18.4192 -18.4192 -18.4191 -18.4191
   -17.8442 -17.8442 -17.8440 -17.8440 -17.8433 -17.8433 -17.8432 -17.8432
   -17.3949 -17.3949 -17.3948 -17.3948 -17.3926 -17.3926 -17.3925 -17.3925
   -17.3857 -17.3857 -17.3856 -17.3856 -17.3834 -17.3834 -17.3834 -17.3834
   -17.3788 -17.3788 -17.3785 -17.3785 -17.3765 -17.3765 -17.3762 -17.3762
    -8.8732  -8.8732  -8.8552  -8.8552  -8.6916  -8.6916  -8.6576  -8.6576
    -8.5681  -8.5681  -8.5575  -8.5575  -8.5113  -8.5113  -8.4839  -8.4839
    -8.4002  -8.4002  -8.3936  -8.3936  -8.3705  -8.3705  -8.3488  -8.3488
    -5.7927  -5.7927  -5.7886  -5.7886  -5.7812  -5.7812  -5.7744  -5.7744
    -4.1891  -4.1891  -4.1862  -4.1862  -4.1773  -4.1773  -4.1702  -4.1702
    -4.1653  -4.1653  -4.1589  -4.1589  -4.1443  -4.1443  -4.1394  -4.1394
    -3.0964  -3.0964  -3.0889  -3.0889  -3.0045  -3.0045  -2.9664  -2.9664
    -0.0491  -0.0491   0.0646   0.0646   0.2892   0.2892   0.3482   0.3482
     0.4120   0.4120   0.5060   0.5060   0.6053   0.6053   0.6521   0.6521
     0.7928   0.7928   0.8357   0.8357   0.8886   0.8886   0.9137   0.9137
     1.0709   1.0709   1.1244   1.1244   1.3100   1.3100   1.3735   1.3735
     1.4314   1.4314   1.4806   1.4806   1.5738   1.5738   1.6480   1.6480
     1.7795   1.7795   1.8459   1.8459   1.8973   1.8973   1.9164   1.9164
     1.9407   1.9407   1.9913   1.9913   2.0926   2.0926   2.1342   2.1342
     2.1918   2.1918   2.2411   2.2411   2.3528   2.3528   2.4016   2.4016
     2.6497   2.6497   2.6632   2.6632   2.9052   2.9052   3.0120   3.0120

     occupation numbers 
     1.0000   1.0000   1.0000   1.0000   1.0000   1.0000   1.0000   1.0000
     1.0000   1.0000   1.0000   1.0000   1.0000   1.0000   1.0000   1.0000
     1.0000   1.0000   1.0000   1.0000   1.0000   1.0000   1.0000   1.0000
     1.0000   1.0000   1.0000   1.0000   1.0000   1.0000   1.0000   1.0000
     1.0000   1.0000   1.0000   1.0000   1.0000   1.0000   1.0000   1.0000
     1.0000   1.0000   1.0000   1.0000   1.0000   1.0000   1.0000   1.0000
     1.0000   1.0000   1.0000   1.0000   1.0000   1.0000   1.0000   1.0000
     1.0000   1.0000   1.0000   1.0000   1.0000   1.0000   1.0000   1.0000
     1.0000   1.0000   1.0000   1.0000   1.0000   1.0000   1.0000   1.0000
     1.0000   1.0000   1.0000   1.0000   1.0000   1.0000   1.0000   1.0000
     1.0000   1.0000   1.0000   1.0000   1.0000   1.0000   1.0000   1.0000
     1.0000   1.0000   1.0000   1.0000   1.0000   1.0000   1.0000   1.0000
     1.0000   1.0000   1.0000   1.0000   1.0000   1.0000   1.0000   1.0000
     1.0000   1.0000   1.0000   1.0000   1.0000   1.0000   1.0000   1.0000
     1.0000   1.0000   1.0000   1.0000   1.0000   1.0000   1.0000   1.0000
     1.0000   1.0000   1.0000   1.0000   1.0000   1.0000   1.0000   1.0000
     1.0000   1.0000   1.0000   1.0000   1.0000   1.0000   1.0000   1.0000
     1.0000   1.0000   1.0000   1.0000   1.0000   1.0000   1.0000   1.0000
     1.0000   1.0000   1.0000   1.0000   1.0000   1.0000   1.0000   1.0000
     1.0000   1.0000   1.0000   1.0000   1.0000   1.0000   1.0000   1.0000
     1.0000   1.0000   1.0000   1.0000   1.0000   1.0000   1.0000   1.0000
     1.0000   1.0000   1.0000   1.0000   1.0000   1.0000   1.0000   1.0000

          k = 0.5000 0.0748-0.0444 ( 63010 PWs)   bands (ev):

   -18.4339 -18.4339 -18.4339 -18.4339 -18.4316 -18.4316 -18.4316 -18.4316
   -18.4210 -18.4210 -18.4210 -18.4210 -18.4187 -18.4187 -18.4187 -18.4187
   -17.8354 -17.8354 -17.8354 -17.8354 -17.8347 -17.8347 -17.8347 -17.8347
   -17.3957 -17.3957 -17.3957 -17.3957 -17.3934 -17.3934 -17.3934 -17.3934
   -17.3856 -17.3856 -17.3856 -17.3856 -17.3834 -17.3834 -17.3834 -17.3834
   -17.3779 -17.3779 -17.3779 -17.3779 -17.3756 -17.3756 -17.3756 -17.3756
    -8.6123  -8.6123  -8.6122  -8.6122  -8.6091  -8.6091  -8.6090  -8.6090
    -8.4433  -8.4433  -8.4431  -8.4431  -8.4336  -8.4336  -8.4333  -8.4333
    -8.4209  -8.4209  -8.4208  -8.4208  -8.4048  -8.4048  -8.4048  -8.4048
    -5.8431  -5.8431  -5.8431  -5.8431  -5.8145  -5.8145  -5.8145  -5.8145
    -4.3141  -4.3141  -4.3141  -4.3141  -4.2616  -4.2616  -4.2613  -4.2613
    -4.1795  -4.1795  -4.1790  -4.1790  -4.1444  -4.1444  -4.1442  -4.1442
    -3.3291  -3.3291  -3.3288  -3.3288  -3.2970  -3.2970  -3.2966  -3.2966
    -0.1898  -0.1898  -0.1803  -0.1803  -0.1608  -0.1608  -0.1495  -0.1495
     0.3349   0.3349   0.3357   0.3357   0.3954   0.3954   0.4010   0.4010
     0.5364   0.5364   0.5438   0.5438   0.6376   0.6376   0.6478   0.6478
     1.0853   1.0853   1.0871   1.0871   1.1992   1.1992   1.2096   1.2096
     1.3873   1.3873   1.3939   1.3939   1.5284   1.5284   1.5506   1.5506
     1.6589   1.6589   1.6687   1.6687   1.7437   1.7437   1.7446   1.7446
     1.8542   1.8542   1.8618   1.8618   1.9550   1.9550   1.9552   1.9552
     2.0801   2.0801   2.0820   2.0820   2.2085   2.2085   2.2154   2.2154
     2.6088   2.6088   2.6112   2.6112   2.8761   2.8761   2.8771   2.8771

     occupation numbers 
     1.0000   1.0000   1.0000   1.0000   1.0000   1.0000   1.0000   1.0000
     1.0000   1.0000   1.0000   1.0000   1.0000   1.0000   1.0000   1.0000
     1.0000   1.0000   1.0000   1.0000   1.0000   1.0000   1.0000   1.0000
     1.0000   1.0000   1.0000   1.0000   1.0000   1.0000   1.0000   1.0000
     1.0000   1.0000   1.0000   1.0000   1.0000   1.0000   1.0000   1.0000
     1.0000   1.0000   1.0000   1.0000   1.0000   1.0000   1.0000   1.0000
     1.0000   1.0000   1.0000   1.0000   1.0000   1.0000   1.0000   1.0000
     1.0000   1.0000   1.0000   1.0000   1.0000   1.0000   1.0000   1.0000
     1.0000   1.0000   1.0000   1.0000   1.0000   1.0000   1.0000   1.0000
     1.0000   1.0000   1.0000   1.0000   1.0000   1.0000   1.0000   1.0000
     1.0000   1.0000   1.0000   1.0000   1.0000   1.0000   1.0000   1.0000
     1.0000   1.0000   1.0000   1.0000   1.0000   1.0000   1.0000   1.0000
     1.0000   1.0000   1.0000   1.0000   1.0000   1.0000   1.0000   1.0000
     1.0000   1.0000   1.0000   1.0000   1.0000   1.0000   1.0000   1.0000
     1.0000   1.0000   1.0000   1.0000   1.0000   1.0000   1.0000   1.0000
     1.0000   1.0000   1.0000   1.0000   1.0000   1.0000   1.0000   1.0000
     1.0000   1.0000   1.0000   1.0000   1.0000   1.0000   1.0000   1.0000
     1.0000   1.0000   1.0000   1.0000   1.0000   1.0000   1.0000   1.0000
     1.0000   1.0000   1.0000   1.0000   1.0000   1.0000   1.0000   1.0000
     1.0000   1.0000   1.0000   1.0000   1.0000   1.0000   1.0000   1.0000
     1.0000   1.0000   1.0000   1.0000   1.0000   1.0000   1.0000   1.0000
     1.0000   1.0000   1.0000   1.0000   1.0000   1.0000   1.0000   1.0000

     highest occupied level (ev):     3.0120

!    total energy              =   -1268.15201823 Ry
     Harris-Foulkes estimate   =   -1268.15201851 Ry
     estimated scf accuracy    <       0.00000097 Ry

     The total energy is the sum of the following terms:

     one-electron contribution =    -488.13260207 Ry
     hartree contribution      =     316.29838790 Ry
     xc contribution           =    -462.74820245 Ry
     ewald contribution        =    -633.56960162 Ry

     convergence has been achieved in   8 iterations

     Forces acting on atoms (Ry/au):

     atom    1 type  1   force =     0.00000000   -0.00084069    0.00047260
     atom    2 type  1   force =     0.00000000    0.00084069   -0.00047260
     atom    3 type  1   force =     0.00000000   -0.00096075   -0.00051627
     atom    4 type  1   force =     0.00000000    0.00096075    0.00051627
     atom    5 type  2   force =     0.00000000   -0.00172692   -0.00045128
     atom    6 type  2   force =     0.00000000    0.00172692    0.00045128
     atom    7 type  2   force =    -0.00000000   -0.00101468    0.00021745
     atom    8 type  2   force =     0.00000000    0.00101468   -0.00021745
     atom    9 type  3   force =     0.00000000   -0.00299007   -0.00369117
     atom   10 type  3   force =     0.00000000    0.00299007    0.00369117
     atom   11 type  3   force =     0.00000000   -0.00298125    0.00375773
     atom   12 type  3   force =     0.00000000    0.00298125   -0.00375773
     atom   13 type  3   force =     0.00000000   -0.00198375    0.00294883
     atom   14 type  3   force =     0.00000000    0.00198375   -0.00294883
     atom   15 type  3   force =     0.00000000   -0.00206413   -0.00303622
     atom   16 type  3   force =     0.00000000    0.00206413    0.00303622
     atom   17 type  3   force =     0.00000000    0.00251691   -0.00198240
     atom   18 type  3   force =     0.00000000   -0.00251691    0.00198240
     atom   19 type  3   force =     0.00000000    0.00238102    0.00198191
     atom   20 type  3   force =     0.00000000   -0.00238102   -0.00198191
     The non-local contrib.  to forces
     atom    1 type  1   force =     0.00000000    0.00235489   -0.00267269
     atom    2 type  1   force =     0.00000000   -0.00235489    0.00267269
     atom    3 type  1   force =     0.00000000    0.00220181    0.00260220
     atom    4 type  1   force =     0.00000000   -0.00220181   -0.00260220
     atom    5 type  2   force =     0.00000000   -0.08454897   -0.12944913
     atom    6 type  2   force =     0.00000000    0.08454897    0.12944913
     atom    7 type  2   force =     0.00000000   -0.08392989    0.12922632
     atom    8 type  2   force =     0.00000000    0.08392989   -0.12922632
     atom    9 type  3   force =     0.00000000   -0.04619231   -0.04653237
     atom   10 type  3   force =     0.00000000    0.04619231    0.04653237
     atom   11 type  3   force =     0.00000000   -0.04618350    0.04651796
     atom   12 type  3   force =     0.00000000    0.04618350   -0.04651796
     atom   13 type  3   force =     0.00000000   -0.03256261    0.05527734
     atom   14 type  3   force =     0.00000000    0.03256261   -0.05527734
     atom   15 type  3   force =     0.00000000   -0.03260957   -0.05533041
     atom   16 type  3   force =     0.00000000    0.03260957    0.05533041
     atom   17 type  3   force =     0.00000000    0.05276612   -0.01587732
     atom   18 type  3   force =     0.00000000   -0.05276612    0.01587732
     atom   19 type  3   force =     0.00000000    0.05273760    0.01587549
     atom   20 type  3   force =     0.00000000   -0.05273760   -0.01587549
     The ionic contribution  to forces
     atom    1 type  1   force =    -0.00000000    0.02273773    0.42856976
     atom    2 type  1   force =     0.00000000   -0.02273773   -0.42856976
     atom    3 type  1   force =    -0.00000000    0.02273773   -0.42856976
     atom    4 type  1   force =     0.00000000   -0.02273773    0.42856976
     atom    5 type  2   force =    -0.00000000   -2.44382133   -1.60292982
     atom    6 type  2   force =     0.00000000    2.44382133    1.60292982
     atom    7 type  2   force =    -0.00000000   -2.44382133    1.60292982
     atom    8 type  2   force =     0.00000000    2.44382133   -1.60292982
     atom    9 type  3   force =    -0.00000000    3.00608889    5.13288889
     atom   10 type  3   force =    -0.00000000   -3.00608889   -5.13288889
     atom   11 type  3   force =    -0.00000000    3.00608889   -5.13288889
     atom   12 type  3   force =    -0.00000000   -3.00608889    5.13288889
     atom   13 type  3   force =    -0.00000000    2.02422847   -3.75281495
     atom   14 type  3   force =     0.00000000   -2.02422847    3.75281495
     atom   15 type  3   force =    -0.00000000    2.02422847    3.75281495
     atom   16 type  3   force =     0.00000000   -2.02422847   -3.75281495
     atom   17 type  3   force =    -0.00000000   -4.20564469    2.10270402
     atom   18 type  3   force =     0.00000000    4.20564469   -2.10270402
     atom   19 type  3   force =     0.00000000   -4.20564469   -2.10270402
     atom   20 type  3   force =     0.00000000    4.20564469    2.10270402
     The local contribution  to forces
     atom    1 type  1   force =     0.00000000   -0.02557924   -0.42571362
     atom    2 type  1   force =     0.00000000    0.02557924    0.42571362
     atom    3 type  1   force =    -0.00000000   -0.02621278    0.42542512
     atom    4 type  1   force =     0.00000000    0.02621278   -0.42542512
     atom    5 type  2   force =    -0.00000000    2.52791671    1.73202590
     atom    6 type  2   force =     0.00000000   -2.52791671   -1.73202590
     atom    7 type  2   force =     0.00000000    2.52547590   -1.73120146
     atom    8 type  2   force =     0.00000000   -2.52547590    1.73120146
     atom    9 type  3   force =    -0.00000000   -2.96758078   -5.09481515
     atom   10 type  3   force =     0.00000000    2.96758078    5.09481515
     atom   11 type  3   force =     0.00000000   -2.96769976    5.09548029
     atom   12 type  3   force =     0.00000000    2.96769976   -5.09548029
     atom   13 type  3   force =     0.00000000   -1.99647053    3.70566021
     atom   14 type  3   force =    -0.00000000    1.99647053   -3.70566021
     atom   15 type  3   force =     0.00000000   -1.99728275   -3.70626364
     atom   16 type  3   force =     0.00000000    1.99728275    3.70626364
     atom   17 type  3   force =    -0.00000000    4.16164468   -2.09054290
     atom   18 type  3   force =     0.00000000   -4.16164468    2.09054290
     atom   19 type  3   force =     0.00000000    4.16050467    2.09058810
     atom   20 type  3   force =    -0.00000000   -4.16050467   -2.09058810
     The core correction contribution to forces
     atom    1 type  1   force =    -0.00000000   -0.00002257    0.00012602
     atom    2 type  1   force =     0.00000000    0.00002257   -0.00012602
     atom    3 type  1   force =    -0.00000000   -0.00002757   -0.00012755
     atom    4 type  1   force =     0.00000000    0.00002757    0.00012755
     atom    5 type  2   force =     0.00000000    0.00020179    0.00016067
     atom    6 type  2   force =    -0.00000000   -0.00020179   -0.00016067
     atom    7 type  2   force =    -0.00000000    0.00016498   -0.00015037
     atom    8 type  2   force =     0.00000000   -0.00016498    0.00015037
     atom    9 type  3   force =    -0.00000000    0.00479130    0.00512868
     atom   10 type  3   force =     0.00000000   -0.00479130   -0.00512868
     atom   11 type  3   force =     0.00000000    0.00478856   -0.00511448
     atom   12 type  3   force =     0.00000000   -0.00478856    0.00511448
     atom   13 type  3   force =     0.00000000    0.00323335   -0.00554982
     atom   14 type  3   force =    -0.00000000   -0.00323335    0.00554982
     atom   15 type  3   force =     0.00000000    0.00322528    0.00554639
     atom   16 type  3   force =    -0.00000000   -0.00322528   -0.00554639
     atom   17 type  3   force =    -0.00000000   -0.00584562    0.00182954
     atom   18 type  3   force =     0.00000000    0.00584562   -0.00182954
     atom   19 type  3   force =    -0.00000000   -0.00586193   -0.00182809
     atom   20 type  3   force =    -0.00000000    0.00586193    0.00182809
     The Hubbard contrib.    to forces
     atom    1 type  1   force =     0.00000000    0.00000000    0.00000000
     atom    2 type  1   force =     0.00000000    0.00000000    0.00000000
     atom    3 type  1   force =     0.00000000    0.00000000    0.00000000
     atom    4 type  1   force =     0.00000000    0.00000000    0.00000000
     atom    5 type  2   force =     0.00000000    0.00000000    0.00000000
     atom    6 type  2   force =     0.00000000    0.00000000    0.00000000
     atom    7 type  2   force =     0.00000000    0.00000000    0.00000000
     atom    8 type  2   force =     0.00000000    0.00000000    0.00000000
     atom    9 type  3   force =     0.00000000    0.00000000    0.00000000
     atom   10 type  3   force =     0.00000000    0.00000000    0.00000000
     atom   11 type  3   force =     0.00000000    0.00000000    0.00000000
     atom   12 type  3   force =     0.00000000    0.00000000    0.00000000
     atom   13 type  3   force =     0.00000000    0.00000000    0.00000000
     atom   14 type  3   force =     0.00000000    0.00000000    0.00000000
     atom   15 type  3   force =     0.00000000    0.00000000    0.00000000
     atom   16 type  3   force =     0.00000000    0.00000000    0.00000000
     atom   17 type  3   force =     0.00000000    0.00000000    0.00000000
     atom   18 type  3   force =     0.00000000    0.00000000    0.00000000
     atom   19 type  3   force =     0.00000000    0.00000000    0.00000000
     atom   20 type  3   force =     0.00000000    0.00000000    0.00000000
     The SCF correction term to forces
     atom    1 type  1   force =     0.00000000   -0.00033150    0.00016313
     atom    2 type  1   force =     0.00000000    0.00033150   -0.00016313
     atom    3 type  1   force =     0.00000000    0.00034005    0.00015372
     atom    4 type  1   force =    -0.00000000   -0.00034005   -0.00015372
     atom    5 type  2   force =    -0.00000000   -0.00147512   -0.00025891
     atom    6 type  2   force =     0.00000000    0.00147512    0.00025891
     atom    7 type  2   force =     0.00000000    0.00109566   -0.00058687
     atom    8 type  2   force =    -0.00000000   -0.00109566    0.00058687
     atom    9 type  3   force =     0.00000000   -0.00009716   -0.00036122
     atom   10 type  3   force =     0.00000000    0.00009716    0.00036122
     atom   11 type  3   force =    -0.00000000    0.00002458   -0.00023714
     atom   12 type  3   force =     0.00000000   -0.00002458    0.00023714
     atom   13 type  3   force =    -0.00000000   -0.00041242    0.00037605
     atom   14 type  3   force =     0.00000000    0.00041242   -0.00037605
     atom   15 type  3   force =     0.00000000    0.00037444    0.00019649
     atom   16 type  3   force =    -0.00000000   -0.00037444   -0.00019649
     atom   17 type  3   force =     0.00000000   -0.00040357   -0.00009574
     atom   18 type  3   force =    -0.00000000    0.00040357    0.00009574
     atom   19 type  3   force =    -0.00000000    0.00064538    0.00005044
     atom   20 type  3   force =     0.00000000   -0.00064538   -0.00005044

     Total force =     0.013995     Total SCF correction =     0.003269
     SCF correction compared to forces is large: reduce conv_thr to get better values


     entering subroutine stress ...

     Message from routine stres:
     noncollinear stress + GGA not implemented

     Writing output data file CsSnI3.save

     init_run     :     35.36s CPU     23.63s WALL (       1 calls)
     electrons    :    796.66s CPU    479.71s WALL (       1 calls)
     forces       :     69.31s CPU     63.88s WALL (       1 calls)

     Called by init_run:
     wfcinit      :     26.07s CPU     15.93s WALL (       1 calls)
     wfcinit:atom :      0.10s CPU      0.14s WALL (      10 calls)
     wfcinit:wfcr :     25.22s CPU     15.00s WALL (      10 calls)
     potinit      :      0.87s CPU      0.82s WALL (       1 calls)

     Called by electrons:
     c_bands      :    620.92s CPU    368.39s WALL (       9 calls)
     sum_band     :    132.19s CPU     78.82s WALL (       9 calls)
     v_of_rho     :      1.00s CPU      0.70s WALL (       9 calls)
     v_h          :      0.10s CPU      0.06s WALL (       9 calls)
     v_xc         :      1.03s CPU      0.72s WALL (      10 calls)
     newd         :     41.62s CPU     29.29s WALL (       9 calls)
     mix_rho      :      0.71s CPU      0.62s WALL (       9 calls)

     Called by c_bands:
     init_us_2    :      2.93s CPU      2.40s WALL (     200 calls)
     cegterg      :    600.00s CPU    347.81s WALL (      90 calls)

     Called by sum_band:
     sum_band:bec :     12.32s CPU      8.02s WALL (      90 calls)
     addusdens    :     30.40s CPU     22.49s WALL (       9 calls)

     Called by *egterg:
     h_psi        :    396.35s CPU    213.81s WALL (     387 calls)
     s_psi        :     68.85s CPU     45.48s WALL (     387 calls)
     g_psi        :      1.29s CPU      0.80s WALL (     287 calls)
     cdiaghg      :     42.99s CPU     26.98s WALL (     367 calls)
     cegterg:over :     49.70s CPU     31.67s WALL (     287 calls)
     cegterg:upda :     25.23s CPU     13.53s WALL (     287 calls)
     cegterg:last :     11.23s CPU      6.11s WALL (      90 calls)

     Called by h_psi:
     h_psi:pot    :    393.04s CPU    211.06s WALL (     387 calls)
     h_psi:calbec :     62.99s CPU     34.21s WALL (     387 calls)
     vloc_psi     :    267.81s CPU    139.74s WALL (     387 calls)
     add_vuspsi   :     62.23s CPU     37.11s WALL (     387 calls)

     General routines
     calbec       :     93.46s CPU     51.82s WALL (     517 calls)
     fft          :      3.21s CPU      2.66s WALL (     284 calls)
     ffts         :      0.65s CPU      0.49s WALL (      72 calls)
     fftw         :    279.54s CPU    146.72s WALL (  212524 calls)
     interpolate  :      1.28s CPU      0.91s WALL (      72 calls)

     Parallel routines
     fft_scatter  :    201.13s CPU    107.65s WALL (  212880 calls)

     PWSCF        : 15m11.24s CPU     9m44.38s WALL


   This run was terminated on:   8:37:46  27Jan2021            

=------------------------------------------------------------------------------=
   JOB DONE.
=------------------------------------------------------------------------------=
