
     Program PWSCF v.6.4.1 starts on 23Jan2021 at 10:34:20 

     This program is part of the open-source Quantum ESPRESSO suite
     for quantum simulation of materials; please cite
         "P. Giannozzi et al., J. Phys.:Condens. Matter 21 395502 (2009);
         "P. Giannozzi et al., J. Phys.:Condens. Matter 29 465901 (2017);
          URL http://www.quantum-espresso.org", 
     in publications or presentations arising from this work. More details at
     http://www.quantum-espresso.org/quote

     Parallel version (MPI & OpenMP), running on      48 processor cores
     Number of MPI processes:                24
     Threads/MPI process:                     2

     MPI processes distributed on     1 nodes
     R & G space division:  proc/nbgrp/npool/nimage =      24
     Waiting for input...
     Reading input from standard input

     Current dimensions of program PWSCF are:
     Max number of different atomic species (ntypx) = 10
     Max number of k-points (npk) =  40000
     Max angular momentum in pseudopotentials (lmaxx) =  3
               file Cs.rel-pbesol-spn-kjpaw_psl.1.0.0.UPF: wavefunction(s)  5S 6S renormalized
               file Sn.rel-pbesol-dn-kjpaw_psl.1.0.0.UPF: wavefunction(s)  5S 5P 5P 4D 4D renormalized
               file I.rel-pbesol-n-kjpaw_psl.1.0.0.UPF: wavefunction(s)  5S renormalized

     Subspace diagonalization in iterative solution of the eigenvalue problem:
     one sub-group per band group will be used
     scalapack distributed-memory algorithm (size of sub-group:  3*  3 procs)

 
     Parallelization info
     --------------------
     sticks:   dense  smooth     PW     G-vecs:    dense   smooth      PW
     Min         258     172     45                38578    21000    2815
     Max         259     173     46                38583    21011    2822
     Sum        6211    4145   1087               925941   504115   67611
 

     Title: 
     CsSnI3                                                                     


     bravais-lattice index     =            8
     lattice parameter (alat)  =       9.1317  a.u.
     unit-cell volume          =    6370.5385 (a.u.)^3
     number of atoms/cell      =           20
     number of atomic types    =            3
     number of electrons       =       176.00
     number of Kohn-Sham states=          176
     kinetic-energy cutoff     =      70.0000  Ry
     charge density cutoff     =     420.0000  Ry
     convergence threshold     =      1.0E-06
     mixing beta               =       0.3500
     number of iterations used =            8  plain     mixing
     Exchange-correlation      = SLA PW PSX PSC ( 1  4 10  8 0 0)
     Non magnetic calculation with spin-orbit


     celldm(1)=   9.131705  celldm(2)=   2.227728  celldm(3)=   3.755420
     celldm(4)=   0.000000  celldm(5)=   0.000000  celldm(6)=   0.000000

     crystal axes: (cart. coord. in units of alat)
               a(1) = (   1.000000   0.000000   0.000000 )  
               a(2) = (   0.000000   2.227728   0.000000 )  
               a(3) = (   0.000000   0.000000   3.755420 )  

     reciprocal axes: (cart. coord. in units 2 pi/alat)
               b(1) = (  1.000000  0.000000  0.000000 )  
               b(2) = (  0.000000  0.448888  0.000000 )  
               b(3) = (  0.000000  0.000000  0.266282 )  


     PseudoPot. # 1 for Cs read from file:
     /marconi_scratch/userexternal/cmalosso/degironcoli/pseudo/Cs.rel-pbesol-spn-kjpaw_psl.1.0.0.UPF
     MD5 check sum: 2adfb289dd462649b099d7edbec69378
     Pseudo is Projector augmented-wave + core cor, Zval =  9.0
     Generated using "atomic" code by A. Dal Corso v.6.4.1
     Shape of augmentation charge: PSQ
     Using radial grid of 1251 points, 15 beta functions with: 
                l(1) =   0
                l(2) =   0
                l(3) =   0
                l(4) =   1
                l(5) =   1
                l(6) =   1
                l(7) =   1
                l(8) =   2
                l(9) =   2
               l(10) =   2
               l(11) =   2
               l(12) =   3
               l(13) =   3
               l(14) =   3
               l(15) =   3
     Q(r) pseudized with 0 coefficients 


     PseudoPot. # 2 for Sn read from file:
     /marconi_scratch/userexternal/cmalosso/degironcoli/pseudo/Sn.rel-pbesol-dn-kjpaw_psl.1.0.0.UPF
     MD5 check sum: e69eff64f15ae39ad43ef58bacbfdf88
     Pseudo is Projector augmented-wave + core cor, Zval = 14.0
     Generated using "atomic" code by A. Dal Corso v.6.3
     Shape of augmentation charge: PSQ
     Using radial grid of 1243 points, 10 beta functions with: 
                l(1) =   0
                l(2) =   0
                l(3) =   1
                l(4) =   1
                l(5) =   1
                l(6) =   1
                l(7) =   2
                l(8) =   2
                l(9) =   2
               l(10) =   2
     Q(r) pseudized with 0 coefficients 


     PseudoPot. # 3 for I  read from file:
     /marconi_scratch/userexternal/cmalosso/degironcoli/pseudo/I.rel-pbesol-n-kjpaw_psl.1.0.0.UPF
     MD5 check sum: 4478c427bd443f303eca1937a163b991
     Pseudo is Projector augmented-wave + core cor, Zval =  7.0
     Generated using "atomic" code by A. Dal Corso v.6.3
     Shape of augmentation charge: PSQ
     Using radial grid of 1247 points, 10 beta functions with: 
                l(1) =   0
                l(2) =   0
                l(3) =   1
                l(4) =   1
                l(5) =   1
                l(6) =   1
                l(7) =   2
                l(8) =   2
                l(9) =   2
               l(10) =   2
     Q(r) pseudized with 0 coefficients 


     atomic species   valence    mass     pseudopotential
        Cs             9.00   132.90000     Cs( 1.00)
        Sn            14.00   118.70000     Sn( 1.00)
        I              7.00   126.90000     I ( 1.00)

      8 Sym. Ops., with inversion, found ( 6 have fractional translation)


                                    s                        frac. trans.

      isym =  1     identity                                     

 cryst.   s( 1) = (     1          0          0      )
                  (     0          1          0      )
                  (     0          0          1      )

 cart.    s( 1) = (  1.0000000  0.0000000  0.0000000 )
                  (  0.0000000  1.0000000  0.0000000 )
                  (  0.0000000  0.0000000  1.0000000 )


      isym =  2     180 deg rotation - cart. axis [0,0,1]        

 cryst.   s( 2) = (    -1          0          0      )    f =(  0.0000000 )
                  (     0         -1          0      )       (  0.5000000 )
                  (     0          0          1      )       (  0.5000000 )

 cart.    s( 2) = ( -1.0000000  0.0000000  0.0000000 )    f =(  0.0000000 )
                  (  0.0000000 -1.0000000  0.0000000 )       (  1.1138638 )
                  (  0.0000000  0.0000000  1.0000000 )       (  1.8777098 )


      isym =  3     180 deg rotation - cart. axis [0,1,0]        

 cryst.   s( 3) = (    -1          0          0      )    f =(  0.5000000 )
                  (     0          1          0      )       ( -0.5000000 )
                  (     0          0         -1      )       ( -0.5000000 )

 cart.    s( 3) = ( -1.0000000  0.0000000  0.0000000 )    f =(  0.5000000 )
                  (  0.0000000  1.0000000  0.0000000 )       ( -1.1138638 )
                  (  0.0000000  0.0000000 -1.0000000 )       ( -1.8777098 )


      isym =  4     180 deg rotation - cart. axis [1,0,0]        

 cryst.   s( 4) = (     1          0          0      )    f =( -0.5000000 )
                  (     0         -1          0      )       (  0.0000000 )
                  (     0          0         -1      )       (  0.0000000 )

 cart.    s( 4) = (  1.0000000  0.0000000  0.0000000 )    f =( -0.5000000 )
                  (  0.0000000 -1.0000000  0.0000000 )       (  0.0000000 )
                  (  0.0000000  0.0000000 -1.0000000 )       (  0.0000000 )


      isym =  5     inversion                                    

 cryst.   s( 5) = (    -1          0          0      )
                  (     0         -1          0      )
                  (     0          0         -1      )

 cart.    s( 5) = ( -1.0000000  0.0000000  0.0000000 )
                  (  0.0000000 -1.0000000  0.0000000 )
                  (  0.0000000  0.0000000 -1.0000000 )


      isym =  6     inv. 180 deg rotation - cart. axis [0,0,1]   

 cryst.   s( 6) = (     1          0          0      )    f =(  0.0000000 )
                  (     0          1          0      )       ( -0.5000000 )
                  (     0          0         -1      )       ( -0.5000000 )

 cart.    s( 6) = (  1.0000000  0.0000000  0.0000000 )    f =(  0.0000000 )
                  (  0.0000000  1.0000000  0.0000000 )       ( -1.1138638 )
                  (  0.0000000  0.0000000 -1.0000000 )       ( -1.8777098 )


      isym =  7     inv. 180 deg rotation - cart. axis [0,1,0]   

 cryst.   s( 7) = (     1          0          0      )    f =( -0.5000000 )
                  (     0         -1          0      )       (  0.5000000 )
                  (     0          0          1      )       (  0.5000000 )

 cart.    s( 7) = (  1.0000000  0.0000000  0.0000000 )    f =( -0.5000000 )
                  (  0.0000000 -1.0000000  0.0000000 )       (  1.1138638 )
                  (  0.0000000  0.0000000  1.0000000 )       (  1.8777098 )


      isym =  8     inv. 180 deg rotation - cart. axis [1,0,0]   

 cryst.   s( 8) = (    -1          0          0      )    f =(  0.5000000 )
                  (     0          1          0      )       (  0.0000000 )
                  (     0          0          1      )       (  0.0000000 )

 cart.    s( 8) = ( -1.0000000  0.0000000  0.0000000 )    f =(  0.5000000 )
                  (  0.0000000  1.0000000  0.0000000 )       (  0.0000000 )
                  (  0.0000000  0.0000000  1.0000000 )       (  0.0000000 )


     double point group D_2h (mmm) 
     there are 10 classes and  2 irreducible representations
     the character table:

       E     -E     C2    C2'  C2''  i     -i     s_v   s_v' s_v''
                   -C2   -C2'  -C2''             -s_v  -s_v' -s_v'
G_5+   2.00 -2.00  0.00  0.00  0.00  2.00 -2.00  0.00  0.00  0.00
G_5-   2.00 -2.00  0.00  0.00  0.00 -2.00  2.00  0.00  0.00  0.00

     the symmetry operations in each class and the name of the first element:

     E             1
          identity                                               
     -E           -1
          identity E                                             
      C2  -C2      2   -2
          180 deg rotation - cart. axis [0,0,1]                  
      C2' -C2'     4   -4
          180 deg rotation - cart. axis [1,0,0]                  
     C2'' -C2''    3   -3
          180 deg rotation - cart. axis [0,1,0]                  
     i             5
          inversion                                              
     -i           -5
          inversion E                                            
      s_v -s_v     6   -6
          inv. 180 deg rotation - cart. axis [0,0,1]             
      s_v'-s_v'    8   -8
          inv. 180 deg rotation - cart. axis [1,0,0]             
     s_v''-s_v'    7   -7
          inv. 180 deg rotation - cart. axis [0,1,0]             

   Cartesian axes

     site n.     atom                  positions (alat units)
         1           Cs  tau(   1) = (   0.2500000   0.1859640   2.5168147  )
         2           Cs  tau(   2) = (   0.7500000   2.0417636   1.2386050  )
         3           Cs  tau(   3) = (   0.2500000   1.2998278   3.1163149  )
         4           Cs  tau(   4) = (   0.7500000   0.9278998   0.6391048  )
         5           Sn  tau(   5) = (   0.2500000   0.7615710   1.6485466  )
         6           Sn  tau(   6) = (   0.7500000   1.4661567   2.1068731  )
         7           Sn  tau(   7) = (   0.2500000   1.8754348   0.2291632  )
         8           Sn  tau(   8) = (   0.7500000   0.3522928   3.5262565  )
         9           I   tau(   9) = (   0.7500000   0.0581437   0.4202578  )
        10           I   tau(  10) = (   0.2500000   2.1695839   3.3351619  )
        11           I   tau(  11) = (   0.7500000   1.1720075   1.4574521  )
        12           I   tau(  12) = (   0.2500000   1.0557201   2.2979676  )
        13           I   tau(  13) = (   0.7500000   0.6531118   2.9738192  )
        14           I   tau(  14) = (   0.2500000   1.5746158   0.7816005  )
        15           I   tau(  15) = (   0.7500000   1.7669756   2.6593103  )
        16           I   tau(  16) = (   0.2500000   0.4607520   1.0961094  )
        17           I   tau(  17) = (   0.7500000   0.3753632   1.8734812  )
        18           I   tau(  18) = (   0.2500000   1.8523644   1.8819384  )
        19           I   tau(  19) = (   0.7500000   1.4892270   0.0042286  )
        20           I   tau(  20) = (   0.2500000   0.7385006   3.7511911  )

   Crystallographic axes

     site n.     atom                  positions (cryst. coord.)
         1           Cs  tau(   1) = (  0.2500000  0.0834770  0.6701820  )
         2           Cs  tau(   2) = (  0.7500000  0.9165230  0.3298180  )
         3           Cs  tau(   3) = (  0.2500000  0.5834770  0.8298180  )
         4           Cs  tau(   4) = (  0.7500000  0.4165230  0.1701820  )
         5           Sn  tau(   5) = (  0.2500000  0.3418600  0.4389780  )
         6           Sn  tau(   6) = (  0.7500000  0.6581400  0.5610220  )
         7           Sn  tau(   7) = (  0.2500000  0.8418600  0.0610220  )
         8           Sn  tau(   8) = (  0.7500000  0.1581400  0.9389780  )
         9           I   tau(   9) = (  0.7500000  0.0261000  0.1119070  )
        10           I   tau(  10) = (  0.2500000  0.9739000  0.8880930  )
        11           I   tau(  11) = (  0.7500000  0.5261000  0.3880930  )
        12           I   tau(  12) = (  0.2500000  0.4739000  0.6119070  )
        13           I   tau(  13) = (  0.7500000  0.2931740  0.7918740  )
        14           I   tau(  14) = (  0.2500000  0.7068260  0.2081260  )
        15           I   tau(  15) = (  0.7500000  0.7931740  0.7081260  )
        16           I   tau(  16) = (  0.2500000  0.2068260  0.2918740  )
        17           I   tau(  17) = (  0.7500000  0.1684960  0.4988740  )
        18           I   tau(  18) = (  0.2500000  0.8315040  0.5011260  )
        19           I   tau(  19) = (  0.7500000  0.6684960  0.0011260  )
        20           I   tau(  20) = (  0.2500000  0.3315040  0.9988740  )

     number of k points=     1
                       cart. coord. in units 2pi/alat
        k(    1) = (   0.2500000   0.1122220   0.0665705), wk =   1.0000000

                       cryst. coord.
        k(    1) = (   0.2500000   0.2500000   0.2500000), wk =   1.0000000

     Dense  grid:   925941 G-vectors     FFT dimensions: (  60, 144, 240)

     Smooth grid:   504115 G-vectors     FFT dimensions: (  50, 120, 192)

     Dynamical RAM for                 wfc:      14.10 MB

     Dynamical RAM for     wfc (w. buffer):      14.10 MB

     Dynamical RAM for           str. fact:       1.77 MB

     Dynamical RAM for           local pot:       0.00 MB

     Dynamical RAM for          nlocal pot:      31.88 MB

     Dynamical RAM for                qrad:      57.33 MB

     Dynamical RAM for          rho,v,vnew:      14.97 MB

     Dynamical RAM for               rhoin:       4.99 MB

     Dynamical RAM for            rho*nmix:      37.68 MB

     Dynamical RAM for           G-vectors:       2.37 MB

     Dynamical RAM for          h,s,v(r/c):       2.51 MB

     Dynamical RAM for          <psi|beta>:       4.28 MB

     Dynamical RAM for                 psi:      56.40 MB

     Dynamical RAM for                hpsi:      56.40 MB

     Dynamical RAM for                spsi:      56.40 MB

     Dynamical RAM for      wfcinit/wfcrot:      25.99 MB

     Dynamical RAM for           addusdens:    1209.78 MB

     Dynamical RAM for          addusforce:    1238.07 MB

     Dynamical RAM for         addusstress:    1220.37 MB

     Estimated static dynamical RAM per process >     172.72 MB

     Estimated max dynamical RAM per process >       1.38 GB

     Estimated total dynamical RAM >      33.07 GB

     Initial potential from superposition of free atoms

     starting charge  175.84163, renormalised to  176.00000
     Starting wfcs are  208 randomized atomic wfcs
     Checking if some PAW data can be deallocated... 
       PAW data deallocated on   16 nodes for type:  1
       PAW data deallocated on   20 nodes for type:  2
       PAW data deallocated on   12 nodes for type:  3

     total cpu time spent up to now is       28.4 secs

     Self-consistent Calculation

     iteration #  1     ecut=    70.00 Ry     beta= 0.35
     Davidson diagonalization with overlap
     ethr =  1.00E-02,  avg # of iterations =  1.0

     Threshold (ethr) on eigenvalues was too large:
     Diagonalizing with lowered threshold

     Davidson diagonalization with overlap
     ethr =  3.17E-04,  avg # of iterations = 13.0

     negative rho (up, down):  1.884E+03 0.000E+00

     total cpu time spent up to now is      119.7 secs

     total energy              =  -11208.73016782 Ry
     Harris-Foulkes estimate   =   -7900.70361930 Ry
     estimated scf accuracy    < 6187042.73836036 Ry

     iteration #  2     ecut=    70.00 Ry     beta= 0.35
     Davidson diagonalization with overlap
     ethr =  1.00E-02,  avg # of iterations = 19.0

     negative rho (up, down):  2.523E+03 0.000E+00

     total cpu time spent up to now is      234.4 secs

     total energy              =  -59945.48648292 Ry
     Harris-Foulkes estimate   =  -45625.35284378 Ry
     estimated scf accuracy    <  449796.04310831 Ry

     iteration #  3     ecut=    70.00 Ry     beta= 0.35
     Davidson diagonalization with overlap
     ethr =  1.00E-02,  avg # of iterations =  8.0

     negative rho (up, down):  6.189E+03 0.000E+00

     total cpu time spent up to now is      292.3 secs

     total energy              = -125458.34910362 Ry
     Harris-Foulkes estimate   =  -87588.88365885 Ry
     estimated scf accuracy    < 2909856.63665059 Ry

     iteration #  4     ecut=    70.00 Ry     beta= 0.35
     Davidson diagonalization with overlap
     ethr =  1.00E-02,  avg # of iterations = 22.0

     negative rho (up, down):  5.359E+03 0.000E+00

     total cpu time spent up to now is      386.8 secs

     total energy              = -125895.83531258 Ry
     Harris-Foulkes estimate   = -125938.00907315 Ry
     estimated scf accuracy    <   11740.95757698 Ry

     iteration #  5     ecut=    70.00 Ry     beta= 0.35
     Davidson diagonalization with overlap
     ethr =  1.00E-02,  avg # of iterations =  6.0

     negative rho (up, down):  1.696E+03 0.000E+00

     total cpu time spent up to now is      442.5 secs

     total energy              = -141437.51352998 Ry
     Harris-Foulkes estimate   = -125934.05760480 Ry
     estimated scf accuracy    <  163622.64746877 Ry

     iteration #  6     ecut=    70.00 Ry     beta= 0.35
     Davidson diagonalization with overlap
     ethr =  1.00E-02,  avg # of iterations = 42.0

     negative rho (up, down):  2.299E+03 0.000E+00

     total cpu time spent up to now is      621.5 secs

     total energy              = -132107.37179709 Ry
     Harris-Foulkes estimate   = -148252.66737865 Ry
     estimated scf accuracy    < 4541495.72313391 Ry

     iteration #  7     ecut=    70.00 Ry     beta= 0.35
     Davidson diagonalization with overlap
     ethr =  1.00E-02,  avg # of iterations = 17.0

     negative rho (up, down):  2.299E+03 0.000E+00

     total cpu time spent up to now is      700.3 secs

     total energy              = -133765.84364059 Ry
     Harris-Foulkes estimate   = -133769.85881880 Ry
     estimated scf accuracy    < 3382173.20884597 Ry

     iteration #  8     ecut=    70.00 Ry     beta= 0.35
     Davidson diagonalization with overlap
     ethr =  1.00E-02,  avg # of iterations =  1.0

     negative rho (up, down):  5.895E+03 0.000E+00

     total cpu time spent up to now is      732.9 secs

     total energy              = -114571.21685873 Ry
     Harris-Foulkes estimate   = -133765.87448767 Ry
     estimated scf accuracy    < 3383765.41202563 Ry

     iteration #  9     ecut=    70.00 Ry     beta= 0.35
     Davidson diagonalization with overlap
     c_bands:  5 eigenvalues not converged
     ethr =  1.00E-02,  avg # of iterations = 20.0

     negative rho (up, down):  5.924E+03 0.000E+00

     total cpu time spent up to now is      816.3 secs

     total energy              = -122564.71518216 Ry
     Harris-Foulkes estimate   = -122907.26340642 Ry
     estimated scf accuracy    <   22625.82245626 Ry

     iteration # 10     ecut=    70.00 Ry     beta= 0.35
     Davidson diagonalization with overlap
     ethr =  1.00E-02,  avg # of iterations = 12.0

     negative rho (up, down):  5.886E+03 0.000E+00

     total cpu time spent up to now is      867.5 secs

     total energy              = -122512.80325158 Ry
     Harris-Foulkes estimate   = -122576.11279929 Ry
     estimated scf accuracy    <   17686.45996514 Ry

     iteration # 11     ecut=    70.00 Ry     beta= 0.35
     Davidson diagonalization with overlap
     ethr =  1.00E-02,  avg # of iterations =  1.0

     negative rho (up, down):  6.179E+03 0.000E+00

     total cpu time spent up to now is      897.5 secs

     total energy              = -121831.78442878 Ry
     Harris-Foulkes estimate   = -122513.00892100 Ry
     estimated scf accuracy    <   22128.57900809 Ry

     iteration # 12     ecut=    70.00 Ry     beta= 0.35
     Davidson diagonalization with overlap
     ethr =  1.00E-02,  avg # of iterations =  4.0

     negative rho (up, down):  6.156E+03 0.000E+00

     total cpu time spent up to now is      943.0 secs

     total energy              = -122009.00907610 Ry
     Harris-Foulkes estimate   = -121868.12769098 Ry
     estimated scf accuracy    <      22.62941365 Ry

     iteration # 13     ecut=    70.00 Ry     beta= 0.35
     Davidson diagonalization with overlap
     ethr =  1.00E-02,  avg # of iterations =  8.0

     negative rho (up, down):  6.155E+03 0.000E+00

     total cpu time spent up to now is      985.3 secs

     total energy              = -121814.85608695 Ry
     Harris-Foulkes estimate   = -122048.06355983 Ry
     estimated scf accuracy    <     245.54676714 Ry

     iteration # 14     ecut=    70.00 Ry     beta= 0.35
     Davidson diagonalization with overlap
     ethr =  1.00E-02,  avg # of iterations =  5.0

     negative rho (up, down):  6.166E+03 0.000E+00

     total cpu time spent up to now is     1034.5 secs

     total energy              = -121863.98136077 Ry
     Harris-Foulkes estimate   = -121870.19670894 Ry
     estimated scf accuracy    <     113.59317268 Ry

     iteration # 15     ecut=    70.00 Ry     beta= 0.35
     Davidson diagonalization with overlap
     ethr =  1.00E-02,  avg # of iterations =  2.0

     negative rho (up, down):  6.173E+03 0.000E+00

     total cpu time spent up to now is     1075.4 secs

     total energy              = -121866.07570405 Ry
     Harris-Foulkes estimate   = -121864.50907737 Ry
     estimated scf accuracy    <      17.75374529 Ry

     iteration # 16     ecut=    70.00 Ry     beta= 0.35
     Davidson diagonalization with overlap
     ethr =  1.00E-02,  avg # of iterations =  1.0

     negative rho (up, down):  6.170E+03 0.000E+00

     total cpu time spent up to now is     1103.1 secs

     total energy              = -121866.43439007 Ry
     Harris-Foulkes estimate   = -121866.22787373 Ry
     estimated scf accuracy    <       4.63911770 Ry

     iteration # 17     ecut=    70.00 Ry     beta= 0.35
     Davidson diagonalization with overlap
     ethr =  2.64E-03,  avg # of iterations =  1.0

     negative rho (up, down):  6.177E+03 0.000E+00

     total cpu time spent up to now is     1137.4 secs

     total energy              = -121865.35335166 Ry
     Harris-Foulkes estimate   = -121866.49096182 Ry
     estimated scf accuracy    <      10.49852215 Ry

     iteration # 18     ecut=    70.00 Ry     beta= 0.35
     Davidson diagonalization with overlap
     ethr =  2.64E-03,  avg # of iterations =  2.0

     negative rho (up, down):  6.175E+03 0.000E+00

     total cpu time spent up to now is     1176.3 secs

     total energy              = -121865.54484421 Ry
     Harris-Foulkes estimate   = -121865.52703642 Ry
     estimated scf accuracy    <       1.65148305 Ry

     iteration # 19     ecut=    70.00 Ry     beta= 0.35
     Davidson diagonalization with overlap
     ethr =  9.38E-04,  avg # of iterations =  1.0

     negative rho (up, down):  6.176E+03 0.000E+00

     total cpu time spent up to now is     1203.9 secs

     total energy              = -121865.56511088 Ry
     Harris-Foulkes estimate   = -121865.56874733 Ry
     estimated scf accuracy    <       0.32895075 Ry

     iteration # 20     ecut=    70.00 Ry     beta= 0.35
     Davidson diagonalization with overlap
     ethr =  1.87E-04,  avg # of iterations =  9.0

     negative rho (up, down):  6.175E+03 0.000E+00

     total cpu time spent up to now is     1255.5 secs

     total energy              = -121865.81691643 Ry
     Harris-Foulkes estimate   = -121865.85802203 Ry
     estimated scf accuracy    <       0.91867672 Ry

     iteration # 21     ecut=    70.00 Ry     beta= 0.35
     Davidson diagonalization with overlap
     ethr =  1.87E-04,  avg # of iterations =  2.0

     negative rho (up, down):  6.176E+03 0.000E+00

     total cpu time spent up to now is     1289.7 secs

     total energy              = -121865.87372161 Ry
     Harris-Foulkes estimate   = -121865.82954964 Ry
     estimated scf accuracy    <       0.74000326 Ry

     iteration # 22     ecut=    70.00 Ry     beta= 0.35
     Davidson diagonalization with overlap
     ethr =  1.87E-04,  avg # of iterations =  3.0

     negative rho (up, down):  6.174E+03 0.000E+00

     total cpu time spent up to now is     1323.7 secs

     total energy              = -121865.34357225 Ry
     Harris-Foulkes estimate   = -121865.92418722 Ry
     estimated scf accuracy    <       0.72439620 Ry

     iteration # 23     ecut=    70.00 Ry     beta= 0.35
     Davidson diagonalization with overlap
     ethr =  1.87E-04,  avg # of iterations =  4.0

     negative rho (up, down):  6.174E+03 0.000E+00

     total cpu time spent up to now is     1384.2 secs

     total energy              = -121865.58756189 Ry
     Harris-Foulkes estimate   = -121865.69485091 Ry
     estimated scf accuracy    <       1.03799190 Ry

     iteration # 24     ecut=    70.00 Ry     beta= 0.35
     Davidson diagonalization with overlap
     ethr =  1.87E-04,  avg # of iterations =  3.0

     negative rho (up, down):  6.174E+03 0.000E+00

     total cpu time spent up to now is     1413.9 secs

     total energy              = -121865.65423751 Ry
     Harris-Foulkes estimate   = -121865.61890631 Ry
     estimated scf accuracy    <       0.55297545 Ry

     iteration # 25     ecut=    70.00 Ry     beta= 0.35
     Davidson diagonalization with overlap
     ethr =  1.87E-04,  avg # of iterations =  3.0

     negative rho (up, down):  6.174E+03 0.000E+00

     total cpu time spent up to now is     1454.6 secs

     total energy              = -121865.72911558 Ry
     Harris-Foulkes estimate   = -121865.71878554 Ry
     estimated scf accuracy    <       0.52331311 Ry

     iteration # 26     ecut=    70.00 Ry     beta= 0.35
     Davidson diagonalization with overlap
     ethr =  1.87E-04,  avg # of iterations =  1.0

     negative rho (up, down):  6.174E+03 0.000E+00

     total cpu time spent up to now is     1495.5 secs

     total energy              = -121865.68023602 Ry
     Harris-Foulkes estimate   = -121865.73188168 Ry
     estimated scf accuracy    <       0.57288181 Ry

     iteration # 27     ecut=    70.00 Ry     beta= 0.35
     Davidson diagonalization with overlap
     ethr =  1.87E-04,  avg # of iterations =  2.0

     negative rho (up, down):  6.175E+03 0.000E+00

     total cpu time spent up to now is     1523.0 secs

     total energy              = -121865.62524274 Ry
     Harris-Foulkes estimate   = -121865.68834853 Ry
     estimated scf accuracy    <       0.73546460 Ry

     iteration # 28     ecut=    70.00 Ry     beta= 0.35
     Davidson diagonalization with overlap
     ethr =  1.87E-04,  avg # of iterations =  4.0

     negative rho (up, down):  6.175E+03 0.000E+00

     total cpu time spent up to now is     1578.2 secs

     total energy              = -121865.92533082 Ry
     Harris-Foulkes estimate   = -121865.90118762 Ry
     estimated scf accuracy    <       0.44276780 Ry

     iteration # 29     ecut=    70.00 Ry     beta= 0.35
     Davidson diagonalization with overlap
     ethr =  1.87E-04,  avg # of iterations =  2.0

     negative rho (up, down):  6.175E+03 0.000E+00

     total cpu time spent up to now is     1610.3 secs

     total energy              = -121865.93729835 Ry
     Harris-Foulkes estimate   = -121865.93054970 Ry
     estimated scf accuracy    <       0.60077904 Ry

     iteration # 30     ecut=    70.00 Ry     beta= 0.35
     Davidson diagonalization with overlap
     ethr =  1.87E-04,  avg # of iterations =  1.0

     negative rho (up, down):  6.175E+03 0.000E+00

     total cpu time spent up to now is     1643.1 secs

     total energy              = -121865.96353204 Ry
     Harris-Foulkes estimate   = -121865.93827597 Ry
     estimated scf accuracy    <       0.55550675 Ry

     iteration # 31     ecut=    70.00 Ry     beta= 0.35
     Davidson diagonalization with overlap
     ethr =  1.87E-04,  avg # of iterations =  2.0

     negative rho (up, down):  6.175E+03 0.000E+00

     total cpu time spent up to now is     1688.8 secs

     total energy              = -121865.98374252 Ry
     Harris-Foulkes estimate   = -121865.96933260 Ry
     estimated scf accuracy    <       0.42342735 Ry

     iteration # 32     ecut=    70.00 Ry     beta= 0.35
     Davidson diagonalization with overlap
     ethr =  1.87E-04,  avg # of iterations =  1.0

     negative rho (up, down):  6.175E+03 0.000E+00

     total cpu time spent up to now is     1718.2 secs

     total energy              = -121866.00810327 Ry
     Harris-Foulkes estimate   = -121865.98631999 Ry
     estimated scf accuracy    <       0.14937737 Ry

     iteration # 33     ecut=    70.00 Ry     beta= 0.35
     Davidson diagonalization with overlap
     ethr =  8.49E-05,  avg # of iterations =  4.0

     negative rho (up, down):  6.175E+03 0.000E+00

     total cpu time spent up to now is     1752.2 secs

     total energy              = -121865.97315304 Ry
     Harris-Foulkes estimate   = -121866.03509139 Ry
     estimated scf accuracy    <       1.50593029 Ry

     iteration # 34     ecut=    70.00 Ry     beta= 0.35
     Davidson diagonalization with overlap
     ethr =  8.49E-05,  avg # of iterations =  4.0

     negative rho (up, down):  6.175E+03 0.000E+00

     total cpu time spent up to now is     1797.9 secs

     total energy              = -121865.97349707 Ry
     Harris-Foulkes estimate   = -121865.99000903 Ry
     estimated scf accuracy    <       0.36348274 Ry

     iteration # 35     ecut=    70.00 Ry     beta= 0.35
     Davidson diagonalization with overlap
     ethr =  8.49E-05,  avg # of iterations =  1.0

     negative rho (up, down):  6.175E+03 0.000E+00

     total cpu time spent up to now is     1825.4 secs

     total energy              = -121865.99127484 Ry
     Harris-Foulkes estimate   = -121865.97454550 Ry
     estimated scf accuracy    <       0.66865927 Ry

     iteration # 36     ecut=    70.00 Ry     beta= 0.35
     Davidson diagonalization with overlap
     ethr =  8.49E-05,  avg # of iterations =  1.0

     negative rho (up, down):  6.175E+03 0.000E+00

     total cpu time spent up to now is     1853.7 secs

     total energy              = -121865.99188767 Ry
     Harris-Foulkes estimate   = -121865.99233270 Ry
     estimated scf accuracy    <       0.53196032 Ry

     iteration # 37     ecut=    70.00 Ry     beta= 0.35
     Davidson diagonalization with overlap
     ethr =  8.49E-05,  avg # of iterations =  1.0

     negative rho (up, down):  6.175E+03 0.000E+00

     total cpu time spent up to now is     1892.6 secs

     total energy              = -121866.00803701 Ry
     Harris-Foulkes estimate   = -121865.99222130 Ry
     estimated scf accuracy    <       0.72176708 Ry

     iteration # 38     ecut=    70.00 Ry     beta= 0.35
     Davidson diagonalization with overlap
     ethr =  8.49E-05,  avg # of iterations =  2.0

     negative rho (up, down):  6.175E+03 0.000E+00

     total cpu time spent up to now is     1925.3 secs

     total energy              = -121866.01241406 Ry
     Harris-Foulkes estimate   = -121866.01112071 Ry
     estimated scf accuracy    <       1.27930955 Ry

     iteration # 39     ecut=    70.00 Ry     beta= 0.35
     Davidson diagonalization with overlap
     ethr =  8.49E-05,  avg # of iterations =  1.0

     negative rho (up, down):  6.175E+03 0.000E+00

     total cpu time spent up to now is     1953.8 secs

     total energy              = -121866.00652452 Ry
     Harris-Foulkes estimate   = -121866.01269838 Ry
     estimated scf accuracy    <       1.31494810 Ry

     iteration # 40     ecut=    70.00 Ry     beta= 0.35
     Davidson diagonalization with overlap
     ethr =  8.49E-05,  avg # of iterations =  1.0

     negative rho (up, down):  6.175E+03 0.000E+00

     total cpu time spent up to now is     1990.5 secs

     total energy              = -121866.02664931 Ry
     Harris-Foulkes estimate   = -121866.00683424 Ry
     estimated scf accuracy    <       1.16884822 Ry

     iteration # 41     ecut=    70.00 Ry     beta= 0.35
     Davidson diagonalization with overlap
     ethr =  8.49E-05,  avg # of iterations =  2.0

     negative rho (up, down):  6.175E+03 0.000E+00

     total cpu time spent up to now is     2022.8 secs

     total energy              = -121866.08071691 Ry
     Harris-Foulkes estimate   = -121866.02978590 Ry
     estimated scf accuracy    <       1.68542315 Ry

     iteration # 42     ecut=    70.00 Ry     beta= 0.35
     Davidson diagonalization with overlap
     ethr =  8.49E-05,  avg # of iterations =  4.0

     negative rho (up, down):  6.175E+03 0.000E+00

     total cpu time spent up to now is     2051.2 secs

     total energy              = -121866.12941617 Ry
     Harris-Foulkes estimate   = -121866.11361251 Ry
     estimated scf accuracy    <       4.78657935 Ry

     iteration # 43     ecut=    70.00 Ry     beta= 0.35
     Davidson diagonalization with overlap
     ethr =  8.49E-05,  avg # of iterations =  2.0

     negative rho (up, down):  6.175E+03 0.000E+00

     total cpu time spent up to now is     2087.5 secs

     total energy              = -121866.14561399 Ry
     Harris-Foulkes estimate   = -121866.13187086 Ry
     estimated scf accuracy    <       6.58446820 Ry

     iteration # 44     ecut=    70.00 Ry     beta= 0.35
     Davidson diagonalization with overlap
     ethr =  8.49E-05,  avg # of iterations =  1.0

     negative rho (up, down):  6.175E+03 0.000E+00

     total cpu time spent up to now is     2119.5 secs

     total energy              = -121866.11274266 Ry
     Harris-Foulkes estimate   = -121866.14740812 Ry
     estimated scf accuracy    <       5.94219699 Ry

     iteration # 45     ecut=    70.00 Ry     beta= 0.35
     Davidson diagonalization with overlap
     ethr =  8.49E-05,  avg # of iterations =  2.0

     negative rho (up, down):  6.175E+03 0.000E+00

     total cpu time spent up to now is     2146.9 secs

     total energy              = -121865.95937319 Ry
     Harris-Foulkes estimate   = -121866.11550366 Ry
     estimated scf accuracy    <       5.35317806 Ry

     iteration # 46     ecut=    70.00 Ry     beta= 0.35
     Davidson diagonalization with overlap
     ethr =  8.49E-05,  avg # of iterations =  4.0

     negative rho (up, down):  6.175E+03 0.000E+00

     total cpu time spent up to now is     2183.2 secs

     total energy              = -121865.89509982 Ry
     Harris-Foulkes estimate   = -121866.00249239 Ry
     estimated scf accuracy    <       4.35512627 Ry

     iteration # 47     ecut=    70.00 Ry     beta= 0.35
     Davidson diagonalization with overlap
     ethr =  8.49E-05,  avg # of iterations =  3.0

     negative rho (up, down):  6.175E+03 0.000E+00

     total cpu time spent up to now is     2220.4 secs

     total energy              = -121865.95930178 Ry
     Harris-Foulkes estimate   = -121865.92564159 Ry
     estimated scf accuracy    <       4.36961974 Ry

     iteration # 48     ecut=    70.00 Ry     beta= 0.35
     Davidson diagonalization with overlap
     ethr =  8.49E-05,  avg # of iterations =  4.0

     negative rho (up, down):  6.175E+03 0.000E+00

     total cpu time spent up to now is     2255.6 secs

     total energy              = -121866.20442764 Ry
     Harris-Foulkes estimate   = -121866.17586346 Ry
     estimated scf accuracy    <      10.11744785 Ry

     iteration # 49     ecut=    70.00 Ry     beta= 0.35
     Davidson diagonalization with overlap
     ethr =  8.49E-05,  avg # of iterations =  2.0

     negative rho (up, down):  6.175E+03 0.000E+00

     total cpu time spent up to now is     2287.5 secs

     total energy              = -121866.19235618 Ry
     Harris-Foulkes estimate   = -121866.20660609 Ry
     estimated scf accuracy    <      11.26378006 Ry

     iteration # 50     ecut=    70.00 Ry     beta= 0.35
     Davidson diagonalization with overlap
     ethr =  8.49E-05,  avg # of iterations =  1.0

     negative rho (up, down):  6.175E+03 0.000E+00

     total cpu time spent up to now is     2319.0 secs

     total energy              = -121865.54276747 Ry
     Harris-Foulkes estimate   = -121866.19308148 Ry
     estimated scf accuracy    <       9.56359770 Ry

     iteration # 51     ecut=    70.00 Ry     beta= 0.35
     Davidson diagonalization with overlap
     ethr =  8.49E-05,  avg # of iterations =  4.0

     negative rho (up, down):  6.175E+03 0.000E+00

     total cpu time spent up to now is     2358.3 secs

     total energy              = -121865.80252097 Ry
     Harris-Foulkes estimate   = -121865.88376116 Ry
     estimated scf accuracy    <       4.87822181 Ry

     iteration # 52     ecut=    70.00 Ry     beta= 0.35
     Davidson diagonalization with overlap
     ethr =  8.49E-05,  avg # of iterations =  3.0

     negative rho (up, down):  6.175E+03 0.000E+00

     total cpu time spent up to now is     2390.4 secs

     total energy              = -121865.87763033 Ry
     Harris-Foulkes estimate   = -121865.81922851 Ry
     estimated scf accuracy    <       4.62083371 Ry

     iteration # 53     ecut=    70.00 Ry     beta= 0.35
     Davidson diagonalization with overlap
     ethr =  8.49E-05,  avg # of iterations =  3.0

     negative rho (up, down):  6.175E+03 0.000E+00

     total cpu time spent up to now is     2426.7 secs

     total energy              = -121865.91901600 Ry
     Harris-Foulkes estimate   = -121865.90613207 Ry
     estimated scf accuracy    <       2.99500856 Ry

     iteration # 54     ecut=    70.00 Ry     beta= 0.35
     Davidson diagonalization with overlap
     ethr =  8.49E-05,  avg # of iterations =  1.0

     negative rho (up, down):  6.175E+03 0.000E+00

     total cpu time spent up to now is     2454.9 secs

     total energy              = -121865.96471001 Ry
     Harris-Foulkes estimate   = -121865.92085912 Ry
     estimated scf accuracy    <       3.21579943 Ry

     iteration # 55     ecut=    70.00 Ry     beta= 0.35
     Davidson diagonalization with overlap
     ethr =  8.49E-05,  avg # of iterations =  3.0

     negative rho (up, down):  6.175E+03 0.000E+00

     total cpu time spent up to now is     2485.6 secs

     total energy              = -121865.81965986 Ry
     Harris-Foulkes estimate   = -121865.99597948 Ry
     estimated scf accuracy    <       4.69182599 Ry

     iteration # 56     ecut=    70.00 Ry     beta= 0.35
     Davidson diagonalization with overlap
     ethr =  8.49E-05,  avg # of iterations =  4.0

     negative rho (up, down):  6.175E+03 0.000E+00

     total cpu time spent up to now is     2525.4 secs

     total energy              = -121865.89482226 Ry
     Harris-Foulkes estimate   = -121865.87821068 Ry
     estimated scf accuracy    <       3.33587114 Ry

     iteration # 57     ecut=    70.00 Ry     beta= 0.35
     Davidson diagonalization with overlap
     ethr =  8.49E-05,  avg # of iterations =  1.0

     negative rho (up, down):  6.175E+03 0.000E+00

     total cpu time spent up to now is     2552.2 secs

     total energy              = -121865.94170275 Ry
     Harris-Foulkes estimate   = -121865.89608238 Ry
     estimated scf accuracy    <       1.96407742 Ry

     iteration # 58     ecut=    70.00 Ry     beta= 0.35
     Davidson diagonalization with overlap
     ethr =  8.49E-05,  avg # of iterations =  3.0

     negative rho (up, down):  6.175E+03 0.000E+00

     total cpu time spent up to now is     2580.0 secs

     total energy              = -121865.77658922 Ry
     Harris-Foulkes estimate   = -121865.96315172 Ry
     estimated scf accuracy    <       1.97965933 Ry

     iteration # 59     ecut=    70.00 Ry     beta= 0.35
     Davidson diagonalization with overlap
     ethr =  8.49E-05,  avg # of iterations =  4.0

     negative rho (up, down):  6.175E+03 0.000E+00

     total cpu time spent up to now is     2623.9 secs

     total energy              = -121865.89235167 Ry
     Harris-Foulkes estimate   = -121865.84009145 Ry
     estimated scf accuracy    <       1.38487334 Ry

     iteration # 60     ecut=    70.00 Ry     beta= 0.35
     Davidson diagonalization with overlap
     ethr =  8.49E-05,  avg # of iterations =  2.0

     negative rho (up, down):  6.175E+03 0.000E+00

     total cpu time spent up to now is     2652.4 secs

     total energy              = -121865.37233342 Ry
     Harris-Foulkes estimate   = -121865.90181022 Ry
     estimated scf accuracy    <       0.25689136 Ry

     iteration # 61     ecut=    70.00 Ry     beta= 0.35
     Davidson diagonalization with overlap
     ethr =  8.49E-05,  avg # of iterations =  5.0

     negative rho (up, down):  6.175E+03 0.000E+00

     total cpu time spent up to now is     2691.6 secs

     total energy              = -121865.63860992 Ry
     Harris-Foulkes estimate   = -121866.52758488 Ry
     estimated scf accuracy    <       5.29506107 Ry

     iteration # 62     ecut=    70.00 Ry     beta= 0.35
     Davidson diagonalization with overlap
     ethr =  8.49E-05,  avg # of iterations =  4.0

     negative rho (up, down):  6.175E+03 0.000E+00

     total cpu time spent up to now is     2740.8 secs

     total energy              = -121866.08392957 Ry
     Harris-Foulkes estimate   = -121866.08079472 Ry
     estimated scf accuracy    <       1.96528975 Ry

     iteration # 63     ecut=    70.00 Ry     beta= 0.35
     Davidson diagonalization with overlap
     ethr =  8.49E-05,  avg # of iterations =  1.0

     negative rho (up, down):  6.175E+03 0.000E+00

     total cpu time spent up to now is     2768.1 secs

     total energy              = -121866.02155937 Ry
     Harris-Foulkes estimate   = -121866.08411091 Ry
     estimated scf accuracy    <       2.06804300 Ry

     iteration # 64     ecut=    70.00 Ry     beta= 0.35
     Davidson diagonalization with overlap
     ethr =  8.49E-05,  avg # of iterations =  2.0

     negative rho (up, down):  6.175E+03 0.000E+00

     total cpu time spent up to now is     2795.3 secs

     total energy              = -121865.28700874 Ry
     Harris-Foulkes estimate   = -121866.03023366 Ry
     estimated scf accuracy    <       1.53800031 Ry

     iteration # 65     ecut=    70.00 Ry     beta= 0.35
     Davidson diagonalization with overlap
     ethr =  8.49E-05,  avg # of iterations =  4.0

     negative rho (up, down):  6.175E+03 0.000E+00

     total cpu time spent up to now is     2843.7 secs

     total energy              = -121865.67794528 Ry
     Harris-Foulkes estimate   = -121865.72645564 Ry
     estimated scf accuracy    <       1.27589094 Ry

     iteration # 66     ecut=    70.00 Ry     beta= 0.35
     Davidson diagonalization with overlap
     ethr =  8.49E-05,  avg # of iterations =  2.0

     negative rho (up, down):  6.175E+03 0.000E+00

     total cpu time spent up to now is     2871.5 secs

     total energy              = -121865.74049173 Ry
     Harris-Foulkes estimate   = -121865.68247106 Ry
     estimated scf accuracy    <       2.37322245 Ry

     iteration # 67     ecut=    70.00 Ry     beta= 0.35
     Davidson diagonalization with overlap
     ethr =  8.49E-05,  avg # of iterations =  3.0

     negative rho (up, down):  6.175E+03 0.000E+00

     total cpu time spent up to now is     2904.7 secs

     total energy              = -121865.27477378 Ry
     Harris-Foulkes estimate   = -121865.86470162 Ry
     estimated scf accuracy    <       1.61266743 Ry

     iteration # 68     ecut=    70.00 Ry     beta= 0.35
     Davidson diagonalization with overlap
     ethr =  8.49E-05,  avg # of iterations =  5.0

     negative rho (up, down):  6.175E+03 0.000E+00

     total cpu time spent up to now is     2952.0 secs

     total energy              = -121865.28087565 Ry
     Harris-Foulkes estimate   = -121866.53125940 Ry
     estimated scf accuracy    <       7.83808399 Ry

     iteration # 69     ecut=    70.00 Ry     beta= 0.35
     Davidson diagonalization with overlap
     ethr =  8.49E-05,  avg # of iterations =  4.0

     negative rho (up, down):  6.175E+03 0.000E+00

     total cpu time spent up to now is     2992.8 secs

     total energy              = -121866.05306355 Ry
     Harris-Foulkes estimate   = -121866.00032161 Ry
     estimated scf accuracy    <       0.88922692 Ry

     iteration # 70     ecut=    70.00 Ry     beta= 0.35
     Davidson diagonalization with overlap
     ethr =  8.49E-05,  avg # of iterations =  4.0

     negative rho (up, down):  6.175E+03 0.000E+00

     total cpu time spent up to now is     3025.6 secs

     total energy              = -121865.92886635 Ry
     Harris-Foulkes estimate   = -121866.08537506 Ry
     estimated scf accuracy    <       2.63011974 Ry

     iteration # 71     ecut=    70.00 Ry     beta= 0.35
     Davidson diagonalization with overlap
     ethr =  8.49E-05,  avg # of iterations =  4.0

     negative rho (up, down):  6.175E+03 0.000E+00

     total cpu time spent up to now is     3059.0 secs

     total energy              = -121865.82834030 Ry
     Harris-Foulkes estimate   = -121865.97532455 Ry
     estimated scf accuracy    <       1.10584200 Ry

     iteration # 72     ecut=    70.00 Ry     beta= 0.35
     Davidson diagonalization with overlap
     ethr =  8.49E-05,  avg # of iterations =  4.0

     negative rho (up, down):  6.175E+03 0.000E+00

     total cpu time spent up to now is     3093.3 secs

     total energy              = -121865.60312507 Ry
     Harris-Foulkes estimate   = -121865.87740133 Ry
     estimated scf accuracy    <       2.48746553 Ry

     iteration # 73     ecut=    70.00 Ry     beta= 0.35
     Davidson diagonalization with overlap
     ethr =  8.49E-05,  avg # of iterations =  4.0

     negative rho (up, down):  6.175E+03 0.000E+00

     total cpu time spent up to now is     3132.3 secs

     total energy              = -121865.35733802 Ry
     Harris-Foulkes estimate   = -121865.71931977 Ry
     estimated scf accuracy    <       4.34505786 Ry

     iteration # 74     ecut=    70.00 Ry     beta= 0.35
     Davidson diagonalization with overlap
     ethr =  8.49E-05,  avg # of iterations =  4.0

     negative rho (up, down):  6.175E+03 0.000E+00

     total cpu time spent up to now is     3170.5 secs

     total energy              = -121865.39186679 Ry
     Harris-Foulkes estimate   = -121865.52083091 Ry
     estimated scf accuracy    <       4.96806744 Ry

     iteration # 75     ecut=    70.00 Ry     beta= 0.35
     Davidson diagonalization with overlap
     ethr =  8.49E-05,  avg # of iterations =  3.0

     negative rho (up, down):  6.175E+03 0.000E+00

     total cpu time spent up to now is     3200.7 secs

     total energy              = -121865.39830828 Ry
     Harris-Foulkes estimate   = -121865.42804303 Ry
     estimated scf accuracy    <       5.21961974 Ry

     iteration # 76     ecut=    70.00 Ry     beta= 0.35
     Davidson diagonalization with overlap
     ethr =  8.49E-05,  avg # of iterations =  2.0

     negative rho (up, down):  6.175E+03 0.000E+00

     total cpu time spent up to now is     3229.2 secs

     total energy              = -121865.45959992 Ry
     Harris-Foulkes estimate   = -121865.40140317 Ry
     estimated scf accuracy    <       5.42802553 Ry

     iteration # 77     ecut=    70.00 Ry     beta= 0.35
     Davidson diagonalization with overlap
     ethr =  8.49E-05,  avg # of iterations =  3.0

     negative rho (up, down):  6.175E+03 0.000E+00

     total cpu time spent up to now is     3259.3 secs

     total energy              = -121864.35214447 Ry
     Harris-Foulkes estimate   = -121865.47678106 Ry
     estimated scf accuracy    <       4.94698653 Ry

     iteration # 78     ecut=    70.00 Ry     beta= 0.35
     Davidson diagonalization with overlap
     ethr =  8.49E-05,  avg # of iterations =  5.0

     negative rho (up, down):  6.175E+03 0.000E+00

     total cpu time spent up to now is     3300.1 secs

     total energy              = -121865.97466038 Ry
     Harris-Foulkes estimate   = -121866.11813034 Ry
     estimated scf accuracy    <       4.12450415 Ry

     iteration # 79     ecut=    70.00 Ry     beta= 0.35
     Davidson diagonalization with overlap
     ethr =  8.49E-05,  avg # of iterations =  4.0

     negative rho (up, down):  6.175E+03 0.000E+00

     total cpu time spent up to now is     3327.8 secs

     total energy              = -121866.07226869 Ry
     Harris-Foulkes estimate   = -121866.01256430 Ry
     estimated scf accuracy    <       1.82912946 Ry

     iteration # 80     ecut=    70.00 Ry     beta= 0.35
     Davidson diagonalization with overlap
     ethr =  8.49E-05,  avg # of iterations =  4.0

     negative rho (up, down):  6.175E+03 0.000E+00

     total cpu time spent up to now is     3362.1 secs

     total energy              = -121866.15958020 Ry
     Harris-Foulkes estimate   = -121866.09378504 Ry
     estimated scf accuracy    <       3.32458322 Ry

     iteration # 81     ecut=    70.00 Ry     beta= 0.35
     Davidson diagonalization with overlap
     ethr =  8.49E-05,  avg # of iterations =  4.0

     negative rho (up, down):  6.175E+03 0.000E+00

     total cpu time spent up to now is     3392.1 secs

     total energy              = -121865.60296994 Ry
     Harris-Foulkes estimate   = -121866.19186814 Ry
     estimated scf accuracy    <       5.94907821 Ry

     iteration # 82     ecut=    70.00 Ry     beta= 0.35
     Davidson diagonalization with overlap
     ethr =  8.49E-05,  avg # of iterations =  4.0

     negative rho (up, down):  6.175E+03 0.000E+00

     total cpu time spent up to now is     3427.6 secs

     total energy              = -121865.92396936 Ry
     Harris-Foulkes estimate   = -121865.90324851 Ry
     estimated scf accuracy    <       2.19476609 Ry

     iteration # 83     ecut=    70.00 Ry     beta= 0.35
     Davidson diagonalization with overlap
     ethr =  8.49E-05,  avg # of iterations =  2.0

     negative rho (up, down):  6.175E+03 0.000E+00

     total cpu time spent up to now is     3459.8 secs

     total energy              = -121865.96952975 Ry
     Harris-Foulkes estimate   = -121865.92605305 Ry
     estimated scf accuracy    <       2.42091583 Ry

     iteration # 84     ecut=    70.00 Ry     beta= 0.35
     Davidson diagonalization with overlap
     ethr =  8.49E-05,  avg # of iterations =  3.0

     negative rho (up, down):  6.175E+03 0.000E+00

     total cpu time spent up to now is     3490.7 secs

     total energy              = -121866.03832917 Ry
     Harris-Foulkes estimate   = -121865.98933325 Ry
     estimated scf accuracy    <       3.25450300 Ry

     iteration # 85     ecut=    70.00 Ry     beta= 0.35
     Davidson diagonalization with overlap
     ethr =  8.49E-05,  avg # of iterations =  4.0

     negative rho (up, down):  6.175E+03 0.000E+00

     total cpu time spent up to now is     3524.1 secs

     total energy              = -121865.13658154 Ry
     Harris-Foulkes estimate   = -121866.21511182 Ry
     estimated scf accuracy    <       6.15355976 Ry

     iteration # 86     ecut=    70.00 Ry     beta= 0.35
     Davidson diagonalization with overlap
     ethr =  8.49E-05,  avg # of iterations =  5.0

     negative rho (up, down):  6.175E+03 0.000E+00

     total cpu time spent up to now is     3569.2 secs

     total energy              = -121864.71006281 Ry
     Harris-Foulkes estimate   = -121865.79808968 Ry
     estimated scf accuracy    <       5.18490277 Ry

     iteration # 87     ecut=    70.00 Ry     beta= 0.35
     Davidson diagonalization with overlap
     ethr =  8.49E-05,  avg # of iterations =  5.0

     negative rho (up, down):  6.175E+03 0.000E+00

     total cpu time spent up to now is     3612.0 secs

     total energy              = -121865.32572595 Ry
     Harris-Foulkes estimate   = -121865.40512809 Ry
     estimated scf accuracy    <       8.42718099 Ry

     iteration # 88     ecut=    70.00 Ry     beta= 0.35
     Davidson diagonalization with overlap
     ethr =  8.49E-05,  avg # of iterations =  4.0

     negative rho (up, down):  6.175E+03 0.000E+00

     total cpu time spent up to now is     3648.7 secs

     total energy              = -121865.66054124 Ry
     Harris-Foulkes estimate   = -121865.69124624 Ry
     estimated scf accuracy    <       7.04014305 Ry

     iteration # 89     ecut=    70.00 Ry     beta= 0.35
     Davidson diagonalization with overlap
     ethr =  8.49E-05,  avg # of iterations =  2.0

     negative rho (up, down):  6.175E+03 0.000E+00

     total cpu time spent up to now is     3677.6 secs

     total energy              = -121865.72936962 Ry
     Harris-Foulkes estimate   = -121865.66288124 Ry
     estimated scf accuracy    <       8.27261493 Ry

     iteration # 90     ecut=    70.00 Ry     beta= 0.35
     Davidson diagonalization with overlap
     ethr =  8.49E-05,  avg # of iterations =  3.0

     negative rho (up, down):  6.175E+03 0.000E+00

     total cpu time spent up to now is     3711.7 secs

     total energy              = -121865.76850126 Ry
     Harris-Foulkes estimate   = -121865.77134133 Ry
     estimated scf accuracy    <       6.00910410 Ry

     iteration # 91     ecut=    70.00 Ry     beta= 0.35
     Davidson diagonalization with overlap
     ethr =  8.49E-05,  avg # of iterations =  1.0

     negative rho (up, down):  6.175E+03 0.000E+00

     total cpu time spent up to now is     3736.3 secs

     total energy              = -121865.79471844 Ry
     Harris-Foulkes estimate   = -121865.76928549 Ry
     estimated scf accuracy    <       6.23384194 Ry

     iteration # 92     ecut=    70.00 Ry     beta= 0.35
     Davidson diagonalization with overlap
     ethr =  8.49E-05,  avg # of iterations =  2.0

     negative rho (up, down):  6.175E+03 0.000E+00

     total cpu time spent up to now is     3764.8 secs

     total energy              = -121865.83200502 Ry
     Harris-Foulkes estimate   = -121865.79798465 Ry
     estimated scf accuracy    <       5.69420958 Ry

     iteration # 93     ecut=    70.00 Ry     beta= 0.35
     Davidson diagonalization with overlap
     ethr =  8.49E-05,  avg # of iterations =  4.0

     negative rho (up, down):  6.175E+03 0.000E+00

     total cpu time spent up to now is     3800.6 secs

     total energy              = -121864.70410502 Ry
     Harris-Foulkes estimate   = -121865.94172358 Ry
     estimated scf accuracy    <       4.66609925 Ry

     iteration # 94     ecut=    70.00 Ry     beta= 0.35
     Davidson diagonalization with overlap
     ethr =  8.49E-05,  avg # of iterations =  5.0

     negative rho (up, down):  6.175E+03 0.000E+00

     total cpu time spent up to now is     3842.6 secs

     total energy              = -121864.01834910 Ry
     Harris-Foulkes estimate   = -121867.02185925 Ry
     estimated scf accuracy    <      15.94405311 Ry

     iteration # 95     ecut=    70.00 Ry     beta= 0.35
     Davidson diagonalization with overlap
     ethr =  8.49E-05,  avg # of iterations =  5.0

     negative rho (up, down):  6.176E+03 0.000E+00

     total cpu time spent up to now is     3889.5 secs

     total energy              = -121863.51821691 Ry
     Harris-Foulkes estimate   = -121866.00142518 Ry
     estimated scf accuracy    <       1.32691945 Ry

     iteration # 96     ecut=    70.00 Ry     beta= 0.35
     Davidson diagonalization with overlap
     ethr =  8.49E-05,  avg # of iterations =  5.0

     negative rho (up, down):  6.176E+03 0.000E+00

     total cpu time spent up to now is     3934.5 secs

     total energy              = -121865.13590220 Ry
     Harris-Foulkes estimate   = -121865.35829461 Ry
     estimated scf accuracy    <       7.03161640 Ry

     iteration # 97     ecut=    70.00 Ry     beta= 0.35
     Davidson diagonalization with overlap
     ethr =  8.49E-05,  avg # of iterations =  4.0

     negative rho (up, down):  6.176E+03 0.000E+00

     total cpu time spent up to now is     3970.8 secs

     total energy              = -121865.05114192 Ry
     Harris-Foulkes estimate   = -121865.23256582 Ry
     estimated scf accuracy    <       6.73015620 Ry

     iteration # 98     ecut=    70.00 Ry     beta= 0.35
     Davidson diagonalization with overlap
     ethr =  8.49E-05,  avg # of iterations =  4.0

     negative rho (up, down):  6.176E+03 0.000E+00

     total cpu time spent up to now is     4007.3 secs

     total energy              = -121865.16048035 Ry
     Harris-Foulkes estimate   = -121865.13005122 Ry
     estimated scf accuracy    <       7.98712993 Ry

     iteration # 99     ecut=    70.00 Ry     beta= 0.35
     Davidson diagonalization with overlap
     ethr =  8.49E-05,  avg # of iterations =  3.0

     negative rho (up, down):  6.176E+03 0.000E+00

     total cpu time spent up to now is     4043.7 secs

     total energy              = -121865.21188872 Ry
     Harris-Foulkes estimate   = -121865.20789039 Ry
     estimated scf accuracy    <       6.28387584 Ry

     iteration #100     ecut=    70.00 Ry     beta= 0.35
     Davidson diagonalization with overlap
     ethr =  8.49E-05,  avg # of iterations =  1.0

     negative rho (up, down):  6.176E+03 0.000E+00

     total cpu time spent up to now is     4071.6 secs

     total energy              = -121865.09256116 Ry
     Harris-Foulkes estimate   = -121865.21279760 Ry
     estimated scf accuracy    <       6.26657258 Ry

     End of self-consistent calculation

     convergence NOT achieved after 100 iterations: stopping

     Writing output data file CsSnI3.save/
     Message from routine punch:
     wavefunctions written to file
 
     init_run     :     13.81s CPU     18.78s WALL (       1 calls)
     electrons    :   2827.96s CPU   4043.55s WALL (       1 calls)

     Called by init_run:
     wfcinit      :      5.48s CPU      8.39s WALL (       1 calls)
     wfcinit:atom :      0.01s CPU      0.03s WALL (       1 calls)
     wfcinit:wfcr :      5.39s CPU      8.25s WALL (       1 calls)
     potinit      :      1.79s CPU      2.21s WALL (       1 calls)
     hinit0       :      1.83s CPU      2.27s WALL (       1 calls)

     Called by electrons:
     c_bands      :   1485.94s CPU   2251.46s WALL (     101 calls)
     sum_band     :    717.64s CPU    984.99s WALL (     101 calls)
     v_of_rho     :     17.75s CPU     27.39s WALL (     101 calls)
     v_h          :      1.39s CPU      2.12s WALL (     101 calls)
     v_xc         :     16.36s CPU     25.26s WALL (     101 calls)
     newd         :    449.58s CPU    559.32s WALL (     101 calls)
     PAW_pot      :     84.38s CPU    103.99s WALL (     101 calls)
     mix_rho      :     41.95s CPU     63.86s WALL (     101 calls)

     Called by c_bands:
     init_us_2    :      3.90s CPU      4.45s WALL (     203 calls)
     cegterg      :   1401.24s CPU   2159.60s WALL (     104 calls)

     Called by sum_band:
     sum_band:bec :      8.53s CPU     11.87s WALL (     101 calls)
     addusdens    :    379.55s CPU    468.21s WALL (     101 calls)

     Called by *egterg:
     h_psi        :    990.86s CPU   1595.91s WALL (     537 calls)
     s_psi        :     60.31s CPU     67.24s WALL (     537 calls)
     g_psi        :      1.74s CPU      1.79s WALL (     432 calls)
     cdiaghg      :    111.51s CPU    174.96s WALL (     535 calls)
     cegterg:over :     90.45s CPU    121.59s WALL (     432 calls)
     cegterg:upda :     71.87s CPU     95.29s WALL (     432 calls)
     cegterg:last :     25.19s CPU     29.26s WALL (     132 calls)
     cdiaghg:chol :      7.03s CPU     11.03s WALL (     535 calls)
     cdiaghg:inve :      5.22s CPU      8.19s WALL (     535 calls)
     cdiaghg:para :     11.27s CPU     17.91s WALL (    1070 calls)

     Called by h_psi:
     h_psi:pot    :    987.98s CPU   1591.42s WALL (     537 calls)
     h_psi:calbec :     52.20s CPU     58.77s WALL (     537 calls)
     vloc_psi     :    875.16s CPU   1464.75s WALL (     537 calls)
     add_vuspsi   :     60.61s CPU     67.89s WALL (     537 calls)

     General routines
     calbec       :     67.85s CPU     76.66s WALL (     638 calls)
     fft          :     53.76s CPU     90.00s WALL (    2220 calls)
     ffts         :     29.61s CPU     50.19s WALL (     808 calls)
     fftw         :   1048.97s CPU   1787.46s WALL (  261888 calls)
     interpolate  :     27.71s CPU     47.72s WALL (     404 calls)
     davcio       :      0.00s CPU      0.10s WALL (      19 calls)
 
     Parallel routines
     fft_scatt_xy :     42.59s CPU     48.55s WALL (  264916 calls)
     fft_scatt_yz :    889.32s CPU   1597.30s WALL (  264916 calls)

     PAW routines
     PAW_pot      :     84.38s CPU    103.99s WALL (     101 calls)
     PAW_symme    :      2.26s CPU      3.49s WALL (     202 calls)
 
     PWSCF        :  47m31.13s CPU      1h 7m WALL

 
   This run was terminated on:  11:42:12  23Jan2021            

=------------------------------------------------------------------------------=
   JOB DONE.
=------------------------------------------------------------------------------=
