
     Program PWSCF v.6.7MaX starts on 15Jan2021 at 12:20:43 

     This program is part of the open-source Quantum ESPRESSO suite
     for quantum simulation of materials; please cite
         "P. Giannozzi et al., J. Phys.:Condens. Matter 21 395502 (2009);
         "P. Giannozzi et al., J. Phys.:Condens. Matter 29 465901 (2017);
          URL http://www.quantum-espresso.org", 
     in publications or presentations arising from this work. More details at
     http://www.quantum-espresso.org/quote

     Parallel version (MPI), running on    32 processors

     MPI processes distributed on     1 nodes
     R & G space division:  proc/nbgrp/npool/nimage =      32
     Waiting for input...
     Reading input from standard input

     Current dimensions of program PWSCF are:
     Max number of different atomic species (ntypx) = 10
     Max number of k-points (npk) =  40000
     Max angular momentum in pseudopotentials (lmaxx) =  3
     file Sn.pbe-dn-kjpaw_psl.1.0.0.UPF: wavefunction(s)  5S 5P 4D renormalized
     file I.pbe-n-kjpaw_psl.1.0.0.UPF: wavefunction(s)  5S renormalized

     Subspace diagonalization in iterative solution of the eigenvalue problem:
     a serial algorithm will be used

     Message from routine setup:
     using ibrav=0 with symmetry is DISCOURAGED, use correct ibrav instead

     Parallelization info
     --------------------
     sticks:   dense  smooth     PW     G-vecs:    dense   smooth      PW
     Min         165     165     46                 5571     5571     814
     Max         166     166     47                 5573     5573     816
     Sum        5297    5297   1473               178307   178307   26059


     Title: 
     SnI2tetr                                                                   


     bravais-lattice index     =            0
     lattice parameter (alat)  =      14.4199  a.u.
     unit-cell volume          =    1845.1511 (a.u.)^3
     number of atoms/cell      =            6
     number of atomic types    =            2
     number of electrons       =        56.00
     number of Kohn-Sham states=           29
     kinetic-energy cutoff     =      80.0000  Ry
     charge density cutoff     =     320.0000  Ry
     scf convergence threshold =      1.0E-06
     mixing beta               =       0.7000
     number of iterations used =            8  plain     mixing
     Exchange-correlation= SLA  PW   PBX  PBC
                           (   1   4   3   4   0   0   0)

     celldm(1)=  14.419944  celldm(2)=   0.000000  celldm(3)=   0.000000
     celldm(4)=   0.000000  celldm(5)=   0.000000  celldm(6)=   0.000000

     crystal axes: (cart. coord. in units of alat)
               a(1) = (   1.000000   0.000000   0.000000 )  
               a(2) = (   0.000000   1.000000   0.000000 )  
               a(3) = (   0.000000   0.000000   0.615377 )  

     reciprocal axes: (cart. coord. in units 2 pi/alat)
               b(1) = (  1.000000  0.000000  0.000000 )  
               b(2) = (  0.000000  1.000000  0.000000 )  
               b(3) = (  0.000000  0.000000  1.625020 )  


     PseudoPot. # 1 for Sn read from file:
     ../../../pseudo/Sn.pbe-dn-kjpaw_psl.1.0.0.UPF
     MD5 check sum: 67f11dec737d427557dc41ea34975807
     Pseudo is Projector augmented-wave + core cor, Zval = 14.0
     Generated using &quot;atomic&quot; code by A. Dal Corso  v.6.3
     Shape of augmentation charge: PSQ
     Using radial grid of 1243 points,  6 beta functions with: 
                l(1) =   0
                l(2) =   0
                l(3) =   1
                l(4) =   1
                l(5) =   2
                l(6) =   2
     Q(r) pseudized with 0 coefficients 


     PseudoPot. # 2 for I  read from file:
     ../../../pseudo/I.pbe-n-kjpaw_psl.1.0.0.UPF
     MD5 check sum: cd3d296c3308a581e1559a0c8a554cb5
     Pseudo is Projector augmented-wave + core cor, Zval =  7.0
     Generated using &quot;atomic&quot; code by A. Dal Corso  v.6.3
     Shape of augmentation charge: PSQ
     Using radial grid of 1247 points,  6 beta functions with: 
                l(1) =   0
                l(2) =   0
                l(3) =   1
                l(4) =   1
                l(5) =   2
                l(6) =   2
     Q(r) pseudized with 0 coefficients 


     atomic species   valence    mass     pseudopotential
        Sn            14.00   118.70000     Sn( 1.00)
        I              7.00   126.90000     I ( 1.00)

     16 Sym. Ops., with inversion, found ( 8 have fractional translation)


                                    s                        frac. trans.

      isym =  1     identity                                     

 cryst.   s( 1) = (     1          0          0      )
                  (     0          1          0      )
                  (     0          0          1      )

 cart.    s( 1) = (  1.0000000  0.0000000  0.0000000 )
                  (  0.0000000  1.0000000  0.0000000 )
                  (  0.0000000  0.0000000  1.0000000 )


      isym =  2     180 deg rotation - cart. axis [0,0,1]        

 cryst.   s( 2) = (    -1          0          0      )
                  (     0         -1          0      )
                  (     0          0          1      )

 cart.    s( 2) = ( -1.0000000  0.0000000  0.0000000 )
                  (  0.0000000 -1.0000000  0.0000000 )
                  (  0.0000000  0.0000000  1.0000000 )


      isym =  3     180 deg rotation - cart. axis [0,1,0]        

 cryst.   s( 3) = (    -1          0          0      )    f =(  0.5000000 )
                  (     0          1          0      )       ( -0.5000000 )
                  (     0          0         -1      )       (  0.5000000 )

 cart.    s( 3) = ( -1.0000000  0.0000000  0.0000000 )    f =(  0.5000000 )
                  (  0.0000000  1.0000000  0.0000000 )       ( -0.5000000 )
                  (  0.0000000  0.0000000 -1.0000000 )       (  0.3076884 )


      isym =  4     180 deg rotation - cart. axis [1,0,0]        

 cryst.   s( 4) = (     1          0          0      )    f =( -0.5000000 )
                  (     0         -1          0      )       (  0.5000000 )
                  (     0          0         -1      )       (  0.5000000 )

 cart.    s( 4) = (  1.0000000  0.0000000  0.0000000 )    f =( -0.5000000 )
                  (  0.0000000 -1.0000000  0.0000000 )       (  0.5000000 )
                  (  0.0000000  0.0000000 -1.0000000 )       (  0.3076884 )


      isym =  5     180 deg rotation - cart. axis [1,1,0]        

 cryst.   s( 5) = (     0          1          0      )
                  (     1          0          0      )
                  (     0          0         -1      )

 cart.    s( 5) = (  0.0000000  1.0000000  0.0000000 )
                  (  1.0000000  0.0000000  0.0000000 )
                  (  0.0000000  0.0000000 -1.0000000 )


      isym =  6     180 deg rotation - cart. axis [1,-1,0]       

 cryst.   s( 6) = (     0         -1          0      )
                  (    -1          0          0      )
                  (     0          0         -1      )

 cart.    s( 6) = (  0.0000000 -1.0000000  0.0000000 )
                  ( -1.0000000  0.0000000  0.0000000 )
                  (  0.0000000  0.0000000 -1.0000000 )


      isym =  7      90 deg rotation - cart. axis [0,0,-1]       

 cryst.   s( 7) = (     0         -1          0      )    f =( -0.5000000 )
                  (     1          0          0      )       (  0.5000000 )
                  (     0          0          1      )       ( -0.5000000 )

 cart.    s( 7) = (  0.0000000  1.0000000  0.0000000 )    f =( -0.5000000 )
                  ( -1.0000000  0.0000000  0.0000000 )       (  0.5000000 )
                  (  0.0000000  0.0000000  1.0000000 )       ( -0.3076884 )


      isym =  8      90 deg rotation - cart. axis [0,0,1]        

 cryst.   s( 8) = (     0          1          0      )    f =(  0.5000000 )
                  (    -1          0          0      )       ( -0.5000000 )
                  (     0          0          1      )       ( -0.5000000 )

 cart.    s( 8) = (  0.0000000 -1.0000000  0.0000000 )    f =(  0.5000000 )
                  (  1.0000000  0.0000000  0.0000000 )       ( -0.5000000 )
                  (  0.0000000  0.0000000  1.0000000 )       ( -0.3076884 )


      isym =  9     inversion                                    

 cryst.   s( 9) = (    -1          0          0      )
                  (     0         -1          0      )
                  (     0          0         -1      )

 cart.    s( 9) = ( -1.0000000  0.0000000  0.0000000 )
                  (  0.0000000 -1.0000000  0.0000000 )
                  (  0.0000000  0.0000000 -1.0000000 )


      isym = 10     inv. 180 deg rotation - cart. axis [0,0,1]   

 cryst.   s(10) = (     1          0          0      )
                  (     0          1          0      )
                  (     0          0         -1      )

 cart.    s(10) = (  1.0000000  0.0000000  0.0000000 )
                  (  0.0000000  1.0000000  0.0000000 )
                  (  0.0000000  0.0000000 -1.0000000 )


      isym = 11     inv. 180 deg rotation - cart. axis [0,1,0]   

 cryst.   s(11) = (     1          0          0      )    f =( -0.5000000 )
                  (     0         -1          0      )       (  0.5000000 )
                  (     0          0          1      )       ( -0.5000000 )

 cart.    s(11) = (  1.0000000  0.0000000  0.0000000 )    f =( -0.5000000 )
                  (  0.0000000 -1.0000000  0.0000000 )       (  0.5000000 )
                  (  0.0000000  0.0000000  1.0000000 )       ( -0.3076884 )


      isym = 12     inv. 180 deg rotation - cart. axis [1,0,0]   

 cryst.   s(12) = (    -1          0          0      )    f =(  0.5000000 )
                  (     0          1          0      )       ( -0.5000000 )
                  (     0          0          1      )       ( -0.5000000 )

 cart.    s(12) = ( -1.0000000  0.0000000  0.0000000 )    f =(  0.5000000 )
                  (  0.0000000  1.0000000  0.0000000 )       ( -0.5000000 )
                  (  0.0000000  0.0000000  1.0000000 )       ( -0.3076884 )


      isym = 13     inv. 180 deg rotation - cart. axis [1,1,0]   

 cryst.   s(13) = (     0         -1          0      )
                  (    -1          0          0      )
                  (     0          0          1      )

 cart.    s(13) = (  0.0000000 -1.0000000  0.0000000 )
                  ( -1.0000000  0.0000000  0.0000000 )
                  (  0.0000000  0.0000000  1.0000000 )


      isym = 14     inv. 180 deg rotation - cart. axis [1,-1,0]  

 cryst.   s(14) = (     0          1          0      )
                  (     1          0          0      )
                  (     0          0          1      )

 cart.    s(14) = (  0.0000000  1.0000000  0.0000000 )
                  (  1.0000000  0.0000000  0.0000000 )
                  (  0.0000000  0.0000000  1.0000000 )


      isym = 15     inv.  90 deg rotation - cart. axis [0,0,-1]  

 cryst.   s(15) = (     0          1          0      )    f =(  0.5000000 )
                  (    -1          0          0      )       ( -0.5000000 )
                  (     0          0         -1      )       (  0.5000000 )

 cart.    s(15) = (  0.0000000 -1.0000000  0.0000000 )    f =(  0.5000000 )
                  (  1.0000000  0.0000000  0.0000000 )       ( -0.5000000 )
                  (  0.0000000  0.0000000 -1.0000000 )       (  0.3076884 )


      isym = 16     inv.  90 deg rotation - cart. axis [0,0,1]   

 cryst.   s(16) = (     0         -1          0      )    f =( -0.5000000 )
                  (     1          0          0      )       (  0.5000000 )
                  (     0          0         -1      )       (  0.5000000 )

 cart.    s(16) = (  0.0000000  1.0000000  0.0000000 )    f =( -0.5000000 )
                  ( -1.0000000  0.0000000  0.0000000 )       (  0.5000000 )
                  (  0.0000000  0.0000000 -1.0000000 )       (  0.3076884 )


   Cartesian axes

     site n.     atom                  positions (alat units)
         1           Sn  tau(   1) = (   0.0000000   0.0000000   0.0000000  )
         2           Sn  tau(   2) = (   0.5000000   0.5000000   0.3076884  )
         3           I   tau(   3) = (   0.2985210   0.2985210   0.0000000  )
         4           I   tau(   4) = (   0.7014790   0.7014790   0.0000000  )
         5           I   tau(   5) = (   0.7985210   0.2014790   0.3076884  )
         6           I   tau(   6) = (   0.2014790   0.7985210   0.3076884  )

   Crystallographic axes

     site n.     atom                  positions (cryst. coord.)
         1           Sn  tau(   1) = (  0.0000000  0.0000000  0.0000000  )
         2           Sn  tau(   2) = (  0.5000000  0.5000000  0.5000000  )
         3           I   tau(   3) = (  0.2985210  0.2985210  0.0000000  )
         4           I   tau(   4) = (  0.7014790  0.7014790  0.0000000  )
         5           I   tau(   5) = (  0.7985210  0.2014790  0.5000000  )
         6           I   tau(   6) = (  0.2014790  0.7985210  0.5000000  )

     number of k points=     6
                       cart. coord. in units 2pi/alat
        k(    1) = (   0.0000000   0.0000000   0.0000000), wk =   0.2500000
        k(    2) = (   0.0000000   0.0000000  -0.8125102), wk =   0.2500000
        k(    3) = (   0.0000000  -0.5000000   0.0000000), wk =   0.5000000
        k(    4) = (   0.0000000  -0.5000000  -0.8125102), wk =   0.5000000
        k(    5) = (  -0.5000000  -0.5000000   0.0000000), wk =   0.2500000
        k(    6) = (  -0.5000000  -0.5000000  -0.8125102), wk =   0.2500000

                       cryst. coord.
        k(    1) = (   0.0000000   0.0000000   0.0000000), wk =   0.2500000
        k(    2) = (   0.0000000   0.0000000  -0.5000000), wk =   0.2500000
        k(    3) = (   0.0000000  -0.5000000   0.0000000), wk =   0.5000000
        k(    4) = (   0.0000000  -0.5000000  -0.5000000), wk =   0.5000000
        k(    5) = (  -0.5000000  -0.5000000   0.0000000), wk =   0.2500000
        k(    6) = (  -0.5000000  -0.5000000  -0.5000000), wk =   0.2500000

     Dense  grid:   178307 G-vectors     FFT dimensions: (  90,  90,  54)

     Dynamical RAM for                 wfc:       0.31 MB

     Dynamical RAM for     wfc (w. buffer):       2.16 MB

     Dynamical RAM for           str. fact:       0.17 MB

     Dynamical RAM for           local pot:       0.00 MB

     Dynamical RAM for          nlocal pot:       1.15 MB

     Dynamical RAM for                qrad:       2.87 MB

     Dynamical RAM for          rho,v,vnew:       0.63 MB

     Dynamical RAM for               rhoin:       0.21 MB

     Dynamical RAM for            rho*nmix:       1.36 MB

     Dynamical RAM for           G-vectors:       0.36 MB

     Dynamical RAM for          h,s,v(r/c):       0.15 MB

     Dynamical RAM for          <psi|beta>:       0.05 MB

     Dynamical RAM for                 psi:       0.62 MB

     Dynamical RAM for                hpsi:       0.62 MB

     Dynamical RAM for                spsi:       0.62 MB

     Dynamical RAM for      wfcinit/wfcrot:       0.75 MB

     Dynamical RAM for           addusdens:      16.16 MB

     Dynamical RAM for          addusforce:      16.73 MB

     Dynamical RAM for         addusstress:      17.09 MB

     Estimated static dynamical RAM per process >       9.77 MB

     Estimated max dynamical RAM per process >      26.87 MB

     Estimated total dynamical RAM >     859.72 MB

     Initial potential from superposition of free atoms

     starting charge   55.99693, renormalised to   56.00000
     Starting wfcs are   34 randomized atomic wfcs
     Checking if some PAW data can be deallocated... 
       PAW data deallocated on   20 nodes for type:  1
       PAW data deallocated on   12 nodes for type:  2

     total cpu time spent up to now is        2.7 secs

     Self-consistent Calculation

     iteration #  1     ecut=    80.00 Ry     beta= 0.70
     Davidson diagonalization with overlap
     ethr =  1.00E-02,  avg # of iterations =  2.0

     Threshold (ethr) on eigenvalues was too large:
     Diagonalizing with lowered threshold

     Davidson diagonalization with overlap
     ethr =  2.55E-04,  avg # of iterations =  2.3

     total cpu time spent up to now is        6.4 secs

     total energy              =   -2399.92776123 Ry
     estimated scf accuracy    <       0.12912742 Ry

     iteration #  2     ecut=    80.00 Ry     beta= 0.70
     Davidson diagonalization with overlap
     ethr =  2.31E-04,  avg # of iterations =  3.7

     total cpu time spent up to now is        8.8 secs

     total energy              =   -2399.96929857 Ry
     estimated scf accuracy    <       0.05204437 Ry

     iteration #  3     ecut=    80.00 Ry     beta= 0.70
     Davidson diagonalization with overlap
     ethr =  9.29E-05,  avg # of iterations =  2.3

     total cpu time spent up to now is       10.9 secs

     total energy              =   -2399.97882274 Ry
     estimated scf accuracy    <       0.00085370 Ry

     iteration #  4     ecut=    80.00 Ry     beta= 0.70
     Davidson diagonalization with overlap
     ethr =  1.52E-06,  avg # of iterations =  5.8

     total cpu time spent up to now is       14.0 secs

     total energy              =   -2399.97953202 Ry
     estimated scf accuracy    <       0.00060106 Ry

     iteration #  5     ecut=    80.00 Ry     beta= 0.70
     Davidson diagonalization with overlap
     ethr =  1.07E-06,  avg # of iterations =  2.2

     total cpu time spent up to now is       16.1 secs

     total energy              =   -2399.97960884 Ry
     estimated scf accuracy    <       0.00002206 Ry

     iteration #  6     ecut=    80.00 Ry     beta= 0.70
     Davidson diagonalization with overlap
     ethr =  3.94E-08,  avg # of iterations =  5.5

     total cpu time spent up to now is       18.8 secs

     total energy              =   -2399.97962339 Ry
     estimated scf accuracy    <       0.00001058 Ry

     iteration #  7     ecut=    80.00 Ry     beta= 0.70
     Davidson diagonalization with overlap
     ethr =  1.89E-08,  avg # of iterations =  3.2

     total cpu time spent up to now is       21.0 secs

     End of self-consistent calculation

          k = 0.0000 0.0000 0.0000 ( 22385 PWs)   bands (ev):

   -18.3896 -18.3866 -18.3797 -18.3794 -18.3687 -18.3687 -18.3650 -18.3649
   -18.3644 -18.3644  -9.3196  -8.8066  -8.8066  -8.6874  -4.1425  -2.2920
    -0.1043  -0.1043   0.4394   0.7560   1.2610   1.3638   1.6181   1.6181
     2.0261   2.0261   2.4030   2.8722   4.5274

     occupation numbers 
     1.0000   1.0000   1.0000   1.0000   1.0000   1.0000   1.0000   1.0000
     1.0000   1.0000   1.0000   1.0000   1.0000   1.0000   1.0000   1.0000
     1.0000   1.0000   1.0000   1.0000   1.0000   1.0000   1.0000   1.0000
     1.0000   1.0000   1.0000   1.0000   0.0000

          k = 0.0000 0.0000-0.8125 ( 22322 PWs)   bands (ev):

   -18.3867 -18.3867 -18.3794 -18.3794 -18.3697 -18.3697 -18.3689 -18.3689
   -18.3606 -18.3606  -8.8566  -8.8566  -8.6833  -8.6833  -3.6885  -3.6885
    -0.0409  -0.0409  -0.0147  -0.0147   0.5290   0.5290   1.5856   1.5856
     1.6389   1.6389   2.3743   2.3743   6.0966

     occupation numbers 
     1.0000   1.0000   1.0000   1.0000   1.0000   1.0000   1.0000   1.0000
     1.0000   1.0000   1.0000   1.0000   1.0000   1.0000   1.0000   1.0000
     1.0000   1.0000   1.0000   1.0000   1.0000   1.0000   1.0000   1.0000
     1.0000   1.0000   1.0000   1.0000   0.0000

          k = 0.0000-0.5000 0.0000 ( 22322 PWs)   bands (ev):

   -18.3881 -18.3881 -18.3795 -18.3795 -18.3687 -18.3687 -18.3649 -18.3649
   -18.3644 -18.3644  -9.1068  -9.1068  -8.7201  -8.7201  -3.3985  -3.3985
     0.3842   0.3842   0.7837   0.7837   1.0833   1.0833   1.7075   1.7075
     1.8469   1.8469   2.1964   2.1964   5.2184

     occupation numbers 
     1.0000   1.0000   1.0000   1.0000   1.0000   1.0000   1.0000   1.0000
     1.0000   1.0000   1.0000   1.0000   1.0000   1.0000   1.0000   1.0000
     1.0000   1.0000   1.0000   1.0000   1.0000   1.0000   1.0000   1.0000
     1.0000   1.0000   1.0000   1.0000   0.0000

          k = 0.0000-0.5000-0.8125 ( 22240 PWs)   bands (ev):

   -18.3868 -18.3868 -18.3794 -18.3794 -18.3697 -18.3697 -18.3689 -18.3689
   -18.3606 -18.3606  -8.8351  -8.8351  -8.7054  -8.7054  -3.6700  -3.6700
    -0.6410  -0.6410   0.0276   0.0276   1.1873   1.1873   1.7072   1.7072
     1.8290   1.8290   2.6198   2.6198   4.2992

     occupation numbers 
     1.0000   1.0000   1.0000   1.0000   1.0000   1.0000   1.0000   1.0000
     1.0000   1.0000   1.0000   1.0000   1.0000   1.0000   1.0000   1.0000
     1.0000   1.0000   1.0000   1.0000   1.0000   1.0000   1.0000   1.0000
     1.0000   1.0000   1.0000   1.0000   0.0000

          k =-0.5000-0.5000 0.0000 ( 22228 PWs)   bands (ev):

   -18.3881 -18.3881 -18.3795 -18.3795 -18.3687 -18.3687 -18.3649 -18.3649
   -18.3644 -18.3644  -9.0235  -9.0235  -8.8195  -8.8195  -3.3056  -3.3056
     0.0744   0.0744   0.8520   0.8520   1.3626   1.3626   1.5934   1.5934
     1.7080   1.7080   2.2039   2.2039   5.1759

     occupation numbers 
     1.0000   1.0000   1.0000   1.0000   1.0000   1.0000   1.0000   1.0000
     1.0000   1.0000   1.0000   1.0000   1.0000   1.0000   1.0000   1.0000
     1.0000   1.0000   1.0000   1.0000   1.0000   1.0000   1.0000   1.0000
     1.0000   1.0000   1.0000   1.0000   0.0000

          k =-0.5000-0.5000-0.8125 ( 22248 PWs)   bands (ev):

   -18.3867 -18.3867 -18.3794 -18.3794 -18.3697 -18.3697 -18.3689 -18.3689
   -18.3606 -18.3606  -8.8422  -8.8422  -8.6940  -8.6940  -3.7523  -3.7523
    -0.2306  -0.2306   0.2771   0.2771   0.5573   0.5573   1.8423   1.8423
     1.8590   1.8590   2.0280   2.0280   5.9938

     occupation numbers 
     1.0000   1.0000   1.0000   1.0000   1.0000   1.0000   1.0000   1.0000
     1.0000   1.0000   1.0000   1.0000   1.0000   1.0000   1.0000   1.0000
     1.0000   1.0000   1.0000   1.0000   1.0000   1.0000   1.0000   1.0000
     1.0000   1.0000   1.0000   1.0000   0.0000

     highest occupied, lowest unoccupied level (ev):     2.8722    4.2992

!    total energy              =   -2399.97962541 Ry

     total all-electron energy =    -81641.224973 Ry
     estimated scf accuracy    <       0.00000004 Ry

     The total energy is the sum of the following terms:
     one-electron contribution =    -203.71722143 Ry
     hartree contribution      =     130.10954856 Ry
     xc contribution           =    -159.03626030 Ry
     ewald contribution        =    -219.54274838 Ry
     one-center paw contrib.   =   -1947.79294386 Ry
      -> PAW hartree energy AE =     108.29473340 Ry
      -> PAW hartree energy PS =    -107.52816388 Ry
      -> PAW xc energy AE      =    -328.95735087 Ry
      -> PAW xc energy PS      =      47.25545999 Ry
      -> total E_H with PAW    =     130.87611808 Ry
      -> total E_XC with PAW   =    -440.73815118 Ry

     convergence has been achieved in   7 iterations

     Forces acting on atoms (cartesian axes, Ry/au):

     atom    1 type  1   force =     0.00000000    0.00000000    0.00000000
     atom    2 type  1   force =     0.00000000    0.00000000   -0.00000000
     atom    3 type  2   force =     0.00282517    0.00282517    0.00000000
     atom    4 type  2   force =    -0.00282517   -0.00282517    0.00000000
     atom    5 type  2   force =     0.00282517   -0.00282517    0.00000000
     atom    6 type  2   force =    -0.00282517    0.00282517    0.00000000
     The non-local contrib.  to forces
     atom    1 type  1   force =     0.00000000    0.00000000   -0.00000000
     atom    2 type  1   force =     0.00000000    0.00000000    0.00000000
     atom    3 type  2   force =     0.01541485    0.01541485   -0.00000000
     atom    4 type  2   force =    -0.01541485   -0.01541485    0.00000000
     atom    5 type  2   force =     0.01541485   -0.01541485    0.00000000
     atom    6 type  2   force =    -0.01541485    0.01541485    0.00000000
     The ionic contribution  to forces
     atom    1 type  1   force =    -0.00000000   -0.00000000    0.00000000
     atom    2 type  1   force =    -0.00000000   -0.00000000   -0.00000000
     atom    3 type  2   force =    -0.90990984   -0.90990984   -0.00000000
     atom    4 type  2   force =     0.90990984    0.90990984   -0.00000000
     atom    5 type  2   force =    -0.90990984    0.90990984   -0.00000000
     atom    6 type  2   force =     0.90990984   -0.90990984   -0.00000000
     The local contribution  to forces
     atom    1 type  1   force =     0.00000000    0.00000000    0.00000000
     atom    2 type  1   force =     0.00000000    0.00000000    0.00000000
     atom    3 type  2   force =     0.89929089    0.89929089    0.00000000
     atom    4 type  2   force =    -0.89929089   -0.89929089    0.00000000
     atom    5 type  2   force =     0.89929089   -0.89929089    0.00000000
     atom    6 type  2   force =    -0.89929089    0.89929089    0.00000000
     The core correction contribution to forces
     atom    1 type  1   force =     0.00000000    0.00000000    0.00000000
     atom    2 type  1   force =     0.00000000    0.00000000    0.00000000
     atom    3 type  2   force =    -0.00198262   -0.00198262    0.00000000
     atom    4 type  2   force =     0.00198262    0.00198262    0.00000000
     atom    5 type  2   force =    -0.00198262    0.00198262    0.00000000
     atom    6 type  2   force =     0.00198262   -0.00198262   -0.00000000
     The Hubbard contrib.    to forces
     atom    1 type  1   force =     0.00000000    0.00000000    0.00000000
     atom    2 type  1   force =     0.00000000    0.00000000    0.00000000
     atom    3 type  2   force =     0.00000000    0.00000000    0.00000000
     atom    4 type  2   force =     0.00000000    0.00000000    0.00000000
     atom    5 type  2   force =     0.00000000    0.00000000    0.00000000
     atom    6 type  2   force =     0.00000000    0.00000000    0.00000000
     The SCF correction term to forces
     atom    1 type  1   force =    -0.00000000   -0.00000000    0.00000000
     atom    2 type  1   force =    -0.00000000    0.00000000    0.00000000
     atom    3 type  2   force =     0.00001188    0.00001188   -0.00000000
     atom    4 type  2   force =    -0.00001188   -0.00001188    0.00000000
     atom    5 type  2   force =     0.00001188   -0.00001188   -0.00000000
     atom    6 type  2   force =    -0.00001188    0.00001188   -0.00000000

     Total force =     0.007991     Total SCF correction =     0.000034


     Computing stress (Cartesian axis) and pressure

          total   stress  (Ry/bohr**3)                   (kbar)     P=        1.74
  -0.00000840   0.00000000   0.00000000           -1.24        0.00        0.00
   0.00000000  -0.00000840   0.00000000            0.00       -1.24        0.00
   0.00000000   0.00000000   0.00005235            0.00        0.00        7.70

     kinetic stress (kbar)   7312.34      0.00      0.00
                                0.00   7312.34      0.00
                                0.00      0.00   7300.29

     local   stress (kbar)  -1439.82      0.00     -0.00
                                0.00  -1439.82     -0.00
                               -0.00     -0.00  -5858.01

     nonloc. stress (kbar)    117.23      0.00      0.00
                                0.00    117.23      0.00
                                0.00      0.00    120.80

     hartree stress (kbar)   2826.15      0.00      0.00
                                0.00   2826.15      0.00
                                0.00      0.00   4720.72

     exc-cor stress (kbar)   6160.85      0.00      0.00
                                0.00   6160.85      0.00
                                0.00      0.00   6162.04

     corecor stress (kbar)  -8297.21      0.00     -0.00
                                0.00  -8297.21     -0.00
                               -0.00     -0.00  -8296.58

     ewald   stress (kbar)  -6680.77      0.00     -0.00
                                0.00  -6680.77     -0.00
                               -0.00     -0.00  -4141.56

     hubbard stress (kbar)      0.00      0.00      0.00
                                0.00      0.00      0.00
                                0.00      0.00      0.00

     DFT-D   stress (kbar)      0.00      0.00      0.00
                                0.00      0.00      0.00
                                0.00      0.00      0.00

     XDM     stress (kbar)      0.00      0.00      0.00
                                0.00      0.00      0.00
                                0.00      0.00      0.00

     dft-nl  stress (kbar)      0.00      0.00      0.00
                                0.00      0.00      0.00
                                0.00      0.00      0.00

     TS-vdW  stress (kbar)      0.00      0.00      0.00
                                0.00      0.00      0.00
                                0.00      0.00      0.00



     Writing output data file ./out/SnI2tetr.save/

     init_run     :      1.75s CPU      1.82s WALL (       1 calls)
     electrons    :     18.06s CPU     18.32s WALL (       1 calls)
     forces       :      0.97s CPU      0.97s WALL (       1 calls)
     stress       :      2.19s CPU      2.20s WALL (       1 calls)

     Called by init_run:
     wfcinit      :      0.63s CPU      0.65s WALL (       1 calls)
     wfcinit:atom :      0.00s CPU      0.00s WALL (       6 calls)
     wfcinit:wfcr :      0.60s CPU      0.61s WALL (       6 calls)
     potinit      :      0.35s CPU      0.38s WALL (       1 calls)
     hinit0       :      0.48s CPU      0.49s WALL (       1 calls)

     Called by electrons:
     c_bands      :     13.11s CPU     13.29s WALL (       8 calls)
     sum_band     :      2.75s CPU      2.77s WALL (       8 calls)
     v_of_rho     :      0.25s CPU      0.26s WALL (       8 calls)
     v_h          :      0.02s CPU      0.02s WALL (       8 calls)
     v_xc         :      0.29s CPU      0.30s WALL (      10 calls)
     newd         :      1.03s CPU      1.05s WALL (       8 calls)
     PAW_pot      :      1.10s CPU      1.12s WALL (       8 calls)
     mix_rho      :      0.04s CPU      0.04s WALL (       8 calls)

     Called by c_bands:
     init_us_2    :      0.20s CPU      0.21s WALL (     114 calls)
     cegterg      :     12.71s CPU     12.82s WALL (      48 calls)

     Called by sum_band:
     sum_band:wei :      0.00s CPU      0.00s WALL (       8 calls)
     sum_band:loo :      1.80s CPU      1.82s WALL (       8 calls)
     sum_band:buf :      0.02s CPU      0.02s WALL (      48 calls)
     sum_band:ini :      0.09s CPU      0.09s WALL (      48 calls)
     sum_band:cal :      0.46s CPU      0.46s WALL (      48 calls)
     sum_band:bec :      0.01s CPU      0.01s WALL (      48 calls)
     addusdens    :      0.85s CPU      0.86s WALL (       8 calls)
     addusd:skk   :      0.00s CPU      0.00s WALL (      16 calls)
     addusd:dgemm :      0.35s CPU      0.35s WALL (      16 calls)
     addusd:qvan2 :      0.43s CPU      0.43s WALL (      16 calls)

     Called by *egterg:
     cdiaghg      :      0.40s CPU      0.40s WALL (     204 calls)
     cegterg:over :      0.71s CPU      0.72s WALL (     162 calls)
     cegterg:upda :      0.36s CPU      0.37s WALL (     162 calls)
     cegterg:last :      0.92s CPU      0.92s WALL (     110 calls)
     h_psi        :      9.27s CPU      9.38s WALL (     216 calls)
     s_psi        :      1.22s CPU      1.22s WALL (     216 calls)
     g_psi        :      0.02s CPU      0.02s WALL (     162 calls)

     Called by h_psi:
     h_psi:calbec :      1.42s CPU      1.42s WALL (     216 calls)
     vloc_psi     :      6.63s CPU      6.72s WALL (     216 calls)
     add_vuspsi   :      1.19s CPU      1.19s WALL (     216 calls)

     General routines
     calbec       :      2.14s CPU      2.15s WALL (     294 calls)
     fft          :      0.20s CPU      0.20s WALL (     114 calls)
     ffts         :      0.01s CPU      0.01s WALL (       8 calls)
     fftw         :      7.37s CPU      7.47s WALL (    9438 calls)

     Parallel routines
     fft_scatt_xy :      0.63s CPU      0.64s WALL (    9560 calls)
     fft_scatt_yz :      1.68s CPU      1.71s WALL (    9560 calls)

     PAW routines
     PAW_pot      :      1.10s CPU      1.12s WALL (       8 calls)
     PAW_symme    :      0.01s CPU      0.01s WALL (      16 calls)

     PWSCF        :     23.87s CPU     24.68s WALL


   This run was terminated on:  12:21: 8  15Jan2021            

=------------------------------------------------------------------------------=
   JOB DONE.
=------------------------------------------------------------------------------=
