
     Program PWSCF v.6.4.1 starts on 24Jan2021 at 18: 3: 9 

     This program is part of the open-source Quantum ESPRESSO suite
     for quantum simulation of materials; please cite
         "P. Giannozzi et al., J. Phys.:Condens. Matter 21 395502 (2009);
         "P. Giannozzi et al., J. Phys.:Condens. Matter 29 465901 (2017);
          URL http://www.quantum-espresso.org", 
     in publications or presentations arising from this work. More details at
     http://www.quantum-espresso.org/quote

     Parallel version (MPI & OpenMP), running on      48 processor cores
     Number of MPI processes:                24
     Threads/MPI process:                     2

     MPI processes distributed on     1 nodes
     R & G space division:  proc/nbgrp/npool/nimage =      24
     Waiting for input...
     Reading input from standard input

     Current dimensions of program PWSCF are:
     Max number of different atomic species (ntypx) = 10
     Max number of k-points (npk) =  40000
     Max angular momentum in pseudopotentials (lmaxx) =  3
               file Cs.rel-pbesol-spn-kjpaw_psl.1.0.0.UPF: wavefunction(s)  5S 6S renormalized
               file I.rel-pbesol-n-kjpaw_psl.1.0.0.UPF: wavefunction(s)  5S renormalized

     Subspace diagonalization in iterative solution of the eigenvalue problem:
     one sub-group per band group will be used
     scalapack distributed-memory algorithm (size of sub-group:  3*  3 procs)

     Found symmetry operation: I + (  0.0000 -0.5000 -0.5000)
     This is a supercell, fractional translations are disabled
 
     Parallelization info
     --------------------
     sticks:   dense  smooth     PW     G-vecs:    dense   smooth      PW
     Min         123      82     23                 5059     2762     413
     Max         124      84     24                 5064     2763     418
     Sum        2965    1993    561               121481    66299    9939
 

     Title: 
     CsIsalt                                                                    


     bravais-lattice index     =            1
     lattice parameter (alat)  =       8.8160  a.u.
     unit-cell volume          =     685.1896 (a.u.)^3
     number of atoms/cell      =            8
     number of atomic types    =            2
     number of electrons       =        64.00
     number of Kohn-Sham states=           64
     kinetic-energy cutoff     =      80.0000  Ry
     charge density cutoff     =     480.0000  Ry
     convergence threshold     =      1.0E-06
     mixing beta               =       0.5000
     number of iterations used =            8  plain     mixing
     Exchange-correlation      = SLA PW PSX PSC ( 1  4 10  8 0 0)
     Non magnetic calculation with spin-orbit


     celldm(1)=   8.815973  celldm(2)=   0.000000  celldm(3)=   0.000000
     celldm(4)=   0.000000  celldm(5)=   0.000000  celldm(6)=   0.000000

     crystal axes: (cart. coord. in units of alat)
               a(1) = (   1.000000   0.000000   0.000000 )  
               a(2) = (   0.000000   1.000000   0.000000 )  
               a(3) = (   0.000000   0.000000   1.000000 )  

     reciprocal axes: (cart. coord. in units 2 pi/alat)
               b(1) = (  1.000000  0.000000  0.000000 )  
               b(2) = (  0.000000  1.000000  0.000000 )  
               b(3) = (  0.000000  0.000000  1.000000 )  


     PseudoPot. # 1 for Cs read from file:
     /marconi_scratch/userexternal/cmalosso/degironcoli/pseudo/Cs.rel-pbesol-spn-kjpaw_psl.1.0.0.UPF
     MD5 check sum: 2adfb289dd462649b099d7edbec69378
     Pseudo is Projector augmented-wave + core cor, Zval =  9.0
     Generated using "atomic" code by A. Dal Corso v.6.4.1
     Shape of augmentation charge: PSQ
     Using radial grid of 1251 points, 15 beta functions with: 
                l(1) =   0
                l(2) =   0
                l(3) =   0
                l(4) =   1
                l(5) =   1
                l(6) =   1
                l(7) =   1
                l(8) =   2
                l(9) =   2
               l(10) =   2
               l(11) =   2
               l(12) =   3
               l(13) =   3
               l(14) =   3
               l(15) =   3
     Q(r) pseudized with 0 coefficients 


     PseudoPot. # 2 for I  read from file:
     /marconi_scratch/userexternal/cmalosso/degironcoli/pseudo/I.rel-pbesol-n-kjpaw_psl.1.0.0.UPF
     MD5 check sum: 4478c427bd443f303eca1937a163b991
     Pseudo is Projector augmented-wave + core cor, Zval =  7.0
     Generated using "atomic" code by A. Dal Corso v.6.3
     Shape of augmentation charge: PSQ
     Using radial grid of 1247 points, 10 beta functions with: 
                l(1) =   0
                l(2) =   0
                l(3) =   1
                l(4) =   1
                l(5) =   1
                l(6) =   1
                l(7) =   2
                l(8) =   2
                l(9) =   2
               l(10) =   2
     Q(r) pseudized with 0 coefficients 


     atomic species   valence    mass     pseudopotential
        Cs             9.00   132.90000     Cs( 1.00)
        I              7.00   126.90000     I ( 1.00)

     48 Sym. Ops., with inversion, found


                                    s                        frac. trans.

      isym =  1     identity                                     

 cryst.   s( 1) = (     1          0          0      )
                  (     0          1          0      )
                  (     0          0          1      )

 cart.    s( 1) = (  1.0000000  0.0000000  0.0000000 )
                  (  0.0000000  1.0000000  0.0000000 )
                  (  0.0000000  0.0000000  1.0000000 )


      isym =  2     180 deg rotation - cart. axis [0,0,1]        

 cryst.   s( 2) = (    -1          0          0      )
                  (     0         -1          0      )
                  (     0          0          1      )

 cart.    s( 2) = ( -1.0000000  0.0000000  0.0000000 )
                  (  0.0000000 -1.0000000  0.0000000 )
                  (  0.0000000  0.0000000  1.0000000 )


      isym =  3     180 deg rotation - cart. axis [0,1,0]        

 cryst.   s( 3) = (    -1          0          0      )
                  (     0          1          0      )
                  (     0          0         -1      )

 cart.    s( 3) = ( -1.0000000  0.0000000  0.0000000 )
                  (  0.0000000  1.0000000  0.0000000 )
                  (  0.0000000  0.0000000 -1.0000000 )


      isym =  4     180 deg rotation - cart. axis [1,0,0]        

 cryst.   s( 4) = (     1          0          0      )
                  (     0         -1          0      )
                  (     0          0         -1      )

 cart.    s( 4) = (  1.0000000  0.0000000  0.0000000 )
                  (  0.0000000 -1.0000000  0.0000000 )
                  (  0.0000000  0.0000000 -1.0000000 )


      isym =  5     180 deg rotation - cart. axis [1,1,0]        

 cryst.   s( 5) = (     0          1          0      )
                  (     1          0          0      )
                  (     0          0         -1      )

 cart.    s( 5) = (  0.0000000  1.0000000  0.0000000 )
                  (  1.0000000  0.0000000  0.0000000 )
                  (  0.0000000  0.0000000 -1.0000000 )


      isym =  6     180 deg rotation - cart. axis [1,-1,0]       

 cryst.   s( 6) = (     0         -1          0      )
                  (    -1          0          0      )
                  (     0          0         -1      )

 cart.    s( 6) = (  0.0000000 -1.0000000  0.0000000 )
                  ( -1.0000000  0.0000000  0.0000000 )
                  (  0.0000000  0.0000000 -1.0000000 )


      isym =  7      90 deg rotation - cart. axis [0,0,-1]       

 cryst.   s( 7) = (     0         -1          0      )
                  (     1          0          0      )
                  (     0          0          1      )

 cart.    s( 7) = (  0.0000000  1.0000000  0.0000000 )
                  ( -1.0000000  0.0000000  0.0000000 )
                  (  0.0000000  0.0000000  1.0000000 )


      isym =  8      90 deg rotation - cart. axis [0,0,1]        

 cryst.   s( 8) = (     0          1          0      )
                  (    -1          0          0      )
                  (     0          0          1      )

 cart.    s( 8) = (  0.0000000 -1.0000000  0.0000000 )
                  (  1.0000000  0.0000000  0.0000000 )
                  (  0.0000000  0.0000000  1.0000000 )


      isym =  9     180 deg rotation - cart. axis [1,0,1]        

 cryst.   s( 9) = (     0          0          1      )
                  (     0         -1          0      )
                  (     1          0          0      )

 cart.    s( 9) = (  0.0000000  0.0000000  1.0000000 )
                  (  0.0000000 -1.0000000  0.0000000 )
                  (  1.0000000  0.0000000  0.0000000 )


      isym = 10     180 deg rotation - cart. axis [-1,0,1]       

 cryst.   s(10) = (     0          0         -1      )
                  (     0         -1          0      )
                  (    -1          0          0      )

 cart.    s(10) = (  0.0000000  0.0000000 -1.0000000 )
                  (  0.0000000 -1.0000000  0.0000000 )
                  ( -1.0000000  0.0000000  0.0000000 )


      isym = 11      90 deg rotation - cart. axis [0,1,0]        

 cryst.   s(11) = (     0          0         -1      )
                  (     0          1          0      )
                  (     1          0          0      )

 cart.    s(11) = (  0.0000000  0.0000000  1.0000000 )
                  (  0.0000000  1.0000000  0.0000000 )
                  ( -1.0000000  0.0000000  0.0000000 )


      isym = 12      90 deg rotation - cart. axis [0,-1,0]       

 cryst.   s(12) = (     0          0          1      )
                  (     0          1          0      )
                  (    -1          0          0      )

 cart.    s(12) = (  0.0000000  0.0000000 -1.0000000 )
                  (  0.0000000  1.0000000  0.0000000 )
                  (  1.0000000  0.0000000  0.0000000 )


      isym = 13     180 deg rotation - cart. axis [0,1,1]        

 cryst.   s(13) = (    -1          0          0      )
                  (     0          0          1      )
                  (     0          1          0      )

 cart.    s(13) = ( -1.0000000  0.0000000  0.0000000 )
                  (  0.0000000  0.0000000  1.0000000 )
                  (  0.0000000  1.0000000  0.0000000 )


      isym = 14     180 deg rotation - cart. axis [0,1,-1]       

 cryst.   s(14) = (    -1          0          0      )
                  (     0          0         -1      )
                  (     0         -1          0      )

 cart.    s(14) = ( -1.0000000  0.0000000  0.0000000 )
                  (  0.0000000  0.0000000 -1.0000000 )
                  (  0.0000000 -1.0000000  0.0000000 )


      isym = 15      90 deg rotation - cart. axis [-1,0,0]       

 cryst.   s(15) = (     1          0          0      )
                  (     0          0         -1      )
                  (     0          1          0      )

 cart.    s(15) = (  1.0000000  0.0000000  0.0000000 )
                  (  0.0000000  0.0000000  1.0000000 )
                  (  0.0000000 -1.0000000  0.0000000 )


      isym = 16      90 deg rotation - cart. axis [1,0,0]        

 cryst.   s(16) = (     1          0          0      )
                  (     0          0          1      )
                  (     0         -1          0      )

 cart.    s(16) = (  1.0000000  0.0000000  0.0000000 )
                  (  0.0000000  0.0000000 -1.0000000 )
                  (  0.0000000  1.0000000  0.0000000 )


      isym = 17     120 deg rotation - cart. axis [-1,-1,-1]     

 cryst.   s(17) = (     0          0          1      )
                  (     1          0          0      )
                  (     0          1          0      )

 cart.    s(17) = (  0.0000000  1.0000000  0.0000000 )
                  (  0.0000000  0.0000000  1.0000000 )
                  (  1.0000000  0.0000000  0.0000000 )


      isym = 18     120 deg rotation - cart. axis [-1,1,1]       

 cryst.   s(18) = (     0          0         -1      )
                  (    -1          0          0      )
                  (     0          1          0      )

 cart.    s(18) = (  0.0000000 -1.0000000  0.0000000 )
                  (  0.0000000  0.0000000  1.0000000 )
                  ( -1.0000000  0.0000000  0.0000000 )


      isym = 19     120 deg rotation - cart. axis [1,1,-1]       

 cryst.   s(19) = (     0          0         -1      )
                  (     1          0          0      )
                  (     0         -1          0      )

 cart.    s(19) = (  0.0000000  1.0000000  0.0000000 )
                  (  0.0000000  0.0000000 -1.0000000 )
                  ( -1.0000000  0.0000000  0.0000000 )


      isym = 20     120 deg rotation - cart. axis [1,-1,1]       

 cryst.   s(20) = (     0          0          1      )
                  (    -1          0          0      )
                  (     0         -1          0      )

 cart.    s(20) = (  0.0000000 -1.0000000  0.0000000 )
                  (  0.0000000  0.0000000 -1.0000000 )
                  (  1.0000000  0.0000000  0.0000000 )


      isym = 21     120 deg rotation - cart. axis [1,1,1]        

 cryst.   s(21) = (     0          1          0      )
                  (     0          0          1      )
                  (     1          0          0      )

 cart.    s(21) = (  0.0000000  0.0000000  1.0000000 )
                  (  1.0000000  0.0000000  0.0000000 )
                  (  0.0000000  1.0000000  0.0000000 )


      isym = 22     120 deg rotation - cart. axis [-1,1,-1]      

 cryst.   s(22) = (     0         -1          0      )
                  (     0          0         -1      )
                  (     1          0          0      )

 cart.    s(22) = (  0.0000000  0.0000000  1.0000000 )
                  ( -1.0000000  0.0000000  0.0000000 )
                  (  0.0000000 -1.0000000  0.0000000 )


      isym = 23     120 deg rotation - cart. axis [1,-1,-1]      

 cryst.   s(23) = (     0         -1          0      )
                  (     0          0          1      )
                  (    -1          0          0      )

 cart.    s(23) = (  0.0000000  0.0000000 -1.0000000 )
                  ( -1.0000000  0.0000000  0.0000000 )
                  (  0.0000000  1.0000000  0.0000000 )


      isym = 24     120 deg rotation - cart. axis [-1,-1,1]      

 cryst.   s(24) = (     0          1          0      )
                  (     0          0         -1      )
                  (    -1          0          0      )

 cart.    s(24) = (  0.0000000  0.0000000 -1.0000000 )
                  (  1.0000000  0.0000000  0.0000000 )
                  (  0.0000000 -1.0000000  0.0000000 )


      isym = 25     inversion                                    

 cryst.   s(25) = (    -1          0          0      )
                  (     0         -1          0      )
                  (     0          0         -1      )

 cart.    s(25) = ( -1.0000000  0.0000000  0.0000000 )
                  (  0.0000000 -1.0000000  0.0000000 )
                  (  0.0000000  0.0000000 -1.0000000 )


      isym = 26     inv. 180 deg rotation - cart. axis [0,0,1]   

 cryst.   s(26) = (     1          0          0      )
                  (     0          1          0      )
                  (     0          0         -1      )

 cart.    s(26) = (  1.0000000  0.0000000  0.0000000 )
                  (  0.0000000  1.0000000  0.0000000 )
                  (  0.0000000  0.0000000 -1.0000000 )


      isym = 27     inv. 180 deg rotation - cart. axis [0,1,0]   

 cryst.   s(27) = (     1          0          0      )
                  (     0         -1          0      )
                  (     0          0          1      )

 cart.    s(27) = (  1.0000000  0.0000000  0.0000000 )
                  (  0.0000000 -1.0000000  0.0000000 )
                  (  0.0000000  0.0000000  1.0000000 )


      isym = 28     inv. 180 deg rotation - cart. axis [1,0,0]   

 cryst.   s(28) = (    -1          0          0      )
                  (     0          1          0      )
                  (     0          0          1      )

 cart.    s(28) = ( -1.0000000  0.0000000  0.0000000 )
                  (  0.0000000  1.0000000  0.0000000 )
                  (  0.0000000  0.0000000  1.0000000 )


      isym = 29     inv. 180 deg rotation - cart. axis [1,1,0]   

 cryst.   s(29) = (     0         -1          0      )
                  (    -1          0          0      )
                  (     0          0          1      )

 cart.    s(29) = (  0.0000000 -1.0000000  0.0000000 )
                  ( -1.0000000  0.0000000  0.0000000 )
                  (  0.0000000  0.0000000  1.0000000 )


      isym = 30     inv. 180 deg rotation - cart. axis [1,-1,0]  

 cryst.   s(30) = (     0          1          0      )
                  (     1          0          0      )
                  (     0          0          1      )

 cart.    s(30) = (  0.0000000  1.0000000  0.0000000 )
                  (  1.0000000  0.0000000  0.0000000 )
                  (  0.0000000  0.0000000  1.0000000 )


      isym = 31     inv.  90 deg rotation - cart. axis [0,0,-1]  

 cryst.   s(31) = (     0          1          0      )
                  (    -1          0          0      )
                  (     0          0         -1      )

 cart.    s(31) = (  0.0000000 -1.0000000  0.0000000 )
                  (  1.0000000  0.0000000  0.0000000 )
                  (  0.0000000  0.0000000 -1.0000000 )


      isym = 32     inv.  90 deg rotation - cart. axis [0,0,1]   

 cryst.   s(32) = (     0         -1          0      )
                  (     1          0          0      )
                  (     0          0         -1      )

 cart.    s(32) = (  0.0000000  1.0000000  0.0000000 )
                  ( -1.0000000  0.0000000  0.0000000 )
                  (  0.0000000  0.0000000 -1.0000000 )


      isym = 33     inv. 180 deg rotation - cart. axis [1,0,1]   

 cryst.   s(33) = (     0          0         -1      )
                  (     0          1          0      )
                  (    -1          0          0      )

 cart.    s(33) = (  0.0000000  0.0000000 -1.0000000 )
                  (  0.0000000  1.0000000  0.0000000 )
                  ( -1.0000000  0.0000000  0.0000000 )


      isym = 34     inv. 180 deg rotation - cart. axis [-1,0,1]  

 cryst.   s(34) = (     0          0          1      )
                  (     0          1          0      )
                  (     1          0          0      )

 cart.    s(34) = (  0.0000000  0.0000000  1.0000000 )
                  (  0.0000000  1.0000000  0.0000000 )
                  (  1.0000000  0.0000000  0.0000000 )


      isym = 35     inv.  90 deg rotation - cart. axis [0,1,0]   

 cryst.   s(35) = (     0          0          1      )
                  (     0         -1          0      )
                  (    -1          0          0      )

 cart.    s(35) = (  0.0000000  0.0000000 -1.0000000 )
                  (  0.0000000 -1.0000000  0.0000000 )
                  (  1.0000000  0.0000000  0.0000000 )


      isym = 36     inv.  90 deg rotation - cart. axis [0,-1,0]  

 cryst.   s(36) = (     0          0         -1      )
                  (     0         -1          0      )
                  (     1          0          0      )

 cart.    s(36) = (  0.0000000  0.0000000  1.0000000 )
                  (  0.0000000 -1.0000000  0.0000000 )
                  ( -1.0000000  0.0000000  0.0000000 )


      isym = 37     inv. 180 deg rotation - cart. axis [0,1,1]   

 cryst.   s(37) = (     1          0          0      )
                  (     0          0         -1      )
                  (     0         -1          0      )

 cart.    s(37) = (  1.0000000  0.0000000  0.0000000 )
                  (  0.0000000  0.0000000 -1.0000000 )
                  (  0.0000000 -1.0000000  0.0000000 )


      isym = 38     inv. 180 deg rotation - cart. axis [0,1,-1]  

 cryst.   s(38) = (     1          0          0      )
                  (     0          0          1      )
                  (     0          1          0      )

 cart.    s(38) = (  1.0000000  0.0000000  0.0000000 )
                  (  0.0000000  0.0000000  1.0000000 )
                  (  0.0000000  1.0000000  0.0000000 )


      isym = 39     inv.  90 deg rotation - cart. axis [-1,0,0]  

 cryst.   s(39) = (    -1          0          0      )
                  (     0          0          1      )
                  (     0         -1          0      )

 cart.    s(39) = ( -1.0000000  0.0000000  0.0000000 )
                  (  0.0000000  0.0000000 -1.0000000 )
                  (  0.0000000  1.0000000  0.0000000 )


      isym = 40     inv.  90 deg rotation - cart. axis [1,0,0]   

 cryst.   s(40) = (    -1          0          0      )
                  (     0          0         -1      )
                  (     0          1          0      )

 cart.    s(40) = ( -1.0000000  0.0000000  0.0000000 )
                  (  0.0000000  0.0000000  1.0000000 )
                  (  0.0000000 -1.0000000  0.0000000 )


      isym = 41     inv. 120 deg rotation - cart. axis [-1,-1,-1]

 cryst.   s(41) = (     0          0         -1      )
                  (    -1          0          0      )
                  (     0         -1          0      )

 cart.    s(41) = (  0.0000000 -1.0000000  0.0000000 )
                  (  0.0000000  0.0000000 -1.0000000 )
                  ( -1.0000000  0.0000000  0.0000000 )


      isym = 42     inv. 120 deg rotation - cart. axis [-1,1,1]  

 cryst.   s(42) = (     0          0          1      )
                  (     1          0          0      )
                  (     0         -1          0      )

 cart.    s(42) = (  0.0000000  1.0000000  0.0000000 )
                  (  0.0000000  0.0000000 -1.0000000 )
                  (  1.0000000  0.0000000  0.0000000 )


      isym = 43     inv. 120 deg rotation - cart. axis [1,1,-1]  

 cryst.   s(43) = (     0          0          1      )
                  (    -1          0          0      )
                  (     0          1          0      )

 cart.    s(43) = (  0.0000000 -1.0000000  0.0000000 )
                  (  0.0000000  0.0000000  1.0000000 )
                  (  1.0000000  0.0000000  0.0000000 )


      isym = 44     inv. 120 deg rotation - cart. axis [1,-1,1]  

 cryst.   s(44) = (     0          0         -1      )
                  (     1          0          0      )
                  (     0          1          0      )

 cart.    s(44) = (  0.0000000  1.0000000  0.0000000 )
                  (  0.0000000  0.0000000  1.0000000 )
                  ( -1.0000000  0.0000000  0.0000000 )


      isym = 45     inv. 120 deg rotation - cart. axis [1,1,1]   

 cryst.   s(45) = (     0         -1          0      )
                  (     0          0         -1      )
                  (    -1          0          0      )

 cart.    s(45) = (  0.0000000  0.0000000 -1.0000000 )
                  ( -1.0000000  0.0000000  0.0000000 )
                  (  0.0000000 -1.0000000  0.0000000 )


      isym = 46     inv. 120 deg rotation - cart. axis [-1,1,-1] 

 cryst.   s(46) = (     0          1          0      )
                  (     0          0          1      )
                  (    -1          0          0      )

 cart.    s(46) = (  0.0000000  0.0000000 -1.0000000 )
                  (  1.0000000  0.0000000  0.0000000 )
                  (  0.0000000  1.0000000  0.0000000 )


      isym = 47     inv. 120 deg rotation - cart. axis [1,-1,-1] 

 cryst.   s(47) = (     0          1          0      )
                  (     0          0         -1      )
                  (     1          0          0      )

 cart.    s(47) = (  0.0000000  0.0000000  1.0000000 )
                  (  1.0000000  0.0000000  0.0000000 )
                  (  0.0000000 -1.0000000  0.0000000 )


      isym = 48     inv. 120 deg rotation - cart. axis [-1,-1,1] 

 cryst.   s(48) = (     0         -1          0      )
                  (     0          0          1      )
                  (     1          0          0      )

 cart.    s(48) = (  0.0000000  0.0000000  1.0000000 )
                  ( -1.0000000  0.0000000  0.0000000 )
                  (  0.0000000  1.0000000  0.0000000 )


     double point group O_h (m-3m) 
     there are 16 classes and  6 irreducible representations
     the character table:

       E     -E    8C3   -8C3   3C2  6C4   -6C4   6C2' i     -i    8S6   -8S6 
                               -3C2              -6C2'                        
G_6+   2.00 -2.00  1.00 -1.00  0.00  1.41 -1.41  0.00  2.00 -2.00  1.00 -1.00
G_7+   2.00 -2.00  1.00 -1.00  0.00 -1.41  1.41  0.00  2.00 -2.00  1.00 -1.00
G_8+   4.00 -4.00 -1.00  1.00  0.00  0.00  0.00  0.00  4.00 -4.00 -1.00  1.00
G_6-   2.00 -2.00  1.00 -1.00  0.00  1.41 -1.41  0.00 -2.00  2.00 -1.00  1.00
G_7-   2.00 -2.00  1.00 -1.00  0.00 -1.41  1.41  0.00 -2.00  2.00 -1.00  1.00
G_8-   4.00 -4.00 -1.00  1.00  0.00  0.00  0.00  0.00 -4.00  4.00  1.00 -1.00

        3s_h 6S4   -6S4   6s_d
       -3s_h             -6s_d
G_6+   0.00  1.41 -1.41  0.00
G_7+   0.00 -1.41  1.41  0.00
G_8+   0.00  0.00  0.00  0.00
G_6-   0.00 -1.41  1.41  0.00
G_7-   0.00  1.41 -1.41  0.00
G_8-   0.00  0.00  0.00  0.00

     the symmetry operations in each class and the name of the first element:

     E             1
          identity                                               
     -E           -1
          identity E                                             
     8C3          17   19   20   18   24   21   22   23
          120 deg rotation - cart. axis [-1,-1,-1]               
     -8C3        -17  -19  -20  -18  -24  -21  -22  -23
          120 deg rotation - cart. axis [-1,-1,-1] E             
      3C2 -3C2     2   -2    4   -4    3   -3
          180 deg rotation - cart. axis [0,0,1]                  
     6C4           7    8   15   16   12   11
           90 deg rotation - cart. axis [0,0,-1]                 
     -6C4         -7   -8  -15  -16  -12  -11
           90 deg rotation - cart. axis [0,0,-1] E               
      6C2'-6C2'    5   -5   -6    6   14  -13  -14   13   10   -9  -10    9
          180 deg rotation - cart. axis [1,1,0]                  
     i            25
          inversion                                              
     -i          -25
          inversion E                                            
     8S6          41   43   44   42   48   45   46   47
          inv. 120 deg rotation - cart. axis [-1,-1,-1]          
     -8S6        -41  -43  -44  -42  -48  -45  -46  -47
          inv. 120 deg rotation - cart. axis [-1,-1,-1] E        
      3s_h-3s_h   26  -26   28  -28   27  -27
          inv. 180 deg rotation - cart. axis [0,0,1]             
     6S4          31   32   39   40   36   35
          inv.  90 deg rotation - cart. axis [0,0,-1]            
     -6S4        -31  -32  -39  -40  -36  -35
          inv.  90 deg rotation - cart. axis [0,0,-1] E          
      6s_d-6s_d   29  -29  -30   30   38  -37  -38   37   34  -33  -34   33
          inv. 180 deg rotation - cart. axis [1,1,0]             

   Cartesian axes

     site n.     atom                  positions (alat units)
         1           Cs  tau(   1) = (   0.0000000   0.0000000   0.0000000  )
         2           Cs  tau(   2) = (   0.0000000   0.5000000   0.5000000  )
         3           Cs  tau(   3) = (   0.5000000   0.0000000   0.5000000  )
         4           Cs  tau(   4) = (   0.5000000   0.5000000   0.0000000  )
         5           I   tau(   5) = (   0.5000000   0.0000000   0.0000000  )
         6           I   tau(   6) = (   0.5000000   0.5000000   0.5000000  )
         7           I   tau(   7) = (   0.0000000   0.0000000   0.5000000  )
         8           I   tau(   8) = (   0.0000000   0.5000000   0.0000000  )

   Crystallographic axes

     site n.     atom                  positions (cryst. coord.)
         1           Cs  tau(   1) = (  0.0000000  0.0000000  0.0000000  )
         2           Cs  tau(   2) = (  0.0000000  0.5000000  0.5000000  )
         3           Cs  tau(   3) = (  0.5000000  0.0000000  0.5000000  )
         4           Cs  tau(   4) = (  0.5000000  0.5000000  0.0000000  )
         5           I   tau(   5) = (  0.5000000  0.0000000  0.0000000  )
         6           I   tau(   6) = (  0.5000000  0.5000000  0.5000000  )
         7           I   tau(   7) = (  0.0000000  0.0000000  0.5000000  )
         8           I   tau(   8) = (  0.0000000  0.5000000  0.0000000  )

     number of k points=    56
                       cart. coord. in units 2pi/alat
        k(    1) = (   0.0416667   0.0416667   0.0416667), wk =   0.0046296
        k(    2) = (   0.0416667   0.0416667   0.1250000), wk =   0.0138889
        k(    3) = (   0.0416667   0.0416667   0.2083333), wk =   0.0138889
        k(    4) = (   0.0416667   0.0416667   0.2916667), wk =   0.0138889
        k(    5) = (   0.0416667   0.0416667   0.3750000), wk =   0.0138889
        k(    6) = (   0.0416667   0.0416667   0.4583333), wk =   0.0138889
        k(    7) = (   0.0416667   0.1250000   0.1250000), wk =   0.0138889
        k(    8) = (   0.0416667   0.1250000   0.2083333), wk =   0.0277778
        k(    9) = (   0.0416667   0.1250000   0.2916667), wk =   0.0277778
        k(   10) = (   0.0416667   0.1250000   0.3750000), wk =   0.0277778
        k(   11) = (   0.0416667   0.1250000   0.4583333), wk =   0.0277778
        k(   12) = (   0.0416667   0.2083333   0.2083333), wk =   0.0138889
        k(   13) = (   0.0416667   0.2083333   0.2916667), wk =   0.0277778
        k(   14) = (   0.0416667   0.2083333   0.3750000), wk =   0.0277778
        k(   15) = (   0.0416667   0.2083333   0.4583333), wk =   0.0277778
        k(   16) = (   0.0416667   0.2916667   0.2916667), wk =   0.0138889
        k(   17) = (   0.0416667   0.2916667   0.3750000), wk =   0.0277778
        k(   18) = (   0.0416667   0.2916667   0.4583333), wk =   0.0277778
        k(   19) = (   0.0416667   0.3750000   0.3750000), wk =   0.0138889
        k(   20) = (   0.0416667   0.3750000   0.4583333), wk =   0.0277778
        k(   21) = (   0.0416667   0.4583333   0.4583333), wk =   0.0138889
        k(   22) = (   0.1250000   0.1250000   0.1250000), wk =   0.0046296
        k(   23) = (   0.1250000   0.1250000   0.2083333), wk =   0.0138889
        k(   24) = (   0.1250000   0.1250000   0.2916667), wk =   0.0138889
        k(   25) = (   0.1250000   0.1250000   0.3750000), wk =   0.0138889
        k(   26) = (   0.1250000   0.1250000   0.4583333), wk =   0.0138889
        k(   27) = (   0.1250000   0.2083333   0.2083333), wk =   0.0138889
        k(   28) = (   0.1250000   0.2083333   0.2916667), wk =   0.0277778
        k(   29) = (   0.1250000   0.2083333   0.3750000), wk =   0.0277778
        k(   30) = (   0.1250000   0.2083333   0.4583333), wk =   0.0277778
        k(   31) = (   0.1250000   0.2916667   0.2916667), wk =   0.0138889
        k(   32) = (   0.1250000   0.2916667   0.3750000), wk =   0.0277778
        k(   33) = (   0.1250000   0.2916667   0.4583333), wk =   0.0277778
        k(   34) = (   0.1250000   0.3750000   0.3750000), wk =   0.0138889
        k(   35) = (   0.1250000   0.3750000   0.4583333), wk =   0.0277778
        k(   36) = (   0.1250000   0.4583333   0.4583333), wk =   0.0138889
        k(   37) = (   0.2083333   0.2083333   0.2083333), wk =   0.0046296
        k(   38) = (   0.2083333   0.2083333   0.2916667), wk =   0.0138889
        k(   39) = (   0.2083333   0.2083333   0.3750000), wk =   0.0138889
        k(   40) = (   0.2083333   0.2083333   0.4583333), wk =   0.0138889
        k(   41) = (   0.2083333   0.2916667   0.2916667), wk =   0.0138889
        k(   42) = (   0.2083333   0.2916667   0.3750000), wk =   0.0277778
        k(   43) = (   0.2083333   0.2916667   0.4583333), wk =   0.0277778
        k(   44) = (   0.2083333   0.3750000   0.3750000), wk =   0.0138889
        k(   45) = (   0.2083333   0.3750000   0.4583333), wk =   0.0277778
        k(   46) = (   0.2083333   0.4583333   0.4583333), wk =   0.0138889
        k(   47) = (   0.2916667   0.2916667   0.2916667), wk =   0.0046296
        k(   48) = (   0.2916667   0.2916667   0.3750000), wk =   0.0138889
        k(   49) = (   0.2916667   0.2916667   0.4583333), wk =   0.0138889
        k(   50) = (   0.2916667   0.3750000   0.3750000), wk =   0.0138889
        k(   51) = (   0.2916667   0.3750000   0.4583333), wk =   0.0277778
        k(   52) = (   0.2916667   0.4583333   0.4583333), wk =   0.0138889
        k(   53) = (   0.3750000   0.3750000   0.3750000), wk =   0.0046296
        k(   54) = (   0.3750000   0.3750000   0.4583333), wk =   0.0138889
        k(   55) = (   0.3750000   0.4583333   0.4583333), wk =   0.0138889
        k(   56) = (   0.4583333   0.4583333   0.4583333), wk =   0.0046296

                       cryst. coord.
        k(    1) = (   0.0416667   0.0416667   0.0416667), wk =   0.0046296
        k(    2) = (   0.0416667   0.0416667   0.1250000), wk =   0.0138889
        k(    3) = (   0.0416667   0.0416667   0.2083333), wk =   0.0138889
        k(    4) = (   0.0416667   0.0416667   0.2916667), wk =   0.0138889
        k(    5) = (   0.0416667   0.0416667   0.3750000), wk =   0.0138889
        k(    6) = (   0.0416667   0.0416667   0.4583333), wk =   0.0138889
        k(    7) = (   0.0416667   0.1250000   0.1250000), wk =   0.0138889
        k(    8) = (   0.0416667   0.1250000   0.2083333), wk =   0.0277778
        k(    9) = (   0.0416667   0.1250000   0.2916667), wk =   0.0277778
        k(   10) = (   0.0416667   0.1250000   0.3750000), wk =   0.0277778
        k(   11) = (   0.0416667   0.1250000   0.4583333), wk =   0.0277778
        k(   12) = (   0.0416667   0.2083333   0.2083333), wk =   0.0138889
        k(   13) = (   0.0416667   0.2083333   0.2916667), wk =   0.0277778
        k(   14) = (   0.0416667   0.2083333   0.3750000), wk =   0.0277778
        k(   15) = (   0.0416667   0.2083333   0.4583333), wk =   0.0277778
        k(   16) = (   0.0416667   0.2916667   0.2916667), wk =   0.0138889
        k(   17) = (   0.0416667   0.2916667   0.3750000), wk =   0.0277778
        k(   18) = (   0.0416667   0.2916667   0.4583333), wk =   0.0277778
        k(   19) = (   0.0416667   0.3750000   0.3750000), wk =   0.0138889
        k(   20) = (   0.0416667   0.3750000   0.4583333), wk =   0.0277778
        k(   21) = (   0.0416667   0.4583333   0.4583333), wk =   0.0138889
        k(   22) = (   0.1250000   0.1250000   0.1250000), wk =   0.0046296
        k(   23) = (   0.1250000   0.1250000   0.2083333), wk =   0.0138889
        k(   24) = (   0.1250000   0.1250000   0.2916667), wk =   0.0138889
        k(   25) = (   0.1250000   0.1250000   0.3750000), wk =   0.0138889
        k(   26) = (   0.1250000   0.1250000   0.4583333), wk =   0.0138889
        k(   27) = (   0.1250000   0.2083333   0.2083333), wk =   0.0138889
        k(   28) = (   0.1250000   0.2083333   0.2916667), wk =   0.0277778
        k(   29) = (   0.1250000   0.2083333   0.3750000), wk =   0.0277778
        k(   30) = (   0.1250000   0.2083333   0.4583333), wk =   0.0277778
        k(   31) = (   0.1250000   0.2916667   0.2916667), wk =   0.0138889
        k(   32) = (   0.1250000   0.2916667   0.3750000), wk =   0.0277778
        k(   33) = (   0.1250000   0.2916667   0.4583333), wk =   0.0277778
        k(   34) = (   0.1250000   0.3750000   0.3750000), wk =   0.0138889
        k(   35) = (   0.1250000   0.3750000   0.4583333), wk =   0.0277778
        k(   36) = (   0.1250000   0.4583333   0.4583333), wk =   0.0138889
        k(   37) = (   0.2083333   0.2083333   0.2083333), wk =   0.0046296
        k(   38) = (   0.2083333   0.2083333   0.2916667), wk =   0.0138889
        k(   39) = (   0.2083333   0.2083333   0.3750000), wk =   0.0138889
        k(   40) = (   0.2083333   0.2083333   0.4583333), wk =   0.0138889
        k(   41) = (   0.2083333   0.2916667   0.2916667), wk =   0.0138889
        k(   42) = (   0.2083333   0.2916667   0.3750000), wk =   0.0277778
        k(   43) = (   0.2083333   0.2916667   0.4583333), wk =   0.0277778
        k(   44) = (   0.2083333   0.3750000   0.3750000), wk =   0.0138889
        k(   45) = (   0.2083333   0.3750000   0.4583333), wk =   0.0277778
        k(   46) = (   0.2083333   0.4583333   0.4583333), wk =   0.0138889
        k(   47) = (   0.2916667   0.2916667   0.2916667), wk =   0.0046296
        k(   48) = (   0.2916667   0.2916667   0.3750000), wk =   0.0138889
        k(   49) = (   0.2916667   0.2916667   0.4583333), wk =   0.0138889
        k(   50) = (   0.2916667   0.3750000   0.3750000), wk =   0.0138889
        k(   51) = (   0.2916667   0.3750000   0.4583333), wk =   0.0277778
        k(   52) = (   0.2916667   0.4583333   0.4583333), wk =   0.0138889
        k(   53) = (   0.3750000   0.3750000   0.3750000), wk =   0.0046296
        k(   54) = (   0.3750000   0.3750000   0.4583333), wk =   0.0138889
        k(   55) = (   0.3750000   0.4583333   0.4583333), wk =   0.0138889
        k(   56) = (   0.4583333   0.4583333   0.4583333), wk =   0.0046296

     Dense  grid:   121481 G-vectors     FFT dimensions: (  64,  64,  64)

     Smooth grid:    66299 G-vectors     FFT dimensions: (  54,  54,  54)

     Dynamical RAM for                 wfc:       0.67 MB

     Dynamical RAM for     wfc (w. buffer):      38.30 MB

     Dynamical RAM for           str. fact:       0.15 MB

     Dynamical RAM for           local pot:       0.00 MB

     Dynamical RAM for          nlocal pot:       2.04 MB

     Dynamical RAM for                qrad:      39.45 MB

     Dynamical RAM for          rho,v,vnew:       2.05 MB

     Dynamical RAM for               rhoin:       0.68 MB

     Dynamical RAM for            rho*nmix:       4.94 MB

     Dynamical RAM for           G-vectors:       0.31 MB

     Dynamical RAM for          h,s,v(r/c):       0.33 MB

     Dynamical RAM for          <psi|beta>:       0.76 MB

     Dynamical RAM for                 psi:       2.69 MB

     Dynamical RAM for                hpsi:       2.69 MB

     Dynamical RAM for                spsi:       2.69 MB

     Dynamical RAM for      wfcinit/wfcrot:       1.25 MB

     Dynamical RAM for           addusdens:     158.08 MB

     Dynamical RAM for          addusforce:     159.88 MB

     Dynamical RAM for         addusstress:     160.09 MB

     Estimated static dynamical RAM per process >      88.91 MB

     Estimated max dynamical RAM per process >     249.00 MB

     Estimated total dynamical RAM >       5.84 GB

     Initial potential from superposition of free atoms

     starting charge   63.84620, renormalised to   64.00000
     Starting wfcs are   72 randomized atomic wfcs
     Checking if some PAW data can be deallocated... 
       PAW data deallocated on   12 nodes for type:  1
       PAW data deallocated on   12 nodes for type:  2

     total cpu time spent up to now is       87.8 secs

     Self-consistent Calculation

     iteration #  1     ecut=    80.00 Ry     beta= 0.50
     Davidson diagonalization with overlap
     ethr =  1.00E-02,  avg # of iterations =  6.6

     Threshold (ethr) on eigenvalues was too large:
     Diagonalizing with lowered threshold

     Davidson diagonalization with overlap
     c_bands:  1 eigenvalues not converged
     ethr =  1.54E-04,  avg # of iterations =  9.6

     total cpu time spent up to now is      774.3 secs

     total energy              =   -3131.14661277 Ry
     Harris-Foulkes estimate   =   -3131.18640755 Ry
     estimated scf accuracy    <       0.11839377 Ry

     iteration #  2     ecut=    80.00 Ry     beta= 0.50
     Davidson diagonalization with overlap
     ethr =  1.85E-04,  avg # of iterations =  1.7

     total cpu time spent up to now is      907.7 secs

     total energy              =   -3131.14871937 Ry
     Harris-Foulkes estimate   =   -3131.15300549 Ry
     estimated scf accuracy    <       0.02033967 Ry

     iteration #  3     ecut=    80.00 Ry     beta= 0.50
     Davidson diagonalization with overlap
     c_bands:  1 eigenvalues not converged
     ethr =  3.18E-05,  avg # of iterations =  5.2

     total cpu time spent up to now is     1155.5 secs

     total energy              =   -3131.16003337 Ry
     Harris-Foulkes estimate   =   -3131.16267085 Ry
     estimated scf accuracy    <       0.00506319 Ry

     iteration #  4     ecut=    80.00 Ry     beta= 0.50
     Davidson diagonalization with overlap
     c_bands:  1 eigenvalues not converged
     ethr =  7.91E-06,  avg # of iterations =  3.0

     total cpu time spent up to now is     1312.4 secs

     total energy              =   -3131.16043827 Ry
     Harris-Foulkes estimate   =   -3131.16067036 Ry
     estimated scf accuracy    <       0.00121743 Ry

     iteration #  5     ecut=    80.00 Ry     beta= 0.50
     Davidson diagonalization with overlap
     c_bands:  1 eigenvalues not converged
     c_bands:  1 eigenvalues not converged
     ethr =  1.90E-06,  avg # of iterations =  5.9

     total cpu time spent up to now is     1547.5 secs

     total energy              =   -3131.16155136 Ry
     Harris-Foulkes estimate   =   -3131.16154598 Ry
     estimated scf accuracy    <       0.00002308 Ry

     iteration #  6     ecut=    80.00 Ry     beta= 0.50
     Davidson diagonalization with overlap
     c_bands:  1 eigenvalues not converged
     c_bands:  1 eigenvalues not converged
     c_bands:  1 eigenvalues not converged
     c_bands:  1 eigenvalues not converged
     c_bands:  1 eigenvalues not converged
     c_bands:  1 eigenvalues not converged
     c_bands:  2 eigenvalues not converged
     c_bands:  2 eigenvalues not converged
     c_bands:  2 eigenvalues not converged
     ethr =  3.61E-08,  avg # of iterations =  9.1

     total cpu time spent up to now is     1844.5 secs

     WARNING: integrated charge=    64.00380515, expected=    64.00000000

     total energy              =   -3131.16170057 Ry
     Harris-Foulkes estimate   =   -3131.16172135 Ry
     estimated scf accuracy    <       0.00003674 Ry

     iteration #  7     ecut=    80.00 Ry     beta= 0.50
     Davidson diagonalization with overlap
     c_bands:  1 eigenvalues not converged
     c_bands:  1 eigenvalues not converged
     c_bands:  2 eigenvalues not converged
     c_bands:  2 eigenvalues not converged
     ethr =  3.61E-08,  avg # of iterations =  6.9

     total cpu time spent up to now is     2091.2 secs

     WARNING: integrated charge=    64.00037958, expected=    64.00000000

     total energy              =   -3131.16179045 Ry
     Harris-Foulkes estimate   =   -3131.16179570 Ry
     estimated scf accuracy    <       0.00000484 Ry

     iteration #  8     ecut=    80.00 Ry     beta= 0.50
     Davidson diagonalization with overlap
     c_bands:  2 eigenvalues not converged
     c_bands:  2 eigenvalues not converged
     c_bands:  1 eigenvalues not converged
     ethr =  7.57E-09,  avg # of iterations =  6.0

     total cpu time spent up to now is     2339.7 secs

     WARNING: integrated charge=    64.00116711, expected=    64.00000000

     total energy              =   -3131.16179452 Ry
     Harris-Foulkes estimate   =   -3131.16180119 Ry
     estimated scf accuracy    <       0.00001631 Ry

     iteration #  9     ecut=    80.00 Ry     beta= 0.50
     Davidson diagonalization with overlap
     ethr =  7.57E-09,  avg # of iterations =  6.2

     total cpu time spent up to now is     2576.6 secs

     WARNING: integrated charge=    64.00101274, expected=    64.00000000

     total energy              =   -3131.16179234 Ry
     Harris-Foulkes estimate   =   -3131.16179627 Ry
     estimated scf accuracy    <       0.00000611 Ry

     iteration # 10     ecut=    80.00 Ry     beta= 0.50
     Davidson diagonalization with overlap
     c_bands:  1 eigenvalues not converged
     ethr =  7.57E-09,  avg # of iterations =  5.2

     total cpu time spent up to now is     2796.3 secs

     End of self-consistent calculation

          k = 0.0417 0.0417 0.0417 (  8283 PWs)   bands (ev):

    -1.9024  -1.9024   2.6011   2.6011   2.6011   2.6011   2.6030   2.6030
     8.7864   8.7864   8.7864   8.7864   8.7867   8.7867  10.9082  10.9082
    10.9090  10.9090  10.9090  10.9090  12.2790  12.2790  12.2793  12.2793
    12.2793  12.2793  13.2148  13.2148  13.2150  13.2150  13.2151  13.2151
    14.6940  14.6940  16.2371  16.2371  16.6313  16.6313  18.8236  18.8236
    22.2752  22.2752  22.2752  22.2752  22.2753  22.2753  25.2393  25.2393
    26.5814  26.5814  26.6405  26.6405  26.8469  26.8469  26.8823  26.8823
    27.0366  27.0366  29.6551  29.6551  29.6551  29.6551  29.6552  29.6552

     occupation numbers 
     1.0000   1.0000   1.0000   1.0000   1.0000   1.0000   1.0000   1.0000
     1.0000   1.0000   1.0000   1.0000   1.0000   1.0000   1.0000   1.0000
     1.0000   1.0000   1.0000   1.0000   1.0000   1.0000   1.0000   1.0000
     1.0000   1.0000   1.0000   1.0000   1.0000   1.0000   1.0000   1.0000
     1.0000   1.0000   1.0000   1.0000   1.0000   1.0000   1.0000   1.0000
     1.0000   1.0000   1.0000   1.0000   1.0000   1.0000   1.0000   1.0000
     1.0000   1.0000   1.0000   1.0000   1.0000   1.0000   1.0000   1.0000
     1.0000   1.0000   1.0000   1.0000   1.0000   1.0000   1.0000   1.0000

          k = 0.0417 0.0417 0.1250 (  8295 PWs)   bands (ev):

    -1.8114  -1.8114   2.2816   2.2816   2.6454   2.6454   2.6468   2.6468
     8.8505   8.8505   8.8507   8.8507   9.0890   9.0890  10.1327  10.1327
    10.1332  10.1332  11.1966  11.1966  12.3271  12.3271  12.3273  12.3273
    12.3860  12.3860  13.3128  13.3128  14.0222  14.0222  14.0223  14.0223
    14.3088  14.3088  15.7563  15.7563  16.5112  16.5112  19.6502  19.6502
    22.3548  22.3548  22.6360  22.6360  22.6360  22.6360  24.6052  24.6052
    26.0559  26.0559  26.3131  26.3131  26.7464  26.7464  27.1979  27.1979
    27.4161  27.4161  28.8799  28.8799  28.8799  28.8799  29.4141  29.4141

     occupation numbers 
     1.0000   1.0000   1.0000   1.0000   1.0000   1.0000   1.0000   1.0000
     1.0000   1.0000   1.0000   1.0000   1.0000   1.0000   1.0000   1.0000
     1.0000   1.0000   1.0000   1.0000   1.0000   1.0000   1.0000   1.0000
     1.0000   1.0000   1.0000   1.0000   1.0000   1.0000   1.0000   1.0000
     1.0000   1.0000   1.0000   1.0000   1.0000   1.0000   1.0000   1.0000
     1.0000   1.0000   1.0000   1.0000   1.0000   1.0000   1.0000   1.0000
     1.0000   1.0000   1.0000   1.0000   1.0000   1.0000   1.0000   1.0000
     1.0000   1.0000   1.0000   1.0000   1.0000   1.0000   1.0000   1.0000

          k = 0.0417 0.0417 0.2083 (  8296 PWs)   bands (ev):

    -1.6298  -1.6298   1.7563   1.7563   2.7265   2.7265   2.7279   2.7279
     8.8788   8.8788   8.8792   8.8792   9.4773   9.4773   9.4776   9.4776
     9.5336   9.5336  11.7753  11.7753  12.0203  12.0203  12.0205  12.0205
    12.6285  12.6285  13.5161  13.5161  13.6637  13.6637  15.2630  15.2630
    15.2901  15.2901  15.2902  15.2902  16.1947  16.1947  20.7718  20.7718
    22.5136  22.5136  23.2332  23.2332  23.3109  23.3109  23.3109  23.3109
    25.6369  25.6369  26.0358  26.0358  26.8423  26.8423  27.3855  27.3855
    27.3856  27.3856  27.8756  27.8756  28.1018  28.1018  28.9913  28.9913

     occupation numbers 
     1.0000   1.0000   1.0000   1.0000   1.0000   1.0000   1.0000   1.0000
     1.0000   1.0000   1.0000   1.0000   1.0000   1.0000   1.0000   1.0000
     1.0000   1.0000   1.0000   1.0000   1.0000   1.0000   1.0000   1.0000
     1.0000   1.0000   1.0000   1.0000   1.0000   1.0000   1.0000   1.0000
     1.0000   1.0000   1.0000   1.0000   1.0000   1.0000   1.0000   1.0000
     1.0000   1.0000   1.0000   1.0000   1.0000   1.0000   1.0000   1.0000
     1.0000   1.0000   1.0000   1.0000   1.0000   1.0000   1.0000   1.0000
     1.0000   1.0000   1.0000   1.0000   1.0000   1.0000   1.0000   1.0000

          k = 0.0417 0.0417 0.2917 (  8283 PWs)   bands (ev):

    -1.3590  -1.3590   1.1468   1.1468   2.8279   2.8279   2.8293   2.8293
     8.4949   8.4949   8.4955   8.4955   9.4518   9.4518   9.4520   9.4520
     9.9993   9.9993  11.5807  11.5807  11.5809  11.5809  12.4415  12.4415
    12.9376  12.9376  13.1459  13.1459  13.8757  13.8757  14.7784  14.7784
    15.7676  15.7676  16.7268  16.7268  16.7269  16.7269  20.8824  20.8824
    22.7512  22.7512  22.8105  22.8105  24.2318  24.2318  24.2318  24.2318
    25.0408  25.0408  25.6603  25.6603  25.6603  25.6603  26.1728  26.1728
    27.0996  27.0996  28.4643  28.4643  28.7673  28.7673  28.9873  28.9873

     occupation numbers 
     1.0000   1.0000   1.0000   1.0000   1.0000   1.0000   1.0000   1.0000
     1.0000   1.0000   1.0000   1.0000   1.0000   1.0000   1.0000   1.0000
     1.0000   1.0000   1.0000   1.0000   1.0000   1.0000   1.0000   1.0000
     1.0000   1.0000   1.0000   1.0000   1.0000   1.0000   1.0000   1.0000
     1.0000   1.0000   1.0000   1.0000   1.0000   1.0000   1.0000   1.0000
     1.0000   1.0000   1.0000   1.0000   1.0000   1.0000   1.0000   1.0000
     1.0000   1.0000   1.0000   1.0000   1.0000   1.0000   1.0000   1.0000
     1.0000   1.0000   1.0000   1.0000   1.0000   1.0000   1.0000   1.0000

          k = 0.0417 0.0417 0.3750 (  8285 PWs)   bands (ev):

    -1.0014  -1.0014   0.5316   0.5316   2.9239   2.9239   2.9254   2.9254
     8.0590   8.0590   8.0597   8.0597   9.7378   9.7378   9.7381   9.7381
    10.4785  10.4785  11.0974  11.0974  11.0977  11.0977  12.2310  12.2310
    12.9200  12.9200  13.8262  13.8262  14.2903  14.2903  14.6869  14.6869
    15.2899  15.2899  18.2434  18.2434  18.2436  18.2436  19.3180  19.3180
    23.0664  23.0664  23.8994  23.8994  23.8995  23.8995  24.1625  24.1625
    24.4656  24.4656  25.3581  25.3581  25.3582  25.3582  26.4813  26.4813
    27.4748  27.4748  27.8959  27.8959  28.9547  28.9547  29.3947  29.3948

     occupation numbers 
     1.0000   1.0000   1.0000   1.0000   1.0000   1.0000   1.0000   1.0000
     1.0000   1.0000   1.0000   1.0000   1.0000   1.0000   1.0000   1.0000
     1.0000   1.0000   1.0000   1.0000   1.0000   1.0000   1.0000   1.0000
     1.0000   1.0000   1.0000   1.0000   1.0000   1.0000   1.0000   1.0000
     1.0000   1.0000   1.0000   1.0000   1.0000   1.0000   1.0000   1.0000
     1.0000   1.0000   1.0000   1.0000   1.0000   1.0000   1.0000   1.0000
     1.0000   1.0000   1.0000   1.0000   1.0000   1.0000   1.0000   1.0000
     1.0000   1.0000   1.0000   1.0000   1.0000   1.0000   1.0000   1.0000

          k = 0.0417 0.0417 0.4583 (  8286 PWs)   bands (ev):

    -0.5611  -0.5611  -0.0457  -0.0457   2.9835   2.9835   2.9851   2.9851
     7.8173   7.8173   7.8181   7.8181  10.1003  10.1003  10.1011  10.1011
    10.6376  10.6376  10.6384  10.6384  10.9995  10.9995  11.5818  11.5818
    13.3536  13.3536  13.8105  13.8105  14.3250  14.3250  14.8022  14.8022
    16.0468  16.0468  17.6352  17.6352  19.6473  19.6473  19.6476  19.6476
    22.3749  22.3749  22.3752  22.3752  23.4574  23.4574  23.9207  23.9207
    25.8029  25.8029  26.6071  26.6071  26.6071  26.6071  26.9102  26.9102
    27.2654  27.2654  27.6570  27.6570  27.9490  27.9490  27.9737  27.9737

     occupation numbers 
     1.0000   1.0000   1.0000   1.0000   1.0000   1.0000   1.0000   1.0000
     1.0000   1.0000   1.0000   1.0000   1.0000   1.0000   1.0000   1.0000
     1.0000   1.0000   1.0000   1.0000   1.0000   1.0000   1.0000   1.0000
     1.0000   1.0000   1.0000   1.0000   1.0000   1.0000   1.0000   1.0000
     1.0000   1.0000   1.0000   1.0000   1.0000   1.0000   1.0000   1.0000
     1.0000   1.0000   1.0000   1.0000   1.0000   1.0000   1.0000   1.0000
     1.0000   1.0000   1.0000   1.0000   1.0000   1.0000   1.0000   1.0000
     1.0000   1.0000   1.0000   1.0000   1.0000   1.0000   1.0000   1.0000

          k = 0.0417 0.1250 0.1250 (  8297 PWs)   bands (ev):

    -1.7206  -1.7206   2.3340   2.3340   2.3353   2.3353   2.6839   2.6839
     8.8701   8.8701   9.0088   9.0088   9.0095   9.0095   9.5762   9.5762
    10.5564  10.5564  10.5566  10.5566  12.4240  12.4240  12.4244  12.4244
    12.7062  12.7062  13.7812  13.7812  14.1283  14.1283  14.1287  14.1287
    14.3195  14.3195  15.5465  15.5465  16.6218  16.6218  20.1000  20.1000
    22.7147  22.7147  22.7147  22.7147  23.0057  23.0057  24.3400  24.3400
    25.4697  25.4697  26.1112  26.1112  26.9606  26.9606  27.0135  27.0135
    27.6149  27.6149  28.5186  28.5186  28.6001  28.6001  28.6003  28.6003

     occupation numbers 
     1.0000   1.0000   1.0000   1.0000   1.0000   1.0000   1.0000   1.0000
     1.0000   1.0000   1.0000   1.0000   1.0000   1.0000   1.0000   1.0000
     1.0000   1.0000   1.0000   1.0000   1.0000   1.0000   1.0000   1.0000
     1.0000   1.0000   1.0000   1.0000   1.0000   1.0000   1.0000   1.0000
     1.0000   1.0000   1.0000   1.0000   1.0000   1.0000   1.0000   1.0000
     1.0000   1.0000   1.0000   1.0000   1.0000   1.0000   1.0000   1.0000
     1.0000   1.0000   1.0000   1.0000   1.0000   1.0000   1.0000   1.0000
     1.0000   1.0000   1.0000   1.0000   1.0000   1.0000   1.0000   1.0000

          k = 0.0417 0.1250 0.2083 (  8291 PWs)   bands (ev):

    -1.5396  -1.5396   1.8200   1.8200   2.4343   2.4343   2.7502   2.7502
     8.5945   8.5945   8.7122   8.7122   9.2542   9.2542   9.3155   9.3155
    10.2123  10.2123  11.3426  11.3426  12.1156  12.1156  12.6279  12.6279
    12.6399  12.6399  13.0532  13.0532  14.3495  14.3495  15.2149  15.2149
    15.2534  15.2534  15.3909  15.3909  16.5099  16.5099  20.9298  20.9298
    22.8717  22.8717  23.2037  23.2037  23.3879  23.3879  23.6921  23.6921
    25.1676  25.1676  25.8289  25.8289  26.8001  26.8001  27.0752  27.0752
    27.3193  27.3193  27.6510  27.6510  28.1291  28.1291  28.2908  28.2908

     occupation numbers 
     1.0000   1.0000   1.0000   1.0000   1.0000   1.0000   1.0000   1.0000
     1.0000   1.0000   1.0000   1.0000   1.0000   1.0000   1.0000   1.0000
     1.0000   1.0000   1.0000   1.0000   1.0000   1.0000   1.0000   1.0000
     1.0000   1.0000   1.0000   1.0000   1.0000   1.0000   1.0000   1.0000
     1.0000   1.0000   1.0000   1.0000   1.0000   1.0000   1.0000   1.0000
     1.0000   1.0000   1.0000   1.0000   1.0000   1.0000   1.0000   1.0000
     1.0000   1.0000   1.0000   1.0000   1.0000   1.0000   1.0000   1.0000
     1.0000   1.0000   1.0000   1.0000   1.0000   1.0000   1.0000   1.0000

          k = 0.0417 0.1250 0.2917 (  8298 PWs)   bands (ev):

    -1.2698  -1.2698   1.2192   1.2192   2.5663   2.5663   2.8258   2.8258
     8.0632   8.0632   8.2339   8.2339   9.4991   9.4991   9.5654   9.5654
    10.2501  10.2501  11.6795  11.6795  12.2708  12.2708  12.2822  12.2822
    12.3048  12.3048  13.0058  13.0058  14.7166  14.7166  14.7993  14.7993
    16.1790  16.1790  16.5664  16.5664  16.8197  16.8197  21.0312  21.0312
    22.6414  22.6414  23.1059  23.1059  24.3041  24.3041  24.6037  24.6037
    25.2054  25.2054  25.3465  25.3465  25.4504  25.4504  25.6990  25.6990
    26.9353  26.9353  27.5644  27.5644  28.5353  28.5353  29.2088  29.2088

     occupation numbers 
     1.0000   1.0000   1.0000   1.0000   1.0000   1.0000   1.0000   1.0000
     1.0000   1.0000   1.0000   1.0000   1.0000   1.0000   1.0000   1.0000
     1.0000   1.0000   1.0000   1.0000   1.0000   1.0000   1.0000   1.0000
     1.0000   1.0000   1.0000   1.0000   1.0000   1.0000   1.0000   1.0000
     1.0000   1.0000   1.0000   1.0000   1.0000   1.0000   1.0000   1.0000
     1.0000   1.0000   1.0000   1.0000   1.0000   1.0000   1.0000   1.0000
     1.0000   1.0000   1.0000   1.0000   1.0000   1.0000   1.0000   1.0000
     1.0000   1.0000   1.0000   1.0000   1.0000   1.0000   1.0000   1.0000

          k = 0.0417 0.1250 0.3750 (  8289 PWs)   bands (ev):

    -0.9135  -0.9135   0.6101   0.6101   2.7069   2.7069   2.8814   2.8814
     7.6578   7.6578   7.7944   7.7944   9.8122   9.8122   9.9513   9.9513
    10.4777  10.4777  11.2139  11.2139  11.6020  11.6020  11.8118  11.8118
    12.9517  12.9517  13.7670  13.7670  14.3399  14.3399  15.3357  15.3357
    15.7238  15.7238  18.0316  18.0316  18.3241  18.3241  19.4776  19.4776
    23.4152  23.4152  23.5961  23.5961  23.8690  23.8690  23.9142  23.9142
    24.7818  24.7818  25.4278  25.4278  25.6760  25.6760  25.7861  25.7861
    26.9700  26.9700  27.2668  27.2668  28.6147  28.6147  29.2527  29.2527

     occupation numbers 
     1.0000   1.0000   1.0000   1.0000   1.0000   1.0000   1.0000   1.0000
     1.0000   1.0000   1.0000   1.0000   1.0000   1.0000   1.0000   1.0000
     1.0000   1.0000   1.0000   1.0000   1.0000   1.0000   1.0000   1.0000
     1.0000   1.0000   1.0000   1.0000   1.0000   1.0000   1.0000   1.0000
     1.0000   1.0000   1.0000   1.0000   1.0000   1.0000   1.0000   1.0000
     1.0000   1.0000   1.0000   1.0000   1.0000   1.0000   1.0000   1.0000
     1.0000   1.0000   1.0000   1.0000   1.0000   1.0000   1.0000   1.0000
     1.0000   1.0000   1.0000   1.0000   1.0000   1.0000   1.0000   1.0000

          k = 0.0417 0.1250 0.4583 (  8278 PWs)   bands (ev):

    -0.4753  -0.4753   0.0371   0.0371   2.8238   2.8238   2.8860   2.8860
     7.4680   7.4680   7.5194   7.5194  10.1962  10.1962  10.4188  10.4188
    10.5750  10.5750  10.9699  10.9699  10.9929  10.9929  11.3527  11.3527
    13.4144  13.4144  13.8713  13.8713  14.5746  14.5746  15.1959  15.1959
    16.3946  16.3946  17.8458  17.8458  19.4530  19.4530  19.6735  19.6735
    22.1315  22.1315  22.3626  22.3626  23.7954  23.7954  24.2314  24.2314
    25.3717  25.3717  26.1851  26.1851  26.3498  26.3498  26.6723  26.6723
    27.0231  27.0231  27.3243  27.3243  27.7236  27.7236  28.0336  28.0336

     occupation numbers 
     1.0000   1.0000   1.0000   1.0000   1.0000   1.0000   1.0000   1.0000
     1.0000   1.0000   1.0000   1.0000   1.0000   1.0000   1.0000   1.0000
     1.0000   1.0000   1.0000   1.0000   1.0000   1.0000   1.0000   1.0000
     1.0000   1.0000   1.0000   1.0000   1.0000   1.0000   1.0000   1.0000
     1.0000   1.0000   1.0000   1.0000   1.0000   1.0000   1.0000   1.0000
     1.0000   1.0000   1.0000   1.0000   1.0000   1.0000   1.0000   1.0000
     1.0000   1.0000   1.0000   1.0000   1.0000   1.0000   1.0000   1.0000
     1.0000   1.0000   1.0000   1.0000   1.0000   1.0000   1.0000   1.0000

          k = 0.0417 0.2083 0.2083 (  8288 PWs)   bands (ev):

    -1.3599  -1.3599   1.9421   1.9421   1.9433   1.9433   2.7839   2.7839
     8.0368   8.0368   8.7373   8.7373   8.7383   8.7383   9.4171   9.4171
    11.2059  11.2059  11.2066  11.2066  12.2825  12.2825  12.3174  12.3174
    12.3179  12.3179  13.1855  13.1855  14.9434  14.9434  15.5017  15.5017
    15.5961  15.5961  15.5966  15.5966  16.7894  16.7894  21.3615  21.3615
    22.9187  22.9187  23.5409  23.5409  23.5409  23.5409  24.0244  24.0244
    24.3895  24.3895  25.8771  25.8771  26.5697  26.5697  26.5700  26.5700
    26.8560  26.8560  27.2670  27.2670  27.3239  27.3239  28.9847  28.9847

     occupation numbers 
     1.0000   1.0000   1.0000   1.0000   1.0000   1.0000   1.0000   1.0000
     1.0000   1.0000   1.0000   1.0000   1.0000   1.0000   1.0000   1.0000
     1.0000   1.0000   1.0000   1.0000   1.0000   1.0000   1.0000   1.0000
     1.0000   1.0000   1.0000   1.0000   1.0000   1.0000   1.0000   1.0000
     1.0000   1.0000   1.0000   1.0000   1.0000   1.0000   1.0000   1.0000
     1.0000   1.0000   1.0000   1.0000   1.0000   1.0000   1.0000   1.0000
     1.0000   1.0000   1.0000   1.0000   1.0000   1.0000   1.0000   1.0000
     1.0000   1.0000   1.0000   1.0000   1.0000   1.0000   1.0000   1.0000

          k = 0.0417 0.2083 0.2917 (  8290 PWs)   bands (ev):

    -1.0920  -1.0920   1.3607   1.3607   2.1136   2.1136   2.8033   2.8033
     7.5340   7.5340   8.1552   8.1552   8.9241   8.9241   9.6546   9.6546
    11.2835  11.2835  11.5200  11.5200  11.9147  11.9147  12.2192  12.2192
    12.7616  12.7616  13.1826  13.1826  14.5433  14.5433  15.9196  15.9196
    16.3969  16.3969  16.7623  16.7623  17.0058  17.0058  21.3593  21.3593
    22.4310  22.4310  23.7675  23.7675  23.8551  23.8551  24.4372  24.4372
    24.8524  24.8524  25.2169  25.2169  25.7175  25.7175  25.7186  25.7186
    25.9855  25.9855  27.1965  27.1965  28.1085  28.1085  28.8737  28.8737

     occupation numbers 
     1.0000   1.0000   1.0000   1.0000   1.0000   1.0000   1.0000   1.0000
     1.0000   1.0000   1.0000   1.0000   1.0000   1.0000   1.0000   1.0000
     1.0000   1.0000   1.0000   1.0000   1.0000   1.0000   1.0000   1.0000
     1.0000   1.0000   1.0000   1.0000   1.0000   1.0000   1.0000   1.0000
     1.0000   1.0000   1.0000   1.0000   1.0000   1.0000   1.0000   1.0000
     1.0000   1.0000   1.0000   1.0000   1.0000   1.0000   1.0000   1.0000
     1.0000   1.0000   1.0000   1.0000   1.0000   1.0000   1.0000   1.0000
     1.0000   1.0000   1.0000   1.0000   1.0000   1.0000   1.0000   1.0000

          k = 0.0417 0.2083 0.3750 (  8284 PWs)   bands (ev):

    -0.7388  -0.7388   0.7650   0.7650   2.3140   2.3140   2.7762   2.7762
     7.2148   7.2148   7.6446   7.6446   9.2400   9.2400   9.9797   9.9797
    10.8175  10.8175  11.2263  11.2263  11.7463  11.7463  12.7525  12.7525
    12.8479  12.8479  13.8341  13.8341  14.0873  14.0873  16.4020  16.4020
    16.4375  16.4375  17.7074  17.7074  18.4817  18.4817  19.8199  19.8199
    23.1113  23.1113  23.4468  23.4468  23.9545  23.9545  24.0619  24.0619
    24.1987  24.1987  25.3480  25.3480  25.3959  25.3959  25.5655  25.5655
    26.4770  26.4770  27.4238  27.4238  28.3479  28.3479  29.0316  29.0316

     occupation numbers 
     1.0000   1.0000   1.0000   1.0000   1.0000   1.0000   1.0000   1.0000
     1.0000   1.0000   1.0000   1.0000   1.0000   1.0000   1.0000   1.0000
     1.0000   1.0000   1.0000   1.0000   1.0000   1.0000   1.0000   1.0000
     1.0000   1.0000   1.0000   1.0000   1.0000   1.0000   1.0000   1.0000
     1.0000   1.0000   1.0000   1.0000   1.0000   1.0000   1.0000   1.0000
     1.0000   1.0000   1.0000   1.0000   1.0000   1.0000   1.0000   1.0000
     1.0000   1.0000   1.0000   1.0000   1.0000   1.0000   1.0000   1.0000
     1.0000   1.0000   1.0000   1.0000   1.0000   1.0000   1.0000   1.0000

          k = 0.0417 0.2083 0.4583 (  8267 PWs)   bands (ev):

    -0.3049  -0.3049   0.2012   0.2012   2.5146   2.5146   2.6787   2.6787
     7.1304   7.1304   7.2849   7.2849   9.6676   9.6676  10.1963  10.1963
    10.3731  10.3731  10.8119  10.8119  12.0305  12.0305  12.4293  12.4293
    13.1741  13.1741  13.6213  13.6213  14.9865  14.9865  15.8629  15.8629
    17.1570  17.1570  18.3242  18.3242  19.1158  19.1158  19.6956  19.6956
    21.7860  21.7860  22.3896  22.3896  24.2370  24.2370  24.3953  24.3953
    24.8323  24.8323  24.8576  24.8576  25.3093  25.3093  26.7716  26.7716
    26.7951  26.7951  27.6276  27.6276  27.8404  27.8404  28.1647  28.1647

     occupation numbers 
     1.0000   1.0000   1.0000   1.0000   1.0000   1.0000   1.0000   1.0000
     1.0000   1.0000   1.0000   1.0000   1.0000   1.0000   1.0000   1.0000
     1.0000   1.0000   1.0000   1.0000   1.0000   1.0000   1.0000   1.0000
     1.0000   1.0000   1.0000   1.0000   1.0000   1.0000   1.0000   1.0000
     1.0000   1.0000   1.0000   1.0000   1.0000   1.0000   1.0000   1.0000
     1.0000   1.0000   1.0000   1.0000   1.0000   1.0000   1.0000   1.0000
     1.0000   1.0000   1.0000   1.0000   1.0000   1.0000   1.0000   1.0000
     1.0000   1.0000   1.0000   1.0000   1.0000   1.0000   1.0000   1.0000

          k = 0.0417 0.2917 0.2917 (  8287 PWs)   bands (ev):

    -0.8274  -0.8274   1.5633   1.5633   1.5645   1.5645   2.7322   2.7322
     7.1259   7.1259   8.2659   8.2659   8.2669   8.2669   9.9042   9.9042
    10.7524  10.7524  11.9834  11.9834  11.9839  11.9839  12.7327  12.7327
    12.7334  12.7334  13.8511  13.8511  14.1404  14.1404  16.5805  16.5805
    17.1124  17.1124  17.2885  17.2885  17.2891  17.2891  21.5541  21.5541
    22.3220  22.3220  22.6928  22.6928  24.2278  24.2278  24.2281  24.2281
    24.6995  24.6995  24.6996  24.6996  25.0980  25.0980  26.0130  26.0130
    26.1707  26.1707  27.7024  27.7024  27.8861  27.8861  28.0935  28.0935

     occupation numbers 
     1.0000   1.0000   1.0000   1.0000   1.0000   1.0000   1.0000   1.0000
     1.0000   1.0000   1.0000   1.0000   1.0000   1.0000   1.0000   1.0000
     1.0000   1.0000   1.0000   1.0000   1.0000   1.0000   1.0000   1.0000
     1.0000   1.0000   1.0000   1.0000   1.0000   1.0000   1.0000   1.0000
     1.0000   1.0000   1.0000   1.0000   1.0000   1.0000   1.0000   1.0000
     1.0000   1.0000   1.0000   1.0000   1.0000   1.0000   1.0000   1.0000
     1.0000   1.0000   1.0000   1.0000   1.0000   1.0000   1.0000   1.0000
     1.0000   1.0000   1.0000   1.0000   1.0000   1.0000   1.0000   1.0000

          k = 0.0417 0.2917 0.3750 (  8291 PWs)   bands (ev):

    -0.4791  -0.4791   0.9912   0.9912   1.8155   1.8155   2.5858   2.5858
     6.9320   6.9320   7.6880   7.6880   8.5333   8.5333  10.0523  10.0523
    10.2339  10.2339  11.5490  11.5490  12.3598  12.3598  12.9611  12.9611
    13.6790  13.6790  13.9271  13.9271  14.0386  14.0386  17.0234  17.0234
    17.4549  17.4549  17.6833  17.6833  18.7099  18.7099  20.3395  20.3395
    22.4732  22.4732  22.5723  22.5723  23.3070  23.3070  23.6705  23.6705
    23.9237  23.9237  24.9623  24.9623  25.7622  25.7622  25.9891  25.9891
    26.8683  26.8683  27.7626  27.7626  27.7975  27.7975  28.3513  28.3513

     occupation numbers 
     1.0000   1.0000   1.0000   1.0000   1.0000   1.0000   1.0000   1.0000
     1.0000   1.0000   1.0000   1.0000   1.0000   1.0000   1.0000   1.0000
     1.0000   1.0000   1.0000   1.0000   1.0000   1.0000   1.0000   1.0000
     1.0000   1.0000   1.0000   1.0000   1.0000   1.0000   1.0000   1.0000
     1.0000   1.0000   1.0000   1.0000   1.0000   1.0000   1.0000   1.0000
     1.0000   1.0000   1.0000   1.0000   1.0000   1.0000   1.0000   1.0000
     1.0000   1.0000   1.0000   1.0000   1.0000   1.0000   1.0000   1.0000
     1.0000   1.0000   1.0000   1.0000   1.0000   1.0000   1.0000   1.0000

          k = 0.0417 0.2917 0.4583 (  8268 PWs)   bands (ev):

    -0.0525  -0.0525   0.4430   0.4430   2.0930   2.0930   2.3631   2.3631
     6.9780   6.9780   7.2436   7.2436   8.9303   8.9303   9.4407   9.4407
    10.6309  10.6309  11.0785  11.0785  12.7638  12.7638  13.2095  13.2095
    13.2920  13.2920  13.6508  13.6508  15.3522  15.3522  16.4254  16.4254
    18.2420  18.2420  18.7388  18.7388  19.0982  19.0982  19.6560  19.6560
    21.5099  21.5099  22.4572  22.4572  22.7473  22.7473  23.1606  23.1606
    24.5594  24.5594  25.2461  25.2461  25.7354  25.7354  26.2016  26.2016
    26.9389  26.9389  27.3969  27.3969  28.1318  28.1318  28.1384  28.1384

     occupation numbers 
     1.0000   1.0000   1.0000   1.0000   1.0000   1.0000   1.0000   1.0000
     1.0000   1.0000   1.0000   1.0000   1.0000   1.0000   1.0000   1.0000
     1.0000   1.0000   1.0000   1.0000   1.0000   1.0000   1.0000   1.0000
     1.0000   1.0000   1.0000   1.0000   1.0000   1.0000   1.0000   1.0000
     1.0000   1.0000   1.0000   1.0000   1.0000   1.0000   1.0000   1.0000
     1.0000   1.0000   1.0000   1.0000   1.0000   1.0000   1.0000   1.0000
     1.0000   1.0000   1.0000   1.0000   1.0000   1.0000   1.0000   1.0000
     1.0000   1.0000   1.0000   1.0000   1.0000   1.0000   1.0000   1.0000

          k = 0.0417 0.3750 0.3750 (  8281 PWs)   bands (ev):

    -0.1383  -0.1383   1.2789   1.2789   1.2800   1.2800   2.3073   2.3073
     6.8757   6.8757   7.9053   7.9053   7.9063   7.9063   9.3589   9.3589
    10.5656  10.5656  11.8913  11.8913  11.8917  11.8917  13.2118  13.2118
    14.3187  14.3187  14.3196  14.3196  14.6945  14.6945  17.1998  17.1998
    17.6207  17.6207  19.0019  19.0019  19.0025  19.0025  20.7190  20.7190
    21.2373  21.2373  22.0680  22.0680  22.0682  22.0682  23.4225  23.4225
    23.5001  23.5001  25.9776  25.9776  25.9776  25.9776  26.3350  26.3350
    26.4815  26.4815  27.1864  27.1864  27.1866  27.1866  28.2717  28.2717

     occupation numbers 
     1.0000   1.0000   1.0000   1.0000   1.0000   1.0000   1.0000   1.0000
     1.0000   1.0000   1.0000   1.0000   1.0000   1.0000   1.0000   1.0000
     1.0000   1.0000   1.0000   1.0000   1.0000   1.0000   1.0000   1.0000
     1.0000   1.0000   1.0000   1.0000   1.0000   1.0000   1.0000   1.0000
     1.0000   1.0000   1.0000   1.0000   1.0000   1.0000   1.0000   1.0000
     1.0000   1.0000   1.0000   1.0000   1.0000   1.0000   1.0000   1.0000
     1.0000   1.0000   1.0000   1.0000   1.0000   1.0000   1.0000   1.0000
     1.0000   1.0000   1.0000   1.0000   1.0000   1.0000   1.0000   1.0000

          k = 0.0417 0.3750 0.4583 (  8273 PWs)   bands (ev):

     0.2772   0.2772   0.7561   0.7561   1.6140   1.6140   1.9690   1.9690
     7.0419   7.0419   7.3975   7.3975   8.2701   8.2701   8.7597   8.7597
    10.9641  10.9641  11.4138  11.4138  12.2911  12.2911  12.7381  12.7381
    14.6219  14.6219  14.8400  14.8400  15.6590  15.6590  16.7350  16.7350
    18.4911  18.4911  19.3750  19.3750  19.5348  19.5348  19.9440  19.9440
    21.3546  21.3546  21.3960  21.3960  21.6582  21.6582  22.4560  22.4560
    24.2306  24.2306  25.4829  25.4829  26.2202  26.2202  26.4229  26.4229
    26.4748  26.4748  26.5716  26.5716  27.3320  27.3320  28.4384  28.4384

     occupation numbers 
     1.0000   1.0000   1.0000   1.0000   1.0000   1.0000   1.0000   1.0000
     1.0000   1.0000   1.0000   1.0000   1.0000   1.0000   1.0000   1.0000
     1.0000   1.0000   1.0000   1.0000   1.0000   1.0000   1.0000   1.0000
     1.0000   1.0000   1.0000   1.0000   1.0000   1.0000   1.0000   1.0000
     1.0000   1.0000   1.0000   1.0000   1.0000   1.0000   1.0000   1.0000
     1.0000   1.0000   1.0000   1.0000   1.0000   1.0000   1.0000   1.0000
     1.0000   1.0000   1.0000   1.0000   1.0000   1.0000   1.0000   1.0000
     1.0000   1.0000   1.0000   1.0000   1.0000   1.0000   1.0000   1.0000

          k = 0.0417 0.4583 0.4583 (  8277 PWs)   bands (ev):

     0.6758   0.6758   1.1286   1.1286   1.1298   1.1298   1.5435   1.5435
     7.2996   7.2996   7.7178   7.7178   7.7188   7.7188   8.1793   8.1793
    11.3629  11.3629  11.8124  11.8124  11.8129  11.8129  12.2613  12.2613
    15.6654  15.6654  15.8477  15.8477  15.8488  15.8488  16.6236  16.6236
    18.6950  18.6950  19.4858  19.4858  19.4858  19.4858  19.8365  19.8365
    21.1135  21.1135  21.3461  21.3461  21.3469  21.3469  22.1084  22.1084
    24.3686  24.3686  25.2052  25.2052  25.2053  25.2053  25.3594  25.3594
    27.2271  27.2271  27.4047  27.4047  27.4047  27.4047  28.1998  28.1998

     occupation numbers 
     1.0000   1.0000   1.0000   1.0000   1.0000   1.0000   1.0000   1.0000
     1.0000   1.0000   1.0000   1.0000   1.0000   1.0000   1.0000   1.0000
     1.0000   1.0000   1.0000   1.0000   1.0000   1.0000   1.0000   1.0000
     1.0000   1.0000   1.0000   1.0000   1.0000   1.0000   1.0000   1.0000
     1.0000   1.0000   1.0000   1.0000   1.0000   1.0000   1.0000   1.0000
     1.0000   1.0000   1.0000   1.0000   1.0000   1.0000   1.0000   1.0000
     1.0000   1.0000   1.0000   1.0000   1.0000   1.0000   1.0000   1.0000
     1.0000   1.0000   1.0000   1.0000   1.0000   1.0000   1.0000   1.0000

          k = 0.1250 0.1250 0.1250 (  8283 PWs)   bands (ev):

    -1.6301  -1.6301   2.3818   2.3818   2.3818   2.3818   2.3837   2.3837
     8.8093   8.8093   8.8103   8.8103   8.8106   8.8106  10.2078  10.2078
    10.2079  10.2079  10.2085  10.2085  12.7994  12.7994  12.7998  12.7998
    12.7998  12.7998  13.2193  13.2193  14.4282  14.4282  14.4286  14.4286
    14.4287  14.4287  15.5975  15.5975  16.6524  16.6524  20.3757  20.3757
    23.0830  23.0830  23.0830  23.0830  23.0830  23.0830  24.1578  24.1578
    25.2646  25.2646  25.7102  25.7102  26.8809  26.8809  27.3365  27.3365
    27.4124  27.4124  28.2513  28.2513  28.2514  28.2514  28.2514  28.2514

     occupation numbers 
     1.0000   1.0000   1.0000   1.0000   1.0000   1.0000   1.0000   1.0000
     1.0000   1.0000   1.0000   1.0000   1.0000   1.0000   1.0000   1.0000
     1.0000   1.0000   1.0000   1.0000   1.0000   1.0000   1.0000   1.0000
     1.0000   1.0000   1.0000   1.0000   1.0000   1.0000   1.0000   1.0000
     1.0000   1.0000   1.0000   1.0000   1.0000   1.0000   1.0000   1.0000
     1.0000   1.0000   1.0000   1.0000   1.0000   1.0000   1.0000   1.0000
     1.0000   1.0000   1.0000   1.0000   1.0000   1.0000   1.0000   1.0000
     1.0000   1.0000   1.0000   1.0000   1.0000   1.0000   1.0000   1.0000

          k = 0.1250 0.1250 0.2083 (  8291 PWs)   bands (ev):

    -1.4498  -1.4498   1.8800   1.8800   2.4694   2.4694   2.4707   2.4707
     8.3579   8.3579   8.3587   8.3587   8.8938   8.8938  10.1041  10.1041
    10.1046  10.1046  11.1481  11.1481  12.4802  12.4802  12.7345  12.7345
    12.7346  12.7346  12.9908  12.9908  14.6550  14.6550  15.3566  15.3566
    15.3567  15.3567  15.4213  15.4213  16.5815  16.5815  20.9923  20.9923
    23.1826  23.1826  23.2366  23.2366  23.7658  23.7658  23.7658  23.7658
    24.9108  24.9108  25.6539  25.6539  26.6307  26.6307  27.0269  27.0269
    27.0269  27.0269  27.7998  27.7998  27.8180  27.8180  28.0556  28.0556

     occupation numbers 
     1.0000   1.0000   1.0000   1.0000   1.0000   1.0000   1.0000   1.0000
     1.0000   1.0000   1.0000   1.0000   1.0000   1.0000   1.0000   1.0000
     1.0000   1.0000   1.0000   1.0000   1.0000   1.0000   1.0000   1.0000
     1.0000   1.0000   1.0000   1.0000   1.0000   1.0000   1.0000   1.0000
     1.0000   1.0000   1.0000   1.0000   1.0000   1.0000   1.0000   1.0000
     1.0000   1.0000   1.0000   1.0000   1.0000   1.0000   1.0000   1.0000
     1.0000   1.0000   1.0000   1.0000   1.0000   1.0000   1.0000   1.0000
     1.0000   1.0000   1.0000   1.0000   1.0000   1.0000   1.0000   1.0000

          k = 0.1250 0.1250 0.2917 (  8296 PWs)   bands (ev):

    -1.1810  -1.1810   1.2891   1.2891   2.5799   2.5799   2.5813   2.5813
     7.8330   7.8330   7.8339   7.8339   9.1136   9.1136  10.2438  10.2438
    10.2444  10.2444  11.7341  11.7341  12.2248  12.2248  12.3716  12.3716
    12.3718  12.3718  13.3035  13.3035  15.0277  15.0277  15.0745  15.0745
    16.3009  16.3009  16.6612  16.6612  16.6612  16.6612  21.1322  21.1322
    22.4443  22.4443  23.4640  23.4640  24.6538  24.6538  24.6538  24.6538
    25.0037  25.0037  25.4116  25.4116  25.4116  25.4116  25.5862  25.5862
    26.4045  26.4045  27.2584  27.2584  28.4586  28.4586  28.7403  28.7403

     occupation numbers 
     1.0000   1.0000   1.0000   1.0000   1.0000   1.0000   1.0000   1.0000
     1.0000   1.0000   1.0000   1.0000   1.0000   1.0000   1.0000   1.0000
     1.0000   1.0000   1.0000   1.0000   1.0000   1.0000   1.0000   1.0000
     1.0000   1.0000   1.0000   1.0000   1.0000   1.0000   1.0000   1.0000
     1.0000   1.0000   1.0000   1.0000   1.0000   1.0000   1.0000   1.0000
     1.0000   1.0000   1.0000   1.0000   1.0000   1.0000   1.0000   1.0000
     1.0000   1.0000   1.0000   1.0000   1.0000   1.0000   1.0000   1.0000
     1.0000   1.0000   1.0000   1.0000   1.0000   1.0000   1.0000   1.0000

          k = 0.1250 0.1250 0.3750 (  8282 PWs)   bands (ev):

    -0.8263  -0.8263   0.6871   0.6871   2.6856   2.6856   2.6872   2.6872
     7.4096   7.4096   7.4105   7.4105   9.4486   9.4486  10.5104  10.5104
    10.5111  10.5111  11.0391  11.0391  11.9276  11.9276  11.9281  11.9281
    13.1512  13.1512  13.8601  13.8601  14.6471  14.6471  15.6317  15.6317
    15.8599  15.8599  18.1150  18.1150  18.1151  18.1151  19.6051  19.6051
    23.5193  23.5193  23.6160  23.6160  23.6161  23.6161  23.7592  23.7592
    25.1203  25.1203  25.4190  25.4190  25.8453  25.8453  25.8453  25.8453
    26.6180  26.6180  26.6943  26.6943  27.6830  27.6830  29.0219  29.0219

     occupation numbers 
     1.0000   1.0000   1.0000   1.0000   1.0000   1.0000   1.0000   1.0000
     1.0000   1.0000   1.0000   1.0000   1.0000   1.0000   1.0000   1.0000
     1.0000   1.0000   1.0000   1.0000   1.0000   1.0000   1.0000   1.0000
     1.0000   1.0000   1.0000   1.0000   1.0000   1.0000   1.0000   1.0000
     1.0000   1.0000   1.0000   1.0000   1.0000   1.0000   1.0000   1.0000
     1.0000   1.0000   1.0000   1.0000   1.0000   1.0000   1.0000   1.0000
     1.0000   1.0000   1.0000   1.0000   1.0000   1.0000   1.0000   1.0000
     1.0000   1.0000   1.0000   1.0000   1.0000   1.0000   1.0000   1.0000

          k = 0.1250 0.1250 0.4583 (  8283 PWs)   bands (ev):

    -0.3903  -0.3903   0.1189   0.1189   2.7519   2.7519   2.7535   2.7535
     7.1761   7.1761   7.1771   7.1771   9.8864   9.8864  10.4192  10.4192
    10.8086  10.8086  10.8099  10.8099  11.5327  11.5327  11.5337  11.5337
    13.7202  13.7202  14.1904  14.1904  14.6435  14.6435  15.3125  15.3125
    16.6222  16.6222  18.0077  18.0077  19.4943  19.4943  19.4946  19.4946
    22.1083  22.1083  22.1085  22.1085  24.1035  24.1035  24.3547  24.3547
    25.2933  25.2933  25.7726  25.7726  26.1334  26.1334  26.6524  26.6524
    27.0689  27.0689  27.0689  27.0689  27.0907  27.0907  27.8173  27.8173

     occupation numbers 
     1.0000   1.0000   1.0000   1.0000   1.0000   1.0000   1.0000   1.0000
     1.0000   1.0000   1.0000   1.0000   1.0000   1.0000   1.0000   1.0000
     1.0000   1.0000   1.0000   1.0000   1.0000   1.0000   1.0000   1.0000
     1.0000   1.0000   1.0000   1.0000   1.0000   1.0000   1.0000   1.0000
     1.0000   1.0000   1.0000   1.0000   1.0000   1.0000   1.0000   1.0000
     1.0000   1.0000   1.0000   1.0000   1.0000   1.0000   1.0000   1.0000
     1.0000   1.0000   1.0000   1.0000   1.0000   1.0000   1.0000   1.0000
     1.0000   1.0000   1.0000   1.0000   1.0000   1.0000   1.0000   1.0000

          k = 0.1250 0.2083 0.2083 (  8291 PWs)   bands (ev):

    -1.2708  -1.2708   1.9937   1.9937   1.9949   1.9949   2.5309   2.5309
     7.8197   7.8197   8.3241   8.3241   8.3250   8.3250  10.1613  10.1613
    11.1406  11.1406  11.1412  11.1412  11.7340  11.7340  12.9296  12.9296
    12.9300  12.9300  13.2752  13.2752  15.3453  15.3453  15.5678  15.5678
    15.5683  15.5683  15.6064  15.6064  16.7297  16.7297  21.2721  21.2721
    22.9184  22.9184  23.9105  23.9105  23.9105  23.9105  24.0029  24.0029
    24.4545  24.4545  25.5429  25.5429  26.5447  26.5447  26.5450  26.5450
    26.5915  26.5915  27.0370  27.0370  27.6395  27.6395  28.5807  28.5807

     occupation numbers 
     1.0000   1.0000   1.0000   1.0000   1.0000   1.0000   1.0000   1.0000
     1.0000   1.0000   1.0000   1.0000   1.0000   1.0000   1.0000   1.0000
     1.0000   1.0000   1.0000   1.0000   1.0000   1.0000   1.0000   1.0000
     1.0000   1.0000   1.0000   1.0000   1.0000   1.0000   1.0000   1.0000
     1.0000   1.0000   1.0000   1.0000   1.0000   1.0000   1.0000   1.0000
     1.0000   1.0000   1.0000   1.0000   1.0000   1.0000   1.0000   1.0000
     1.0000   1.0000   1.0000   1.0000   1.0000   1.0000   1.0000   1.0000
     1.0000   1.0000   1.0000   1.0000   1.0000   1.0000   1.0000   1.0000

          k = 0.1250 0.2083 0.2917 (  8296 PWs)   bands (ev):

    -1.0041  -1.0041   1.4251   1.4251   2.1501   2.1501   2.5939   2.5939
     7.3093   7.3093   7.7356   7.7356   8.4704   8.4704  10.3618  10.3618
    10.9869  10.9869  11.2840  11.2840  12.2754  12.2754  12.5924  12.5924
    13.2648  13.2648  13.2759  13.2759  15.0252  15.0252  15.9034  15.9034
    16.4951  16.4951  16.6935  16.6935  16.8519  16.8519  21.3768  21.3768
    22.2033  22.2033  23.8398  23.8398  24.1181  24.1181  24.6436  24.6436
    25.0588  25.0588  25.1230  25.1230  25.5813  25.5813  25.6724  25.6724
    25.9841  25.9841  26.7977  26.7977  28.2471  28.2471  28.3475  28.3475

     occupation numbers 
     1.0000   1.0000   1.0000   1.0000   1.0000   1.0000   1.0000   1.0000
     1.0000   1.0000   1.0000   1.0000   1.0000   1.0000   1.0000   1.0000
     1.0000   1.0000   1.0000   1.0000   1.0000   1.0000   1.0000   1.0000
[...]
     1.0000   1.0000   1.0000   1.0000   1.0000   1.0000   1.0000   1.0000
     1.0000   1.0000   1.0000   1.0000   1.0000   1.0000   1.0000   1.0000
     1.0000   1.0000   1.0000   1.0000   1.0000   1.0000   1.0000   1.0000
     1.0000   1.0000   1.0000   1.0000   1.0000   1.0000   1.0000   1.0000
     1.0000   1.0000   1.0000   1.0000   1.0000   1.0000   1.0000   1.0000
     1.0000   1.0000   1.0000   1.0000   1.0000   1.0000   1.0000   1.0000

          k = 0.2917 0.2917 0.4583 (  8260 PWs)   bands (ev):

     0.4197   0.4197   0.8774   0.8774   2.0565   2.0565   2.0581   2.0581
     5.9355   5.9355   5.9366   5.9366   7.1225   7.1225   7.5826   7.5826
    13.3361  13.3361  13.3375  13.3375  14.3821  14.3821  14.3829  14.3829
    14.7809  14.7809  15.2298  15.2298  15.6243  15.6243  16.4485  16.4485
    18.3037  18.3037  19.1489  19.1489  19.1490  19.1490  19.2750  19.2750
    21.3222  21.3222  21.3225  21.3225  22.4175  22.4175  22.7026  22.7026
    22.8846  22.8846  23.6125  23.6125  24.6513  24.6513  25.3025  25.3025
    25.3036  25.3036  25.4858  25.4858  27.1794  27.1794  27.1805  27.1805

     occupation numbers 
     1.0000   1.0000   1.0000   1.0000   1.0000   1.0000   1.0000   1.0000
     1.0000   1.0000   1.0000   1.0000   1.0000   1.0000   1.0000   1.0000
     1.0000   1.0000   1.0000   1.0000   1.0000   1.0000   1.0000   1.0000
     1.0000   1.0000   1.0000   1.0000   1.0000   1.0000   1.0000   1.0000
     1.0000   1.0000   1.0000   1.0000   1.0000   1.0000   1.0000   1.0000
     1.0000   1.0000   1.0000   1.0000   1.0000   1.0000   1.0000   1.0000
     1.0000   1.0000   1.0000   1.0000   1.0000   1.0000   1.0000   1.0000
     1.0000   1.0000   1.0000   1.0000   1.0000   1.0000   1.0000   1.0000

          k = 0.2917 0.3750 0.3750 (  8261 PWs)   bands (ev):

     0.3362   0.3362   1.5745   1.5745   1.5759   1.5759   1.9931   1.9931
     5.8446   5.8446   6.2635   6.2635   6.2644   6.2644   7.5082   7.5082
    13.4591  13.4591  14.1825  14.1825  14.1829  14.1829  15.0542  15.0542
    15.0551  15.0551  15.2005  15.2005  15.5557  15.5557  17.0210  17.0210
    18.1914  18.1914  18.4029  18.4029  18.4037  18.4037  20.5101  20.5101
    21.4348  21.4348  21.7969  21.7969  22.1789  22.1789  22.1793  22.1793
    22.3778  22.3778  24.0373  24.0373  24.2453  24.2453  24.3047  24.3047
    24.3049  24.3049  26.1732  26.1732  26.1737  26.1737  26.8229  26.8229

     occupation numbers 
     1.0000   1.0000   1.0000   1.0000   1.0000   1.0000   1.0000   1.0000
     1.0000   1.0000   1.0000   1.0000   1.0000   1.0000   1.0000   1.0000
     1.0000   1.0000   1.0000   1.0000   1.0000   1.0000   1.0000   1.0000
     1.0000   1.0000   1.0000   1.0000   1.0000   1.0000   1.0000   1.0000
     1.0000   1.0000   1.0000   1.0000   1.0000   1.0000   1.0000   1.0000
     1.0000   1.0000   1.0000   1.0000   1.0000   1.0000   1.0000   1.0000
     1.0000   1.0000   1.0000   1.0000   1.0000   1.0000   1.0000   1.0000
     1.0000   1.0000   1.0000   1.0000   1.0000   1.0000   1.0000   1.0000

          k = 0.2917 0.3750 0.4583 (  8257 PWs)   bands (ev):

     0.7168   0.7168   1.1402   1.1402   1.7776   1.7776   1.9285   1.9285
     5.7427   5.7427   5.8939   5.8939   6.5338   6.5338   6.9586   6.9586
    13.7921  13.7921  14.0738  14.0738  14.8089  14.8089  15.2313  15.2313
    15.2350  15.2350  15.3705  15.3705  16.0003  16.0003  16.7977  16.7977
    18.9429  18.9429  18.9793  18.9793  19.3712  19.3712  19.7232  19.7232
    20.9467  20.9467  21.3615  21.3615  21.4065  21.4065  21.7280  21.7280
    22.3295  22.3295  23.2939  23.2939  24.0799  24.0799  24.2174  24.2174
    24.4486  24.4486  25.1509  25.1509  26.0779  26.0779  26.3355  26.3355

     occupation numbers 
     1.0000   1.0000   1.0000   1.0000   1.0000   1.0000   1.0000   1.0000
     1.0000   1.0000   1.0000   1.0000   1.0000   1.0000   1.0000   1.0000
     1.0000   1.0000   1.0000   1.0000   1.0000   1.0000   1.0000   1.0000
     1.0000   1.0000   1.0000   1.0000   1.0000   1.0000   1.0000   1.0000
     1.0000   1.0000   1.0000   1.0000   1.0000   1.0000   1.0000   1.0000
     1.0000   1.0000   1.0000   1.0000   1.0000   1.0000   1.0000   1.0000
     1.0000   1.0000   1.0000   1.0000   1.0000   1.0000   1.0000   1.0000
     1.0000   1.0000   1.0000   1.0000   1.0000   1.0000   1.0000   1.0000

          k = 0.2917 0.4583 0.4583 (  8258 PWs)   bands (ev):

     1.0624   1.0624   1.4291   1.4291   1.4305   1.4305   1.7084   1.7084
     5.7967   5.7967   6.0755   6.0755   6.0764   6.0764   6.4443   6.4443
    14.1795  14.1795  14.5390  14.5390  14.5392  14.5392  14.9322  14.9322
    16.1070  16.1070  16.2533  16.2533  16.2546  16.2546  16.8582  16.8582
    19.2008  19.2008  19.6471  19.6471  19.6475  19.6475  20.0719  20.0719
    20.5713  20.5713  20.7092  20.7092  20.7096  20.7096  21.1161  21.1161
    22.3570  22.3570  23.0866  23.0866  23.0867  23.0867  23.2070  23.2070
    24.7375  24.7375  25.2853  25.2853  25.2855  25.2855  25.7100  25.7100

     occupation numbers 
     1.0000   1.0000   1.0000   1.0000   1.0000   1.0000   1.0000   1.0000
     1.0000   1.0000   1.0000   1.0000   1.0000   1.0000   1.0000   1.0000
     1.0000   1.0000   1.0000   1.0000   1.0000   1.0000   1.0000   1.0000
     1.0000   1.0000   1.0000   1.0000   1.0000   1.0000   1.0000   1.0000
     1.0000   1.0000   1.0000   1.0000   1.0000   1.0000   1.0000   1.0000
     1.0000   1.0000   1.0000   1.0000   1.0000   1.0000   1.0000   1.0000
     1.0000   1.0000   1.0000   1.0000   1.0000   1.0000   1.0000   1.0000
     1.0000   1.0000   1.0000   1.0000   1.0000   1.0000   1.0000   1.0000

          k = 0.3750 0.3750 0.3750 (  8258 PWs)   bands (ev):

     0.6352   0.6352   1.7071   1.7071   1.7071   1.7071   1.7094   1.7094
     5.8070   5.8070   5.8085   5.8085   5.8086   5.8086   6.8834   6.8834
    14.6316  14.6316  14.6318  14.6318  14.6331  14.6331  15.5894  15.5894
    15.5901  15.5901  15.5901  15.5901  15.9468  15.9468  17.0682  17.0682
    18.5833  18.5833  18.5843  18.5843  18.5844  18.5844  20.3946  20.3946
    21.2144  21.2144  21.5722  21.5722  21.8914  21.8914  21.8916  21.8916
    21.8916  21.8916  23.3623  23.3623  23.4058  23.4058  23.4060  23.4060
    23.4069  23.4069  25.4262  25.4262  25.4273  25.4273  25.4274  25.4274

     occupation numbers 
     1.0000   1.0000   1.0000   1.0000   1.0000   1.0000   1.0000   1.0000
     1.0000   1.0000   1.0000   1.0000   1.0000   1.0000   1.0000   1.0000
     1.0000   1.0000   1.0000   1.0000   1.0000   1.0000   1.0000   1.0000
     1.0000   1.0000   1.0000   1.0000   1.0000   1.0000   1.0000   1.0000
     1.0000   1.0000   1.0000   1.0000   1.0000   1.0000   1.0000   1.0000
     1.0000   1.0000   1.0000   1.0000   1.0000   1.0000   1.0000   1.0000
     1.0000   1.0000   1.0000   1.0000   1.0000   1.0000   1.0000   1.0000
     1.0000   1.0000   1.0000   1.0000   1.0000   1.0000   1.0000   1.0000

          k = 0.3750 0.3750 0.4583 (  8276 PWs)   bands (ev):

     0.9837   0.9837   1.3549   1.3549   1.7926   1.7926   1.7942   1.7942
     5.5551   5.5551   5.5562   5.5562   5.9950   5.9950   6.3669   6.3669
    14.8527  14.8527  14.8540  14.8540  15.4198  15.4198  15.8121  15.8121
    15.8274  15.8274  15.8280  15.8280  16.2831  16.2831  16.9416  16.9416
    19.1137  19.1137  19.2771  19.2771  19.2775  19.2775  19.8180  19.8180
    20.9464  20.9464  20.9467  20.9467  21.1533  21.1533  21.4577  21.4577
    21.8397  21.8397  22.5515  22.5515  23.2019  23.2019  23.2030  23.2030
    23.5742  23.5742  24.3047  24.3047  25.0190  25.0190  25.0200  25.0200

     occupation numbers 
     1.0000   1.0000   1.0000   1.0000   1.0000   1.0000   1.0000   1.0000
     1.0000   1.0000   1.0000   1.0000   1.0000   1.0000   1.0000   1.0000
     1.0000   1.0000   1.0000   1.0000   1.0000   1.0000   1.0000   1.0000
     1.0000   1.0000   1.0000   1.0000   1.0000   1.0000   1.0000   1.0000
     1.0000   1.0000   1.0000   1.0000   1.0000   1.0000   1.0000   1.0000
     1.0000   1.0000   1.0000   1.0000   1.0000   1.0000   1.0000   1.0000
     1.0000   1.0000   1.0000   1.0000   1.0000   1.0000   1.0000   1.0000
     1.0000   1.0000   1.0000   1.0000   1.0000   1.0000   1.0000   1.0000

          k = 0.3750 0.4583 0.4583 (  8267 PWs)   bands (ev):

     1.2791   1.2791   1.5644   1.5644   1.5659   1.5659   1.7238   1.7238
     5.4587   5.4587   5.6170   5.6170   5.6181   5.6181   5.9040   5.9040
    15.2715  15.2715  15.4890  15.4890  15.4895  15.4895  15.8047  15.8047
    16.4395  16.4395  16.5627  16.5627  16.5638  16.5638  17.0404  17.0404
    19.4847  19.4847  19.6274  19.6274  19.6282  19.6282  19.9398  19.9398
    20.6236  20.6236  20.6535  20.6535  20.6538  20.6538  20.7350  20.7350
    21.7848  21.7848  22.3217  22.3217  22.3220  22.3220  22.4412  22.4412
    23.5260  23.5260  24.0594  24.0594  24.0599  24.0599  24.3423  24.3423

     occupation numbers 
     1.0000   1.0000   1.0000   1.0000   1.0000   1.0000   1.0000   1.0000
     1.0000   1.0000   1.0000   1.0000   1.0000   1.0000   1.0000   1.0000
     1.0000   1.0000   1.0000   1.0000   1.0000   1.0000   1.0000   1.0000
     1.0000   1.0000   1.0000   1.0000   1.0000   1.0000   1.0000   1.0000
     1.0000   1.0000   1.0000   1.0000   1.0000   1.0000   1.0000   1.0000
     1.0000   1.0000   1.0000   1.0000   1.0000   1.0000   1.0000   1.0000
     1.0000   1.0000   1.0000   1.0000   1.0000   1.0000   1.0000   1.0000
     1.0000   1.0000   1.0000   1.0000   1.0000   1.0000   1.0000   1.0000

          k = 0.4583 0.4583 0.4583 (  8234 PWs)   bands (ev):

     1.4918   1.4918   1.6519   1.6519   1.6519   1.6519   1.6543   1.6543
     5.3621   5.3621   5.3637   5.3637   5.3638   5.3638   5.5243   5.5243
    15.9474  15.9474  15.9474  15.9474  15.9488  15.9488  16.1254  16.1254
    16.9643  16.9643  16.9650  16.9650  16.9656  16.9656  17.2503  17.2503
    19.7014  19.7014  19.7026  19.7026  19.7029  19.7029  19.7937  19.7937
    20.5218  20.5218  20.5221  20.5221  20.5224  20.5224  20.5779  20.5779
    21.5495  21.5495  21.8027  21.8027  21.8031  21.8031  21.8039  21.8039
    23.0007  23.0007  23.3545  23.3545  23.3556  23.3556  23.3557  23.3557

     occupation numbers 
     1.0000   1.0000   1.0000   1.0000   1.0000   1.0000   1.0000   1.0000
     1.0000   1.0000   1.0000   1.0000   1.0000   1.0000   1.0000   1.0000
     1.0000   1.0000   1.0000   1.0000   1.0000   1.0000   1.0000   1.0000
     1.0000   1.0000   1.0000   1.0000   1.0000   1.0000   1.0000   1.0000
     1.0000   1.0000   1.0000   1.0000   1.0000   1.0000   1.0000   1.0000
     1.0000   1.0000   1.0000   1.0000   1.0000   1.0000   1.0000   1.0000
     1.0000   1.0000   1.0000   1.0000   1.0000   1.0000   1.0000   1.0000
     1.0000   1.0000   1.0000   1.0000   1.0000   1.0000   1.0000   1.0000

     highest occupied level (ev):    29.6552

!    total energy              =   -3131.16179359 Ry
     Harris-Foulkes estimate   =   -3131.16179409 Ry
     estimated scf accuracy    <       0.00000051 Ry

     total all-electron energy =   -119218.217921 Ry

     The total energy is the sum of the following terms:

     one-electron contribution =     153.67771727 Ry
     hartree contribution      =       5.41631110 Ry
     xc contribution           =    -157.41044104 Ry
     ewald contribution        =    -332.73169529 Ry
     one-center paw contrib.   =   -2800.11368563 Ry
      -> PAW hartree energy AE =      42.87605984 Ry
      -> PAW hartree energy PS =     -42.76306111 Ry
      -> PAW xc energy AE      =    -381.08217241 Ry
      -> PAW xc energy PS      =      22.83682737 Ry
      -> total E_H with PAW    =       5.52930983 Ry
      -> total E_XC with PAW   =    -515.65578607 Ry

     convergence has been achieved in  10 iterations

     Forces acting on atoms (cartesian axes, Ry/au):

     atom    1 type  1   force =     0.00000000    0.00000000    0.00000000
     atom    2 type  1   force =     0.00000000    0.00000000    0.00000000
     atom    3 type  1   force =     0.00000000    0.00000000    0.00000000
     atom    4 type  1   force =     0.00000000    0.00000000    0.00000000
     atom    5 type  2   force =     0.00000000    0.00000000   -0.00000000
     atom    6 type  2   force =     0.00000000    0.00000000    0.00000000
     atom    7 type  2   force =     0.00000000   -0.00000000    0.00000000
     atom    8 type  2   force =     0.00000000   -0.00000000    0.00000000
     The non-local contrib.  to forces
     atom    1 type  1   force =     0.00000000    0.00000000    0.00000000
     atom    2 type  1   force =     0.00000000    0.00000000   -0.00000000
     atom    3 type  1   force =     0.00000000    0.00000000    0.00000000
     atom    4 type  1   force =     0.00000000    0.00000000    0.00000000
     atom    5 type  2   force =     0.00000000    0.00000000    0.00000000
     atom    6 type  2   force =     0.00000000    0.00000000    0.00000000
     atom    7 type  2   force =     0.00000000    0.00000000    0.00000000
     atom    8 type  2   force =     0.00000000    0.00000000    0.00000000
     The ionic contribution  to forces
     atom    1 type  1   force =    -0.00000000   -0.00000000   -0.00000000
     atom    2 type  1   force =    -0.00000000    0.00000000    0.00000000
     atom    3 type  1   force =     0.00000000   -0.00000000    0.00000000
     atom    4 type  1   force =     0.00000000    0.00000000   -0.00000000
     atom    5 type  2   force =     0.00000000   -0.00000000   -0.00000000
     atom    6 type  2   force =     0.00000000    0.00000000    0.00000000
     atom    7 type  2   force =    -0.00000000   -0.00000000    0.00000000
     atom    8 type  2   force =    -0.00000000    0.00000000   -0.00000000
     The local contribution  to forces
     atom    1 type  1   force =    -0.00000000   -0.00000000   -0.00000000
     atom    2 type  1   force =    -0.00000000    0.00000000    0.00000000
     atom    3 type  1   force =     0.00000000   -0.00000000    0.00000000
     atom    4 type  1   force =     0.00000000    0.00000000   -0.00000000
     atom    5 type  2   force =     0.00000000   -0.00000000   -0.00000000
     atom    6 type  2   force =     0.00000000    0.00000000    0.00000000
     atom    7 type  2   force =    -0.00000000   -0.00000000   -0.00000000
     atom    8 type  2   force =    -0.00000000    0.00000000   -0.00000000
     The core correction contribution to forces
     atom    1 type  1   force =    -0.00000000   -0.00000000   -0.00000000
     atom    2 type  1   force =    -0.00000000   -0.00000000   -0.00000000
     atom    3 type  1   force =    -0.00000000   -0.00000000   -0.00000000
     atom    4 type  1   force =    -0.00000000   -0.00000000   -0.00000000
     atom    5 type  2   force =    -0.00000000   -0.00000000   -0.00000000
     atom    6 type  2   force =    -0.00000000   -0.00000000   -0.00000000
     atom    7 type  2   force =    -0.00000000    0.00000000   -0.00000000
     atom    8 type  2   force =    -0.00000000   -0.00000000   -0.00000000
     The Hubbard contrib.    to forces
     atom    1 type  1   force =     0.00000000    0.00000000    0.00000000
     atom    2 type  1   force =     0.00000000    0.00000000    0.00000000
     atom    3 type  1   force =     0.00000000    0.00000000    0.00000000
     atom    4 type  1   force =     0.00000000    0.00000000    0.00000000
     atom    5 type  2   force =     0.00000000    0.00000000    0.00000000
     atom    6 type  2   force =     0.00000000    0.00000000    0.00000000
     atom    7 type  2   force =     0.00000000    0.00000000    0.00000000
     atom    8 type  2   force =     0.00000000    0.00000000    0.00000000
     The SCF correction term to forces
     atom    1 type  1   force =     0.00000000    0.00000000   -0.00000000
     atom    2 type  1   force =     0.00000000    0.00000000    0.00000000
     atom    3 type  1   force =     0.00000000    0.00000000   -0.00000000
     atom    4 type  1   force =     0.00000000    0.00000000   -0.00000000
     atom    5 type  2   force =     0.00000000    0.00000000    0.00000000
     atom    6 type  2   force =     0.00000000    0.00000000    0.00000000
     atom    7 type  2   force =     0.00000000    0.00000000    0.00000000
     atom    8 type  2   force =     0.00000000    0.00000000   -0.00000000

     Total force =     0.000000     Total SCF correction =     0.000000


     Computing stress (Cartesian axis) and pressure

     Message from routine stres:
     noncollinear stress + GGA not implemented

     Writing output data file CsIsalt.save/
 
     init_run     :     45.77s CPU     80.02s WALL (       1 calls)
     electrons    :   1614.90s CPU   2708.60s WALL (       1 calls)
     forces       :     26.58s CPU     38.88s WALL (       1 calls)

     Called by init_run:
     wfcinit      :     42.43s CPU     75.09s WALL (       1 calls)
     wfcinit:atom :      0.08s CPU      0.08s WALL (      56 calls)
     wfcinit:wfcr :     42.08s CPU     74.66s WALL (      56 calls)
     potinit      :      1.15s CPU      1.97s WALL (       1 calls)
     hinit0       :      0.77s CPU      1.27s WALL (       1 calls)

     Called by electrons:
     c_bands      :   1380.85s CPU   2331.08s WALL (      11 calls)
     sum_band     :    209.84s CPU    345.62s WALL (      11 calls)
     v_of_rho     :      0.39s CPU      0.83s WALL (      11 calls)
     v_h          :      0.05s CPU      0.12s WALL (      11 calls)
     v_xc         :      0.51s CPU      0.99s WALL (      12 calls)
     newd         :     13.82s CPU     16.30s WALL (      11 calls)
     PAW_pot      :      8.77s CPU     11.09s WALL (      11 calls)
     mix_rho      :      1.53s CPU      3.20s WALL (      11 calls)

     Called by c_bands:
     init_us_2    :      2.47s CPU      3.90s WALL (    1344 calls)
     cegterg      :   1330.06s CPU   2265.21s WALL (     616 calls)

     Called by sum_band:
     sum_band:bec :     30.70s CPU     46.36s WALL (     616 calls)
     addusdens    :      4.57s CPU      5.94s WALL (      11 calls)

     Called by *egterg:
     h_psi        :    708.41s CPU   1232.84s WALL (    4335 calls)
     s_psi        :     34.28s CPU     46.94s WALL (    4335 calls)
     g_psi        :      1.08s CPU      1.15s WALL (    3663 calls)
     cdiaghg      :    211.65s CPU    361.88s WALL (    4223 calls)
     cegterg:over :    138.47s CPU    227.35s WALL (    3663 calls)
     cegterg:upda :    147.57s CPU    247.06s WALL (    3663 calls)
     cegterg:last :     31.21s CPU     51.17s WALL (     815 calls)
     cdiaghg:chol :     13.90s CPU     19.15s WALL (    4223 calls)
     cdiaghg:inve :      6.06s CPU     11.50s WALL (    4223 calls)
     cdiaghg:para :     54.47s CPU     96.97s WALL (    8446 calls)

     Called by h_psi:
     h_psi:pot    :    705.33s CPU   1229.58s WALL (    4335 calls)
     h_psi:calbec :     16.93s CPU     22.83s WALL (    4335 calls)
     vloc_psi     :    654.78s CPU   1160.57s WALL (    4335 calls)
     add_vuspsi   :     33.59s CPU     46.15s WALL (    4335 calls)

     General routines
     calbec       :     26.41s CPU     37.43s WALL (    5175 calls)
     fft          :      3.06s CPU      5.91s WALL (     243 calls)
     ffts         :      1.80s CPU      4.00s WALL (      88 calls)
     fftw         :    811.79s CPU   1429.06s WALL (  646412 calls)
     interpolate  :      1.09s CPU      2.49s WALL (      44 calls)
 
     Parallel routines
     fft_scatt_xy :     20.71s CPU     26.28s WALL (  646743 calls)
     fft_scatt_yz :    698.86s CPU   1296.43s WALL (  646743 calls)

     PAW routines
     PAW_pot      :      8.77s CPU     11.09s WALL (      11 calls)
     PAW_symme    :      0.43s CPU      0.64s WALL (      22 calls)
 
     PWSCF        :  28m19.77s CPU  47m27.04s WALL

 
   This run was terminated on:  18:50:36  24Jan2021            

=------------------------------------------------------------------------------=
   JOB DONE.
=------------------------------------------------------------------------------=
