
     Program PWSCF v.6.4.1 starts on 23Jan2021 at 18:48:56 

     This program is part of the open-source Quantum ESPRESSO suite
     for quantum simulation of materials; please cite
         "P. Giannozzi et al., J. Phys.:Condens. Matter 21 395502 (2009);
         "P. Giannozzi et al., J. Phys.:Condens. Matter 29 465901 (2017);
          URL http://www.quantum-espresso.org", 
     in publications or presentations arising from this work. More details at
     http://www.quantum-espresso.org/quote

     Parallel version (MPI & OpenMP), running on      48 processor cores
     Number of MPI processes:                24
     Threads/MPI process:                     2

     MPI processes distributed on     1 nodes
     R & G space division:  proc/nbgrp/npool/nimage =      24
     Waiting for input...
     Reading input from standard input

     Current dimensions of program PWSCF are:
     Max number of different atomic species (ntypx) = 10
     Max number of k-points (npk) =  40000
     Max angular momentum in pseudopotentials (lmaxx) =  3
               file Sn.rel-pbesol-dn-kjpaw_psl.1.0.0.UPF: wavefunction(s)  5S 5P 5P 4D 4D renormalized
               file I.rel-pbesol-n-kjpaw_psl.1.0.0.UPF: wavefunction(s)  5S renormalized

     Subspace diagonalization in iterative solution of the eigenvalue problem:
     one sub-group per band group will be used
     scalapack distributed-memory algorithm (size of sub-group:  3*  3 procs)

 
     Parallelization info
     --------------------
     sticks:   dense  smooth     PW     G-vecs:    dense   smooth      PW
     Min         413     275     73                31009    16885    2311
     Max         414     276     74                31016    16887    2314
     Sum        9925    6613   1757               744293   405263   55515
 

     Title: 
     SnI2                                                                       


     bravais-lattice index     =            1
     lattice parameter (alat)  =      14.4199  a.u.
     unit-cell volume          =    2998.4083 (a.u.)^3
     number of atoms/cell      =            6
     number of atomic types    =            2
     number of electrons       =        56.00
     number of Kohn-Sham states=           56
     kinetic-energy cutoff     =     100.0000  Ry
     charge density cutoff     =     600.0000  Ry
     convergence threshold     =      1.0E-06
     mixing beta               =       0.3500
     number of iterations used =            8  plain     mixing
     Exchange-correlation      = SLA PW PSX PSC ( 1  4 10  8 0 0)
     Non magnetic calculation with spin-orbit


     celldm(1)=  14.419945  celldm(2)=   0.000000  celldm(3)=   0.000000
     celldm(4)=   0.000000  celldm(5)=   0.000000  celldm(6)=   0.000000

     crystal axes: (cart. coord. in units of alat)
               a(1) = (   1.000000   0.000000   0.000000 )  
               a(2) = (   0.000000   1.000000   0.000000 )  
               a(3) = (   0.000000   0.000000   1.000000 )  

     reciprocal axes: (cart. coord. in units 2 pi/alat)
               b(1) = (  1.000000  0.000000  0.000000 )  
               b(2) = (  0.000000  1.000000  0.000000 )  
               b(3) = (  0.000000  0.000000  1.000000 )  


     PseudoPot. # 1 for Sn read from file:
     /marconi_scratch/userexternal/cmalosso/degironcoli/pseudo/Sn.rel-pbesol-dn-kjpaw_psl.1.0.0.UPF
     MD5 check sum: e69eff64f15ae39ad43ef58bacbfdf88
     Pseudo is Projector augmented-wave + core cor, Zval = 14.0
     Generated using "atomic" code by A. Dal Corso v.6.3
     Shape of augmentation charge: PSQ
     Using radial grid of 1243 points, 10 beta functions with: 
                l(1) =   0
                l(2) =   0
                l(3) =   1
                l(4) =   1
                l(5) =   1
                l(6) =   1
                l(7) =   2
                l(8) =   2
                l(9) =   2
               l(10) =   2
     Q(r) pseudized with 0 coefficients 


     PseudoPot. # 2 for I  read from file:
     /marconi_scratch/userexternal/cmalosso/degironcoli/pseudo/I.rel-pbesol-n-kjpaw_psl.1.0.0.UPF
     MD5 check sum: 4478c427bd443f303eca1937a163b991
     Pseudo is Projector augmented-wave + core cor, Zval =  7.0
     Generated using "atomic" code by A. Dal Corso v.6.3
     Shape of augmentation charge: PSQ
     Using radial grid of 1247 points, 10 beta functions with: 
                l(1) =   0
                l(2) =   0
                l(3) =   1
                l(4) =   1
                l(5) =   1
                l(6) =   1
                l(7) =   2
                l(8) =   2
                l(9) =   2
               l(10) =   2
     Q(r) pseudized with 0 coefficients 


     atomic species   valence    mass     pseudopotential
        Sn            14.00   118.70000     Sn( 1.00)
        I              7.00   126.90000     I ( 1.00)

     16 Sym. Ops., with inversion, found ( 8 have fractional translation)


                                    s                        frac. trans.

      isym =  1     identity                                     

 cryst.   s( 1) = (     1          0          0      )
                  (     0          1          0      )
                  (     0          0          1      )

 cart.    s( 1) = (  1.0000000  0.0000000  0.0000000 )
                  (  0.0000000  1.0000000  0.0000000 )
                  (  0.0000000  0.0000000  1.0000000 )


      isym =  2     180 deg rotation - cart. axis [0,0,1]        

 cryst.   s( 2) = (    -1          0          0      )
                  (     0         -1          0      )
                  (     0          0          1      )

 cart.    s( 2) = ( -1.0000000  0.0000000  0.0000000 )
                  (  0.0000000 -1.0000000  0.0000000 )
                  (  0.0000000  0.0000000  1.0000000 )


      isym =  3     180 deg rotation - cart. axis [0,1,0]        

 cryst.   s( 3) = (    -1          0          0      )    f =(  0.5000000 )
                  (     0          1          0      )       ( -0.5000000 )
                  (     0          0         -1      )       (  0.5000000 )

 cart.    s( 3) = ( -1.0000000  0.0000000  0.0000000 )    f =(  0.5000000 )
                  (  0.0000000  1.0000000  0.0000000 )       ( -0.5000000 )
                  (  0.0000000  0.0000000 -1.0000000 )       (  0.5000000 )


      isym =  4     180 deg rotation - cart. axis [1,0,0]        

 cryst.   s( 4) = (     1          0          0      )    f =( -0.5000000 )
                  (     0         -1          0      )       (  0.5000000 )
                  (     0          0         -1      )       (  0.5000000 )

 cart.    s( 4) = (  1.0000000  0.0000000  0.0000000 )    f =( -0.5000000 )
                  (  0.0000000 -1.0000000  0.0000000 )       (  0.5000000 )
                  (  0.0000000  0.0000000 -1.0000000 )       (  0.5000000 )


      isym =  5     180 deg rotation - cart. axis [1,1,0]        

 cryst.   s( 5) = (     0          1          0      )
                  (     1          0          0      )
                  (     0          0         -1      )

 cart.    s( 5) = (  0.0000000  1.0000000  0.0000000 )
                  (  1.0000000  0.0000000  0.0000000 )
                  (  0.0000000  0.0000000 -1.0000000 )


      isym =  6     180 deg rotation - cart. axis [1,-1,0]       

 cryst.   s( 6) = (     0         -1          0      )
                  (    -1          0          0      )
                  (     0          0         -1      )

 cart.    s( 6) = (  0.0000000 -1.0000000  0.0000000 )
                  ( -1.0000000  0.0000000  0.0000000 )
                  (  0.0000000  0.0000000 -1.0000000 )


      isym =  7      90 deg rotation - cart. axis [0,0,-1]       

 cryst.   s( 7) = (     0         -1          0      )    f =( -0.5000000 )
                  (     1          0          0      )       (  0.5000000 )
                  (     0          0          1      )       ( -0.5000000 )

 cart.    s( 7) = (  0.0000000  1.0000000  0.0000000 )    f =( -0.5000000 )
                  ( -1.0000000  0.0000000  0.0000000 )       (  0.5000000 )
                  (  0.0000000  0.0000000  1.0000000 )       ( -0.5000000 )


      isym =  8      90 deg rotation - cart. axis [0,0,1]        

 cryst.   s( 8) = (     0          1          0      )    f =(  0.5000000 )
                  (    -1          0          0      )       ( -0.5000000 )
                  (     0          0          1      )       ( -0.5000000 )

 cart.    s( 8) = (  0.0000000 -1.0000000  0.0000000 )    f =(  0.5000000 )
                  (  1.0000000  0.0000000  0.0000000 )       ( -0.5000000 )
                  (  0.0000000  0.0000000  1.0000000 )       ( -0.5000000 )


      isym =  9     inversion                                    

 cryst.   s( 9) = (    -1          0          0      )
                  (     0         -1          0      )
                  (     0          0         -1      )

 cart.    s( 9) = ( -1.0000000  0.0000000  0.0000000 )
                  (  0.0000000 -1.0000000  0.0000000 )
                  (  0.0000000  0.0000000 -1.0000000 )


      isym = 10     inv. 180 deg rotation - cart. axis [0,0,1]   

 cryst.   s(10) = (     1          0          0      )
                  (     0          1          0      )
                  (     0          0         -1      )

 cart.    s(10) = (  1.0000000  0.0000000  0.0000000 )
                  (  0.0000000  1.0000000  0.0000000 )
                  (  0.0000000  0.0000000 -1.0000000 )


      isym = 11     inv. 180 deg rotation - cart. axis [0,1,0]   

 cryst.   s(11) = (     1          0          0      )    f =( -0.5000000 )
                  (     0         -1          0      )       (  0.5000000 )
                  (     0          0          1      )       ( -0.5000000 )

 cart.    s(11) = (  1.0000000  0.0000000  0.0000000 )    f =( -0.5000000 )
                  (  0.0000000 -1.0000000  0.0000000 )       (  0.5000000 )
                  (  0.0000000  0.0000000  1.0000000 )       ( -0.5000000 )


      isym = 12     inv. 180 deg rotation - cart. axis [1,0,0]   

 cryst.   s(12) = (    -1          0          0      )    f =(  0.5000000 )
                  (     0          1          0      )       ( -0.5000000 )
                  (     0          0          1      )       ( -0.5000000 )

 cart.    s(12) = ( -1.0000000  0.0000000  0.0000000 )    f =(  0.5000000 )
                  (  0.0000000  1.0000000  0.0000000 )       ( -0.5000000 )
                  (  0.0000000  0.0000000  1.0000000 )       ( -0.5000000 )


      isym = 13     inv. 180 deg rotation - cart. axis [1,1,0]   

 cryst.   s(13) = (     0         -1          0      )
                  (    -1          0          0      )
                  (     0          0          1      )

 cart.    s(13) = (  0.0000000 -1.0000000  0.0000000 )
                  ( -1.0000000  0.0000000  0.0000000 )
                  (  0.0000000  0.0000000  1.0000000 )


      isym = 14     inv. 180 deg rotation - cart. axis [1,-1,0]  

 cryst.   s(14) = (     0          1          0      )
                  (     1          0          0      )
                  (     0          0          1      )

 cart.    s(14) = (  0.0000000  1.0000000  0.0000000 )
                  (  1.0000000  0.0000000  0.0000000 )
                  (  0.0000000  0.0000000  1.0000000 )


      isym = 15     inv.  90 deg rotation - cart. axis [0,0,-1]  

 cryst.   s(15) = (     0          1          0      )    f =(  0.5000000 )
                  (    -1          0          0      )       ( -0.5000000 )
                  (     0          0         -1      )       (  0.5000000 )

 cart.    s(15) = (  0.0000000 -1.0000000  0.0000000 )    f =(  0.5000000 )
                  (  1.0000000  0.0000000  0.0000000 )       ( -0.5000000 )
                  (  0.0000000  0.0000000 -1.0000000 )       (  0.5000000 )


      isym = 16     inv.  90 deg rotation - cart. axis [0,0,1]   

 cryst.   s(16) = (     0         -1          0      )    f =( -0.5000000 )
                  (     1          0          0      )       (  0.5000000 )
                  (     0          0         -1      )       (  0.5000000 )

 cart.    s(16) = (  0.0000000  1.0000000  0.0000000 )    f =( -0.5000000 )
                  ( -1.0000000  0.0000000  0.0000000 )       (  0.5000000 )
                  (  0.0000000  0.0000000 -1.0000000 )       (  0.5000000 )


     double point group D_4h(4/mmm)
     there are 14 classes and  4 irreducible representations
     the character table:

       E     -E    2C4   -2C4   C2    2C2' 2C2'' i     -i    2S4   -2S4   s_h 
                               -C2   -2C2' -2C2'                         -s_h 
G_6+   2.00 -2.00  1.41 -1.41  0.00  0.00  0.00  2.00 -2.00  1.41 -1.41  0.00
G_7+   2.00 -2.00 -1.41  1.41  0.00  0.00  0.00  2.00 -2.00 -1.41  1.41  0.00
G_6-   2.00 -2.00  1.41 -1.41  0.00  0.00  0.00 -2.00  2.00 -1.41  1.41  0.00
G_7-   2.00 -2.00 -1.41  1.41  0.00  0.00  0.00 -2.00  2.00  1.41 -1.41  0.00

        2s_v  2s_d
       -2s_v -2s_d
G_6+   0.00  0.00
G_7+   0.00  0.00
G_6-   0.00  0.00
G_7-   0.00  0.00

     the symmetry operations in each class and the name of the first element:

     E             1
          identity                                               
     -E           -1
          identity E                                             
     2C4           7    8
           90 deg rotation - cart. axis [0,0,-1]                 
     -2C4         -7   -8
           90 deg rotation - cart. axis [0,0,-1] E               
      C2  -C2      2   -2
          180 deg rotation - cart. axis [0,0,1]                  
      2C2'-2C2'    3   -3    4   -4
          180 deg rotation - cart. axis [0,1,0]                  
     2C2''-2C2'    5   -5   -6    6
          180 deg rotation - cart. axis [1,1,0]                  
     i             9
          inversion                                              
     -i           -9
          inversion E                                            
     2S4          15   16
          inv.  90 deg rotation - cart. axis [0,0,-1]            
     -2S4        -15  -16
          inv.  90 deg rotation - cart. axis [0,0,-1] E          
      s_h -s_h    10  -10
          inv. 180 deg rotation - cart. axis [0,0,1]             
      2s_v-2s_v   11  -11   12  -12
          inv. 180 deg rotation - cart. axis [0,1,0]             
      2s_d-2s_d   13  -13  -14   14
          inv. 180 deg rotation - cart. axis [1,1,0]             

   Cartesian axes

     site n.     atom                  positions (alat units)
         1           Sn  tau(   1) = (   0.0000000   0.0000000   0.0000000  )
         2           Sn  tau(   2) = (   0.5000000   0.5000000   0.5000000  )
         3           I   tau(   3) = (   0.2985210   0.2985210   0.0000000  )
         4           I   tau(   4) = (   0.7014790   0.7014790   0.0000000  )
         5           I   tau(   5) = (   0.7985210   0.2014790   0.5000000  )
         6           I   tau(   6) = (   0.2014790   0.7985210   0.5000000  )

   Crystallographic axes

     site n.     atom                  positions (cryst. coord.)
         1           Sn  tau(   1) = (  0.0000000  0.0000000  0.0000000  )
         2           Sn  tau(   2) = (  0.5000000  0.5000000  0.5000000  )
         3           I   tau(   3) = (  0.2985210  0.2985210  0.0000000  )
         4           I   tau(   4) = (  0.7014790  0.7014790  0.0000000  )
         5           I   tau(   5) = (  0.7985210  0.2014790  0.5000000  )
         6           I   tau(   6) = (  0.2014790  0.7985210  0.5000000  )

     number of k points=    18
                       cart. coord. in units 2pi/alat
        k(    1) = (   0.0833333   0.0833333   0.0833333), wk =   0.0370370
        k(    2) = (   0.0833333   0.0833333   0.2500000), wk =   0.0370370
        k(    3) = (   0.0833333   0.0833333   0.4166667), wk =   0.0370370
        k(    4) = (   0.0833333   0.2500000   0.2500000), wk =   0.0740741
        k(    5) = (   0.0833333   0.2500000   0.4166667), wk =   0.0740741
        k(    6) = (   0.0833333   0.4166667   0.4166667), wk =   0.0740741
        k(    7) = (   0.2500000   0.2500000   0.2500000), wk =   0.0370370
        k(    8) = (   0.2500000   0.2500000   0.4166667), wk =   0.0370370
        k(    9) = (   0.2500000   0.4166667   0.4166667), wk =   0.0740741
        k(   10) = (   0.4166667   0.4166667   0.4166667), wk =   0.0370370
        k(   11) = (   0.0833333   0.2500000   0.0833333), wk =   0.0740741
        k(   12) = (   0.0833333   0.4166667   0.0833333), wk =   0.0740741
        k(   13) = (   0.2500000   0.2500000   0.0833333), wk =   0.0370370
        k(   14) = (   0.2500000   0.4166667   0.0833333), wk =   0.0740741
        k(   15) = (   0.4166667   0.0833333   0.2500000), wk =   0.0740741
        k(   16) = (   0.4166667   0.4166667   0.0833333), wk =   0.0370370
        k(   17) = (   0.2500000   0.4166667   0.2500000), wk =   0.0740741
        k(   18) = (   0.4166667   0.4166667   0.2500000), wk =   0.0370370

                       cryst. coord.
        k(    1) = (   0.0833333   0.0833333   0.0833333), wk =   0.0370370
        k(    2) = (   0.0833333   0.0833333   0.2500000), wk =   0.0370370
        k(    3) = (   0.0833333   0.0833333   0.4166667), wk =   0.0370370
        k(    4) = (   0.0833333   0.2500000   0.2500000), wk =   0.0740741
        k(    5) = (   0.0833333   0.2500000   0.4166667), wk =   0.0740741
        k(    6) = (   0.0833333   0.4166667   0.4166667), wk =   0.0740741
        k(    7) = (   0.2500000   0.2500000   0.2500000), wk =   0.0370370
        k(    8) = (   0.2500000   0.2500000   0.4166667), wk =   0.0370370
        k(    9) = (   0.2500000   0.4166667   0.4166667), wk =   0.0740741
        k(   10) = (   0.4166667   0.4166667   0.4166667), wk =   0.0370370
        k(   11) = (   0.0833333   0.2500000   0.0833333), wk =   0.0740741
        k(   12) = (   0.0833333   0.4166667   0.0833333), wk =   0.0740741
        k(   13) = (   0.2500000   0.2500000   0.0833333), wk =   0.0370370
        k(   14) = (   0.2500000   0.4166667   0.0833333), wk =   0.0740741
        k(   15) = (   0.4166667   0.0833333   0.2500000), wk =   0.0740741
        k(   16) = (   0.4166667   0.4166667   0.0833333), wk =   0.0370370
        k(   17) = (   0.2500000   0.4166667   0.2500000), wk =   0.0740741
        k(   18) = (   0.4166667   0.4166667   0.2500000), wk =   0.0370370

     Dense  grid:   744293 G-vectors     FFT dimensions: ( 120, 120, 120)

     Smooth grid:   405263 G-vectors     FFT dimensions: (  96,  96,  96)

     Dynamical RAM for                 wfc:       3.60 MB

     Dynamical RAM for     wfc (w. buffer):      68.48 MB

     Dynamical RAM for           str. fact:       0.95 MB

     Dynamical RAM for           local pot:       0.00 MB

     Dynamical RAM for          nlocal pot:       6.56 MB

     Dynamical RAM for                qrad:      23.60 MB

     Dynamical RAM for          rho,v,vnew:      12.27 MB

     Dynamical RAM for               rhoin:       4.09 MB

     Dynamical RAM for            rho*nmix:      30.28 MB

     Dynamical RAM for           G-vectors:       1.90 MB

     Dynamical RAM for          h,s,v(r/c):       0.25 MB

     Dynamical RAM for          <psi|beta>:       0.35 MB

     Dynamical RAM for                 psi:      14.42 MB

     Dynamical RAM for                hpsi:      14.42 MB

     Dynamical RAM for                spsi:      14.42 MB

     Dynamical RAM for      wfcinit/wfcrot:       6.67 MB

     Dynamical RAM for           addusdens:     290.54 MB

     Dynamical RAM for          addusforce:     296.54 MB

     Dynamical RAM for         addusstress:     297.16 MB

     Estimated static dynamical RAM per process >     153.96 MB

     Estimated max dynamical RAM per process >     451.12 MB

     Estimated total dynamical RAM >      10.57 GB

     Initial potential from superposition of free atoms

     starting charge   55.99771, renormalised to   56.00000
     Starting wfcs are   68 randomized atomic wfcs
     Checking if some PAW data can be deallocated... 
       PAW data deallocated on   16 nodes for type:  1
       PAW data deallocated on    8 nodes for type:  2

     total cpu time spent up to now is       42.4 secs

     Self-consistent Calculation

     iteration #  1     ecut=   100.00 Ry     beta= 0.35
     Davidson diagonalization with overlap
     ethr =  1.00E-02,  avg # of iterations =  1.0

     total cpu time spent up to now is      124.0 secs

     total energy              =   -2370.83439800 Ry
     Harris-Foulkes estimate   =   -2371.11931100 Ry
     estimated scf accuracy    <       0.58900896 Ry

     iteration #  2     ecut=   100.00 Ry     beta= 0.35
     Davidson diagonalization with overlap
     ethr =  1.05E-03,  avg # of iterations =  3.0

     total cpu time spent up to now is      229.0 secs

     total energy              =   -2370.93782330 Ry
     Harris-Foulkes estimate   =   -2370.94878599 Ry
     estimated scf accuracy    <       0.04060038 Ry

     iteration #  3     ecut=   100.00 Ry     beta= 0.35
     Davidson diagonalization with overlap
     ethr =  7.25E-05,  avg # of iterations =  3.5

     total cpu time spent up to now is      321.7 secs

     total energy              =   -2370.94166518 Ry
     Harris-Foulkes estimate   =   -2370.94395265 Ry
     estimated scf accuracy    <       0.00905501 Ry

     iteration #  4     ecut=   100.00 Ry     beta= 0.35
     Davidson diagonalization with overlap
     ethr =  1.62E-05,  avg # of iterations =  2.8

     total cpu time spent up to now is      416.5 secs

     total energy              =   -2370.94283390 Ry
     Harris-Foulkes estimate   =   -2370.94277971 Ry
     estimated scf accuracy    <       0.00060356 Ry

     iteration #  5     ecut=   100.00 Ry     beta= 0.35
     Davidson diagonalization with overlap
     ethr =  1.08E-06,  avg # of iterations =  5.1

     total cpu time spent up to now is      533.2 secs

     total energy              =   -2370.94299256 Ry
     Harris-Foulkes estimate   =   -2370.94308966 Ry
     estimated scf accuracy    <       0.00020783 Ry

     iteration #  6     ecut=   100.00 Ry     beta= 0.35
     Davidson diagonalization with overlap
     ethr =  3.71E-07,  avg # of iterations =  3.1

     total cpu time spent up to now is      623.9 secs

     total energy              =   -2370.94304069 Ry
     Harris-Foulkes estimate   =   -2370.94303538 Ry
     estimated scf accuracy    <       0.00001421 Ry

     iteration #  7     ecut=   100.00 Ry     beta= 0.35
     Davidson diagonalization with overlap
     ethr =  2.54E-08,  avg # of iterations =  4.6

     total cpu time spent up to now is      728.3 secs

     total energy              =   -2370.94304230 Ry
     Harris-Foulkes estimate   =   -2370.94304680 Ry
     estimated scf accuracy    <       0.00000788 Ry

     iteration #  8     ecut=   100.00 Ry     beta= 0.35
     Davidson diagonalization with overlap
     ethr =  1.41E-08,  avg # of iterations =  4.0

     total cpu time spent up to now is      822.8 secs

     total energy              =   -2370.94304405 Ry
     Harris-Foulkes estimate   =   -2370.94304501 Ry
     estimated scf accuracy    <       0.00000186 Ry

     iteration #  9     ecut=   100.00 Ry     beta= 0.35
     Davidson diagonalization with overlap
     ethr =  3.32E-09,  avg # of iterations =  4.2

     total cpu time spent up to now is      927.2 secs

     total energy              =   -2370.94304442 Ry
     Harris-Foulkes estimate   =   -2370.94304506 Ry
     estimated scf accuracy    <       0.00000139 Ry

     iteration # 10     ecut=   100.00 Ry     beta= 0.35
     Davidson diagonalization with overlap
     ethr =  2.49E-09,  avg # of iterations =  3.2

     total cpu time spent up to now is     1019.9 secs

     End of self-consistent calculation

          k = 0.0833 0.0833 0.0833 ( 50610 PWs)   bands (ev):

   -23.2731 -23.2731 -23.2731 -23.2731 -23.1409 -23.1409 -23.1409 -23.1409
   -22.2535 -22.2535 -22.2535 -22.2535 -22.1383 -22.1383 -22.1383 -22.1383
   -22.0847 -22.0847 -22.0846 -22.0846 -11.6250 -11.6250 -11.5345 -11.5345
   -11.4848 -11.4848 -11.4806 -11.4806  -7.0750  -7.0750  -6.8757  -6.8757
    -2.6892  -2.6892  -2.5275  -2.5275  -2.1413  -2.1413  -2.0302  -2.0302
    -1.8827  -1.8827  -1.5309  -1.5309  -1.2277  -1.2277  -1.1344  -1.1344
    -1.1096  -1.1096  -0.9972  -0.9972  -0.9255  -0.9255  -0.8850  -0.8850

     occupation numbers 
     1.0000   1.0000   1.0000   1.0000   1.0000   1.0000   1.0000   1.0000
     1.0000   1.0000   1.0000   1.0000   1.0000   1.0000   1.0000   1.0000
     1.0000   1.0000   1.0000   1.0000   1.0000   1.0000   1.0000   1.0000
     1.0000   1.0000   1.0000   1.0000   1.0000   1.0000   1.0000   1.0000
     1.0000   1.0000   1.0000   1.0000   1.0000   1.0000   1.0000   1.0000
     1.0000   1.0000   1.0000   1.0000   1.0000   1.0000   1.0000   1.0000
     1.0000   1.0000   1.0000   1.0000   1.0000   1.0000   1.0000   1.0000

          k = 0.0833 0.0833 0.2500 ( 50604 PWs)   bands (ev):

   -23.2731 -23.2731 -23.2731 -23.2731 -23.1409 -23.1409 -23.1409 -23.1409
   -22.2535 -22.2535 -22.2535 -22.2535 -22.1383 -22.1383 -22.1383 -22.1383
   -22.0847 -22.0847 -22.0846 -22.0846 -11.6127 -11.6127 -11.5463 -11.5463
   -11.4848 -11.4848 -11.4804 -11.4804  -7.0550  -7.0550  -6.9094  -6.9094
    -2.6764  -2.6764  -2.5248  -2.5248  -2.1299  -2.1299  -2.0086  -2.0086
    -1.8572  -1.8572  -1.5554  -1.5554  -1.2254  -1.2254  -1.1755  -1.1755
    -1.1329  -1.1329  -1.0251  -1.0251  -0.9358  -0.9358  -0.8984  -0.8984

     occupation numbers 
     1.0000   1.0000   1.0000   1.0000   1.0000   1.0000   1.0000   1.0000
     1.0000   1.0000   1.0000   1.0000   1.0000   1.0000   1.0000   1.0000
     1.0000   1.0000   1.0000   1.0000   1.0000   1.0000   1.0000   1.0000
     1.0000   1.0000   1.0000   1.0000   1.0000   1.0000   1.0000   1.0000
     1.0000   1.0000   1.0000   1.0000   1.0000   1.0000   1.0000   1.0000
     1.0000   1.0000   1.0000   1.0000   1.0000   1.0000   1.0000   1.0000
     1.0000   1.0000   1.0000   1.0000   1.0000   1.0000   1.0000   1.0000

          k = 0.0833 0.0833 0.4167 ( 50628 PWs)   bands (ev):

   -23.2731 -23.2731 -23.2731 -23.2731 -23.1409 -23.1409 -23.1409 -23.1409
   -22.2535 -22.2535 -22.2535 -22.2535 -22.1383 -22.1383 -22.1383 -22.1383
   -22.0847 -22.0847 -22.0847 -22.0847 -11.5915 -11.5915 -11.5669 -11.5669
   -11.4847 -11.4847 -11.4802 -11.4802  -7.0156  -7.0156  -6.9622  -6.9622
    -2.6642  -2.6642  -2.5208  -2.5208  -2.1287  -2.1287  -1.9912  -1.9912
    -1.7907  -1.7907  -1.6123  -1.6123  -1.2242  -1.2242  -1.2043  -1.2043
    -1.1366  -1.1366  -1.0598  -1.0598  -0.9628  -0.9628  -0.9124  -0.9124

     occupation numbers 
     1.0000   1.0000   1.0000   1.0000   1.0000   1.0000   1.0000   1.0000
     1.0000   1.0000   1.0000   1.0000   1.0000   1.0000   1.0000   1.0000
     1.0000   1.0000   1.0000   1.0000   1.0000   1.0000   1.0000   1.0000
     1.0000   1.0000   1.0000   1.0000   1.0000   1.0000   1.0000   1.0000
     1.0000   1.0000   1.0000   1.0000   1.0000   1.0000   1.0000   1.0000
     1.0000   1.0000   1.0000   1.0000   1.0000   1.0000   1.0000   1.0000
     1.0000   1.0000   1.0000   1.0000   1.0000   1.0000   1.0000   1.0000

          k = 0.0833 0.2500 0.2500 ( 50629 PWs)   bands (ev):

   -23.2731 -23.2731 -23.2731 -23.2731 -23.1409 -23.1409 -23.1409 -23.1409
   -22.2535 -22.2535 -22.2535 -22.2535 -22.1383 -22.1383 -22.1383 -22.1383
   -22.0847 -22.0847 -22.0847 -22.0847 -11.5977 -11.5977 -11.5415 -11.5415
   -11.4993 -11.4993 -11.4864 -11.4864  -7.0319  -7.0319  -6.9246  -6.9246
    -2.8237  -2.8237  -2.6496  -2.6496  -2.0999  -2.0999  -1.9424  -1.9424
    -1.8152  -1.8152  -1.5773  -1.5773  -1.2508  -1.2508  -1.1832  -1.1832
    -1.0537  -1.0537  -0.9651  -0.9651  -0.9003  -0.9003  -0.7164  -0.7164

     occupation numbers 
     1.0000   1.0000   1.0000   1.0000   1.0000   1.0000   1.0000   1.0000
     1.0000   1.0000   1.0000   1.0000   1.0000   1.0000   1.0000   1.0000
     1.0000   1.0000   1.0000   1.0000   1.0000   1.0000   1.0000   1.0000
     1.0000   1.0000   1.0000   1.0000   1.0000   1.0000   1.0000   1.0000
     1.0000   1.0000   1.0000   1.0000   1.0000   1.0000   1.0000   1.0000
     1.0000   1.0000   1.0000   1.0000   1.0000   1.0000   1.0000   1.0000
     1.0000   1.0000   1.0000   1.0000   1.0000   1.0000   1.0000   1.0000

          k = 0.0833 0.2500 0.4167 ( 50605 PWs)   bands (ev):

   -23.2731 -23.2731 -23.2731 -23.2731 -23.1409 -23.1409 -23.1409 -23.1409
   -22.2535 -22.2535 -22.2535 -22.2535 -22.1383 -22.1383 -22.1383 -22.1383
   -22.0847 -22.0847 -22.0847 -22.0847 -11.5802 -11.5802 -11.5572 -11.5572
   -11.4992 -11.4992 -11.4874 -11.4874  -7.0051  -7.0051  -6.9644  -6.9644
    -2.8362  -2.8362  -2.6536  -2.6536  -2.0660  -2.0660  -1.8880  -1.8880
    -1.8356  -1.8356  -1.5854  -1.5854  -1.2578  -1.2578  -1.1790  -1.1790
    -1.0690  -1.0690  -0.9811  -0.9811  -0.8936  -0.8936  -0.7157  -0.7157

     occupation numbers 
     1.0000   1.0000   1.0000   1.0000   1.0000   1.0000   1.0000   1.0000
     1.0000   1.0000   1.0000   1.0000   1.0000   1.0000   1.0000   1.0000
     1.0000   1.0000   1.0000   1.0000   1.0000   1.0000   1.0000   1.0000
     1.0000   1.0000   1.0000   1.0000   1.0000   1.0000   1.0000   1.0000
     1.0000   1.0000   1.0000   1.0000   1.0000   1.0000   1.0000   1.0000
     1.0000   1.0000   1.0000   1.0000   1.0000   1.0000   1.0000   1.0000
     1.0000   1.0000   1.0000   1.0000   1.0000   1.0000   1.0000   1.0000

          k = 0.0833 0.4167 0.4167 ( 50639 PWs)   bands (ev):

   -23.2731 -23.2731 -23.2731 -23.2731 -23.1409 -23.1409 -23.1409 -23.1409
   -22.2535 -22.2535 -22.2535 -22.2535 -22.1383 -22.1383 -22.1383 -22.1383
   -22.0847 -22.0847 -22.0847 -22.0847 -11.5614 -11.5614 -11.5482 -11.5482
   -11.5123 -11.5123 -11.5026 -11.5026  -6.9888  -6.9888  -6.9723  -6.9723
    -2.9034  -2.9034  -2.8266  -2.8266  -2.0208  -2.0208  -1.9109  -1.9109
    -1.7869  -1.7869  -1.5873  -1.5873  -1.2452  -1.2452  -1.1987  -1.1987
    -0.9697  -0.9697  -0.9364  -0.9364  -0.7195  -0.7195  -0.5766  -0.5766

     occupation numbers 
     1.0000   1.0000   1.0000   1.0000   1.0000   1.0000   1.0000   1.0000
     1.0000   1.0000   1.0000   1.0000   1.0000   1.0000   1.0000   1.0000
     1.0000   1.0000   1.0000   1.0000   1.0000   1.0000   1.0000   1.0000
     1.0000   1.0000   1.0000   1.0000   1.0000   1.0000   1.0000   1.0000
     1.0000   1.0000   1.0000   1.0000   1.0000   1.0000   1.0000   1.0000
     1.0000   1.0000   1.0000   1.0000   1.0000   1.0000   1.0000   1.0000
     1.0000   1.0000   1.0000   1.0000   1.0000   1.0000   1.0000   1.0000

          k = 0.2500 0.2500 0.2500 ( 50649 PWs)   bands (ev):

   -23.2731 -23.2731 -23.2731 -23.2731 -23.1409 -23.1409 -23.1409 -23.1409
   -22.2535 -22.2535 -22.2535 -22.2535 -22.1383 -22.1383 -22.1383 -22.1383
   -22.0847 -22.0847 -22.0847 -22.0847 -11.5892 -11.5892 -11.5414 -11.5414
   -11.5084 -11.5084 -11.4853 -11.4853  -7.0219  -7.0219  -6.9413  -6.9413
    -2.8820  -2.8820  -2.5368  -2.5368  -2.0972  -2.0972  -1.9281  -1.9281
    -1.8739  -1.8739  -1.6049  -1.6049  -1.2970  -1.2970  -1.2295  -1.2295
    -1.1228  -1.1228  -0.9347  -0.9347  -0.8796  -0.8796  -0.5898  -0.5898

     occupation numbers 
     1.0000   1.0000   1.0000   1.0000   1.0000   1.0000   1.0000   1.0000
     1.0000   1.0000   1.0000   1.0000   1.0000   1.0000   1.0000   1.0000
     1.0000   1.0000   1.0000   1.0000   1.0000   1.0000   1.0000   1.0000
     1.0000   1.0000   1.0000   1.0000   1.0000   1.0000   1.0000   1.0000
     1.0000   1.0000   1.0000   1.0000   1.0000   1.0000   1.0000   1.0000
     1.0000   1.0000   1.0000   1.0000   1.0000   1.0000   1.0000   1.0000
     1.0000   1.0000   1.0000   1.0000   1.0000   1.0000   1.0000   1.0000

          k = 0.2500 0.2500 0.4167 ( 50646 PWs)   bands (ev):

   -23.2731 -23.2731 -23.2731 -23.2731 -23.1409 -23.1409 -23.1409 -23.1409
   -22.2535 -22.2535 -22.2535 -22.2535 -22.1383 -22.1383 -22.1383 -22.1383
   -22.0847 -22.0847 -22.0847 -22.0847 -11.5780 -11.5780 -11.5486 -11.5486
   -11.5115 -11.5115 -11.4852 -11.4852  -7.0060  -7.0060  -6.9705  -6.9705
    -2.8998  -2.8998  -2.5221  -2.5221  -2.1180  -2.1180  -1.8887  -1.8887
    -1.8748  -1.8748  -1.5843  -1.5843  -1.3094  -1.3094  -1.2077  -1.2077
    -1.1222  -1.1222  -0.9290  -0.9290  -0.8694  -0.8694  -0.5794  -0.5794

     occupation numbers 
     1.0000   1.0000   1.0000   1.0000   1.0000   1.0000   1.0000   1.0000
     1.0000   1.0000   1.0000   1.0000   1.0000   1.0000   1.0000   1.0000
     1.0000   1.0000   1.0000   1.0000   1.0000   1.0000   1.0000   1.0000
     1.0000   1.0000   1.0000   1.0000   1.0000   1.0000   1.0000   1.0000
     1.0000   1.0000   1.0000   1.0000   1.0000   1.0000   1.0000   1.0000
     1.0000   1.0000   1.0000   1.0000   1.0000   1.0000   1.0000   1.0000
     1.0000   1.0000   1.0000   1.0000   1.0000   1.0000   1.0000   1.0000

          k = 0.2500 0.4167 0.4167 ( 50647 PWs)   bands (ev):

   -23.2731 -23.2731 -23.2731 -23.2731 -23.1409 -23.1409 -23.1409 -23.1409
   -22.2535 -22.2535 -22.2535 -22.2535 -22.1383 -22.1383 -22.1383 -22.1383
   -22.0847 -22.0847 -22.0847 -22.0847 -11.5684 -11.5684 -11.5541 -11.5541
   -11.5068 -11.5068 -11.4930 -11.4930  -6.9995  -6.9995  -6.9841  -6.9841
    -2.8253  -2.8253  -2.6486  -2.6486  -2.0808  -2.0808  -1.9414  -1.9414
    -1.8240  -1.8240  -1.5903  -1.5903  -1.2938  -1.2938  -1.2372  -1.2372
    -1.0308  -1.0308  -0.8995  -0.8995  -0.8332  -0.8332  -0.7234  -0.7234

     occupation numbers 
     1.0000   1.0000   1.0000   1.0000   1.0000   1.0000   1.0000   1.0000
     1.0000   1.0000   1.0000   1.0000   1.0000   1.0000   1.0000   1.0000
     1.0000   1.0000   1.0000   1.0000   1.0000   1.0000   1.0000   1.0000
     1.0000   1.0000   1.0000   1.0000   1.0000   1.0000   1.0000   1.0000
     1.0000   1.0000   1.0000   1.0000   1.0000   1.0000   1.0000   1.0000
     1.0000   1.0000   1.0000   1.0000   1.0000   1.0000   1.0000   1.0000
     1.0000   1.0000   1.0000   1.0000   1.0000   1.0000   1.0000   1.0000

          k = 0.4167 0.4167 0.4167 ( 50723 PWs)   bands (ev):

   -23.2731 -23.2731 -23.2731 -23.2731 -23.1409 -23.1409 -23.1409 -23.1409
   -22.2535 -22.2535 -22.2535 -22.2535 -22.1383 -22.1383 -22.1383 -22.1383
   -22.0847 -22.0847 -22.0847 -22.0847 -11.5701 -11.5701 -11.5644 -11.5644
   -11.4958 -11.4958 -11.4901 -11.4901  -7.0063  -7.0063  -6.9996  -6.9996
    -2.6460  -2.6460  -2.5237  -2.5237  -2.1166  -2.1166  -1.9831  -1.9831
    -1.8685  -1.8685  -1.6654  -1.6654  -1.3339  -1.3339  -1.2825  -1.2825
    -1.0949  -1.0949  -1.0126  -1.0126  -0.8117  -0.8117  -0.7969  -0.7969

     occupation numbers 
     1.0000   1.0000   1.0000   1.0000   1.0000   1.0000   1.0000   1.0000
     1.0000   1.0000   1.0000   1.0000   1.0000   1.0000   1.0000   1.0000
     1.0000   1.0000   1.0000   1.0000   1.0000   1.0000   1.0000   1.0000
     1.0000   1.0000   1.0000   1.0000   1.0000   1.0000   1.0000   1.0000
     1.0000   1.0000   1.0000   1.0000   1.0000   1.0000   1.0000   1.0000
     1.0000   1.0000   1.0000   1.0000   1.0000   1.0000   1.0000   1.0000
     1.0000   1.0000   1.0000   1.0000   1.0000   1.0000   1.0000   1.0000

          k = 0.0833 0.2500 0.0833 ( 50604 PWs)   bands (ev):

   -23.2731 -23.2731 -23.2731 -23.2731 -23.1409 -23.1409 -23.1409 -23.1409
   -22.2535 -22.2535 -22.2535 -22.2535 -22.1383 -22.1383 -22.1383 -22.1383
   -22.0847 -22.0847 -22.0846 -22.0846 -11.6083 -11.6083 -11.5331 -11.5331
   -11.4988 -11.4988 -11.4856 -11.4856  -7.0449  -7.0449  -6.8984  -6.8984
    -2.8081  -2.8081  -2.6447  -2.6447  -2.1570  -2.1570  -1.9727  -1.9727
    -1.8036  -1.8036  -1.5562  -1.5562  -1.2439  -1.2439  -1.1873  -1.1873
    -1.0400  -1.0400  -0.9573  -0.9573  -0.9029  -0.9029  -0.7163  -0.7163

     occupation numbers 
     1.0000   1.0000   1.0000   1.0000   1.0000   1.0000   1.0000   1.0000
     1.0000   1.0000   1.0000   1.0000   1.0000   1.0000   1.0000   1.0000
     1.0000   1.0000   1.0000   1.0000   1.0000   1.0000   1.0000   1.0000
     1.0000   1.0000   1.0000   1.0000   1.0000   1.0000   1.0000   1.0000
     1.0000   1.0000   1.0000   1.0000   1.0000   1.0000   1.0000   1.0000
     1.0000   1.0000   1.0000   1.0000   1.0000   1.0000   1.0000   1.0000
     1.0000   1.0000   1.0000   1.0000   1.0000   1.0000   1.0000   1.0000

          k = 0.0833 0.4167 0.0833 ( 50628 PWs)   bands (ev):

   -23.2731 -23.2731 -23.2731 -23.2731 -23.1409 -23.1409 -23.1409 -23.1409
   -22.2535 -22.2535 -22.2535 -22.2535 -22.1383 -22.1383 -22.1383 -22.1383
   -22.0847 -22.0847 -22.0847 -22.0847 -11.5794 -11.5794 -11.5480 -11.5480
   -11.5042 -11.5042 -11.4953 -11.4953  -6.9950  -6.9950  -6.9411  -6.9411
    -2.8608  -2.8608  -2.7939  -2.7939  -2.1018  -2.1018  -2.0140  -2.0140
    -1.7069  -1.7069  -1.6070  -1.6070  -1.2699  -1.2699  -1.2456  -1.2456
    -0.9982  -0.9982  -0.9497  -0.9497  -0.7256  -0.7256  -0.5976  -0.5976

     occupation numbers 
     1.0000   1.0000   1.0000   1.0000   1.0000   1.0000   1.0000   1.0000
     1.0000   1.0000   1.0000   1.0000   1.0000   1.0000   1.0000   1.0000
     1.0000   1.0000   1.0000   1.0000   1.0000   1.0000   1.0000   1.0000
     1.0000   1.0000   1.0000   1.0000   1.0000   1.0000   1.0000   1.0000
     1.0000   1.0000   1.0000   1.0000   1.0000   1.0000   1.0000   1.0000
     1.0000   1.0000   1.0000   1.0000   1.0000   1.0000   1.0000   1.0000
     1.0000   1.0000   1.0000   1.0000   1.0000   1.0000   1.0000   1.0000

          k = 0.2500 0.2500 0.0833 ( 50629 PWs)   bands (ev):

   -23.2731 -23.2731 -23.2731 -23.2731 -23.1409 -23.1409 -23.1409 -23.1409
   -22.2535 -22.2535 -22.2535 -22.2535 -22.1383 -22.1383 -22.1383 -22.1383
   -22.0847 -22.0847 -22.0847 -22.0847 -11.5973 -11.5973 -11.5378 -11.5378
   -11.5050 -11.5050 -11.4855 -11.4855  -7.0291  -7.0291  -6.9206  -6.9206
    -2.8604  -2.8604  -2.5530  -2.5530  -2.0864  -2.0864  -1.9813  -1.9813
    -1.8702  -1.8702  -1.5879  -1.5879  -1.2963  -1.2963  -1.2507  -1.2507
    -1.1229  -1.1229  -0.9340  -0.9340  -0.8990  -0.8990  -0.5991  -0.5991

     occupation numbers 
     1.0000   1.0000   1.0000   1.0000   1.0000   1.0000   1.0000   1.0000
     1.0000   1.0000   1.0000   1.0000   1.0000   1.0000   1.0000   1.0000
     1.0000   1.0000   1.0000   1.0000   1.0000   1.0000   1.0000   1.0000
     1.0000   1.0000   1.0000   1.0000   1.0000   1.0000   1.0000   1.0000
     1.0000   1.0000   1.0000   1.0000   1.0000   1.0000   1.0000   1.0000
     1.0000   1.0000   1.0000   1.0000   1.0000   1.0000   1.0000   1.0000
     1.0000   1.0000   1.0000   1.0000   1.0000   1.0000   1.0000   1.0000

          k = 0.2500 0.4167 0.0833 ( 50605 PWs)   bands (ev):

   -23.2731 -23.2731 -23.2731 -23.2731 -23.1409 -23.1409 -23.1409 -23.1409
   -22.2535 -22.2535 -22.2535 -22.2535 -22.1383 -22.1383 -22.1383 -22.1383
   -22.0847 -22.0847 -22.0847 -22.0847 -11.5780 -11.5780 -11.5554 -11.5554
   -11.5004 -11.5004 -11.4915 -11.4915  -6.9982  -6.9982  -6.9581  -6.9581
    -2.7912  -2.7912  -2.6408  -2.6408  -2.0664  -2.0664  -2.0082  -2.0082
    -1.7681  -1.7681  -1.6417  -1.6417  -1.3506  -1.3506  -1.3228  -1.3228
    -1.0350  -1.0350  -0.9335  -0.9335  -0.8591  -0.8591  -0.7094  -0.7094

     occupation numbers 
     1.0000   1.0000   1.0000   1.0000   1.0000   1.0000   1.0000   1.0000
     1.0000   1.0000   1.0000   1.0000   1.0000   1.0000   1.0000   1.0000
     1.0000   1.0000   1.0000   1.0000   1.0000   1.0000   1.0000   1.0000
     1.0000   1.0000   1.0000   1.0000   1.0000   1.0000   1.0000   1.0000
     1.0000   1.0000   1.0000   1.0000   1.0000   1.0000   1.0000   1.0000
     1.0000   1.0000   1.0000   1.0000   1.0000   1.0000   1.0000   1.0000
     1.0000   1.0000   1.0000   1.0000   1.0000   1.0000   1.0000   1.0000

          k = 0.4167 0.0833 0.2500 ( 50605 PWs)   bands (ev):

   -23.2731 -23.2731 -23.2731 -23.2731 -23.1409 -23.1409 -23.1409 -23.1409
   -22.2535 -22.2535 -22.2535 -22.2535 -22.1383 -22.1383 -22.1383 -22.1383
   -22.0847 -22.0847 -22.0847 -22.0847 -11.5722 -11.5722 -11.5466 -11.5466
   -11.5085 -11.5085 -11.4985 -11.4985  -6.9942  -6.9942  -6.9544  -6.9544
    -2.8842  -2.8842  -2.8114  -2.8114  -2.0496  -2.0496  -1.9615  -1.9615
    -1.7569  -1.7569  -1.5943  -1.5943  -1.2606  -1.2606  -1.2261  -1.2261
    -0.9997  -0.9997  -0.9282  -0.9282  -0.7263  -0.7263  -0.5900  -0.5900

     occupation numbers 
     1.0000   1.0000   1.0000   1.0000   1.0000   1.0000   1.0000   1.0000
     1.0000   1.0000   1.0000   1.0000   1.0000   1.0000   1.0000   1.0000
     1.0000   1.0000   1.0000   1.0000   1.0000   1.0000   1.0000   1.0000
     1.0000   1.0000   1.0000   1.0000   1.0000   1.0000   1.0000   1.0000
     1.0000   1.0000   1.0000   1.0000   1.0000   1.0000   1.0000   1.0000
     1.0000   1.0000   1.0000   1.0000   1.0000   1.0000   1.0000   1.0000
     1.0000   1.0000   1.0000   1.0000   1.0000   1.0000   1.0000   1.0000

          k = 0.4167 0.4167 0.0833 ( 50639 PWs)   bands (ev):

   -23.2731 -23.2731 -23.2731 -23.2731 -23.1409 -23.1409 -23.1409 -23.1409
   -22.2535 -22.2535 -22.2535 -22.2535 -22.1383 -22.1383 -22.1383 -22.1383
   -22.0847 -22.0847 -22.0847 -22.0847 -11.5734 -11.5734 -11.5653 -11.5653
   -11.4943 -11.4943 -11.4905 -11.4905  -6.9957  -6.9957  -6.9807  -6.9807
    -2.6362  -2.6362  -2.5427  -2.5427  -2.0240  -2.0240  -1.9618  -1.9618
    -1.8501  -1.8501  -1.7239  -1.7239  -1.4116  -1.4116  -1.4019  -1.4019
    -1.1228  -1.1228  -1.0283  -1.0283  -0.8416  -0.8416  -0.8175  -0.8175

     occupation numbers 
     1.0000   1.0000   1.0000   1.0000   1.0000   1.0000   1.0000   1.0000
     1.0000   1.0000   1.0000   1.0000   1.0000   1.0000   1.0000   1.0000
     1.0000   1.0000   1.0000   1.0000   1.0000   1.0000   1.0000   1.0000
     1.0000   1.0000   1.0000   1.0000   1.0000   1.0000   1.0000   1.0000
     1.0000   1.0000   1.0000   1.0000   1.0000   1.0000   1.0000   1.0000
     1.0000   1.0000   1.0000   1.0000   1.0000   1.0000   1.0000   1.0000
     1.0000   1.0000   1.0000   1.0000   1.0000   1.0000   1.0000   1.0000

          k = 0.2500 0.4167 0.2500 ( 50646 PWs)   bands (ev):

   -23.2731 -23.2731 -23.2731 -23.2731 -23.1409 -23.1409 -23.1409 -23.1409
   -22.2535 -22.2535 -22.2535 -22.2535 -22.1383 -22.1383 -22.1383 -22.1383
   -22.0847 -22.0847 -22.0847 -22.0847 -11.5736 -11.5736 -11.5545 -11.5545
   -11.5035 -11.5035 -11.4922 -11.4922  -7.0002  -7.0002  -6.9698  -6.9698
    -2.8098  -2.8098  -2.6449  -2.6449  -2.0673  -2.0673  -1.9630  -1.9630
    -1.8080  -1.8080  -1.6263  -1.6263  -1.3208  -1.3208  -1.2848  -1.2848
    -1.0288  -1.0288  -0.9172  -0.9172  -0.8471  -0.8471  -0.7150  -0.7150

     occupation numbers 
     1.0000   1.0000   1.0000   1.0000   1.0000   1.0000   1.0000   1.0000
     1.0000   1.0000   1.0000   1.0000   1.0000   1.0000   1.0000   1.0000
     1.0000   1.0000   1.0000   1.0000   1.0000   1.0000   1.0000   1.0000
     1.0000   1.0000   1.0000   1.0000   1.0000   1.0000   1.0000   1.0000
     1.0000   1.0000   1.0000   1.0000   1.0000   1.0000   1.0000   1.0000
     1.0000   1.0000   1.0000   1.0000   1.0000   1.0000   1.0000   1.0000
     1.0000   1.0000   1.0000   1.0000   1.0000   1.0000   1.0000   1.0000

          k = 0.4167 0.4167 0.2500 ( 50647 PWs)   bands (ev):

   -23.2731 -23.2731 -23.2731 -23.2731 -23.1409 -23.1409 -23.1409 -23.1409
   -22.2535 -22.2535 -22.2535 -22.2535 -22.1383 -22.1383 -22.1383 -22.1383
   -22.0847 -22.0847 -22.0847 -22.0847 -11.5718 -11.5718 -11.5648 -11.5648
   -11.4950 -11.4950 -11.4903 -11.4903  -7.0014  -7.0014  -6.9898  -6.9898
    -2.6416  -2.6416  -2.5328  -2.5328  -2.0708  -2.0708  -1.9636  -1.9636
    -1.8649  -1.8649  -1.7017  -1.7017  -1.3738  -1.3738  -1.3540  -1.3540
    -1.0998  -1.0998  -1.0100  -1.0100  -0.8274  -0.8274  -0.8107  -0.8107

     occupation numbers 
     1.0000   1.0000   1.0000   1.0000   1.0000   1.0000   1.0000   1.0000
     1.0000   1.0000   1.0000   1.0000   1.0000   1.0000   1.0000   1.0000
     1.0000   1.0000   1.0000   1.0000   1.0000   1.0000   1.0000   1.0000
     1.0000   1.0000   1.0000   1.0000   1.0000   1.0000   1.0000   1.0000
     1.0000   1.0000   1.0000   1.0000   1.0000   1.0000   1.0000   1.0000
     1.0000   1.0000   1.0000   1.0000   1.0000   1.0000   1.0000   1.0000
     1.0000   1.0000   1.0000   1.0000   1.0000   1.0000   1.0000   1.0000

     highest occupied level (ev):    -0.5766

!    total energy              =   -2370.94304469 Ry
     Harris-Foulkes estimate   =   -2370.94304472 Ry
     estimated scf accuracy    <       0.00000004 Ry

     total all-electron energy =    -81634.465251 Ry

     The total energy is the sum of the following terms:

     one-electron contribution =    -248.68386804 Ry
     hartree contribution      =     145.43199937 Ry
     xc contribution           =    -157.08850469 Ry
     ewald contribution        =    -190.25175950 Ry
     one-center paw contrib.   =   -1920.35091183 Ry
      -> PAW hartree energy AE =     107.23792148 Ry
      -> PAW hartree energy PS =    -106.45333016 Ry
      -> PAW xc energy AE      =    -324.23345078 Ry
      -> PAW xc energy PS      =      46.59374669 Ry
      -> total E_H with PAW    =     146.21659069 Ry
      -> total E_XC with PAW   =    -434.72820878 Ry

     convergence has been achieved in  10 iterations

     Forces acting on atoms (cartesian axes, Ry/au):

     atom    1 type  1   force =     0.00000000    0.00000000    0.00000000
     atom    2 type  1   force =     0.00000000    0.00000000    0.00000000
     atom    3 type  2   force =    -0.01803445   -0.01803445    0.00000000
     atom    4 type  2   force =     0.01803445    0.01803445    0.00000000
     atom    5 type  2   force =    -0.01803445    0.01803445    0.00000000
     atom    6 type  2   force =     0.01803445   -0.01803445    0.00000000
     The non-local contrib.  to forces
     atom    1 type  1   force =     0.00000000    0.00000000    0.00000000
     atom    2 type  1   force =     0.00000000    0.00000000   -0.00000000
     atom    3 type  2   force =    -0.04125608   -0.04125608    0.00000000
     atom    4 type  2   force =     0.04125608    0.04125608    0.00000000
     atom    5 type  2   force =    -0.04125608    0.04125608   -0.00000000
     atom    6 type  2   force =     0.04125608   -0.04125608   -0.00000000
     The ionic contribution  to forces
     atom    1 type  1   force =    -0.00000000   -0.00000000   -0.00000000
     atom    2 type  1   force =     0.00000000    0.00000000    0.00000000
     atom    3 type  2   force =     1.38633657    1.38633657   -0.00000000
     atom    4 type  2   force =    -1.38633657   -1.38633657    0.00000000
     atom    5 type  2   force =     1.38633657   -1.38633657   -0.00000000
     atom    6 type  2   force =    -1.38633657    1.38633657   -0.00000000
     The local contribution  to forces
     atom    1 type  1   force =    -0.00000000    0.00000000    0.00000000
     atom    2 type  1   force =     0.00000000    0.00000000    0.00000000
     atom    3 type  2   force =    -1.36702159   -1.36702159    0.00000000
     atom    4 type  2   force =     1.36702159    1.36702159    0.00000000
     atom    5 type  2   force =    -1.36702159    1.36702159    0.00000000
     atom    6 type  2   force =     1.36702159   -1.36702159    0.00000000
     The core correction contribution to forces
     atom    1 type  1   force =     0.00000000    0.00000000    0.00000000
     atom    2 type  1   force =     0.00000000    0.00000000    0.00000000
     atom    3 type  2   force =     0.00389419    0.00389419   -0.00000000
     atom    4 type  2   force =    -0.00389419   -0.00389419    0.00000000
     atom    5 type  2   force =     0.00389419   -0.00389419    0.00000000
     atom    6 type  2   force =    -0.00389419    0.00389419   -0.00000000
     The Hubbard contrib.    to forces
     atom    1 type  1   force =     0.00000000    0.00000000    0.00000000
     atom    2 type  1   force =     0.00000000    0.00000000    0.00000000
     atom    3 type  2   force =     0.00000000    0.00000000    0.00000000
     atom    4 type  2   force =     0.00000000    0.00000000    0.00000000
     atom    5 type  2   force =     0.00000000    0.00000000    0.00000000
     atom    6 type  2   force =     0.00000000    0.00000000    0.00000000
     The SCF correction term to forces
     atom    1 type  1   force =     0.00000000   -0.00000000   -0.00000000
     atom    2 type  1   force =     0.00000000   -0.00000000    0.00000000
     atom    3 type  2   force =     0.00001245    0.00001245    0.00000000
     atom    4 type  2   force =    -0.00001245   -0.00001245    0.00000000
     atom    5 type  2   force =     0.00001245   -0.00001245    0.00000000
     atom    6 type  2   force =    -0.00001245    0.00001245    0.00000000

     Total force =     0.051009     Total SCF correction =     0.000035


     Computing stress (Cartesian axis) and pressure

     Message from routine stres:
     noncollinear stress + GGA not implemented

     Writing output data file SnI2.save/
 
     init_run     :     23.78s CPU     37.60s WALL (       1 calls)
     electrons    :    625.85s CPU    977.62s WALL (       1 calls)
     forces       :      5.20s CPU      7.21s WALL (       1 calls)

     Called by init_run:
     wfcinit      :     20.82s CPU     33.37s WALL (       1 calls)
     wfcinit:atom :      0.08s CPU      0.09s WALL (      18 calls)
     wfcinit:wfcr :     20.31s CPU     32.60s WALL (      18 calls)
     potinit      :      0.90s CPU      1.39s WALL (       1 calls)
     hinit0       :      0.54s CPU      0.83s WALL (       1 calls)

     Called by electrons:
     c_bands      :    472.03s CPU    730.54s WALL (      10 calls)
     sum_band     :    135.86s CPU    221.45s WALL (      10 calls)
     v_of_rho     :      1.55s CPU      2.43s WALL (      11 calls)
     v_h          :      0.15s CPU      0.23s WALL (      11 calls)
     v_xc         :      1.46s CPU      2.27s WALL (      12 calls)
     newd         :     11.62s CPU     15.65s WALL (      11 calls)
     PAW_pot      :      2.83s CPU      4.10s WALL (      11 calls)
     mix_rho      :      1.62s CPU      2.49s WALL (      10 calls)

     Called by c_bands:
     init_us_2    :      1.86s CPU      2.60s WALL (     396 calls)
     cegterg      :    444.89s CPU    699.07s WALL (     180 calls)

     Called by sum_band:
     sum_band:bec :      2.15s CPU      2.98s WALL (     180 calls)
     addusdens    :      9.86s CPU     12.46s WALL (      10 calls)

     Called by *egterg:
     h_psi        :    338.44s CPU    547.37s WALL (     819 calls)
     s_psi        :      6.78s CPU      7.49s WALL (     819 calls)
     g_psi        :      0.63s CPU      0.65s WALL (     621 calls)
     cdiaghg      :     22.71s CPU     36.99s WALL (     801 calls)
     cegterg:over :     38.49s CPU     54.58s WALL (     621 calls)
     cegterg:upda :     30.47s CPU     43.15s WALL (     621 calls)
     cegterg:last :      5.37s CPU      7.33s WALL (     180 calls)
     cdiaghg:chol :      1.90s CPU      2.81s WALL (     801 calls)
     cdiaghg:inve :      1.21s CPU      1.89s WALL (     801 calls)
     cdiaghg:para :      5.27s CPU      8.66s WALL (    1602 calls)

     Called by h_psi:
     h_psi:pot    :    337.20s CPU    545.95s WALL (     819 calls)
     h_psi:calbec :      9.76s CPU     11.50s WALL (     819 calls)
     vloc_psi     :    320.09s CPU    526.19s WALL (     819 calls)
     add_vuspsi   :      7.36s CPU      8.25s WALL (     819 calls)

     General routines
     calbec       :     15.51s CPU     19.07s WALL (    1071 calls)
     fft          :      3.45s CPU      5.64s WALL (     242 calls)
     ffts         :      1.29s CPU      2.38s WALL (      84 calls)
     fftw         :    402.79s CPU    686.07s WALL (  136592 calls)
     interpolate  :      1.21s CPU      2.16s WALL (      44 calls)
 
     Parallel routines
     fft_scatt_xy :     15.70s CPU     19.00s WALL (  136918 calls)
     fft_scatt_yz :    325.94s CPU    584.12s WALL (  136918 calls)

     PAW routines
     PAW_pot      :      2.83s CPU      4.10s WALL (      11 calls)
     PAW_symme    :      0.19s CPU      0.31s WALL (      21 calls)
 
     PWSCF        :  11m 2.73s CPU  17m13.19s WALL

 
   This run was terminated on:  19: 6:10  23Jan2021            

=------------------------------------------------------------------------------=
   JOB DONE.
=------------------------------------------------------------------------------=
