
     Program PWSCF v.6.4.1 starts on 23Jan2021 at 10:34:18 

     This program is part of the open-source Quantum ESPRESSO suite
     for quantum simulation of materials; please cite
         "P. Giannozzi et al., J. Phys.:Condens. Matter 21 395502 (2009);
         "P. Giannozzi et al., J. Phys.:Condens. Matter 29 465901 (2017);
          URL http://www.quantum-espresso.org", 
     in publications or presentations arising from this work. More details at
     http://www.quantum-espresso.org/quote

     Parallel version (MPI & OpenMP), running on      48 processor cores
     Number of MPI processes:                24
     Threads/MPI process:                     2

     MPI processes distributed on     1 nodes
     R & G space division:  proc/nbgrp/npool/nimage =      24
     Waiting for input...
     Reading input from standard input

     Current dimensions of program PWSCF are:
     Max number of different atomic species (ntypx) = 10
     Max number of k-points (npk) =  40000
     Max angular momentum in pseudopotentials (lmaxx) =  3
               file Cs.rel-pbesol-spn-kjpaw_psl.1.0.0.UPF: wavefunction(s)  5S 6S renormalized
               file Sn.rel-pbesol-dn-kjpaw_psl.1.0.0.UPF: wavefunction(s)  5S 5P 5P 4D 4D renormalized
               file I.rel-pbesol-n-kjpaw_psl.1.0.0.UPF: wavefunction(s)  5S renormalized

     Subspace diagonalization in iterative solution of the eigenvalue problem:
     one sub-group per band group will be used
     scalapack distributed-memory algorithm (size of sub-group:  3*  3 procs)

 
     Parallelization info
     --------------------
     sticks:   dense  smooth     PW     G-vecs:    dense   smooth      PW
     Min         369     245     63                65885    35841    4747
     Max         370     246     65                65892    35848    4753
     Sum        8865    5903   1535              1581291   860245  113985
 

     Title: 
     CsSnI3                                                                     


     bravais-lattice index     =            8
     lattice parameter (alat)  =       9.1317  a.u.
     unit-cell volume          =    6370.5385 (a.u.)^3
     number of atoms/cell      =           20
     number of atomic types    =            3
     number of electrons       =       176.00
     number of Kohn-Sham states=          176
     kinetic-energy cutoff     =     100.0000  Ry
     charge density cutoff     =     600.0000  Ry
     convergence threshold     =      1.0E-06
     mixing beta               =       0.3500
     number of iterations used =            8  plain     mixing
     Exchange-correlation      = SLA PW PSX PSC ( 1  4 10  8 0 0)
     Non magnetic calculation with spin-orbit


     celldm(1)=   9.131705  celldm(2)=   2.227728  celldm(3)=   3.755420
     celldm(4)=   0.000000  celldm(5)=   0.000000  celldm(6)=   0.000000

     crystal axes: (cart. coord. in units of alat)
               a(1) = (   1.000000   0.000000   0.000000 )  
               a(2) = (   0.000000   2.227728   0.000000 )  
               a(3) = (   0.000000   0.000000   3.755420 )  

     reciprocal axes: (cart. coord. in units 2 pi/alat)
               b(1) = (  1.000000  0.000000  0.000000 )  
               b(2) = (  0.000000  0.448888  0.000000 )  
               b(3) = (  0.000000  0.000000  0.266282 )  


     PseudoPot. # 1 for Cs read from file:
     /marconi_scratch/userexternal/cmalosso/degironcoli/pseudo/Cs.rel-pbesol-spn-kjpaw_psl.1.0.0.UPF
     MD5 check sum: 2adfb289dd462649b099d7edbec69378
     Pseudo is Projector augmented-wave + core cor, Zval =  9.0
     Generated using "atomic" code by A. Dal Corso v.6.4.1
     Shape of augmentation charge: PSQ
     Using radial grid of 1251 points, 15 beta functions with: 
                l(1) =   0
                l(2) =   0
                l(3) =   0
                l(4) =   1
                l(5) =   1
                l(6) =   1
                l(7) =   1
                l(8) =   2
                l(9) =   2
               l(10) =   2
               l(11) =   2
               l(12) =   3
               l(13) =   3
               l(14) =   3
               l(15) =   3
     Q(r) pseudized with 0 coefficients 


     PseudoPot. # 2 for Sn read from file:
     /marconi_scratch/userexternal/cmalosso/degironcoli/pseudo/Sn.rel-pbesol-dn-kjpaw_psl.1.0.0.UPF
     MD5 check sum: e69eff64f15ae39ad43ef58bacbfdf88
     Pseudo is Projector augmented-wave + core cor, Zval = 14.0
     Generated using "atomic" code by A. Dal Corso v.6.3
     Shape of augmentation charge: PSQ
     Using radial grid of 1243 points, 10 beta functions with: 
                l(1) =   0
                l(2) =   0
                l(3) =   1
                l(4) =   1
                l(5) =   1
                l(6) =   1
                l(7) =   2
                l(8) =   2
                l(9) =   2
               l(10) =   2
     Q(r) pseudized with 0 coefficients 


     PseudoPot. # 3 for I  read from file:
     /marconi_scratch/userexternal/cmalosso/degironcoli/pseudo/I.rel-pbesol-n-kjpaw_psl.1.0.0.UPF
     MD5 check sum: 4478c427bd443f303eca1937a163b991
     Pseudo is Projector augmented-wave + core cor, Zval =  7.0
     Generated using "atomic" code by A. Dal Corso v.6.3
     Shape of augmentation charge: PSQ
     Using radial grid of 1247 points, 10 beta functions with: 
                l(1) =   0
                l(2) =   0
                l(3) =   1
                l(4) =   1
                l(5) =   1
                l(6) =   1
                l(7) =   2
                l(8) =   2
                l(9) =   2
               l(10) =   2
     Q(r) pseudized with 0 coefficients 


     atomic species   valence    mass     pseudopotential
        Cs             9.00   132.90000     Cs( 1.00)
        Sn            14.00   118.70000     Sn( 1.00)
        I              7.00   126.90000     I ( 1.00)

      8 Sym. Ops., with inversion, found ( 6 have fractional translation)


                                    s                        frac. trans.

      isym =  1     identity                                     

 cryst.   s( 1) = (     1          0          0      )
                  (     0          1          0      )
                  (     0          0          1      )

 cart.    s( 1) = (  1.0000000  0.0000000  0.0000000 )
                  (  0.0000000  1.0000000  0.0000000 )
                  (  0.0000000  0.0000000  1.0000000 )


      isym =  2     180 deg rotation - cart. axis [0,0,1]        

 cryst.   s( 2) = (    -1          0          0      )    f =(  0.0000000 )
                  (     0         -1          0      )       (  0.5000000 )
                  (     0          0          1      )       (  0.5000000 )

 cart.    s( 2) = ( -1.0000000  0.0000000  0.0000000 )    f =(  0.0000000 )
                  (  0.0000000 -1.0000000  0.0000000 )       (  1.1138638 )
                  (  0.0000000  0.0000000  1.0000000 )       (  1.8777098 )


      isym =  3     180 deg rotation - cart. axis [0,1,0]        

 cryst.   s( 3) = (    -1          0          0      )    f =(  0.5000000 )
                  (     0          1          0      )       ( -0.5000000 )
                  (     0          0         -1      )       ( -0.5000000 )

 cart.    s( 3) = ( -1.0000000  0.0000000  0.0000000 )    f =(  0.5000000 )
                  (  0.0000000  1.0000000  0.0000000 )       ( -1.1138638 )
                  (  0.0000000  0.0000000 -1.0000000 )       ( -1.8777098 )


      isym =  4     180 deg rotation - cart. axis [1,0,0]        

 cryst.   s( 4) = (     1          0          0      )    f =( -0.5000000 )
                  (     0         -1          0      )       (  0.0000000 )
                  (     0          0         -1      )       (  0.0000000 )

 cart.    s( 4) = (  1.0000000  0.0000000  0.0000000 )    f =( -0.5000000 )
                  (  0.0000000 -1.0000000  0.0000000 )       (  0.0000000 )
                  (  0.0000000  0.0000000 -1.0000000 )       (  0.0000000 )


      isym =  5     inversion                                    

 cryst.   s( 5) = (    -1          0          0      )
                  (     0         -1          0      )
                  (     0          0         -1      )

 cart.    s( 5) = ( -1.0000000  0.0000000  0.0000000 )
                  (  0.0000000 -1.0000000  0.0000000 )
                  (  0.0000000  0.0000000 -1.0000000 )


      isym =  6     inv. 180 deg rotation - cart. axis [0,0,1]   

 cryst.   s( 6) = (     1          0          0      )    f =(  0.0000000 )
                  (     0          1          0      )       ( -0.5000000 )
                  (     0          0         -1      )       ( -0.5000000 )

 cart.    s( 6) = (  1.0000000  0.0000000  0.0000000 )    f =(  0.0000000 )
                  (  0.0000000  1.0000000  0.0000000 )       ( -1.1138638 )
                  (  0.0000000  0.0000000 -1.0000000 )       ( -1.8777098 )


      isym =  7     inv. 180 deg rotation - cart. axis [0,1,0]   

 cryst.   s( 7) = (     1          0          0      )    f =( -0.5000000 )
                  (     0         -1          0      )       (  0.5000000 )
                  (     0          0          1      )       (  0.5000000 )

 cart.    s( 7) = (  1.0000000  0.0000000  0.0000000 )    f =( -0.5000000 )
                  (  0.0000000 -1.0000000  0.0000000 )       (  1.1138638 )
                  (  0.0000000  0.0000000  1.0000000 )       (  1.8777098 )


      isym =  8     inv. 180 deg rotation - cart. axis [1,0,0]   

 cryst.   s( 8) = (    -1          0          0      )    f =(  0.5000000 )
                  (     0          1          0      )       (  0.0000000 )
                  (     0          0          1      )       (  0.0000000 )

 cart.    s( 8) = ( -1.0000000  0.0000000  0.0000000 )    f =(  0.5000000 )
                  (  0.0000000  1.0000000  0.0000000 )       (  0.0000000 )
                  (  0.0000000  0.0000000  1.0000000 )       (  0.0000000 )


     double point group D_2h (mmm) 
     there are 10 classes and  2 irreducible representations
     the character table:

       E     -E     C2    C2'  C2''  i     -i     s_v   s_v' s_v''
                   -C2   -C2'  -C2''             -s_v  -s_v' -s_v'
G_5+   2.00 -2.00  0.00  0.00  0.00  2.00 -2.00  0.00  0.00  0.00
G_5-   2.00 -2.00  0.00  0.00  0.00 -2.00  2.00  0.00  0.00  0.00

     the symmetry operations in each class and the name of the first element:

     E             1
          identity                                               
     -E           -1
          identity E                                             
      C2  -C2      2   -2
          180 deg rotation - cart. axis [0,0,1]                  
      C2' -C2'     4   -4
          180 deg rotation - cart. axis [1,0,0]                  
     C2'' -C2''    3   -3
          180 deg rotation - cart. axis [0,1,0]                  
     i             5
          inversion                                              
     -i           -5
          inversion E                                            
      s_v -s_v     6   -6
          inv. 180 deg rotation - cart. axis [0,0,1]             
      s_v'-s_v'    8   -8
          inv. 180 deg rotation - cart. axis [1,0,0]             
     s_v''-s_v'    7   -7
          inv. 180 deg rotation - cart. axis [0,1,0]             

   Cartesian axes

     site n.     atom                  positions (alat units)
         1           Cs  tau(   1) = (   0.2500000   0.1859640   2.5168147  )
         2           Cs  tau(   2) = (   0.7500000   2.0417636   1.2386050  )
         3           Cs  tau(   3) = (   0.2500000   1.2998278   3.1163149  )
         4           Cs  tau(   4) = (   0.7500000   0.9278998   0.6391048  )
         5           Sn  tau(   5) = (   0.2500000   0.7615710   1.6485466  )
         6           Sn  tau(   6) = (   0.7500000   1.4661567   2.1068731  )
         7           Sn  tau(   7) = (   0.2500000   1.8754348   0.2291632  )
         8           Sn  tau(   8) = (   0.7500000   0.3522928   3.5262565  )
         9           I   tau(   9) = (   0.7500000   0.0581437   0.4202578  )
        10           I   tau(  10) = (   0.2500000   2.1695839   3.3351619  )
        11           I   tau(  11) = (   0.7500000   1.1720075   1.4574521  )
        12           I   tau(  12) = (   0.2500000   1.0557201   2.2979676  )
        13           I   tau(  13) = (   0.7500000   0.6531118   2.9738192  )
        14           I   tau(  14) = (   0.2500000   1.5746158   0.7816005  )
        15           I   tau(  15) = (   0.7500000   1.7669756   2.6593103  )
        16           I   tau(  16) = (   0.2500000   0.4607520   1.0961094  )
        17           I   tau(  17) = (   0.7500000   0.3753632   1.8734812  )
        18           I   tau(  18) = (   0.2500000   1.8523644   1.8819384  )
        19           I   tau(  19) = (   0.7500000   1.4892270   0.0042286  )
        20           I   tau(  20) = (   0.2500000   0.7385006   3.7511911  )

   Crystallographic axes

     site n.     atom                  positions (cryst. coord.)
         1           Cs  tau(   1) = (  0.2500000  0.0834770  0.6701820  )
         2           Cs  tau(   2) = (  0.7500000  0.9165230  0.3298180  )
         3           Cs  tau(   3) = (  0.2500000  0.5834770  0.8298180  )
         4           Cs  tau(   4) = (  0.7500000  0.4165230  0.1701820  )
         5           Sn  tau(   5) = (  0.2500000  0.3418600  0.4389780  )
         6           Sn  tau(   6) = (  0.7500000  0.6581400  0.5610220  )
         7           Sn  tau(   7) = (  0.2500000  0.8418600  0.0610220  )
         8           Sn  tau(   8) = (  0.7500000  0.1581400  0.9389780  )
         9           I   tau(   9) = (  0.7500000  0.0261000  0.1119070  )
        10           I   tau(  10) = (  0.2500000  0.9739000  0.8880930  )
        11           I   tau(  11) = (  0.7500000  0.5261000  0.3880930  )
        12           I   tau(  12) = (  0.2500000  0.4739000  0.6119070  )
        13           I   tau(  13) = (  0.7500000  0.2931740  0.7918740  )
        14           I   tau(  14) = (  0.2500000  0.7068260  0.2081260  )
        15           I   tau(  15) = (  0.7500000  0.7931740  0.7081260  )
        16           I   tau(  16) = (  0.2500000  0.2068260  0.2918740  )
        17           I   tau(  17) = (  0.7500000  0.1684960  0.4988740  )
        18           I   tau(  18) = (  0.2500000  0.8315040  0.5011260  )
        19           I   tau(  19) = (  0.7500000  0.6684960  0.0011260  )
        20           I   tau(  20) = (  0.2500000  0.3315040  0.9988740  )

     number of k points=     1
                       cart. coord. in units 2pi/alat
        k(    1) = (   0.2500000   0.1122220   0.0665705), wk =   1.0000000

                       cryst. coord.
        k(    1) = (   0.2500000   0.2500000   0.2500000), wk =   1.0000000

     Dense  grid:  1581291 G-vectors     FFT dimensions: (  72, 160, 270)

     Smooth grid:   860245 G-vectors     FFT dimensions: (  60, 144, 240)

     Dynamical RAM for                 wfc:      24.07 MB

     Dynamical RAM for     wfc (w. buffer):      24.07 MB

     Dynamical RAM for           str. fact:       3.02 MB

     Dynamical RAM for           local pot:       0.00 MB

     Dynamical RAM for          nlocal pot:      54.44 MB

     Dynamical RAM for                qrad:      68.50 MB

     Dynamical RAM for          rho,v,vnew:      24.72 MB

     Dynamical RAM for               rhoin:       8.24 MB

     Dynamical RAM for            rho*nmix:      64.34 MB

     Dynamical RAM for           G-vectors:       4.04 MB

     Dynamical RAM for          h,s,v(r/c):       2.51 MB

     Dynamical RAM for          <psi|beta>:       4.28 MB

     Dynamical RAM for                 psi:      96.29 MB

     Dynamical RAM for                hpsi:      96.29 MB

     Dynamical RAM for                spsi:      96.29 MB

     Dynamical RAM for      wfcinit/wfcrot:      43.67 MB

     Dynamical RAM for           addusdens:    2066.01 MB

     Dynamical RAM for          addusforce:    2113.68 MB

     Dynamical RAM for         addusstress:    2084.10 MB

     Estimated static dynamical RAM per process >     263.84 MB

     Estimated max dynamical RAM per process >       2.32 GB

     Estimated total dynamical RAM >      55.72 GB

     Initial potential from superposition of free atoms

     starting charge  175.84163, renormalised to  176.00000
     Starting wfcs are  208 randomized atomic wfcs
     Checking if some PAW data can be deallocated... 
       PAW data deallocated on   16 nodes for type:  1
       PAW data deallocated on   20 nodes for type:  2
       PAW data deallocated on   12 nodes for type:  3

     total cpu time spent up to now is       42.3 secs

     Self-consistent Calculation

     iteration #  1     ecut=   100.00 Ry     beta= 0.35
     Davidson diagonalization with overlap
     ethr =  1.00E-02,  avg # of iterations =  1.0

     Threshold (ethr) on eigenvalues was too large:
     Diagonalizing with lowered threshold

     Davidson diagonalization with overlap
     ethr =  3.18E-04,  avg # of iterations = 13.0

     negative rho (up, down):  1.888E+03 0.000E+00

     total cpu time spent up to now is      211.7 secs

     total energy              =  -11205.12331577 Ry
     Harris-Foulkes estimate   =   -7900.75382798 Ry
     estimated scf accuracy    < 6200022.70606661 Ry

     iteration #  2     ecut=   100.00 Ry     beta= 0.35
     Davidson diagonalization with overlap
     ethr =  1.00E-02,  avg # of iterations = 18.0

     negative rho (up, down):  2.201E+03 0.000E+00

     total cpu time spent up to now is      464.6 secs

     total energy              =  -66083.91546645 Ry
     Harris-Foulkes estimate   =  -60492.15107526 Ry
     estimated scf accuracy    <  318309.54421847 Ry

     iteration #  3     ecut=   100.00 Ry     beta= 0.35
     Davidson diagonalization with overlap
     ethr =  1.00E-02,  avg # of iterations = 14.0

     negative rho (up, down):  5.048E+03 0.000E+00

     total cpu time spent up to now is      619.7 secs

     total energy              = -185334.50531529 Ry
     Harris-Foulkes estimate   = -109327.81974735 Ry
     estimated scf accuracy    < 3562202.88654120 Ry

     iteration #  4     ecut=   100.00 Ry     beta= 0.35
     Davidson diagonalization with overlap
     ethr =  1.00E-02,  avg # of iterations = 22.0

     negative rho (up, down):  5.719E+03 0.000E+00

     total cpu time spent up to now is      812.7 secs

     total energy              = -181634.15899307 Ry
     Harris-Foulkes estimate   = -186493.10635241 Ry
     estimated scf accuracy    <  339543.83341524 Ry

     iteration #  5     ecut=   100.00 Ry     beta= 0.35
     Davidson diagonalization with overlap
     ethr =  1.00E-02,  avg # of iterations =  8.0

     negative rho (up, down):  5.576E+03 0.000E+00

     total cpu time spent up to now is      917.6 secs

     total energy              = -174096.23279090 Ry
     Harris-Foulkes estimate   = -181667.58960521 Ry
     estimated scf accuracy    <   79518.12660152 Ry

     iteration #  6     ecut=   100.00 Ry     beta= 0.35
     Davidson diagonalization with overlap
     ethr =  1.00E-02,  avg # of iterations =  5.0

     negative rho (up, down):  5.170E+03 0.000E+00

     total cpu time spent up to now is     1032.8 secs

     total energy              = -174733.61540948 Ry
     Harris-Foulkes estimate   = -174237.56163120 Ry
     estimated scf accuracy    <   91493.29939683 Ry

     iteration #  7     ecut=   100.00 Ry     beta= 0.35
     Davidson diagonalization with overlap
     ethr =  1.00E-02,  avg # of iterations = 16.0

     negative rho (up, down):  4.752E+03 0.000E+00

     total cpu time spent up to now is     1146.8 secs

     total energy              = -175031.00551125 Ry
     Harris-Foulkes estimate   = -174768.58323746 Ry
     estimated scf accuracy    <  243579.89542808 Ry

     iteration #  8     ecut=   100.00 Ry     beta= 0.35
     Davidson diagonalization with overlap
     ethr =  1.00E-02,  avg # of iterations =  3.0

     negative rho (up, down):  5.522E+03 0.000E+00

     total cpu time spent up to now is     1236.4 secs

     total energy              = -174073.60945324 Ry
     Harris-Foulkes estimate   = -175045.39680106 Ry
     estimated scf accuracy    <  474950.66899983 Ry

     iteration #  9     ecut=   100.00 Ry     beta= 0.35
     Davidson diagonalization with overlap
     ethr =  1.00E-02,  avg # of iterations =  5.0

     negative rho (up, down):  5.854E+03 0.000E+00

     total cpu time spent up to now is     1343.5 secs

     total energy              = -173902.53461082 Ry
     Harris-Foulkes estimate   = -174126.17861674 Ry
     estimated scf accuracy    <  108050.11393326 Ry

     iteration # 10     ecut=   100.00 Ry     beta= 0.35
     Davidson diagonalization with overlap
     ethr =  1.00E-02,  avg # of iterations =  8.0

     negative rho (up, down):  5.853E+03 0.000E+00

     total cpu time spent up to now is     1442.2 secs

     total energy              = -173913.30269559 Ry
     Harris-Foulkes estimate   = -173912.92065611 Ry
     estimated scf accuracy    <   30408.00556274 Ry

     iteration # 11     ecut=   100.00 Ry     beta= 0.35
     Davidson diagonalization with overlap
     ethr =  1.00E-02,  avg # of iterations =  1.0

     negative rho (up, down):  6.236E+03 0.000E+00

     total cpu time spent up to now is     1513.5 secs

     total energy              = -174011.38772093 Ry
     Harris-Foulkes estimate   = -173913.41589922 Ry
     estimated scf accuracy    <   30468.30571129 Ry

     iteration # 12     ecut=   100.00 Ry     beta= 0.35
     Davidson diagonalization with overlap
     ethr =  1.00E-02,  avg # of iterations = 12.0

     negative rho (up, down):  6.211E+03 0.000E+00

     total cpu time spent up to now is     1635.0 secs

     total energy              = -173731.53276788 Ry
     Harris-Foulkes estimate   = -174050.30200744 Ry
     estimated scf accuracy    <     374.89310148 Ry

     iteration # 13     ecut=   100.00 Ry     beta= 0.35
     Davidson diagonalization with overlap
     ethr =  1.00E-02,  avg # of iterations = 11.0

     negative rho (up, down):  6.214E+03 0.000E+00

     total cpu time spent up to now is     1756.2 secs

     total energy              = -173834.64677229 Ry
     Harris-Foulkes estimate   = -173878.11775716 Ry
     estimated scf accuracy    <      80.97186624 Ry

     iteration # 14     ecut=   100.00 Ry     beta= 0.35
     Davidson diagonalization with overlap
     ethr =  1.00E-02,  avg # of iterations =  2.0

     negative rho (up, down):  6.217E+03 0.000E+00

     total cpu time spent up to now is     1828.5 secs

     total energy              = -173803.01508167 Ry
     Harris-Foulkes estimate   = -173834.96272119 Ry
     estimated scf accuracy    <      36.46217741 Ry

     iteration # 15     ecut=   100.00 Ry     beta= 0.35
     Davidson diagonalization with overlap
     ethr =  1.00E-02,  avg # of iterations =  2.0

     negative rho (up, down):  6.219E+03 0.000E+00

     total cpu time spent up to now is     1902.9 secs

     total energy              = -173800.33518792 Ry
     Harris-Foulkes estimate   = -173803.67474508 Ry
     estimated scf accuracy    <       4.27057031 Ry

     iteration # 16     ecut=   100.00 Ry     beta= 0.35
     Davidson diagonalization with overlap
     ethr =  2.43E-03,  avg # of iterations = 10.0

     negative rho (up, down):  6.218E+03 0.000E+00

     total cpu time spent up to now is     1998.7 secs

     total energy              = -173803.58539542 Ry
     Harris-Foulkes estimate   = -173803.54986317 Ry
     estimated scf accuracy    <       0.89030997 Ry

     iteration # 17     ecut=   100.00 Ry     beta= 0.35
     Davidson diagonalization with overlap
     ethr =  5.06E-04,  avg # of iterations =  5.0

     negative rho (up, down):  6.218E+03 0.000E+00

     total cpu time spent up to now is     2083.6 secs

     total energy              = -173803.67602593 Ry
     Harris-Foulkes estimate   = -173803.67963849 Ry
     estimated scf accuracy    <       0.09746235 Ry

     iteration # 18     ecut=   100.00 Ry     beta= 0.35
     Davidson diagonalization with overlap
     ethr =  5.54E-05,  avg # of iterations = 10.0

     negative rho (up, down):  6.218E+03 0.000E+00

     total cpu time spent up to now is     2194.2 secs

     total energy              = -173803.80312421 Ry
     Harris-Foulkes estimate   = -173803.74667258 Ry
     estimated scf accuracy    <       0.07800906 Ry

     iteration # 19     ecut=   100.00 Ry     beta= 0.35
     Davidson diagonalization with overlap
     ethr =  4.43E-05,  avg # of iterations =  3.0

     negative rho (up, down):  6.218E+03 0.000E+00

     total cpu time spent up to now is     2274.5 secs

     total energy              = -173803.71690155 Ry
     Harris-Foulkes estimate   = -173803.81096610 Ry
     estimated scf accuracy    <       2.10913903 Ry

     iteration # 20     ecut=   100.00 Ry     beta= 0.35
     Davidson diagonalization with overlap
     ethr =  4.43E-05,  avg # of iterations =  2.0

     negative rho (up, down):  6.218E+03 0.000E+00

     total cpu time spent up to now is     2343.1 secs

     total energy              = -173803.70411324 Ry
     Harris-Foulkes estimate   = -173803.72353222 Ry
     estimated scf accuracy    <       0.19237913 Ry

     iteration # 21     ecut=   100.00 Ry     beta= 0.35
     Davidson diagonalization with overlap
     ethr =  4.43E-05,  avg # of iterations =  8.0

     negative rho (up, down):  6.218E+03 0.000E+00

     total cpu time spent up to now is     2422.1 secs

     total energy              = -173803.72725348 Ry
     Harris-Foulkes estimate   = -173803.71689972 Ry
     estimated scf accuracy    <       0.01292998 Ry

     iteration # 22     ecut=   100.00 Ry     beta= 0.35
     Davidson diagonalization with overlap
     ethr =  7.35E-06,  avg # of iterations = 10.0

     negative rho (up, down):  6.218E+03 0.000E+00

     total cpu time spent up to now is     2518.6 secs

     total energy              = -173803.74321865 Ry
     Harris-Foulkes estimate   = -173803.73899693 Ry
     estimated scf accuracy    <       0.40623669 Ry

     iteration # 23     ecut=   100.00 Ry     beta= 0.35
     Davidson diagonalization with overlap
     ethr =  7.35E-06,  avg # of iterations =  2.0

     negative rho (up, down):  6.218E+03 0.000E+00

     total cpu time spent up to now is     2589.4 secs

     total energy              = -173803.74122858 Ry
     Harris-Foulkes estimate   = -173803.74432443 Ry
     estimated scf accuracy    <       0.10824448 Ry

     iteration # 24     ecut=   100.00 Ry     beta= 0.35
     Davidson diagonalization with overlap
     ethr =  7.35E-06,  avg # of iterations =  4.0

     negative rho (up, down):  6.218E+03 0.000E+00

     total cpu time spent up to now is     2654.8 secs

     total energy              = -173803.73581496 Ry
     Harris-Foulkes estimate   = -173803.74233747 Ry
     estimated scf accuracy    <       0.03048028 Ry

     iteration # 25     ecut=   100.00 Ry     beta= 0.35
     Davidson diagonalization with overlap
     ethr =  7.35E-06,  avg # of iterations =  4.0

     negative rho (up, down):  6.218E+03 0.000E+00

     total cpu time spent up to now is     2719.3 secs

     total energy              = -173803.72833629 Ry
     Harris-Foulkes estimate   = -173803.73738101 Ry
     estimated scf accuracy    <       0.02229539 Ry

     iteration # 26     ecut=   100.00 Ry     beta= 0.35
     Davidson diagonalization with overlap
     ethr =  7.35E-06,  avg # of iterations =  5.0

     negative rho (up, down):  6.218E+03 0.000E+00

     total cpu time spent up to now is     2789.5 secs

     total energy              = -173803.72944446 Ry
     Harris-Foulkes estimate   = -173803.73055719 Ry
     estimated scf accuracy    <       0.00134321 Ry

     iteration # 27     ecut=   100.00 Ry     beta= 0.35
     Davidson diagonalization with overlap
     ethr =  7.63E-07,  avg # of iterations =  7.0

     negative rho (up, down):  6.218E+03 0.000E+00

     total cpu time spent up to now is     2876.6 secs

     total energy              = -173803.73398424 Ry
     Harris-Foulkes estimate   = -173803.73072797 Ry
     estimated scf accuracy    <       0.02035331 Ry

     iteration # 28     ecut=   100.00 Ry     beta= 0.35
     Davidson diagonalization with overlap
     ethr =  7.63E-07,  avg # of iterations =  5.0

     negative rho (up, down):  6.218E+03 0.000E+00

     total cpu time spent up to now is     2957.2 secs

     total energy              = -173803.74751403 Ry
     Harris-Foulkes estimate   = -173803.73917854 Ry
     estimated scf accuracy    <       0.08682608 Ry

     iteration # 29     ecut=   100.00 Ry     beta= 0.35
     Davidson diagonalization with overlap
     ethr =  7.63E-07,  avg # of iterations =  4.0

     negative rho (up, down):  6.218E+03 0.000E+00

     total cpu time spent up to now is     3043.7 secs

     total energy              = -173803.76159427 Ry
     Harris-Foulkes estimate   = -173803.75197806 Ry
     estimated scf accuracy    <       0.05008330 Ry

     iteration # 30     ecut=   100.00 Ry     beta= 0.35
     Davidson diagonalization with overlap
     ethr =  7.63E-07,  avg # of iterations =  4.0

     negative rho (up, down):  6.218E+03 0.000E+00

     total cpu time spent up to now is     3131.4 secs

     total energy              = -173803.74229112 Ry
     Harris-Foulkes estimate   = -173803.76718202 Ry
     estimated scf accuracy    <       0.05026256 Ry

     iteration # 31     ecut=   100.00 Ry     beta= 0.35
     Davidson diagonalization with overlap
     ethr =  7.63E-07,  avg # of iterations =  7.0

     negative rho (up, down):  6.218E+03 0.000E+00

     total cpu time spent up to now is     3233.1 secs

     total energy              = -173803.79970852 Ry
     Harris-Foulkes estimate   = -173803.80719170 Ry
     estimated scf accuracy    <       0.00006211 Ry

     iteration # 32     ecut=   100.00 Ry     beta= 0.35
     Davidson diagonalization with overlap
     ethr =  3.53E-08,  avg # of iterations = 12.0

     negative rho (up, down):  6.218E+03 0.000E+00

     total cpu time spent up to now is     3356.1 secs

     total energy              = -173803.82139128 Ry
     Harris-Foulkes estimate   = -173803.82168867 Ry
     estimated scf accuracy    <       0.00007237 Ry

     iteration # 33     ecut=   100.00 Ry     beta= 0.35
     Davidson diagonalization with overlap
     ethr =  3.53E-08,  avg # of iterations =  8.0

     negative rho (up, down):  6.218E+03 0.000E+00

     total cpu time spent up to now is     3428.1 secs

     total energy              = -173803.82288857 Ry
     Harris-Foulkes estimate   = -173803.82142283 Ry
     estimated scf accuracy    <       0.00036255 Ry

     iteration # 34     ecut=   100.00 Ry     beta= 0.35
     Davidson diagonalization with overlap
     ethr =  3.53E-08,  avg # of iterations =  5.0

     negative rho (up, down):  6.218E+03 0.000E+00

     total cpu time spent up to now is     3513.2 secs

     total energy              = -173803.82030335 Ry
     Harris-Foulkes estimate   = -173803.82363455 Ry
     estimated scf accuracy    <       0.00199919 Ry

     iteration # 35     ecut=   100.00 Ry     beta= 0.35
     Davidson diagonalization with overlap
     ethr =  3.53E-08,  avg # of iterations =  5.0

     negative rho (up, down):  6.218E+03 0.000E+00

     total cpu time spent up to now is     3596.5 secs

     total energy              = -173803.82218486 Ry
     Harris-Foulkes estimate   = -173803.82122646 Ry
     estimated scf accuracy    <       0.00031990 Ry

     iteration # 36     ecut=   100.00 Ry     beta= 0.35
     Davidson diagonalization with overlap
     ethr =  3.53E-08,  avg # of iterations =  4.0

     negative rho (up, down):  6.218E+03 0.000E+00

     total cpu time spent up to now is     3668.1 secs

     total energy              = -173803.82137508 Ry
     Harris-Foulkes estimate   = -173803.82238564 Ry
     estimated scf accuracy    <       0.00043430 Ry

     iteration # 37     ecut=   100.00 Ry     beta= 0.35
     Davidson diagonalization with overlap
     ethr =  3.53E-08,  avg # of iterations =  4.0

     negative rho (up, down):  6.218E+03 0.000E+00

     total cpu time spent up to now is     3740.4 secs

     total energy              = -173803.82147571 Ry
     Harris-Foulkes estimate   = -173803.82149026 Ry
     estimated scf accuracy    <       0.00000612 Ry

     iteration # 38     ecut=   100.00 Ry     beta= 0.35
     Davidson diagonalization with overlap
     ethr =  3.48E-09,  avg # of iterations =  3.0

     negative rho (up, down):  6.218E+03 0.000E+00

     total cpu time spent up to now is     3788.8 secs

     total energy              = -173803.82160150 Ry
     Harris-Foulkes estimate   = -173803.82147606 Ry
     estimated scf accuracy    <       0.00001601 Ry

     iteration # 39     ecut=   100.00 Ry     beta= 0.35
     Davidson diagonalization with overlap
     ethr =  3.48E-09,  avg # of iterations =  4.0

     negative rho (up, down):  6.218E+03 0.000E+00

     total cpu time spent up to now is     3847.5 secs

     End of self-consistent calculation

          k = 0.2500 0.1122 0.0666 (107585 PWs)   bands (ev):

  ************************************************************************
  ************************************************************************
  ************************************************************************
  ************************************************************************
  ************************************************************************
  ************************************************************************
  ************************************************************************
  ************************************************************************
  ************************************************************************
  ************************************************************************
  ************************************************************************
  ************************************************************************
  ************************************************************************
  ************************************************************************
  ************************************************************************
  ************************************************************************
  ************************************************************************
  ************************************************************************
  ************************************************************************
  ************************************************************************
  ************************************************************************
  ************************************************************************

     occupation numbers 
     1.0000   1.0000   1.0000   1.0000   1.0000   1.0000   1.0000   1.0000
     1.0000   1.0000   1.0000   1.0000   1.0000   1.0000   1.0000   1.0000
     1.0000   1.0000   1.0000   1.0000   1.0000   1.0000   1.0000   1.0000
     1.0000   1.0000   1.0000   1.0000   1.0000   1.0000   1.0000   1.0000
     1.0000   1.0000   1.0000   1.0000   1.0000   1.0000   1.0000   1.0000
     1.0000   1.0000   1.0000   1.0000   1.0000   1.0000   1.0000   1.0000
     1.0000   1.0000   1.0000   1.0000   1.0000   1.0000   1.0000   1.0000
     1.0000   1.0000   1.0000   1.0000   1.0000   1.0000   1.0000   1.0000
     1.0000   1.0000   1.0000   1.0000   1.0000   1.0000   1.0000   1.0000
     1.0000   1.0000   1.0000   1.0000   1.0000   1.0000   1.0000   1.0000
     1.0000   1.0000   1.0000   1.0000   1.0000   1.0000   1.0000   1.0000
     1.0000   1.0000   1.0000   1.0000   1.0000   1.0000   1.0000   1.0000
     1.0000   1.0000   1.0000   1.0000   1.0000   1.0000   1.0000   1.0000
     1.0000   1.0000   1.0000   1.0000   1.0000   1.0000   1.0000   1.0000
     1.0000   1.0000   1.0000   1.0000   1.0000   1.0000   1.0000   1.0000
     1.0000   1.0000   1.0000   1.0000   1.0000   1.0000   1.0000   1.0000
     1.0000   1.0000   1.0000   1.0000   1.0000   1.0000   1.0000   1.0000
     1.0000   1.0000   1.0000   1.0000   1.0000   1.0000   1.0000   1.0000
     1.0000   1.0000   1.0000   1.0000   1.0000   1.0000   1.0000   1.0000
     1.0000   1.0000   1.0000   1.0000   1.0000   1.0000   1.0000   1.0000
     1.0000   1.0000   1.0000   1.0000   1.0000   1.0000   1.0000   1.0000
     1.0000   1.0000   1.0000   1.0000   1.0000   1.0000   1.0000   1.0000

     highest occupied level (ev): -3457.7631

!    total energy              = -173803.82160507 Ry
     Harris-Foulkes estimate   = -173803.82160399 Ry
     estimated scf accuracy    <          6.6E-09 Ry

     total all-electron energy =   -448417.922144 Ry

     The total energy is the sum of the following terms:

     one-electron contribution =    8675.72610656 Ry
     hartree contribution      = 8317544.05031896 Ry
     xc contribution           =   -6821.77529159 Ry
     ewald contribution        =    -633.56960162 Ry
     one-center paw contrib.   =-8492568.25313738 Ry
      -> PAW hartree energy AE =  670415.90665697 Ry
      -> PAW hartree energy PS =-2792942.87585607 Ry
      -> PAW xc energy AE      =   -6806.93672601 Ry
      -> PAW xc energy PS      =    7488.05609327 Ry
      -> total E_H with PAW    = 6195017.08111986 Ry
      -> total E_XC with PAW   =   -6140.65592433 Ry

     convergence has been achieved in  39 iterations

     negative rho (up, down):  6.218E+03 0.000E+00

     Forces acting on atoms (cartesian axes, Ry/au):

     atom    1 type  1   force =     0.00000000  404.09723450 -429.65647424
     atom    2 type  1   force =     0.00000000 -404.09723450  429.65647424
     atom    3 type  1   force =     0.00000000  404.09723450  429.65647424
     atom    4 type  1   force =     0.00000000 -404.09723450 -429.65647424
     atom    5 type  2   force =     0.00000000  -11.66250413   -9.86549551
     atom    6 type  2   force =     0.00000000   11.66250413    9.86549551
     atom    7 type  2   force =     0.00000000  -11.66250413    9.86549551
     atom    8 type  2   force =     0.00000000   11.66250413   -9.86549551
     atom    9 type  3   force =     0.00000000    5.27886263   16.70488742
     atom   10 type  3   force =     0.00000000   -5.27886263  -16.70488742
     atom   11 type  3   force =     0.00000000    5.27886263  -16.70488742
     atom   12 type  3   force =     0.00000000   -5.27886263   16.70488742
     atom   13 type  3   force =     0.00000000    5.44493874   -9.32619371
     atom   14 type  3   force =     0.00000000   -5.44493874    9.32619371
     atom   15 type  3   force =     0.00000000    5.44493874    9.32619371
     atom   16 type  3   force =     0.00000000   -5.44493874   -9.32619371
     atom   17 type  3   force =     0.00000000  -12.48023646    5.07484587
     atom   18 type  3   force =     0.00000000   12.48023646   -5.07484587
     atom   19 type  3   force =     0.00000000  -12.48023646   -5.07484587
     atom   20 type  3   force =     0.00000000   12.48023646    5.07484587
     The non-local contrib.  to forces
     atom    1 type  1   force =     0.00000000-1058.76520077 1744.63260509
     atom    2 type  1   force =    -0.00000000 1058.76520077-1744.63260509
     atom    3 type  1   force =     0.00000000-1058.76520077-1744.63260509
     atom    4 type  1   force =     0.00000000 1058.76520077 1744.63260509
     atom    5 type  2   force =     0.00000000    0.00014386   -0.00016022
     atom    6 type  2   force =     0.00000000   -0.00014386    0.00016022
     atom    7 type  2   force =     0.00000000    0.00014386    0.00016022
     atom    8 type  2   force =    -0.00000000   -0.00014386   -0.00016022
     atom    9 type  3   force =     0.00000000    0.00012973   -0.00022085
     atom   10 type  3   force =    -0.00000000   -0.00012973    0.00022085
     atom   11 type  3   force =     0.00000000    0.00012973    0.00022085
     atom   12 type  3   force =     0.00000000   -0.00012973   -0.00022085
     atom   13 type  3   force =     0.00000000   -0.00001290   -0.00003238
     atom   14 type  3   force =     0.00000000    0.00001290    0.00003238
     atom   15 type  3   force =     0.00000000   -0.00001290    0.00003238
     atom   16 type  3   force =     0.00000000    0.00001290   -0.00003238
     atom   17 type  3   force =     0.00000000    0.00006642    0.00002166
     atom   18 type  3   force =     0.00000000   -0.00006642   -0.00002166
     atom   19 type  3   force =     0.00000000    0.00006642   -0.00002166
     atom   20 type  3   force =     0.00000000   -0.00006642    0.00002166
     The ionic contribution  to forces
     atom    1 type  1   force =     0.00000000    0.02273773    0.42856976
     atom    2 type  1   force =    -0.00000000   -0.02273773   -0.42856976
     atom    3 type  1   force =     0.00000000    0.02273773   -0.42856976
     atom    4 type  1   force =    -0.00000000   -0.02273773    0.42856976
     atom    5 type  2   force =    -0.00000000   -2.44382133   -1.60292982
     atom    6 type  2   force =     0.00000000    2.44382133    1.60292982
     atom    7 type  2   force =    -0.00000000   -2.44382133    1.60292982
     atom    8 type  2   force =     0.00000000    2.44382133   -1.60292982
     atom    9 type  3   force =    -0.00000000    3.00608889    5.13288889
     atom   10 type  3   force =    -0.00000000   -3.00608889   -5.13288889
     atom   11 type  3   force =    -0.00000000    3.00608889   -5.13288889
     atom   12 type  3   force =    -0.00000000   -3.00608889    5.13288889
     atom   13 type  3   force =     0.00000000    2.02422847   -3.75281495
     atom   14 type  3   force =     0.00000000   -2.02422847    3.75281495
     atom   15 type  3   force =    -0.00000000    2.02422847    3.75281495
     atom   16 type  3   force =     0.00000000   -2.02422847   -3.75281495
     atom   17 type  3   force =     0.00000000   -4.20564469    2.10270402
     atom   18 type  3   force =    -0.00000000    4.20564469   -2.10270402
     atom   19 type  3   force =     0.00000000   -4.20564469   -2.10270402
     atom   20 type  3   force =    -0.00000000    4.20564469    2.10270402
     The local contribution  to forces
     atom    1 type  1   force =    -0.00000000 1461.93548234-2173.29809873
     atom    2 type  1   force =     0.00000000-1461.93548234 2173.29809873
     atom    3 type  1   force =    -0.00000000 1461.93548234 2173.29809873
     atom    4 type  1   force =     0.00000000-1461.93548234-2173.29809873
     atom    5 type  2   force =     0.00000000   -9.21832173   -8.26204543
     atom    6 type  2   force =    -0.00000000    9.21832173    8.26204543
     atom    7 type  2   force =     0.00000000   -9.21832173    8.26204543
     atom    8 type  2   force =     0.00000000    9.21832173   -8.26204543
     atom    9 type  3   force =     0.00000000    2.27230426   11.56999151
     atom   10 type  3   force =    -0.00000000   -2.27230426  -11.56999151
     atom   11 type  3   force =     0.00000000    2.27230426  -11.56999151
     atom   12 type  3   force =    -0.00000000   -2.27230426   11.56999151
     atom   13 type  3   force =     0.00000000    3.42006658   -5.57220514
     atom   14 type  3   force =    -0.00000000   -3.42006658    5.57220514
     atom   15 type  3   force =    -0.00000000    3.42006658    5.57220514
     atom   16 type  3   force =     0.00000000   -3.42006658   -5.57220514
     atom   17 type  3   force =    -0.00000000   -8.27341078    2.97164783
     atom   18 type  3   force =     0.00000000    8.27341078   -2.97164783
     atom   19 type  3   force =     0.00000000   -8.27341078   -2.97164783
     atom   20 type  3   force =    -0.00000000    8.27341078    2.97164783
     The core correction contribution to forces
     atom    1 type  1   force =    -0.00000000    0.90423704   -1.41953898
     atom    2 type  1   force =    -0.00000000   -0.90423704    1.41953898
     atom    3 type  1   force =    -0.00000000    0.90423704    1.41953898
     atom    4 type  1   force =    -0.00000000   -0.90423704   -1.41953898
     atom    5 type  2   force =    -0.00000000   -0.00050182   -0.00035941
     atom    6 type  2   force =    -0.00000000    0.00050182    0.00035941
     atom    7 type  2   force =     0.00000000   -0.00050182    0.00035941
     atom    8 type  2   force =    -0.00000000    0.00050182   -0.00035941
     atom    9 type  3   force =     0.00000000    0.00033971    0.00222859
     atom   10 type  3   force =     0.00000000   -0.00033971   -0.00222859
     atom   11 type  3   force =    -0.00000000    0.00033971   -0.00222859
     atom   12 type  3   force =    -0.00000000   -0.00033971    0.00222859
     atom   13 type  3   force =    -0.00000000    0.00065336   -0.00114304
     atom   14 type  3   force =    -0.00000000   -0.00065336    0.00114304
     atom   15 type  3   force =    -0.00000000    0.00065336    0.00114304
     atom   16 type  3   force =    -0.00000000   -0.00065336   -0.00114304
     atom   17 type  3   force =     0.00000000   -0.00124669    0.00047360
     atom   18 type  3   force =     0.00000000    0.00124669   -0.00047360
     atom   19 type  3   force =     0.00000000   -0.00124669   -0.00047360
     atom   20 type  3   force =     0.00000000    0.00124669    0.00047360
     The Hubbard contrib.    to forces
     atom    1 type  1   force =     0.00000000    0.00000000    0.00000000
     atom    2 type  1   force =     0.00000000    0.00000000    0.00000000
     atom    3 type  1   force =     0.00000000    0.00000000    0.00000000
     atom    4 type  1   force =     0.00000000    0.00000000    0.00000000
     atom    5 type  2   force =     0.00000000    0.00000000    0.00000000
     atom    6 type  2   force =     0.00000000    0.00000000    0.00000000
     atom    7 type  2   force =     0.00000000    0.00000000    0.00000000
     atom    8 type  2   force =     0.00000000    0.00000000    0.00000000
     atom    9 type  3   force =     0.00000000    0.00000000    0.00000000
     atom   10 type  3   force =     0.00000000    0.00000000    0.00000000
     atom   11 type  3   force =     0.00000000    0.00000000    0.00000000
     atom   12 type  3   force =     0.00000000    0.00000000    0.00000000
     atom   13 type  3   force =     0.00000000    0.00000000    0.00000000
     atom   14 type  3   force =     0.00000000    0.00000000    0.00000000
     atom   15 type  3   force =     0.00000000    0.00000000    0.00000000
     atom   16 type  3   force =     0.00000000    0.00000000    0.00000000
     atom   17 type  3   force =     0.00000000    0.00000000    0.00000000
     atom   18 type  3   force =     0.00000000    0.00000000    0.00000000
     atom   19 type  3   force =     0.00000000    0.00000000    0.00000000
     atom   20 type  3   force =     0.00000000    0.00000000    0.00000000
     The SCF correction term to forces
     atom    1 type  1   force =     0.00000000   -0.00002184   -0.00001138
     atom    2 type  1   force =     0.00000000    0.00002184    0.00001138
     atom    3 type  1   force =     0.00000000   -0.00002184    0.00001138
     atom    4 type  1   force =     0.00000000    0.00002184   -0.00001138
     atom    5 type  2   force =     0.00000000   -0.00000311   -0.00000063
     atom    6 type  2   force =     0.00000000    0.00000311    0.00000063
     atom    7 type  2   force =     0.00000000   -0.00000311    0.00000063
     atom    8 type  2   force =     0.00000000    0.00000311   -0.00000063
     atom    9 type  3   force =    -0.00000000    0.00000004   -0.00000072
     atom   10 type  3   force =    -0.00000000   -0.00000004    0.00000072
     atom   11 type  3   force =    -0.00000000    0.00000004    0.00000072
     atom   12 type  3   force =    -0.00000000   -0.00000004   -0.00000072
     atom   13 type  3   force =     0.00000000    0.00000323    0.00000181
     atom   14 type  3   force =     0.00000000   -0.00000323   -0.00000181
     atom   15 type  3   force =     0.00000000    0.00000323   -0.00000181
     atom   16 type  3   force =     0.00000000   -0.00000323    0.00000181
     atom   17 type  3   force =    -0.00000000   -0.00000071   -0.00000124
     atom   18 type  3   force =    -0.00000000    0.00000071    0.00000124
     atom   19 type  3   force =    -0.00000000   -0.00000071    0.00000124
     atom   20 type  3   force =    -0.00000000    0.00000071   -0.00000124

     Total force =  1181.080282     Total SCF correction =     0.000050


     Computing stress (Cartesian axis) and pressure

     Message from routine stres:
     noncollinear stress + GGA not implemented

     Writing output data file CsSnI3.save/
 
     init_run     :     24.91s CPU     32.70s WALL (       1 calls)
     electrons    :   2635.87s CPU   3805.66s WALL (       1 calls)
     forces       :     14.73s CPU     17.18s WALL (       1 calls)

     Called by init_run:
     wfcinit      :     11.46s CPU     15.90s WALL (       1 calls)
     wfcinit:atom :      0.04s CPU      0.05s WALL (       1 calls)
     wfcinit:wfcr :     11.26s CPU     15.66s WALL (       1 calls)
     potinit      :      3.11s CPU      3.94s WALL (       1 calls)
     hinit0       :      2.60s CPU      3.08s WALL (       1 calls)

     Called by electrons:
     c_bands      :   1697.89s CPU   2547.35s WALL (      40 calls)
     sum_band     :    569.27s CPU    781.83s WALL (      40 calls)
     v_of_rho     :     18.56s CPU     25.13s WALL (      40 calls)
     v_h          :      1.71s CPU      2.27s WALL (      40 calls)
     v_xc         :     17.09s CPU     23.21s WALL (      41 calls)
     newd         :    283.15s CPU    359.04s WALL (      40 calls)
     PAW_pot      :     33.86s CPU     42.74s WALL (      40 calls)
     mix_rho      :     25.06s CPU     36.29s WALL (      40 calls)

     Called by c_bands:
     init_us_2    :      2.58s CPU      2.80s WALL (      81 calls)
     cegterg      :   1642.98s CPU   2490.72s WALL (      41 calls)

     Called by sum_band:
     sum_band:bec :      3.78s CPU      5.09s WALL (      40 calls)
     addusdens    :    281.36s CPU    340.37s WALL (      40 calls)

     Called by *egterg:
     h_psi        :   1352.47s CPU   2099.39s WALL (     318 calls)
     s_psi        :     42.60s CPU     46.15s WALL (     318 calls)
     g_psi        :      1.60s CPU      1.64s WALL (     276 calls)
     cdiaghg      :     84.15s CPU    129.65s WALL (     316 calls)
     cegterg:over :     69.10s CPU     91.42s WALL (     276 calls)
     cegterg:upda :     52.08s CPU     67.15s WALL (     276 calls)
     cegterg:last :     20.51s CPU     23.04s WALL (      59 calls)
     cdiaghg:chol :      5.41s CPU      7.81s WALL (     316 calls)
     cdiaghg:inve :      4.13s CPU      5.79s WALL (     316 calls)
     cdiaghg:para :      9.52s CPU     14.63s WALL (     632 calls)

     Called by h_psi:
     h_psi:pot    :   1350.23s CPU   2095.95s WALL (     318 calls)
     h_psi:calbec :     40.50s CPU     45.14s WALL (     318 calls)
     vloc_psi     :   1266.97s CPU   2004.31s WALL (     318 calls)
     add_vuspsi   :     42.75s CPU     46.50s WALL (     318 calls)

     General routines
     calbec       :     51.22s CPU     57.14s WALL (     362 calls)
     fft          :     40.58s CPU     56.94s WALL (     881 calls)
     ffts         :     14.76s CPU     22.80s WALL (     320 calls)
     fftw         :   1408.24s CPU   2283.09s WALL (  123756 calls)
     interpolate  :     13.48s CPU     19.75s WALL (     160 calls)
 
     Parallel routines
     fft_scatt_xy :     60.48s CPU     62.35s WALL (  124957 calls)
     fft_scatt_yz :   1170.10s CPU   1991.41s WALL (  124957 calls)

     PAW routines
     PAW_pot      :     33.86s CPU     42.74s WALL (      40 calls)
     PAW_symme    :      0.92s CPU      1.38s WALL (      80 calls)
 
     PWSCF        :  44m45.35s CPU      1h 4m WALL

 
   This run was terminated on:  11:38:44  23Jan2021            

=------------------------------------------------------------------------------=
   JOB DONE.
=------------------------------------------------------------------------------=
