
     Program PWSCF v.6.7MaX starts on 14Jan2021 at 15: 4:20 

     This program is part of the open-source Quantum ESPRESSO suite
     for quantum simulation of materials; please cite
         "P. Giannozzi et al., J. Phys.:Condens. Matter 21 395502 (2009);
         "P. Giannozzi et al., J. Phys.:Condens. Matter 29 465901 (2017);
          URL http://www.quantum-espresso.org", 
     in publications or presentations arising from this work. More details at
     http://www.quantum-espresso.org/quote

     Parallel version (MPI), running on    19 processors

     MPI processes distributed on     1 nodes
     R & G space division:  proc/nbgrp/npool/nimage =      19
     Waiting for input...
     Reading input from standard input

     Current dimensions of program PWSCF are:
     Max number of different atomic species (ntypx) = 10
     Max number of k-points (npk) =  40000
     Max angular momentum in pseudopotentials (lmaxx) =  3
     file Sn.pbe-dn-kjpaw_psl.1.0.0.UPF: wavefunction(s)  5S 5P 4D renormalized
     file I.pbe-n-kjpaw_psl.1.0.0.UPF: wavefunction(s)  5S renormalized

     Subspace diagonalization in iterative solution of the eigenvalue problem:
     a serial algorithm will be used

     Message from routine setup:
     using ibrav=0 with symmetry is DISCOURAGED, use correct ibrav instead

     Parallelization info
     --------------------
     sticks:   dense  smooth     PW     G-vecs:    dense   smooth      PW
     Min         236     236     65                 7726     7726    1133
     Max         237     237     66                 7729     7729    1136
     Sum        4501    4501   1245               146829   146829   21557


     Title: 
     SnI2tetr                                                                   


     bravais-lattice index     =            0
     lattice parameter (alat)  =      14.2167  a.u.
     unit-cell volume          =    1855.5976 (a.u.)^3
     number of atoms/cell      =            6
     number of atomic types    =            2
     number of electrons       =        56.00
     number of Kohn-Sham states=           28
     kinetic-energy cutoff     =      70.0000  Ry
     charge density cutoff     =     280.0000  Ry
     scf convergence threshold =      1.0E-06
     mixing beta               =       0.7000
     number of iterations used =            8  plain     mixing
     Exchange-correlation= SLA  PW   PBX  PBC
                           (   1   4   3   4   0   0   0)

     celldm(1)=  14.216705  celldm(2)=   0.000000  celldm(3)=   0.000000
     celldm(4)=   0.000000  celldm(5)=   0.000000  celldm(6)=   0.000000

     crystal axes: (cart. coord. in units of alat)
               a(1) = (   1.000000   0.000000   0.000000 )  
               a(2) = (   0.000000   1.000000   0.000000 )  
               a(3) = (   0.000000   0.000000   0.645783 )  

     reciprocal axes: (cart. coord. in units 2 pi/alat)
               b(1) = (  1.000000  0.000000  0.000000 )  
               b(2) = (  0.000000  1.000000  0.000000 )  
               b(3) = (  0.000000  0.000000  1.548507 )  


     PseudoPot. # 1 for Sn read from file:
     ../../../pseudo/Sn.pbe-dn-kjpaw_psl.1.0.0.UPF
     MD5 check sum: 67f11dec737d427557dc41ea34975807
     Pseudo is Projector augmented-wave + core cor, Zval = 14.0
     Generated using &quot;atomic&quot; code by A. Dal Corso  v.6.3
     Shape of augmentation charge: PSQ
     Using radial grid of 1243 points,  6 beta functions with: 
                l(1) =   0
                l(2) =   0
                l(3) =   1
                l(4) =   1
                l(5) =   2
                l(6) =   2
     Q(r) pseudized with 0 coefficients 


     PseudoPot. # 2 for I  read from file:
     ../../../pseudo/I.pbe-n-kjpaw_psl.1.0.0.UPF
     MD5 check sum: cd3d296c3308a581e1559a0c8a554cb5
     Pseudo is Projector augmented-wave + core cor, Zval =  7.0
     Generated using &quot;atomic&quot; code by A. Dal Corso  v.6.3
     Shape of augmentation charge: PSQ
     Using radial grid of 1247 points,  6 beta functions with: 
                l(1) =   0
                l(2) =   0
                l(3) =   1
                l(4) =   1
                l(5) =   2
                l(6) =   2
     Q(r) pseudized with 0 coefficients 


     atomic species   valence    mass     pseudopotential
        Sn            14.00   118.70000     Sn( 1.00)
        I              7.00   126.90000     I ( 1.00)

     16 Sym. Ops., with inversion, found ( 8 have fractional translation)


                                    s                        frac. trans.

      isym =  1     identity                                     

 cryst.   s( 1) = (     1          0          0      )
                  (     0          1          0      )
                  (     0          0          1      )

 cart.    s( 1) = (  1.0000000  0.0000000  0.0000000 )
                  (  0.0000000  1.0000000  0.0000000 )
                  (  0.0000000  0.0000000  1.0000000 )


      isym =  2     180 deg rotation - cart. axis [0,0,1]        

 cryst.   s( 2) = (    -1          0          0      )
                  (     0         -1          0      )
                  (     0          0          1      )

 cart.    s( 2) = ( -1.0000000  0.0000000  0.0000000 )
                  (  0.0000000 -1.0000000  0.0000000 )
                  (  0.0000000  0.0000000  1.0000000 )


      isym =  3     180 deg rotation - cart. axis [0,1,0]        

 cryst.   s( 3) = (    -1          0          0      )    f =(  0.5000000 )
                  (     0          1          0      )       ( -0.5000000 )
                  (     0          0         -1      )       (  0.5000000 )

 cart.    s( 3) = ( -1.0000000  0.0000000  0.0000000 )    f =(  0.5000000 )
                  (  0.0000000  1.0000000  0.0000000 )       ( -0.5000000 )
                  (  0.0000000  0.0000000 -1.0000000 )       (  0.3228917 )


      isym =  4     180 deg rotation - cart. axis [1,0,0]        

 cryst.   s( 4) = (     1          0          0      )    f =( -0.5000000 )
                  (     0         -1          0      )       (  0.5000000 )
                  (     0          0         -1      )       (  0.5000000 )

 cart.    s( 4) = (  1.0000000  0.0000000  0.0000000 )    f =( -0.5000000 )
                  (  0.0000000 -1.0000000  0.0000000 )       (  0.5000000 )
                  (  0.0000000  0.0000000 -1.0000000 )       (  0.3228917 )


      isym =  5     180 deg rotation - cart. axis [1,1,0]        

 cryst.   s( 5) = (     0          1          0      )
                  (     1          0          0      )
                  (     0          0         -1      )

 cart.    s( 5) = (  0.0000000  1.0000000  0.0000000 )
                  (  1.0000000  0.0000000  0.0000000 )
                  (  0.0000000  0.0000000 -1.0000000 )


      isym =  6     180 deg rotation - cart. axis [1,-1,0]       

 cryst.   s( 6) = (     0         -1          0      )
                  (    -1          0          0      )
                  (     0          0         -1      )

 cart.    s( 6) = (  0.0000000 -1.0000000  0.0000000 )
                  ( -1.0000000  0.0000000  0.0000000 )
                  (  0.0000000  0.0000000 -1.0000000 )


      isym =  7      90 deg rotation - cart. axis [0,0,-1]       

 cryst.   s( 7) = (     0         -1          0      )    f =( -0.5000000 )
                  (     1          0          0      )       (  0.5000000 )
                  (     0          0          1      )       ( -0.5000000 )

 cart.    s( 7) = (  0.0000000  1.0000000  0.0000000 )    f =( -0.5000000 )
                  ( -1.0000000  0.0000000  0.0000000 )       (  0.5000000 )
                  (  0.0000000  0.0000000  1.0000000 )       ( -0.3228917 )


      isym =  8      90 deg rotation - cart. axis [0,0,1]        

 cryst.   s( 8) = (     0          1          0      )    f =(  0.5000000 )
                  (    -1          0          0      )       ( -0.5000000 )
                  (     0          0          1      )       ( -0.5000000 )

 cart.    s( 8) = (  0.0000000 -1.0000000  0.0000000 )    f =(  0.5000000 )
                  (  1.0000000  0.0000000  0.0000000 )       ( -0.5000000 )
                  (  0.0000000  0.0000000  1.0000000 )       ( -0.3228917 )


      isym =  9     inversion                                    

 cryst.   s( 9) = (    -1          0          0      )
                  (     0         -1          0      )
                  (     0          0         -1      )

 cart.    s( 9) = ( -1.0000000  0.0000000  0.0000000 )
                  (  0.0000000 -1.0000000  0.0000000 )
                  (  0.0000000  0.0000000 -1.0000000 )


      isym = 10     inv. 180 deg rotation - cart. axis [0,0,1]   

 cryst.   s(10) = (     1          0          0      )
                  (     0          1          0      )
                  (     0          0         -1      )

 cart.    s(10) = (  1.0000000  0.0000000  0.0000000 )
                  (  0.0000000  1.0000000  0.0000000 )
                  (  0.0000000  0.0000000 -1.0000000 )


      isym = 11     inv. 180 deg rotation - cart. axis [0,1,0]   

 cryst.   s(11) = (     1          0          0      )    f =( -0.5000000 )
                  (     0         -1          0      )       (  0.5000000 )
                  (     0          0          1      )       ( -0.5000000 )

 cart.    s(11) = (  1.0000000  0.0000000  0.0000000 )    f =( -0.5000000 )
                  (  0.0000000 -1.0000000  0.0000000 )       (  0.5000000 )
                  (  0.0000000  0.0000000  1.0000000 )       ( -0.3228917 )


      isym = 12     inv. 180 deg rotation - cart. axis [1,0,0]   

 cryst.   s(12) = (    -1          0          0      )    f =(  0.5000000 )
                  (     0          1          0      )       ( -0.5000000 )
                  (     0          0          1      )       ( -0.5000000 )

 cart.    s(12) = ( -1.0000000  0.0000000  0.0000000 )    f =(  0.5000000 )
                  (  0.0000000  1.0000000  0.0000000 )       ( -0.5000000 )
                  (  0.0000000  0.0000000  1.0000000 )       ( -0.3228917 )


      isym = 13     inv. 180 deg rotation - cart. axis [1,1,0]   

 cryst.   s(13) = (     0         -1          0      )
                  (    -1          0          0      )
                  (     0          0          1      )

 cart.    s(13) = (  0.0000000 -1.0000000  0.0000000 )
                  ( -1.0000000  0.0000000  0.0000000 )
                  (  0.0000000  0.0000000  1.0000000 )


      isym = 14     inv. 180 deg rotation - cart. axis [1,-1,0]  

 cryst.   s(14) = (     0          1          0      )
                  (     1          0          0      )
                  (     0          0          1      )

 cart.    s(14) = (  0.0000000  1.0000000  0.0000000 )
                  (  1.0000000  0.0000000  0.0000000 )
                  (  0.0000000  0.0000000  1.0000000 )


      isym = 15     inv.  90 deg rotation - cart. axis [0,0,-1]  

 cryst.   s(15) = (     0          1          0      )    f =(  0.5000000 )
                  (    -1          0          0      )       ( -0.5000000 )
                  (     0          0         -1      )       (  0.5000000 )

 cart.    s(15) = (  0.0000000 -1.0000000  0.0000000 )    f =(  0.5000000 )
                  (  1.0000000  0.0000000  0.0000000 )       ( -0.5000000 )
                  (  0.0000000  0.0000000 -1.0000000 )       (  0.3228917 )


      isym = 16     inv.  90 deg rotation - cart. axis [0,0,1]   

 cryst.   s(16) = (     0         -1          0      )    f =( -0.5000000 )
                  (     1          0          0      )       (  0.5000000 )
                  (     0          0         -1      )       (  0.5000000 )

 cart.    s(16) = (  0.0000000  1.0000000  0.0000000 )    f =( -0.5000000 )
                  ( -1.0000000  0.0000000  0.0000000 )       (  0.5000000 )
                  (  0.0000000  0.0000000 -1.0000000 )       (  0.3228917 )


   Cartesian axes

     site n.     atom                  positions (alat units)
         1           Sn  tau(   1) = (   0.0000000   0.0000000   0.0000000  )
         2           Sn  tau(   2) = (   0.5000000   0.5000000   0.3228917  )
         3           I   tau(   3) = (   0.2985210   0.2985210   0.0000000  )
         4           I   tau(   4) = (   0.7014790   0.7014790   0.0000000  )
         5           I   tau(   5) = (   0.7985210   0.2014790   0.3228917  )
         6           I   tau(   6) = (   0.2014790   0.7985210   0.3228917  )

   Crystallographic axes

     site n.     atom                  positions (cryst. coord.)
         1           Sn  tau(   1) = (  0.0000000  0.0000000  0.0000000  )
         2           Sn  tau(   2) = (  0.5000000  0.5000000  0.5000000  )
         3           I   tau(   3) = (  0.2985210  0.2985210  0.0000000  )
         4           I   tau(   4) = (  0.7014790  0.7014790  0.0000000  )
         5           I   tau(   5) = (  0.7985210  0.2014790  0.5000000  )
         6           I   tau(   6) = (  0.2014790  0.7985210  0.5000000  )

     number of k points=    75
                       cart. coord. in units 2pi/alat
        k(    1) = (   0.0000000   0.0000000   0.0000000), wk =   0.0039062
        k(    2) = (   0.0000000   0.0000000   0.1935633), wk =   0.0078125
        k(    3) = (   0.0000000   0.0000000   0.3871267), wk =   0.0078125
        k(    4) = (   0.0000000   0.0000000   0.5806900), wk =   0.0078125
        k(    5) = (   0.0000000   0.0000000  -0.7742534), wk =   0.0039062
        k(    6) = (   0.0000000   0.1250000   0.0000000), wk =   0.0156250
        k(    7) = (   0.0000000   0.1250000   0.1935633), wk =   0.0312500
        k(    8) = (   0.0000000   0.1250000   0.3871267), wk =   0.0312500
        k(    9) = (   0.0000000   0.1250000   0.5806900), wk =   0.0312500
        k(   10) = (   0.0000000   0.1250000  -0.7742534), wk =   0.0156250
        k(   11) = (   0.0000000   0.2500000   0.0000000), wk =   0.0156250
        k(   12) = (   0.0000000   0.2500000   0.1935633), wk =   0.0312500
        k(   13) = (   0.0000000   0.2500000   0.3871267), wk =   0.0312500
        k(   14) = (   0.0000000   0.2500000   0.5806900), wk =   0.0312500
        k(   15) = (   0.0000000   0.2500000  -0.7742534), wk =   0.0156250
        k(   16) = (   0.0000000   0.3750000   0.0000000), wk =   0.0156250
        k(   17) = (   0.0000000   0.3750000   0.1935633), wk =   0.0312500
        k(   18) = (   0.0000000   0.3750000   0.3871267), wk =   0.0312500
        k(   19) = (   0.0000000   0.3750000   0.5806900), wk =   0.0312500
        k(   20) = (   0.0000000   0.3750000  -0.7742534), wk =   0.0156250
        k(   21) = (   0.0000000  -0.5000000   0.0000000), wk =   0.0078125
        k(   22) = (   0.0000000  -0.5000000   0.1935633), wk =   0.0156250
        k(   23) = (   0.0000000  -0.5000000   0.3871267), wk =   0.0156250
        k(   24) = (   0.0000000  -0.5000000   0.5806900), wk =   0.0156250
        k(   25) = (   0.0000000  -0.5000000  -0.7742534), wk =   0.0078125
        k(   26) = (   0.1250000   0.1250000   0.0000000), wk =   0.0156250
        k(   27) = (   0.1250000   0.1250000   0.1935633), wk =   0.0312500
        k(   28) = (   0.1250000   0.1250000   0.3871267), wk =   0.0312500
        k(   29) = (   0.1250000   0.1250000   0.5806900), wk =   0.0312500
        k(   30) = (   0.1250000   0.1250000  -0.7742534), wk =   0.0156250
        k(   31) = (   0.1250000   0.2500000   0.0000000), wk =   0.0312500
        k(   32) = (   0.1250000   0.2500000   0.1935633), wk =   0.0625000
        k(   33) = (   0.1250000   0.2500000   0.3871267), wk =   0.0625000
        k(   34) = (   0.1250000   0.2500000   0.5806900), wk =   0.0625000
        k(   35) = (   0.1250000   0.2500000  -0.7742534), wk =   0.0312500
        k(   36) = (   0.1250000   0.3750000   0.0000000), wk =   0.0312500
        k(   37) = (   0.1250000   0.3750000   0.1935633), wk =   0.0625000
        k(   38) = (   0.1250000   0.3750000   0.3871267), wk =   0.0625000
        k(   39) = (   0.1250000   0.3750000   0.5806900), wk =   0.0625000
        k(   40) = (   0.1250000   0.3750000  -0.7742534), wk =   0.0312500
        k(   41) = (   0.1250000  -0.5000000   0.0000000), wk =   0.0156250
        k(   42) = (   0.1250000  -0.5000000   0.1935633), wk =   0.0312500
        k(   43) = (   0.1250000  -0.5000000   0.3871267), wk =   0.0312500
        k(   44) = (   0.1250000  -0.5000000   0.5806900), wk =   0.0312500
        k(   45) = (   0.1250000  -0.5000000  -0.7742534), wk =   0.0156250
        k(   46) = (   0.2500000   0.2500000   0.0000000), wk =   0.0156250
        k(   47) = (   0.2500000   0.2500000   0.1935633), wk =   0.0312500
        k(   48) = (   0.2500000   0.2500000   0.3871267), wk =   0.0312500
        k(   49) = (   0.2500000   0.2500000   0.5806900), wk =   0.0312500
        k(   50) = (   0.2500000   0.2500000  -0.7742534), wk =   0.0156250
        k(   51) = (   0.2500000   0.3750000   0.0000000), wk =   0.0312500
        k(   52) = (   0.2500000   0.3750000   0.1935633), wk =   0.0625000
        k(   53) = (   0.2500000   0.3750000   0.3871267), wk =   0.0625000
        k(   54) = (   0.2500000   0.3750000   0.5806900), wk =   0.0625000
        k(   55) = (   0.2500000   0.3750000  -0.7742534), wk =   0.0312500
        k(   56) = (   0.2500000  -0.5000000   0.0000000), wk =   0.0156250
        k(   57) = (   0.2500000  -0.5000000   0.1935633), wk =   0.0312500
        k(   58) = (   0.2500000  -0.5000000   0.3871267), wk =   0.0312500
        k(   59) = (   0.2500000  -0.5000000   0.5806900), wk =   0.0312500
        k(   60) = (   0.2500000  -0.5000000  -0.7742534), wk =   0.0156250
        k(   61) = (   0.3750000   0.3750000   0.0000000), wk =   0.0156250
        k(   62) = (   0.3750000   0.3750000   0.1935633), wk =   0.0312500
        k(   63) = (   0.3750000   0.3750000   0.3871267), wk =   0.0312500
        k(   64) = (   0.3750000   0.3750000   0.5806900), wk =   0.0312500
        k(   65) = (   0.3750000   0.3750000  -0.7742534), wk =   0.0156250
        k(   66) = (   0.3750000  -0.5000000   0.0000000), wk =   0.0156250
        k(   67) = (   0.3750000  -0.5000000   0.1935633), wk =   0.0312500
        k(   68) = (   0.3750000  -0.5000000   0.3871267), wk =   0.0312500
        k(   69) = (   0.3750000  -0.5000000   0.5806900), wk =   0.0312500
        k(   70) = (   0.3750000  -0.5000000  -0.7742534), wk =   0.0156250
        k(   71) = (  -0.5000000  -0.5000000   0.0000000), wk =   0.0039062
        k(   72) = (  -0.5000000  -0.5000000   0.1935633), wk =   0.0078125
        k(   73) = (  -0.5000000  -0.5000000   0.3871267), wk =   0.0078125
        k(   74) = (  -0.5000000  -0.5000000   0.5806900), wk =   0.0078125
        k(   75) = (  -0.5000000  -0.5000000  -0.7742534), wk =   0.0039062

                       cryst. coord.
        k(    1) = (   0.0000000   0.0000000   0.0000000), wk =   0.0039062
        k(    2) = (   0.0000000   0.0000000   0.1250000), wk =   0.0078125
        k(    3) = (   0.0000000   0.0000000   0.2500000), wk =   0.0078125
        k(    4) = (   0.0000000   0.0000000   0.3750000), wk =   0.0078125
        k(    5) = (   0.0000000   0.0000000  -0.5000000), wk =   0.0039062
        k(    6) = (   0.0000000   0.1250000   0.0000000), wk =   0.0156250
        k(    7) = (   0.0000000   0.1250000   0.1250000), wk =   0.0312500
        k(    8) = (   0.0000000   0.1250000   0.2500000), wk =   0.0312500
        k(    9) = (   0.0000000   0.1250000   0.3750000), wk =   0.0312500
        k(   10) = (   0.0000000   0.1250000  -0.5000000), wk =   0.0156250
        k(   11) = (   0.0000000   0.2500000   0.0000000), wk =   0.0156250
        k(   12) = (   0.0000000   0.2500000   0.1250000), wk =   0.0312500
        k(   13) = (   0.0000000   0.2500000   0.2500000), wk =   0.0312500
        k(   14) = (   0.0000000   0.2500000   0.3750000), wk =   0.0312500
        k(   15) = (   0.0000000   0.2500000  -0.5000000), wk =   0.0156250
        k(   16) = (   0.0000000   0.3750000   0.0000000), wk =   0.0156250
        k(   17) = (   0.0000000   0.3750000   0.1250000), wk =   0.0312500
        k(   18) = (   0.0000000   0.3750000   0.2500000), wk =   0.0312500
        k(   19) = (   0.0000000   0.3750000   0.3750000), wk =   0.0312500
        k(   20) = (   0.0000000   0.3750000  -0.5000000), wk =   0.0156250
        k(   21) = (   0.0000000  -0.5000000   0.0000000), wk =   0.0078125
        k(   22) = (   0.0000000  -0.5000000   0.1250000), wk =   0.0156250
        k(   23) = (   0.0000000  -0.5000000   0.2500000), wk =   0.0156250
        k(   24) = (   0.0000000  -0.5000000   0.3750000), wk =   0.0156250
        k(   25) = (   0.0000000  -0.5000000  -0.5000000), wk =   0.0078125
        k(   26) = (   0.1250000   0.1250000   0.0000000), wk =   0.0156250
        k(   27) = (   0.1250000   0.1250000   0.1250000), wk =   0.0312500
        k(   28) = (   0.1250000   0.1250000   0.2500000), wk =   0.0312500
        k(   29) = (   0.1250000   0.1250000   0.3750000), wk =   0.0312500
        k(   30) = (   0.1250000   0.1250000  -0.5000000), wk =   0.0156250
        k(   31) = (   0.1250000   0.2500000   0.0000000), wk =   0.0312500
        k(   32) = (   0.1250000   0.2500000   0.1250000), wk =   0.0625000
        k(   33) = (   0.1250000   0.2500000   0.2500000), wk =   0.0625000
        k(   34) = (   0.1250000   0.2500000   0.3750000), wk =   0.0625000
        k(   35) = (   0.1250000   0.2500000  -0.5000000), wk =   0.0312500
        k(   36) = (   0.1250000   0.3750000   0.0000000), wk =   0.0312500
        k(   37) = (   0.1250000   0.3750000   0.1250000), wk =   0.0625000
        k(   38) = (   0.1250000   0.3750000   0.2500000), wk =   0.0625000
        k(   39) = (   0.1250000   0.3750000   0.3750000), wk =   0.0625000
        k(   40) = (   0.1250000   0.3750000  -0.5000000), wk =   0.0312500
        k(   41) = (   0.1250000  -0.5000000   0.0000000), wk =   0.0156250
        k(   42) = (   0.1250000  -0.5000000   0.1250000), wk =   0.0312500
        k(   43) = (   0.1250000  -0.5000000   0.2500000), wk =   0.0312500
        k(   44) = (   0.1250000  -0.5000000   0.3750000), wk =   0.0312500
        k(   45) = (   0.1250000  -0.5000000  -0.5000000), wk =   0.0156250
        k(   46) = (   0.2500000   0.2500000   0.0000000), wk =   0.0156250
        k(   47) = (   0.2500000   0.2500000   0.1250000), wk =   0.0312500
        k(   48) = (   0.2500000   0.2500000   0.2500000), wk =   0.0312500
        k(   49) = (   0.2500000   0.2500000   0.3750000), wk =   0.0312500
        k(   50) = (   0.2500000   0.2500000  -0.5000000), wk =   0.0156250
        k(   51) = (   0.2500000   0.3750000   0.0000000), wk =   0.0312500
        k(   52) = (   0.2500000   0.3750000   0.1250000), wk =   0.0625000
        k(   53) = (   0.2500000   0.3750000   0.2500000), wk =   0.0625000
        k(   54) = (   0.2500000   0.3750000   0.3750000), wk =   0.0625000
        k(   55) = (   0.2500000   0.3750000  -0.5000000), wk =   0.0312500
        k(   56) = (   0.2500000  -0.5000000   0.0000000), wk =   0.0156250
        k(   57) = (   0.2500000  -0.5000000   0.1250000), wk =   0.0312500
        k(   58) = (   0.2500000  -0.5000000   0.2500000), wk =   0.0312500
        k(   59) = (   0.2500000  -0.5000000   0.3750000), wk =   0.0312500
        k(   60) = (   0.2500000  -0.5000000  -0.5000000), wk =   0.0156250
        k(   61) = (   0.3750000   0.3750000   0.0000000), wk =   0.0156250
        k(   62) = (   0.3750000   0.3750000   0.1250000), wk =   0.0312500
        k(   63) = (   0.3750000   0.3750000   0.2500000), wk =   0.0312500
        k(   64) = (   0.3750000   0.3750000   0.3750000), wk =   0.0312500
        k(   65) = (   0.3750000   0.3750000  -0.5000000), wk =   0.0156250
        k(   66) = (   0.3750000  -0.5000000   0.0000000), wk =   0.0156250
        k(   67) = (   0.3750000  -0.5000000   0.1250000), wk =   0.0312500
        k(   68) = (   0.3750000  -0.5000000   0.2500000), wk =   0.0312500
        k(   69) = (   0.3750000  -0.5000000   0.3750000), wk =   0.0312500
        k(   70) = (   0.3750000  -0.5000000  -0.5000000), wk =   0.0156250
        k(   71) = (  -0.5000000  -0.5000000   0.0000000), wk =   0.0039062
        k(   72) = (  -0.5000000  -0.5000000   0.1250000), wk =   0.0078125
        k(   73) = (  -0.5000000  -0.5000000   0.2500000), wk =   0.0078125
        k(   74) = (  -0.5000000  -0.5000000   0.3750000), wk =   0.0078125
        k(   75) = (  -0.5000000  -0.5000000  -0.5000000), wk =   0.0039062

     Dense  grid:   146829 G-vectors     FFT dimensions: (  80,  80,  50)

     Dynamical RAM for                 wfc:       0.41 MB

     Dynamical RAM for     wfc (w. buffer):      31.33 MB

     Dynamical RAM for           str. fact:       0.24 MB

     Dynamical RAM for           local pot:       0.00 MB

     Dynamical RAM for          nlocal pot:       1.59 MB

     Dynamical RAM for                qrad:       2.69 MB

     Dynamical RAM for          rho,v,vnew:       0.79 MB

     Dynamical RAM for               rhoin:       0.26 MB

     Dynamical RAM for            rho*nmix:       1.89 MB

     Dynamical RAM for           G-vectors:       0.50 MB

     Dynamical RAM for          h,s,v(r/c):       0.14 MB

     Dynamical RAM for          <psi|beta>:       0.05 MB

     Dynamical RAM for                 psi:       0.82 MB

     Dynamical RAM for                hpsi:       0.82 MB

     Dynamical RAM for                spsi:       0.82 MB

     Dynamical RAM for      wfcinit/wfcrot:       1.03 MB

     Dynamical RAM for           addusdens:      22.41 MB

     Dynamical RAM for          addusforce:      23.19 MB

     Dynamical RAM for         addusstress:      23.70 MB

     Estimated static dynamical RAM per process >      40.38 MB

     Estimated max dynamical RAM per process >      64.08 MB

     Estimated total dynamical RAM >       1.19 GB

     Initial potential from superposition of free atoms

     starting charge   55.99693, renormalised to   56.00000
     Starting wfcs are   34 randomized atomic wfcs
     Checking if some PAW data can be deallocated... 
       PAW data deallocated on   12 nodes for type:  1
       PAW data deallocated on    7 nodes for type:  2

     total cpu time spent up to now is       13.1 secs

     Self-consistent Calculation

     iteration #  1     ecut=    70.00 Ry     beta= 0.70
     Davidson diagonalization with overlap
     ethr =  1.00E-02,  avg # of iterations =  1.1

     Threshold (ethr) on eigenvalues was too large:
     Diagonalizing with lowered threshold

     Davidson diagonalization with overlap
     ethr =  2.43E-04,  avg # of iterations =  2.3

     total cpu time spent up to now is       56.6 secs

     total energy              =   -2399.93881299 Ry
     estimated scf accuracy    <       0.12290586 Ry

     iteration #  2     ecut=    70.00 Ry     beta= 0.70
     Davidson diagonalization with overlap
     ethr =  2.19E-04,  avg # of iterations =  3.9

     total cpu time spent up to now is       83.7 secs

     total energy              =   -2399.97919363 Ry
     estimated scf accuracy    <       0.05150607 Ry

     iteration #  3     ecut=    70.00 Ry     beta= 0.70
     Davidson diagonalization with overlap
     ethr =  9.20E-05,  avg # of iterations =  2.2

     total cpu time spent up to now is      107.1 secs

     total energy              =   -2399.98783636 Ry
     estimated scf accuracy    <       0.00117023 Ry

     iteration #  4     ecut=    70.00 Ry     beta= 0.70
     Davidson diagonalization with overlap
     ethr =  2.09E-06,  avg # of iterations =  5.8

     total cpu time spent up to now is      145.1 secs

     total energy              =   -2399.98887568 Ry
     estimated scf accuracy    <       0.00093239 Ry

     iteration #  5     ecut=    70.00 Ry     beta= 0.70
     Davidson diagonalization with overlap
     ethr =  1.66E-06,  avg # of iterations =  2.0

     total cpu time spent up to now is      168.0 secs

     total energy              =   -2399.98893782 Ry
     estimated scf accuracy    <       0.00007895 Ry

     iteration #  6     ecut=    70.00 Ry     beta= 0.70
     Davidson diagonalization with overlap
     ethr =  1.41E-07,  avg # of iterations =  5.2

     total cpu time spent up to now is      201.6 secs

     total energy              =   -2399.98898437 Ry
     estimated scf accuracy    <       0.00002345 Ry

     iteration #  7     ecut=    70.00 Ry     beta= 0.70
     Davidson diagonalization with overlap
     ethr =  4.19E-08,  avg # of iterations =  2.0

     total cpu time spent up to now is      225.5 secs

     total energy              =   -2399.98898574 Ry
     estimated scf accuracy    <       0.00000204 Ry

     iteration #  8     ecut=    70.00 Ry     beta= 0.70
     Davidson diagonalization with overlap
     ethr =  3.64E-09,  avg # of iterations =  5.2

     total cpu time spent up to now is      257.2 secs

     End of self-consistent calculation

          k = 0.0000 0.0000 0.0000 ( 18341 PWs)   bands (ev):

   -18.3814 -18.3791 -18.3748 -18.3748 -18.3731 -18.3730 -18.3728 -18.3721
   -18.3642 -18.3642  -9.3579  -8.8453  -8.8453  -8.7170  -4.1493  -2.2716
    -0.0908  -0.0908   0.2434   0.7194   1.1184   1.2581   1.4757   1.4757
     1.9914   1.9914   2.3368   2.7032

     occupation numbers 
     1.0000   1.0000   1.0000   1.0000   1.0000   1.0000   1.0000   1.0000
     1.0000   1.0000   1.0000   1.0000   1.0000   1.0000   1.0000   1.0000
     1.0000   1.0000   1.0000   1.0000   1.0000   1.0000   1.0000   1.0000
     1.0000   1.0000   1.0000   1.0000

          k = 0.0000 0.0000 0.1936 ( 18361 PWs)   bands (ev):

   -18.3813 -18.3792 -18.3753 -18.3753 -18.3730 -18.3729 -18.3725 -18.3716
   -18.3643 -18.3643  -9.3212  -8.8320  -8.8320  -8.7224  -4.1379  -2.4289
    -0.0400  -0.0400   0.1179   0.7279   0.7762   1.1851   1.1851   1.6728
     1.9675   1.9675   2.2745   2.8433

     occupation numbers 
     1.0000   1.0000   1.0000   1.0000   1.0000   1.0000   1.0000   1.0000
     1.0000   1.0000   1.0000   1.0000   1.0000   1.0000   1.0000   1.0000
     1.0000   1.0000   1.0000   1.0000   1.0000   1.0000   1.0000   1.0000
     1.0000   1.0000   1.0000   1.0000

          k = 0.0000 0.0000 0.3871 ( 18364 PWs)   bands (ev):

   -18.3809 -18.3793 -18.3765 -18.3765 -18.3729 -18.3728 -18.3711 -18.3704
   -18.3646 -18.3646  -9.2193  -8.7994  -8.7994  -8.7481  -4.0883  -2.8265
    -0.0724   0.0890   0.0890   0.4268   0.6842   0.6842   0.9406   1.8477
     1.8477   1.9504   2.0942   2.9410

     occupation numbers 
     1.0000   1.0000   1.0000   1.0000   1.0000   1.0000   1.0000   1.0000
     1.0000   1.0000   1.0000   1.0000   1.0000   1.0000   1.0000   1.0000
     1.0000   1.0000   1.0000   1.0000   1.0000   1.0000   1.0000   1.0000
     1.0000   1.0000   1.0000   1.0000

          k = 0.0000 0.0000 0.5807 ( 18328 PWs)   bands (ev):

   -18.3804 -18.3795 -18.3776 -18.3776 -18.3729 -18.3728 -18.3696 -18.3693
   -18.3648 -18.3648  -9.0765  -8.8141  -8.7661  -8.7661  -3.9567  -3.2964
    -0.1222   0.1370   0.1370   0.2001   0.4229   0.4229   1.1940   1.6725
     1.6725   1.8218   2.1133   2.7218

     occupation numbers 
     1.0000   1.0000   1.0000   1.0000   1.0000   1.0000   1.0000   1.0000
     1.0000   1.0000   1.0000   1.0000   1.0000   1.0000   1.0000   1.0000
     1.0000   1.0000   1.0000   1.0000   1.0000   1.0000   1.0000   1.0000
     1.0000   1.0000   1.0000   1.0000

          k = 0.0000 0.0000-0.7743 ( 18328 PWs)   bands (ev):

   -18.3799 -18.3799 -18.3781 -18.3781 -18.3728 -18.3728 -18.3690 -18.3690
   -18.3649 -18.3649  -8.9293  -8.9293  -8.7521  -8.7521  -3.6950  -3.6950
    -0.0057  -0.0057   0.0511   0.0511   0.4602   0.4602   1.5035   1.5035
     1.5775   1.5775   2.3755   2.3755

     occupation numbers 
     1.0000   1.0000   1.0000   1.0000   1.0000   1.0000   1.0000   1.0000
     1.0000   1.0000   1.0000   1.0000   1.0000   1.0000   1.0000   1.0000
     1.0000   1.0000   1.0000   1.0000   1.0000   1.0000   1.0000   1.0000
     1.0000   1.0000   1.0000   1.0000

          k = 0.0000 0.1250 0.0000 ( 18346 PWs)   bands (ev):

   -18.3813 -18.3792 -18.3748 -18.3748 -18.3731 -18.3730 -18.3728 -18.3721
   -18.3642 -18.3642  -9.3428  -8.8771  -8.8383  -8.7125  -4.0962  -2.3924
    -0.0609   0.0181   0.2681   0.7512   1.0990   1.1635   1.4850   1.5264
     1.9574   1.9944   2.2931   2.6402

     occupation numbers 
     1.0000   1.0000   1.0000   1.0000   1.0000   1.0000   1.0000   1.0000
     1.0000   1.0000   1.0000   1.0000   1.0000   1.0000   1.0000   1.0000
     1.0000   1.0000   1.0000   1.0000   1.0000   1.0000   1.0000   1.0000
     1.0000   1.0000   1.0000   1.0000

          k = 0.0000 0.1250 0.1936 ( 18347 PWs)   bands (ev):

   -18.3811 -18.3793 -18.3753 -18.3753 -18.3730 -18.3728 -18.3725 -18.3716
   -18.3643 -18.3643  -9.3067  -8.8629  -8.8257  -8.7169  -4.0876  -2.5288
    -0.1013  -0.0014   0.2384   0.7230   0.7920   1.2093   1.2366   1.6337
     1.9280   1.9646   2.2492   2.7856

     occupation numbers 
     1.0000   1.0000   1.0000   1.0000   1.0000   1.0000   1.0000   1.0000
     1.0000   1.0000   1.0000   1.0000   1.0000   1.0000   1.0000   1.0000
     1.0000   1.0000   1.0000   1.0000   1.0000   1.0000   1.0000   1.0000
     1.0000   1.0000   1.0000   1.0000

          k = 0.0000 0.1250 0.3871 ( 18342 PWs)   bands (ev):

   -18.3808 -18.3794 -18.3765 -18.3764 -18.3730 -18.3728 -18.3711 -18.3704
   -18.3646 -18.3646  -9.2068  -8.8296  -8.7953  -8.7375  -4.0470  -2.8860
    -0.2314  -0.0301   0.3059   0.4279   0.6514   0.8643   1.0166   1.8049
     1.8323   1.9545   2.0908   2.9077

     occupation numbers 
     1.0000   1.0000   1.0000   1.0000   1.0000   1.0000   1.0000   1.0000
     1.0000   1.0000   1.0000   1.0000   1.0000   1.0000   1.0000   1.0000
     1.0000   1.0000   1.0000   1.0000   1.0000   1.0000   1.0000   1.0000
     1.0000   1.0000   1.0000   1.0000

          k = 0.0000 0.1250 0.5807 ( 18326 PWs)   bands (ev):

   -18.3804 -18.3796 -18.3776 -18.3776 -18.3729 -18.3728 -18.3696 -18.3693
   -18.3648 -18.3648  -9.0676  -8.8268  -8.7656  -8.7640  -3.9314  -3.3209
    -0.2834  -0.0751   0.1504   0.2064   0.5633   0.7229   1.2348   1.6416
     1.6463   1.8369   2.1531   2.7343

     occupation numbers 
     1.0000   1.0000   1.0000   1.0000   1.0000   1.0000   1.0000   1.0000
     1.0000   1.0000   1.0000   1.0000   1.0000   1.0000   1.0000   1.0000
     1.0000   1.0000   1.0000   1.0000   1.0000   1.0000   1.0000   1.0000
     1.0000   1.0000   1.0000   1.0000

          k = 0.0000 0.1250-0.7743 ( 18326 PWs)   bands (ev):

   -18.3800 -18.3800 -18.3780 -18.3780 -18.3728 -18.3728 -18.3689 -18.3689
   -18.3649 -18.3649  -8.9262  -8.9262  -8.7554  -8.7554  -3.6918  -3.6918
    -0.2061  -0.2061   0.0736   0.0736   0.6795   0.6795   1.4989   1.4989
     1.5798   1.5798   2.4189   2.4189

     occupation numbers 
     1.0000   1.0000   1.0000   1.0000   1.0000   1.0000   1.0000   1.0000
     1.0000   1.0000   1.0000   1.0000   1.0000   1.0000   1.0000   1.0000
     1.0000   1.0000   1.0000   1.0000   1.0000   1.0000   1.0000   1.0000
     1.0000   1.0000   1.0000   1.0000

          k = 0.0000 0.2500 0.0000 ( 18346 PWs)   bands (ev):

   -18.3810 -18.3795 -18.3748 -18.3748 -18.3730 -18.3729 -18.3729 -18.3722
   -18.3642 -18.3642  -9.2989  -8.9520  -8.8186  -8.7137  -3.9419  -2.6843
     0.0243   0.2371   0.3410   0.8415   0.9862   1.0714   1.5108   1.5810
     1.8686   2.0028   2.2019   2.4627

     occupation numbers 
     1.0000   1.0000   1.0000   1.0000   1.0000   1.0000   1.0000   1.0000
     1.0000   1.0000   1.0000   1.0000   1.0000   1.0000   1.0000   1.0000
     1.0000   1.0000   1.0000   1.0000   1.0000   1.0000   1.0000   1.0000
     1.0000   1.0000   1.0000   1.0000

          k = 0.0000 0.2500 0.1936 ( 18349 PWs)   bands (ev):

   -18.3809 -18.3795 -18.3753 -18.3753 -18.3731 -18.3728 -18.3724 -18.3717
   -18.3643 -18.3643  -9.2647  -8.9343  -8.8080  -8.7162  -3.9415  -2.7804
    -0.1505   0.0293   0.4591   0.7728   0.8352   1.2764   1.3345   1.5323
     1.8445   1.9598   2.1796   2.6187

     occupation numbers 
     1.0000   1.0000   1.0000   1.0000   1.0000   1.0000   1.0000   1.0000
     1.0000   1.0000   1.0000   1.0000   1.0000   1.0000   1.0000   1.0000
     1.0000   1.0000   1.0000   1.0000   1.0000   1.0000   1.0000   1.0000
     1.0000   1.0000   1.0000   1.0000

          k = 0.0000 0.2500 0.3871 ( 18334 PWs)   bands (ev):

   -18.3806 -18.3796 -18.3764 -18.3764 -18.3730 -18.3728 -18.3710 -18.3704
   -18.3646 -18.3646  -9.1706  -8.8912  -8.7839  -8.7308  -3.9277  -3.0477
    -0.3806  -0.2221   0.4609   0.5428   0.6932   1.1550   1.1679   1.7619
     1.8013   1.9186   2.0647   2.7991

     occupation numbers 
     1.0000   1.0000   1.0000   1.0000   1.0000   1.0000   1.0000   1.0000
     1.0000   1.0000   1.0000   1.0000   1.0000   1.0000   1.0000   1.0000
     1.0000   1.0000   1.0000   1.0000   1.0000   1.0000   1.0000   1.0000
     1.0000   1.0000   1.0000   1.0000

          k = 0.0000 0.2500 0.5807 ( 18345 PWs)   bands (ev):

   -18.3804 -18.3799 -18.3775 -18.3775 -18.3729 -18.3728 -18.3696 -18.3693
   -18.3648 -18.3648  -9.0418  -8.8593  -8.7641  -8.7613  -3.8592  -3.3911
    -0.4800  -0.3548   0.1626   0.2149   0.8926   1.0456   1.3165   1.6168
     1.6355   1.8645   2.2284   2.7432

     occupation numbers 
     1.0000   1.0000   1.0000   1.0000   1.0000   1.0000   1.0000   1.0000
     1.0000   1.0000   1.0000   1.0000   1.0000   1.0000   1.0000   1.0000
     1.0000   1.0000   1.0000   1.0000   1.0000   1.0000   1.0000   1.0000
     1.0000   1.0000   1.0000   1.0000

          k = 0.0000 0.2500-0.7743 ( 18318 PWs)   bands (ev):

   -18.3802 -18.3802 -18.3779 -18.3779 -18.3729 -18.3729 -18.3689 -18.3689
   -18.3649 -18.3649  -8.9179  -8.9179  -8.7638  -8.7638  -3.6841  -3.6841
    -0.4495  -0.4495   0.0742   0.0742   1.0007   1.0007   1.4753   1.4753
     1.6533   1.6533   2.5087   2.5087

     occupation numbers 
     1.0000   1.0000   1.0000   1.0000   1.0000   1.0000   1.0000   1.0000
     1.0000   1.0000   1.0000   1.0000   1.0000   1.0000   1.0000   1.0000
     1.0000   1.0000   1.0000   1.0000   1.0000   1.0000   1.0000   1.0000
     1.0000   1.0000   1.0000   1.0000

          k = 0.0000 0.3750 0.0000 ( 18360 PWs)   bands (ev):

   -18.3806 -18.3798 -18.3748 -18.3748 -18.3730 -18.3729 -18.3728 -18.3724
   -18.3642 -18.3642  -9.2300  -9.0457  -8.7898  -8.7300  -3.7000  -3.0392
     0.1494   0.3479   0.4582   0.7942   0.9721   1.1030   1.5462   1.5966
     1.7971   2.0091   2.1249   2.2120

     occupation numbers 
     1.0000   1.0000   1.0000   1.0000   1.0000   1.0000   1.0000   1.0000
     1.0000   1.0000   1.0000   1.0000   1.0000   1.0000   1.0000   1.0000
     1.0000   1.0000   1.0000   1.0000   1.0000   1.0000   1.0000   1.0000
     1.0000   1.0000   1.0000   1.0000

          k = 0.0000 0.3750 0.1936 ( 18347 PWs)   bands (ev):

   -18.3806 -18.3798 -18.3753 -18.3753 -18.3730 -18.3729 -18.3722 -18.3718
   -18.3643 -18.3643  -9.1987  -9.0233  -8.7824  -8.7297  -3.7134  -3.0995
    -0.1460  -0.0193   0.7174   0.8702   0.8922   1.2516   1.3697   1.5112
     1.8416   1.9649   2.0918   2.3655

     occupation numbers 
     1.0000   1.0000   1.0000   1.0000   1.0000   1.0000   1.0000   1.0000
     1.0000   1.0000   1.0000   1.0000   1.0000   1.0000   1.0000   1.0000
     1.0000   1.0000   1.0000   1.0000   1.0000   1.0000   1.0000   1.0000
     1.0000   1.0000   1.0000   1.0000

          k = 0.0000 0.3750 0.3871 ( 18342 PWs)   bands (ev):

   -18.3805 -18.3799 -18.3764 -18.3764 -18.3730 -18.3729 -18.3708 -18.3706
   -18.3646 -18.3645  -9.1140  -8.9657  -8.7676  -8.7362  -3.7438  -3.2719
    -0.4555  -0.3713   0.4994   0.5422   1.0129   1.3108   1.3156   1.6539
     1.8010   1.9859   2.0246   2.6005

     occupation numbers 
     1.0000   1.0000   1.0000   1.0000   1.0000   1.0000   1.0000   1.0000
     1.0000   1.0000   1.0000   1.0000   1.0000   1.0000   1.0000   1.0000
     1.0000   1.0000   1.0000   1.0000   1.0000   1.0000   1.0000   1.0000
     1.0000   1.0000   1.0000   1.0000

          k = 0.0000 0.3750 0.5807 ( 18366 PWs)   bands (ev):

   -18.3804 -18.3801 -18.3774 -18.3774 -18.3729 -18.3729 -18.3695 -18.3693
   -18.3648 -18.3648  -9.0023  -8.9041  -8.7624  -8.7603  -3.7512  -3.4974
    -0.6010  -0.5425   0.1779   0.2030   1.1787   1.1810   1.3959   1.6855
     1.7033   1.8638   2.3428   2.6913

     occupation numbers 
     1.0000   1.0000   1.0000   1.0000   1.0000   1.0000   1.0000   1.0000
     1.0000   1.0000   1.0000   1.0000   1.0000   1.0000   1.0000   1.0000
     1.0000   1.0000   1.0000   1.0000   1.0000   1.0000   1.0000   1.0000
     1.0000   1.0000   1.0000   1.0000

          k = 0.0000 0.3750-0.7743 ( 18364 PWs)   bands (ev):

   -18.3803 -18.3803 -18.3778 -18.3778 -18.3729 -18.3729 -18.3689 -18.3689
   -18.3649 -18.3649  -8.9087  -8.9087  -8.7733  -8.7733  -3.6761  -3.6761
    -0.6124  -0.6124   0.0736   0.0736   1.1286   1.1286   1.5993   1.5993
     1.7423   1.7423   2.5912   2.5912

     occupation numbers 
     1.0000   1.0000   1.0000   1.0000   1.0000   1.0000   1.0000   1.0000
     1.0000   1.0000   1.0000   1.0000   1.0000   1.0000   1.0000   1.0000
     1.0000   1.0000   1.0000   1.0000   1.0000   1.0000   1.0000   1.0000
     1.0000   1.0000   1.0000   1.0000

          k = 0.0000-0.5000 0.0000 ( 18326 PWs)   bands (ev):

   -18.3802 -18.3802 -18.3747 -18.3747 -18.3730 -18.3730 -18.3726 -18.3726
   -18.3642 -18.3642  -9.1425  -9.1425  -8.7578  -8.7578  -3.3904  -3.3904
     0.2819   0.2819   0.6128   0.6128   1.0921   1.0921   1.5798   1.5798
     1.8972   1.8972   2.0865   2.0865

     occupation numbers 
     1.0000   1.0000   1.0000   1.0000   1.0000   1.0000   1.0000   1.0000
     1.0000   1.0000   1.0000   1.0000   1.0000   1.0000   1.0000   1.0000
     1.0000   1.0000   1.0000   1.0000   1.0000   1.0000   1.0000   1.0000
     1.0000   1.0000   1.0000   1.0000

          k = 0.0000-0.5000 0.1936 ( 18352 PWs)   bands (ev):

   -18.3802 -18.3802 -18.3753 -18.3753 -18.3730 -18.3730 -18.3721 -18.3721
   -18.3643 -18.3643  -9.1153  -9.1153  -8.7540  -8.7540  -3.4236  -3.4236
    -0.0944  -0.0944   0.9006   0.9006   1.0134   1.0134   1.4632   1.4632
     1.9825   1.9825   2.0922   2.0922

     occupation numbers 
     1.0000   1.0000   1.0000   1.0000   1.0000   1.0000   1.0000   1.0000
     1.0000   1.0000   1.0000   1.0000   1.0000   1.0000   1.0000   1.0000
     1.0000   1.0000   1.0000   1.0000   1.0000   1.0000   1.0000   1.0000
     1.0000   1.0000   1.0000   1.0000

          k = 0.0000-0.5000 0.3871 ( 18354 PWs)   bands (ev):

   -18.3802 -18.3802 -18.3764 -18.3764 -18.3729 -18.3729 -18.3707 -18.3707
   -18.3646 -18.3646  -9.0431  -9.0431  -8.7501  -8.7501  -3.5159  -3.5159
    -0.4517  -0.4517   0.5253   0.5253   1.2932   1.2932   1.4290   1.4290
     1.8771   1.8771   2.3181   2.3181

     occupation numbers 
     1.0000   1.0000   1.0000   1.0000   1.0000   1.0000   1.0000   1.0000
     1.0000   1.0000   1.0000   1.0000   1.0000   1.0000   1.0000   1.0000
     1.0000   1.0000   1.0000   1.0000   1.0000   1.0000   1.0000   1.0000
     1.0000   1.0000   1.0000   1.0000

          k = 0.0000-0.5000 0.5807 ( 18344 PWs)   bands (ev):

   -18.3803 -18.3803 -18.3774 -18.3774 -18.3729 -18.3729 -18.3694 -18.3694
   -18.3648 -18.3648  -8.9542  -8.9542  -8.7609  -8.7609  -3.6240  -3.6240
    -0.6247  -0.6247   0.1912   0.1912   1.2124   1.2124   1.6098   1.6098
     1.8022   1.8022   2.5385   2.5385

     occupation numbers 
     1.0000   1.0000   1.0000   1.0000   1.0000   1.0000   1.0000   1.0000
     1.0000   1.0000   1.0000   1.0000   1.0000   1.0000   1.0000   1.0000
     1.0000   1.0000   1.0000   1.0000   1.0000   1.0000   1.0000   1.0000
     1.0000   1.0000   1.0000   1.0000

          k = 0.0000-0.5000-0.7743 ( 18356 PWs)   bands (ev):

   -18.3804 -18.3804 -18.3777 -18.3777 -18.3728 -18.3728 -18.3689 -18.3689
   -18.3649 -18.3649  -8.9044  -8.9044  -8.7777  -8.7777  -3.6728  -3.6728
    -0.6691  -0.6691   0.0737   0.0737   1.1315   1.1315   1.7052   1.7052
     1.7796   1.7796   2.6296   2.6296

     occupation numbers 
     1.0000   1.0000   1.0000   1.0000   1.0000   1.0000   1.0000   1.0000
     1.0000   1.0000   1.0000   1.0000   1.0000   1.0000   1.0000   1.0000
     1.0000   1.0000   1.0000   1.0000   1.0000   1.0000   1.0000   1.0000
     1.0000   1.0000   1.0000   1.0000

          k = 0.1250 0.1250 0.0000 ( 18381 PWs)   bands (ev):

   -18.3812 -18.3793 -18.3748 -18.3748 -18.3731 -18.3730 -18.3729 -18.3722
   -18.3643 -18.3643  -9.3281  -8.8889  -8.8475  -8.7113  -4.0454  -2.4904
    -0.0694   0.1341   0.2921   0.7818   1.0851   1.1056   1.4712   1.5631
     1.9546   1.9680   2.2480   2.5866

     occupation numbers 
     1.0000   1.0000   1.0000   1.0000   1.0000   1.0000   1.0000   1.0000
     1.0000   1.0000   1.0000   1.0000   1.0000   1.0000   1.0000   1.0000
     1.0000   1.0000   1.0000   1.0000   1.0000   1.0000   1.0000   1.0000
     1.0000   1.0000   1.0000   1.0000

          k = 0.1250 0.1250 0.1936 ( 18365 PWs)   bands (ev):

   -18.3811 -18.3793 -18.3753 -18.3753 -18.3730 -18.3729 -18.3725 -18.3716
   -18.3644 -18.3643  -9.2926  -8.8750  -8.8342  -8.7149  -4.0398  -2.6133
    -0.0792  -0.0183   0.2876   0.7585   0.8039   1.2041   1.3001   1.5922
     1.9193   1.9360   2.2256   2.7323

     occupation numbers 
     1.0000   1.0000   1.0000   1.0000   1.0000   1.0000   1.0000   1.0000
     1.0000   1.0000   1.0000   1.0000   1.0000   1.0000   1.0000   1.0000
     1.0000   1.0000   1.0000   1.0000   1.0000   1.0000   1.0000   1.0000
     1.0000   1.0000   1.0000   1.0000

          k = 0.1250 0.1250 0.3871 ( 18353 PWs)   bands (ev):

   -18.3808 -18.3794 -18.3765 -18.3764 -18.3730 -18.3729 -18.3711 -18.3704
   -18.3646 -18.3646  -9.1947  -8.8433  -8.8014  -8.7326  -4.0086  -2.9407
    -0.3243   0.1097   0.1449   0.5222   0.5886   1.0367   1.0717   1.7619
     1.8368   1.9491   2.0882   2.8596

     occupation numbers 
     1.0000   1.0000   1.0000   1.0000   1.0000   1.0000   1.0000   1.0000
     1.0000   1.0000   1.0000   1.0000   1.0000   1.0000   1.0000   1.0000
     1.0000   1.0000   1.0000   1.0000   1.0000   1.0000   1.0000   1.0000
     1.0000   1.0000   1.0000   1.0000

          k = 0.1250 0.1250 0.5807 ( 18311 PWs)   bands (ev):

   -18.3804 -18.3797 -18.3776 -18.3775 -18.3729 -18.3728 -18.3696 -18.3693
   -18.3648 -18.3648  -9.0590  -8.8365  -8.7680  -8.7612  -3.9094  -3.3454
    -0.4218  -0.0290   0.1108   0.3086   0.4035   0.9861   1.2747   1.5669
     1.6837   1.8506   2.1862   2.7279

     occupation numbers 
     1.0000   1.0000   1.0000   1.0000   1.0000   1.0000   1.0000   1.0000
     1.0000   1.0000   1.0000   1.0000   1.0000   1.0000   1.0000   1.0000
     1.0000   1.0000   1.0000   1.0000   1.0000   1.0000   1.0000   1.0000
     1.0000   1.0000   1.0000   1.0000

          k = 0.1250 0.1250-0.7743 ( 18324 PWs)   bands (ev):

   -18.3802 -18.3799 -18.3781 -18.3779 -18.3728 -18.3728 -18.3690 -18.3689
   -18.3649 -18.3649  -8.9269  -8.9199  -8.7623  -8.7539  -3.7059  -3.6761
    -0.4226  -0.1369   0.0060   0.2495   0.4643   1.0069   1.4503   1.5186
     1.5461   1.6490   2.4394   2.4656

     occupation numbers 
     1.0000   1.0000   1.0000   1.0000   1.0000   1.0000   1.0000   1.0000
     1.0000   1.0000   1.0000   1.0000   1.0000   1.0000   1.0000   1.0000
     1.0000   1.0000   1.0000   1.0000   1.0000   1.0000   1.0000   1.0000
     1.0000   1.0000   1.0000   1.0000

          k = 0.1250 0.2500 0.0000 ( 18355 PWs)   bands (ev):

   -18.3809 -18.3795 -18.3748 -18.3748 -18.3731 -18.3729 -18.3729 -18.3723
   -18.3642 -18.3642  -9.2851  -8.9515  -8.8339  -8.7177  -3.8983  -2.7387
    -0.0086   0.3047   0.3627   0.8693   0.9648   1.0770   1.4842   1.5941
     1.8730   1.9751   2.1519   2.4335

     occupation numbers 
     1.0000   1.0000   1.0000   1.0000   1.0000   1.0000   1.0000   1.0000
     1.0000   1.0000   1.0000   1.0000   1.0000   1.0000   1.0000   1.0000
     1.0000   1.0000   1.0000   1.0000   1.0000   1.0000   1.0000   1.0000
     1.0000   1.0000   1.0000   1.0000

          k = 0.1250 0.2500 0.1936 ( 18358 PWs)   bands (ev):

   -18.3808 -18.3796 -18.3753 -18.3753 -18.3730 -18.3729 -18.3724 -18.3717
   -18.3643 -18.3643  -9.2515  -8.9344  -8.8221  -8.7194  -3.9014  -2.8321
    -0.1092   0.0241   0.4005   0.8312   0.8641   1.2601   1.3684   1.5037
     1.8509   1.9301   2.1594   2.5813

     occupation numbers 
     1.0000   1.0000   1.0000   1.0000   1.0000   1.0000   1.0000   1.0000
     1.0000   1.0000   1.0000   1.0000   1.0000   1.0000   1.0000   1.0000
     1.0000   1.0000   1.0000   1.0000   1.0000   1.0000   1.0000   1.0000
     1.0000   1.0000   1.0000   1.0000

          k = 0.1250 0.2500 0.3871 ( 18338 PWs)   bands (ev):

   -18.3806 -18.3796 -18.3765 -18.3764 -18.3730 -18.3728 -18.3710 -18.3705
   -18.3646 -18.3646  -9.1595  -8.8936  -8.7942  -8.7316  -3.8981  -3.0888
    -0.4134  -0.1002   0.3442   0.5422   0.6457   1.2022   1.2845   1.7359
     1.8091   1.9177   2.0648   2.7281

     occupation numbers 
     1.0000   1.0000   1.0000   1.0000   1.0000   1.0000   1.0000   1.0000
     1.0000   1.0000   1.0000   1.0000   1.0000   1.0000   1.0000   1.0000
     1.0000   1.0000   1.0000   1.0000   1.0000   1.0000   1.0000   1.0000
     1.0000   1.0000   1.0000   1.0000

          k = 0.1250 0.2500 0.5807 ( 18349 PWs)   bands (ev):

   -18.3804 -18.3799 -18.3776 -18.3774 -18.3729 -18.3728 -18.3696 -18.3693
   -18.3648 -18.3648  -9.0344  -8.8642  -8.7683  -8.7599  -3.8462  -3.4147
    -0.5587  -0.2065   0.1007   0.2631   0.6820   1.2312   1.3545   1.5525
     1.6955   1.8759   2.2528   2.6857

     occupation numbers 
     1.0000   1.0000   1.0000   1.0000   1.0000   1.0000   1.0000   1.0000
     1.0000   1.0000   1.0000   1.0000   1.0000   1.0000   1.0000   1.0000
     1.0000   1.0000   1.0000   1.0000   1.0000   1.0000   1.0000   1.0000
     1.0000   1.0000   1.0000   1.0000

          k = 0.1250 0.2500-0.7743 ( 18344 PWs)   bands (ev):

   -18.3803 -18.3800 -18.3780 -18.3778 -18.3729 -18.3729 -18.3689 -18.3689
   -18.3649 -18.3649  -8.9218  -8.9110  -8.7714  -8.7587  -3.7105  -3.6680
    -0.5843  -0.2708  -0.0196   0.1916   0.7377   1.2545   1.3740   1.5597
     1.6214   1.7137   2.4722   2.5510

     occupation numbers 
     1.0000   1.0000   1.0000   1.0000   1.0000   1.0000   1.0000   1.0000
     1.0000   1.0000   1.0000   1.0000   1.0000   1.0000   1.0000   1.0000
     1.0000   1.0000   1.0000   1.0000   1.0000   1.0000   1.0000   1.0000
     1.0000   1.0000   1.0000   1.0000

          k = 0.1250 0.3750 0.0000 ( 18349 PWs)   bands (ev):

   -18.3806 -18.3798 -18.3748 -18.3748 -18.3730 -18.3729 -18.3728 -18.3724
   -18.3642 -18.3642  -9.2178  -9.0397  -8.8043  -8.7384  -3.6689  -3.0552
     0.1118   0.3498   0.4756   0.7929   0.9963   1.1273   1.5199   1.5911
     1.8032   1.9853   2.0646   2.2209

     occupation numbers 
     1.0000   1.0000   1.0000   1.0000   1.0000   1.0000   1.0000   1.0000
     1.0000   1.0000   1.0000   1.0000   1.0000   1.0000   1.0000   1.0000
     1.0000   1.0000   1.0000   1.0000   1.0000   1.0000   1.0000   1.0000
     1.0000   1.0000   1.0000   1.0000

          k = 0.1250 0.3750 0.1936 ( 18342 PWs)   bands (ev):

   -18.3805 -18.3798 -18.3753 -18.3753 -18.3730 -18.3729 -18.3722 -18.3719
   -18.3643 -18.3643  -9.1873  -9.0180  -8.7957  -8.7372  -3.6864  -3.1183
    -0.1115  -0.0061   0.6133   0.8693   0.9546   1.2075   1.3690   1.5318
     1.8532   1.9479   2.0745   2.3548

     occupation numbers 
     1.0000   1.0000   1.0000   1.0000   1.0000   1.0000   1.0000   1.0000
     1.0000   1.0000   1.0000   1.0000   1.0000   1.0000   1.0000   1.0000
     1.0000   1.0000   1.0000   1.0000   1.0000   1.0000   1.0000   1.0000
     1.0000   1.0000   1.0000   1.0000

          k = 0.1250 0.3750 0.3871 ( 18340 PWs)   bands (ev):

   -18.3804 -18.3799 -18.3764 -18.3764 -18.3730 -18.3729 -18.3709 -18.3706
   -18.3646 -18.3646  -9.1047  -8.9627  -8.7773  -8.7409  -3.7280  -3.2942
    -0.4397  -0.2816   0.4401   0.5189   0.9144   1.3409   1.3826   1.6197
     1.7960   1.9890   2.0491   2.5398

     occupation numbers 
     1.0000   1.0000   1.0000   1.0000   1.0000   1.0000   1.0000   1.0000
     1.0000   1.0000   1.0000   1.0000   1.0000   1.0000   1.0000   1.0000
     1.0000   1.0000   1.0000   1.0000   1.0000   1.0000   1.0000   1.0000
     1.0000   1.0000   1.0000   1.0000

          k = 0.1250 0.3750 0.5807 ( 18361 PWs)   bands (ev):

   -18.3804 -18.3801 -18.3775 -18.3774 -18.3729 -18.3729 -18.3695 -18.3693
   -18.3648 -18.3648  -8.9969  -8.9049  -8.7662  -8.7609  -3.7504  -3.5170
    -0.6048  -0.4131   0.1117   0.2053   1.0498   1.3091   1.3868   1.6487
     1.7181   1.8729   2.3333   2.5832

     occupation numbers 
     1.0000   1.0000   1.0000   1.0000   1.0000   1.0000   1.0000   1.0000
     1.0000   1.0000   1.0000   1.0000   1.0000   1.0000   1.0000   1.0000
     1.0000   1.0000   1.0000   1.0000   1.0000   1.0000   1.0000   1.0000
     1.0000   1.0000   1.0000   1.0000

          k = 0.1250 0.3750-0.7743 ( 18368 PWs)   bands (ev):

   -18.3804 -18.3802 -18.3779 -18.3777 -18.3729 -18.3729 -18.3689 -18.3689
   -18.3649 -18.3649  -8.9132  -8.9046  -8.7774  -8.7675  -3.7028  -3.6727
    -0.6424  -0.4569  -0.0106   0.1046   1.0591   1.2692   1.4240   1.6743
     1.7217   1.7747   2.4814   2.5585

     occupation numbers 
     1.0000   1.0000   1.0000   1.0000   1.0000   1.0000   1.0000   1.0000
     1.0000   1.0000   1.0000   1.0000   1.0000   1.0000   1.0000   1.0000
     1.0000   1.0000   1.0000   1.0000   1.0000   1.0000   1.0000   1.0000
     1.0000   1.0000   1.0000   1.0000

          k = 0.1250-0.5000 0.0000 ( 18320 PWs)   bands (ev):

   -18.3802 -18.3802 -18.3748 -18.3748 -18.3729 -18.3729 -18.3726 -18.3726
   -18.3642 -18.3642  -9.1328  -9.1328  -8.7698  -8.7698  -3.3786  -3.3786
     0.2528   0.2528   0.6232   0.6232   1.1146   1.1146   1.5612   1.5612
     1.8834   1.8834   2.0750   2.0750

     occupation numbers 
     1.0000   1.0000   1.0000   1.0000   1.0000   1.0000   1.0000   1.0000
     1.0000   1.0000   1.0000   1.0000   1.0000   1.0000   1.0000   1.0000
     1.0000   1.0000   1.0000   1.0000   1.0000   1.0000   1.0000   1.0000
     1.0000   1.0000   1.0000   1.0000

          k = 0.1250-0.5000 0.1936 ( 18340 PWs)   bands (ev):

   -18.3802 -18.3802 -18.3753 -18.3753 -18.3729 -18.3729 -18.3720 -18.3720
   -18.3643 -18.3643  -9.1063  -9.1063  -8.7649  -8.7649  -3.4160  -3.4160
    -0.0698  -0.0698   0.8372   0.8372   1.0149   1.0149   1.4742   1.4742
     1.9654   1.9654   2.1049   2.1049

     occupation numbers 
     1.0000   1.0000   1.0000   1.0000   1.0000   1.0000   1.0000   1.0000
     1.0000   1.0000   1.0000   1.0000   1.0000   1.0000   1.0000   1.0000
     1.0000   1.0000   1.0000   1.0000   1.0000   1.0000   1.0000   1.0000
     1.0000   1.0000   1.0000   1.0000

          k = 0.1250-0.5000 0.3871 ( 18356 PWs)   bands (ev):

   -18.3802 -18.3802 -18.3764 -18.3764 -18.3729 -18.3729 -18.3707 -18.3707
   -18.3646 -18.3646  -9.0364  -9.0364  -8.7577  -8.7577  -3.5181  -3.5181
    -0.3964  -0.3964   0.4842   0.4842   1.2376   1.2376   1.4485   1.4485
     1.8775   1.8775   2.3047   2.3047

     occupation numbers 
     1.0000   1.0000   1.0000   1.0000   1.0000   1.0000   1.0000   1.0000
     1.0000   1.0000   1.0000   1.0000   1.0000   1.0000   1.0000   1.0000
     1.0000   1.0000   1.0000   1.0000   1.0000   1.0000   1.0000   1.0000
     1.0000   1.0000   1.0000   1.0000

          k = 0.1250-0.5000 0.5807 ( 18364 PWs)   bands (ev):

   -18.3803 -18.3803 -18.3774 -18.3774 -18.3729 -18.3729 -18.3694 -18.3694
   -18.3648 -18.3648  -8.9516  -8.9516  -8.7633  -8.7633  -3.6351  -3.6351
    -0.5537  -0.5537   0.1501   0.1501   1.2604   1.2604   1.5452   1.5452
     1.7989   1.7989   2.4538   2.4538

     occupation numbers 
     1.0000   1.0000   1.0000   1.0000   1.0000   1.0000   1.0000   1.0000
     1.0000   1.0000   1.0000   1.0000   1.0000   1.0000   1.0000   1.0000
     1.0000   1.0000   1.0000   1.0000   1.0000   1.0000   1.0000   1.0000
     1.0000   1.0000   1.0000   1.0000

          k = 0.1250-0.5000-0.7743 ( 18396 PWs)   bands (ev):

   -18.3804 -18.3804 -18.3778 -18.3778 -18.3729 -18.3729 -18.3689 -18.3689
   -18.3649 -18.3649  -8.9057  -8.9057  -8.7757  -8.7757  -3.6872  -3.6872
    -0.5943  -0.5943   0.0341   0.0341   1.1955   1.1955   1.6284   1.6284
     1.7855   1.7855   2.4965   2.4965

     occupation numbers 
     1.0000   1.0000   1.0000   1.0000   1.0000   1.0000   1.0000   1.0000
     1.0000   1.0000   1.0000   1.0000   1.0000   1.0000   1.0000   1.0000
     1.0000   1.0000   1.0000   1.0000   1.0000   1.0000   1.0000   1.0000
     1.0000   1.0000   1.0000   1.0000

          k = 0.2500 0.2500 0.0000 ( 18373 PWs)   bands (ev):

   -18.3807 -18.3797 -18.3748 -18.3748 -18.3731 -18.3729 -18.3729 -18.3723
   -18.3643 -18.3642  -9.2451  -8.9681  -8.8528  -8.7338  -3.7730  -2.8899
    -0.0112   0.3637   0.4260   0.8952   0.9486   1.1214   1.4604   1.5922
     1.8572   1.9346   2.0440   2.3398

     occupation numbers 
     1.0000   1.0000   1.0000   1.0000   1.0000   1.0000   1.0000   1.0000
     1.0000   1.0000   1.0000   1.0000   1.0000   1.0000   1.0000   1.0000
     1.0000   1.0000   1.0000   1.0000   1.0000   1.0000   1.0000   1.0000
     1.0000   1.0000   1.0000   1.0000

          k = 0.2500 0.2500 0.1936 ( 18343 PWs)   bands (ev):

   -18.3807 -18.3797 -18.3753 -18.3753 -18.3730 -18.3729 -18.3723 -18.3718
   -18.3643 -18.3643  -9.2134  -8.9515  -8.8394  -8.7334  -3.7862  -2.9739
    -0.0479   0.0396   0.3582   0.8436   0.9650   1.2782   1.2970   1.5449
     1.8515   1.8923   2.0990   2.4784

     occupation numbers 
     1.0000   1.0000   1.0000   1.0000   1.0000   1.0000   1.0000   1.0000
     1.0000   1.0000   1.0000   1.0000   1.0000   1.0000   1.0000   1.0000
     1.0000   1.0000   1.0000   1.0000   1.0000   1.0000   1.0000   1.0000
     1.0000   1.0000   1.0000   1.0000

          k = 0.2500 0.2500 0.3871 ( 18328 PWs)   bands (ev):

   -18.3805 -18.3797 -18.3765 -18.3764 -18.3730 -18.3728 -18.3709 -18.3705
   -18.3646 -18.3645  -9.1274  -8.9118  -8.8063  -8.7391  -3.8129  -3.2002
    -0.4132   0.1179   0.1625   0.4580   0.6413   1.3083   1.4246   1.6971
     1.8061   1.9286   2.0545   2.5746

     occupation numbers 
     1.0000   1.0000   1.0000   1.0000   1.0000   1.0000   1.0000   1.0000
     1.0000   1.0000   1.0000   1.0000   1.0000   1.0000   1.0000   1.0000
     1.0000   1.0000   1.0000   1.0000   1.0000   1.0000   1.0000   1.0000
     1.0000   1.0000   1.0000   1.0000

          k = 0.2500 0.2500 0.5807 ( 18358 PWs)   bands (ev):

   -18.3804 -18.3799 -18.3776 -18.3774 -18.3729 -18.3729 -18.3696 -18.3693
   -18.3648 -18.3648  -9.0134  -8.8805  -8.7726  -8.7611  -3.8075  -3.4790
    -0.5774  -0.1033   0.0354   0.3950   0.4503   1.3650   1.4578   1.5588
     1.7207   1.8977   2.2792   2.5202

     occupation numbers 
     1.0000   1.0000   1.0000   1.0000   1.0000   1.0000   1.0000   1.0000
     1.0000   1.0000   1.0000   1.0000   1.0000   1.0000   1.0000   1.0000
     1.0000   1.0000   1.0000   1.0000   1.0000   1.0000   1.0000   1.0000
     1.0000   1.0000   1.0000   1.0000

          k = 0.2500 0.2500-0.7743 ( 18384 PWs)   bands (ev):

   -18.3804 -18.3799 -18.3781 -18.3778 -18.3729 -18.3729 -18.3690 -18.3689
   -18.3649 -18.3649  -8.9209  -8.9049  -8.7772  -8.7584  -3.7316  -3.6726
    -0.6105  -0.2059  -0.0914   0.4171   0.4749   1.3467   1.4519   1.5959
     1.6518   1.7695   2.4341   2.4830

     occupation numbers 
     1.0000   1.0000   1.0000   1.0000   1.0000   1.0000   1.0000   1.0000
     1.0000   1.0000   1.0000   1.0000   1.0000   1.0000   1.0000   1.0000
     1.0000   1.0000   1.0000   1.0000   1.0000   1.0000   1.0000   1.0000
     1.0000   1.0000   1.0000   1.0000

          k = 0.2500 0.3750 0.0000 ( 18365 PWs)   bands (ev):

   -18.3805 -18.3799 -18.3748 -18.3748 -18.3730 -18.3729 -18.3728 -18.3725
   -18.3643 -18.3642  -9.1830  -9.0275  -8.8373  -8.7638  -3.5821  -3.1066
     0.0604   0.3094   0.5253   0.7819   1.0646   1.1952   1.4739   1.5614
     1.7965   1.9263   1.9769   2.1974

     occupation numbers 
     1.0000   1.0000   1.0000   1.0000   1.0000   1.0000   1.0000   1.0000
     1.0000   1.0000   1.0000   1.0000   1.0000   1.0000   1.0000   1.0000
     1.0000   1.0000   1.0000   1.0000   1.0000   1.0000   1.0000   1.0000
     1.0000   1.0000   1.0000   1.0000

          k = 0.2500 0.3750 0.1936 ( 18352 PWs)   bands (ev):

   -18.3805 -18.3799 -18.3753 -18.3753 -18.3730 -18.3729 -18.3722 -18.3719
   -18.3643 -18.3643  -9.1545  -9.0076  -8.8257  -8.7599  -3.6109  -3.1743
    -0.0320   0.0413   0.4827   0.8514   0.9857   1.0682   1.3974   1.6017
     1.8319   1.9636   2.0197   2.3234

     occupation numbers 
     1.0000   1.0000   1.0000   1.0000   1.0000   1.0000   1.0000   1.0000
     1.0000   1.0000   1.0000   1.0000   1.0000   1.0000   1.0000   1.0000
     1.0000   1.0000   1.0000   1.0000   1.0000   1.0000   1.0000   1.0000
     1.0000   1.0000   1.0000   1.0000

          k = 0.2500 0.3750 0.3871 ( 18353 PWs)   bands (ev):

   -18.3804 -18.3799 -18.3764 -18.3764 -18.3730 -18.3729 -18.3708 -18.3706
   -18.3646 -18.3646  -9.0782  -8.9580  -8.7984  -8.7558  -3.6828  -3.3544
    -0.3529  -0.0687   0.3383   0.4344   0.7127   1.3255   1.4388   1.6299
     1.7993   1.9893   2.0922   2.4259

     occupation numbers 
     1.0000   1.0000   1.0000   1.0000   1.0000   1.0000   1.0000   1.0000
     1.0000   1.0000   1.0000   1.0000   1.0000   1.0000   1.0000   1.0000
     1.0000   1.0000   1.0000   1.0000   1.0000   1.0000   1.0000   1.0000
     1.0000   1.0000   1.0000   1.0000

          k = 0.2500 0.3750 0.5807 ( 18376 PWs)   bands (ev):

   -18.3803 -18.3800 -18.3776 -18.3774 -18.3730 -18.3729 -18.3695 -18.3694
   -18.3648 -18.3648  -8.9819  -8.9088  -8.7728  -8.7648  -3.7443  -3.5675
    -0.4998  -0.1940   0.0189   0.2045   0.7708   1.4027   1.4832   1.6005
     1.7289   1.8887   2.2563   2.3785

     occupation numbers 
     1.0000   1.0000   1.0000   1.0000   1.0000   1.0000   1.0000   1.0000
     1.0000   1.0000   1.0000   1.0000   1.0000   1.0000   1.0000   1.0000
     1.0000   1.0000   1.0000   1.0000   1.0000   1.0000   1.0000   1.0000
     1.0000   1.0000   1.0000   1.0000

          k = 0.2500 0.3750-0.7743 ( 18380 PWs)   bands (ev):

   -18.3803 -18.3800 -18.3780 -18.3778 -18.3729 -18.3729 -18.3690 -18.3689
   -18.3649 -18.3649  -8.9157  -8.9038  -8.7771  -8.7633  -3.7359  -3.6948
    -0.5303  -0.2698  -0.1094   0.1638   0.8318   1.4016   1.4197   1.6478
     1.7283   1.8113   2.2973   2.3646

     occupation numbers 
     1.0000   1.0000   1.0000   1.0000   1.0000   1.0000   1.0000   1.0000
     1.0000   1.0000   1.0000   1.0000   1.0000   1.0000   1.0000   1.0000
     1.0000   1.0000   1.0000   1.0000   1.0000   1.0000   1.0000   1.0000
     1.0000   1.0000   1.0000   1.0000

          k = 0.2500-0.5000 0.0000 ( 18348 PWs)   bands (ev):

   -18.3802 -18.3802 -18.3748 -18.3748 -18.3730 -18.3730 -18.3726 -18.3726
   -18.3642 -18.3642  -9.1065  -9.1065  -8.8017  -8.8017  -3.3496  -3.3496
     0.1841   0.1841   0.6499   0.6499   1.1757   1.1757   1.5149   1.5149
     1.8284   1.8284   2.0610   2.0610

     occupation numbers 
     1.0000   1.0000   1.0000   1.0000   1.0000   1.0000   1.0000   1.0000
     1.0000   1.0000   1.0000   1.0000   1.0000   1.0000   1.0000   1.0000
     1.0000   1.0000   1.0000   1.0000   1.0000   1.0000   1.0000   1.0000
     1.0000   1.0000   1.0000   1.0000

          k = 0.2500-0.5000 0.1936 ( 18358 PWs)   bands (ev):

   -18.3802 -18.3802 -18.3753 -18.3753 -18.3730 -18.3730 -18.3721 -18.3721
   -18.3643 -18.3643  -9.0820  -9.0820  -8.7939  -8.7939  -3.3975  -3.3975
    -0.0015  -0.0015   0.7208   0.7208   0.9656   0.9656   1.5199   1.5199
     1.9111   1.9111   2.1384   2.1384

     occupation numbers 
     1.0000   1.0000   1.0000   1.0000   1.0000   1.0000   1.0000   1.0000
     1.0000   1.0000   1.0000   1.0000   1.0000   1.0000   1.0000   1.0000
     1.0000   1.0000   1.0000   1.0000   1.0000   1.0000   1.0000   1.0000
     1.0000   1.0000   1.0000   1.0000

          k = 0.2500-0.5000 0.3871 ( 18330 PWs)   bands (ev):

   -18.3801 -18.3801 -18.3764 -18.3764 -18.3729 -18.3729 -18.3707 -18.3707
   -18.3645 -18.3645  -9.0185  -9.0185  -8.7779  -8.7779  -3.5233  -3.5233
    -0.2364  -0.2364   0.3998   0.3998   1.0094   1.0094   1.5528   1.5528
     1.8840   1.8840   2.2744   2.2744

     occupation numbers 
     1.0000   1.0000   1.0000   1.0000   1.0000   1.0000   1.0000   1.0000
     1.0000   1.0000   1.0000   1.0000   1.0000   1.0000   1.0000   1.0000
     1.0000   1.0000   1.0000   1.0000   1.0000   1.0000   1.0000   1.0000
     1.0000   1.0000   1.0000   1.0000

          k = 0.2500-0.5000 0.5807 ( 18370 PWs)   bands (ev):

   -18.3801 -18.3801 -18.3775 -18.3775 -18.3729 -18.3729 -18.3695 -18.3695
   -18.3648 -18.3648  -8.9449  -8.9449  -8.7695  -8.7695  -3.6611  -3.6611
    -0.3542  -0.3542   0.0694   0.0694   1.1611   1.1611   1.5415   1.5415
     1.8068   1.8068   2.3007   2.3007

     occupation numbers 
     1.0000   1.0000   1.0000   1.0000   1.0000   1.0000   1.0000   1.0000
     1.0000   1.0000   1.0000   1.0000   1.0000   1.0000   1.0000   1.0000
     1.0000   1.0000   1.0000   1.0000   1.0000   1.0000   1.0000   1.0000
     1.0000   1.0000   1.0000   1.0000

          k = 0.2500-0.5000-0.7743 ( 18372 PWs)   bands (ev):

   -18.3802 -18.3802 -18.3779 -18.3779 -18.3729 -18.3729 -18.3689 -18.3689
   -18.3649 -18.3649  -8.9086  -8.9086  -8.7710  -8.7710  -3.7209  -3.7209
    -0.3919  -0.3919  -0.0353  -0.0353   1.2101   1.2101   1.5225   1.5225
     1.7981   1.7981   2.2766   2.2766

     occupation numbers 
     1.0000   1.0000   1.0000   1.0000   1.0000   1.0000   1.0000   1.0000
     1.0000   1.0000   1.0000   1.0000   1.0000   1.0000   1.0000   1.0000
     1.0000   1.0000   1.0000   1.0000   1.0000   1.0000   1.0000   1.0000
     1.0000   1.0000   1.0000   1.0000

          k = 0.3750 0.3750 0.0000 ( 18327 PWs)   bands (ev):

   -18.3803 -18.3800 -18.3748 -18.3748 -18.3729 -18.3729 -18.3727 -18.3725
   -18.3642 -18.3642  -9.1311  -9.0319  -8.8581  -8.8017  -3.4574  -3.1968
     0.0577   0.2167   0.5985   0.7457   1.1634   1.2642   1.4497   1.5122
     1.7444   1.8215   1.9942   2.1365

     occupation numbers 
     1.0000   1.0000   1.0000   1.0000   1.0000   1.0000   1.0000   1.0000
     1.0000   1.0000   1.0000   1.0000   1.0000   1.0000   1.0000   1.0000
     1.0000   1.0000   1.0000   1.0000   1.0000   1.0000   1.0000   1.0000
     1.0000   1.0000   1.0000   1.0000

          k = 0.3750 0.3750 0.1936 ( 18357 PWs)   bands (ev):

   -18.3803 -18.3800 -18.3753 -18.3753 -18.3730 -18.3729 -18.3722 -18.3720
   -18.3643 -18.3643  -9.1057  -9.0129  -8.8445  -8.7941  -3.5015  -3.2643
     0.0335   0.1066   0.4552   0.8432   0.8502   0.9475   1.4858   1.6865
     1.7536   1.9239   2.0648   2.2642

     occupation numbers 
     1.0000   1.0000   1.0000   1.0000   1.0000   1.0000   1.0000   1.0000
     1.0000   1.0000   1.0000   1.0000   1.0000   1.0000   1.0000   1.0000
     1.0000   1.0000   1.0000   1.0000   1.0000   1.0000   1.0000   1.0000
     1.0000   1.0000   1.0000   1.0000

          k = 0.3750 0.3750 0.3871 ( 18353 PWs)   bands (ev):

   -18.3802 -18.3800 -18.3764 -18.3764 -18.3730 -18.3729 -18.3708 -18.3707
   -18.3646 -18.3646  -9.0393  -8.9660  -8.8112  -8.7787  -3.6135  -3.4378
    -0.1941   0.1879   0.2195   0.3683   0.5358   1.0337   1.5627   1.7419
     1.7680   1.9660   2.1575   2.3333

     occupation numbers 
     1.0000   1.0000   1.0000   1.0000   1.0000   1.0000   1.0000   1.0000
     1.0000   1.0000   1.0000   1.0000   1.0000   1.0000   1.0000   1.0000
     1.0000   1.0000   1.0000   1.0000   1.0000   1.0000   1.0000   1.0000
     1.0000   1.0000   1.0000   1.0000

          k = 0.3750 0.3750 0.5807 ( 18378 PWs)   bands (ev):

   -18.3802 -18.3799 -18.3776 -18.3775 -18.3729 -18.3729 -18.3695 -18.3695
   -18.3648 -18.3648  -8.9605  -8.9193  -8.7772  -8.7709  -3.7247  -3.6300
    -0.2862  -0.0938  -0.0420   0.4021   0.4111   1.1919   1.6203   1.6565
     1.7688   1.8984   2.1249   2.2669

     occupation numbers 
     1.0000   1.0000   1.0000   1.0000   1.0000   1.0000   1.0000   1.0000
     1.0000   1.0000   1.0000   1.0000   1.0000   1.0000   1.0000   1.0000
     1.0000   1.0000   1.0000   1.0000   1.0000   1.0000   1.0000   1.0000
     1.0000   1.0000   1.0000   1.0000

          k = 0.3750 0.3750-0.7743 ( 18374 PWs)   bands (ev):

   -18.3802 -18.3799 -18.3781 -18.3779 -18.3729 -18.3729 -18.3690 -18.3689
   -18.3649 -18.3649  -8.9149  -8.9067  -8.7724  -8.7629  -3.7563  -3.7283
    -0.2962  -0.2152  -0.1770   0.3984   0.4866   1.2569   1.5394   1.7121
     1.7624   1.8381   2.0604   2.2396

     occupation numbers 
     1.0000   1.0000   1.0000   1.0000   1.0000   1.0000   1.0000   1.0000
     1.0000   1.0000   1.0000   1.0000   1.0000   1.0000   1.0000   1.0000
     1.0000   1.0000   1.0000   1.0000   1.0000   1.0000   1.0000   1.0000
     1.0000   1.0000   1.0000   1.0000

          k = 0.3750-0.5000 0.0000 ( 18378 PWs)   bands (ev):

   -18.3802 -18.3802 -18.3748 -18.3748 -18.3730 -18.3730 -18.3726 -18.3726
   -18.3642 -18.3642  -9.0733  -9.0733  -8.8405  -8.8405  -3.3201  -3.3201
     0.1173   0.1173   0.6793   0.6793   1.2540   1.2540   1.4663   1.4663
     1.7412   1.7412   2.0609   2.0609

     occupation numbers 
     1.0000   1.0000   1.0000   1.0000   1.0000   1.0000   1.0000   1.0000
     1.0000   1.0000   1.0000   1.0000   1.0000   1.0000   1.0000   1.0000
     1.0000   1.0000   1.0000   1.0000   1.0000   1.0000   1.0000   1.0000
     1.0000   1.0000   1.0000   1.0000

          k = 0.3750-0.5000 0.1936 ( 18350 PWs)   bands (ev):

   -18.3802 -18.3802 -18.3753 -18.3753 -18.3730 -18.3730 -18.3721 -18.3721
   -18.3643 -18.3643  -9.0516  -9.0516  -8.8289  -8.8289  -3.3789  -3.3789
     0.0879   0.0879   0.6099   0.6099   0.8852   0.8852   1.6049   1.6049
     1.8219   1.8219   2.1734   2.1734

     occupation numbers 
     1.0000   1.0000   1.0000   1.0000   1.0000   1.0000   1.0000   1.0000
     1.0000   1.0000   1.0000   1.0000   1.0000   1.0000   1.0000   1.0000
     1.0000   1.0000   1.0000   1.0000   1.0000   1.0000   1.0000   1.0000
     1.0000   1.0000   1.0000   1.0000

          k = 0.3750-0.5000 0.3871 ( 18348 PWs)   bands (ev):

   -18.3801 -18.3801 -18.3764 -18.3764 -18.3729 -18.3729 -18.3708 -18.3708
   -18.3646 -18.3646  -8.9969  -8.9969  -8.8017  -8.8017  -3.5284  -3.5284
     0.0098   0.0098   0.3299   0.3299   0.6855   0.6855   1.6759   1.6759
     1.8741   1.8741   2.2498   2.2498

     occupation numbers 
     1.0000   1.0000   1.0000   1.0000   1.0000   1.0000   1.0000   1.0000
     1.0000   1.0000   1.0000   1.0000   1.0000   1.0000   1.0000   1.0000
     1.0000   1.0000   1.0000   1.0000   1.0000   1.0000   1.0000   1.0000
     1.0000   1.0000   1.0000   1.0000

          k = 0.3750-0.5000 0.5807 ( 18372 PWs)   bands (ev):

   -18.3800 -18.3800 -18.3776 -18.3776 -18.3729 -18.3729 -18.3695 -18.3695
   -18.3648 -18.3648  -8.9377  -8.9377  -8.7761  -8.7761  -3.6861  -3.6861
    -0.1058  -0.1058   0.0599   0.0599   0.7946   0.7946   1.7025   1.7025
     1.8236   1.8236   2.1652   2.1652

     occupation numbers 
     1.0000   1.0000   1.0000   1.0000   1.0000   1.0000   1.0000   1.0000
     1.0000   1.0000   1.0000   1.0000   1.0000   1.0000   1.0000   1.0000
     1.0000   1.0000   1.0000   1.0000   1.0000   1.0000   1.0000   1.0000
     1.0000   1.0000   1.0000   1.0000

          k = 0.3750-0.5000-0.7743 ( 18368 PWs)   bands (ev):

   -18.3800 -18.3800 -18.3781 -18.3781 -18.3729 -18.3729 -18.3689 -18.3689
   -18.3649 -18.3649  -8.9113  -8.9113  -8.7665  -8.7665  -3.7532  -3.7532
    -0.2166  -0.2166   0.0477   0.0477   0.8610   0.8610   1.6767   1.6767
     1.8106   1.8106   2.0993   2.0993

     occupation numbers 
     1.0000   1.0000   1.0000   1.0000   1.0000   1.0000   1.0000   1.0000
     1.0000   1.0000   1.0000   1.0000   1.0000   1.0000   1.0000   1.0000
     1.0000   1.0000   1.0000   1.0000   1.0000   1.0000   1.0000   1.0000
     1.0000   1.0000   1.0000   1.0000

          k =-0.5000-0.5000 0.0000 ( 18396 PWs)   bands (ev):

   -18.3802 -18.3802 -18.3748 -18.3748 -18.3730 -18.3730 -18.3727 -18.3727
   -18.3642 -18.3642  -9.0558  -9.0558  -8.8603  -8.8603  -3.3077  -3.3077
     0.0902   0.0902   0.6925   0.6925   1.2969   1.2969   1.4453   1.4453
     1.6921   1.6921   2.0631   2.0631

     occupation numbers 
     1.0000   1.0000   1.0000   1.0000   1.0000   1.0000   1.0000   1.0000
     1.0000   1.0000   1.0000   1.0000   1.0000   1.0000   1.0000   1.0000
     1.0000   1.0000   1.0000   1.0000   1.0000   1.0000   1.0000   1.0000
     1.0000   1.0000   1.0000   1.0000

          k =-0.5000-0.5000 0.1936 ( 18360 PWs)   bands (ev):

   -18.3802 -18.3802 -18.3753 -18.3753 -18.3730 -18.3730 -18.3721 -18.3721
   -18.3643 -18.3643  -9.0358  -9.0358  -8.8467  -8.8467  -3.3712  -3.3712
     0.1375   0.1375   0.5564   0.5564   0.8469   0.8469   1.7087   1.7087
     1.7169   1.7169   2.1879   2.1879

     occupation numbers 
     1.0000   1.0000   1.0000   1.0000   1.0000   1.0000   1.0000   1.0000
     1.0000   1.0000   1.0000   1.0000   1.0000   1.0000   1.0000   1.0000
     1.0000   1.0000   1.0000   1.0000   1.0000   1.0000   1.0000   1.0000
     1.0000   1.0000   1.0000   1.0000

          k =-0.5000-0.5000 0.3871 ( 18372 PWs)   bands (ev):

   -18.3801 -18.3801 -18.3765 -18.3765 -18.3730 -18.3730 -18.3708 -18.3708
   -18.3646 -18.3646  -8.9863  -8.9863  -8.8132  -8.8132  -3.5305  -3.5305
     0.2429   0.2429   0.3386   0.3386   0.3863   0.3863   1.7496   1.7496
     1.8435   1.8435   2.2429   2.2429

     occupation numbers 
     1.0000   1.0000   1.0000   1.0000   1.0000   1.0000   1.0000   1.0000
     1.0000   1.0000   1.0000   1.0000   1.0000   1.0000   1.0000   1.0000
     1.0000   1.0000   1.0000   1.0000   1.0000   1.0000   1.0000   1.0000
     1.0000   1.0000   1.0000   1.0000

          k =-0.5000-0.5000 0.5807 ( 18384 PWs)   bands (ev):

   -18.3799 -18.3799 -18.3777 -18.3777 -18.3729 -18.3729 -18.3695 -18.3695
   -18.3648 -18.3648  -8.9345  -8.9345  -8.7791  -8.7791  -3.6962  -3.6962
    -0.0728  -0.0728   0.3439   0.3439   0.4211   0.4211   1.7919   1.7919
     1.8387   1.8387   2.0906   2.0906

     occupation numbers 
     1.0000   1.0000   1.0000   1.0000   1.0000   1.0000   1.0000   1.0000
     1.0000   1.0000   1.0000   1.0000   1.0000   1.0000   1.0000   1.0000
     1.0000   1.0000   1.0000   1.0000   1.0000   1.0000   1.0000   1.0000
     1.0000   1.0000   1.0000   1.0000

          k =-0.5000-0.5000-0.7743 ( 18400 PWs)   bands (ev):

   -18.3799 -18.3799 -18.3782 -18.3782 -18.3729 -18.3729 -18.3689 -18.3689
   -18.3649 -18.3649  -8.9124  -8.9124  -8.7647  -8.7647  -3.7662  -3.7662
    -0.2098  -0.2098   0.3558   0.3558   0.4917   0.4917   1.8098   1.8098
     1.8139   1.8139   1.9869   1.9869

     occupation numbers 
     1.0000   1.0000   1.0000   1.0000   1.0000   1.0000   1.0000   1.0000
     1.0000   1.0000   1.0000   1.0000   1.0000   1.0000   1.0000   1.0000
     1.0000   1.0000   1.0000   1.0000   1.0000   1.0000   1.0000   1.0000
     1.0000   1.0000   1.0000   1.0000

     highest occupied level (ev):     2.9410

!    total energy              =   -2399.98898682 Ry

     total all-electron energy =    -81641.234335 Ry
     estimated scf accuracy    <       0.00000055 Ry

     The total energy is the sum of the following terms:
     one-electron contribution =    -202.53098842 Ry
     hartree contribution      =     129.42680235 Ry
     xc contribution           =    -159.00377806 Ry
     ewald contribution        =    -220.09145386 Ry
     one-center paw contrib.   =   -1947.78956883 Ry
      -> PAW hartree energy AE =     108.34817005 Ry
      -> PAW hartree energy PS =    -107.58150761 Ry
      -> PAW xc energy AE      =    -328.95888487 Ry
      -> PAW xc energy PS      =      47.25759543 Ry
      -> total E_H with PAW    =     130.19346479 Ry
      -> total E_XC with PAW   =    -440.70506751 Ry

     convergence has been achieved in   8 iterations

     Forces acting on atoms (cartesian axes, Ry/au):

     atom    1 type  1   force =     0.00000000    0.00000000    0.00000000
     atom    2 type  1   force =     0.00000000    0.00000000   -0.00000000
     atom    3 type  2   force =     0.00334656    0.00334656    0.00000000
     atom    4 type  2   force =    -0.00334656   -0.00334656    0.00000000
     atom    5 type  2   force =     0.00334656   -0.00334656    0.00000000
     atom    6 type  2   force =    -0.00334656    0.00334656    0.00000000
     The non-local contrib.  to forces
     atom    1 type  1   force =     0.00000000    0.00000000    0.00000000
     atom    2 type  1   force =     0.00000000    0.00000000    0.00000000
     atom    3 type  2   force =     0.01206057    0.01206057    0.00000000
     atom    4 type  2   force =    -0.01206057   -0.01206057    0.00000000
     atom    5 type  2   force =     0.01206057   -0.01206057    0.00000000
     atom    6 type  2   force =    -0.01206057    0.01206057    0.00000000
     The ionic contribution  to forces
     atom    1 type  1   force =    -0.00000000   -0.00000000    0.00000000
     atom    2 type  1   force =    -0.00000000   -0.00000000    0.00000000
     atom    3 type  2   force =    -0.62953558   -0.62953558    0.00000000
     atom    4 type  2   force =     0.62953558    0.62953558   -0.00000000
     atom    5 type  2   force =    -0.62953558    0.62953558    0.00000000
     atom    6 type  2   force =     0.62953558   -0.62953558    0.00000000
     The local contribution  to forces
     atom    1 type  1   force =     0.00000000    0.00000000    0.00000000
     atom    2 type  1   force =     0.00000000    0.00000000    0.00000000
     atom    3 type  2   force =     0.62236490    0.62236490    0.00000000
     atom    4 type  2   force =    -0.62236490   -0.62236490    0.00000000
     atom    5 type  2   force =     0.62236490   -0.62236490    0.00000000
     atom    6 type  2   force =    -0.62236490    0.62236490    0.00000000
     The core correction contribution to forces
     atom    1 type  1   force =     0.00000000    0.00000000   -0.00000000
     atom    2 type  1   force =     0.00000000    0.00000000   -0.00000000
     atom    3 type  2   force =    -0.00159128   -0.00159128   -0.00000000
     atom    4 type  2   force =     0.00159128    0.00159128   -0.00000000
     atom    5 type  2   force =    -0.00159128    0.00159128   -0.00000000
     atom    6 type  2   force =     0.00159128   -0.00159128   -0.00000000
     The Hubbard contrib.    to forces
     atom    1 type  1   force =     0.00000000    0.00000000    0.00000000
     atom    2 type  1   force =     0.00000000    0.00000000    0.00000000
     atom    3 type  2   force =     0.00000000    0.00000000    0.00000000
     atom    4 type  2   force =     0.00000000    0.00000000    0.00000000
     atom    5 type  2   force =     0.00000000    0.00000000    0.00000000
     atom    6 type  2   force =     0.00000000    0.00000000    0.00000000
     The SCF correction term to forces
     atom    1 type  1   force =     0.00000000   -0.00000000    0.00000000
     atom    2 type  1   force =    -0.00000000   -0.00000000    0.00000000
     atom    3 type  2   force =     0.00004794    0.00004794   -0.00000000
     atom    4 type  2   force =    -0.00004794   -0.00004794   -0.00000000
     atom    5 type  2   force =     0.00004794   -0.00004794   -0.00000000
     atom    6 type  2   force =    -0.00004794    0.00004794   -0.00000000

     Total force =     0.009465     Total SCF correction =     0.000136


     Computing stress (Cartesian axis) and pressure

          total   stress  (Ry/bohr**3)                   (kbar)     P=       -3.69
  -0.00000792   0.00000000   0.00000000           -1.16        0.00        0.00
   0.00000000  -0.00000792   0.00000000            0.00       -1.16        0.00
   0.00000000   0.00000000  -0.00005940            0.00        0.00       -8.74

     kinetic stress (kbar)   7275.10      0.00      0.00
                                0.00   7275.10      0.00
                                0.00      0.00   7242.17

     local   stress (kbar)  -1579.31     -0.00     -0.00
                               -0.00  -1579.31     -0.00
                               -0.00     -0.00  -5431.99

     nonloc. stress (kbar)    115.73      0.00      0.00
                                0.00    115.73      0.00
                                0.00      0.00    111.57

     hartree stress (kbar)   2867.85      0.00      0.00
                                0.00   2867.85      0.00
                                0.00      0.00   4524.79

     exc-cor stress (kbar)   6126.95      0.00      0.00
                                0.00   6126.95      0.00
                                0.00      0.00   6127.78

     corecor stress (kbar)  -8250.51     -0.00     -0.00
                               -0.00  -8250.51      0.00
                               -0.00      0.00  -8248.94

     ewald   stress (kbar)  -6556.96     -0.00     -0.00
                               -0.00  -6556.96     -0.00
                               -0.00     -0.00  -4334.13

     hubbard stress (kbar)      0.00      0.00      0.00
                                0.00      0.00      0.00
                                0.00      0.00      0.00

     DFT-D   stress (kbar)      0.00      0.00      0.00
                                0.00      0.00      0.00
                                0.00      0.00      0.00

     XDM     stress (kbar)      0.00      0.00      0.00
                                0.00      0.00      0.00
                                0.00      0.00      0.00

     dft-nl  stress (kbar)      0.00      0.00      0.00
                                0.00      0.00      0.00
                                0.00      0.00      0.00

     TS-vdW  stress (kbar)      0.00      0.00      0.00
                                0.00      0.00      0.00
                                0.00      0.00      0.00



     Writing output data file ./out/SnI2tetr.save/

     init_run     :      9.91s CPU     10.95s WALL (       1 calls)
     electrons    :    232.34s CPU    244.63s WALL (       1 calls)
     forces       :      4.40s CPU      4.55s WALL (       1 calls)
     stress       :      7.89s CPU      7.91s WALL (       1 calls)

     Called by init_run:
     wfcinit      :      8.53s CPU      8.66s WALL (       1 calls)
     wfcinit:atom :      0.06s CPU      0.07s WALL (      75 calls)
     wfcinit:wfcr :      8.00s CPU      8.10s WALL (      75 calls)
     potinit      :      0.46s CPU      0.86s WALL (       1 calls)
     hinit0       :      0.60s CPU      0.75s WALL (       1 calls)

     Called by electrons:
     c_bands      :    202.46s CPU    212.76s WALL (       9 calls)
     sum_band     :     27.17s CPU     27.82s WALL (       9 calls)
     v_of_rho     :      0.30s CPU      0.48s WALL (       9 calls)
     v_h          :      0.02s CPU      0.02s WALL (       9 calls)
     v_xc         :      0.34s CPU      0.37s WALL (      11 calls)
     newd         :      1.16s CPU      1.21s WALL (       9 calls)
     PAW_pot      :      1.40s CPU      1.60s WALL (       9 calls)
     mix_rho      :      0.05s CPU      0.43s WALL (       9 calls)

     Called by c_bands:
     init_us_2    :      2.42s CPU      2.54s WALL (    1575 calls)
     cegterg      :    194.78s CPU    196.46s WALL (     675 calls)

     Called by sum_band:
     sum_band:wei :      0.00s CPU      0.06s WALL (       9 calls)
     sum_band:loo :     25.96s CPU     26.43s WALL (       9 calls)
     sum_band:buf :      0.23s CPU      0.24s WALL (     675 calls)
     sum_band:ini :      0.96s CPU      0.98s WALL (     675 calls)
     sum_band:cal :      7.16s CPU      7.18s WALL (     675 calls)
     sum_band:bec :      0.10s CPU      0.17s WALL (     675 calls)
     addusdens    :      1.09s CPU      1.10s WALL (       9 calls)
     addusd:skk   :      0.00s CPU      0.00s WALL (      18 calls)
     addusd:dgemm :      0.36s CPU      0.37s WALL (      18 calls)
     addusd:qvan2 :      0.61s CPU      0.62s WALL (      18 calls)

     Called by *egterg:
     cdiaghg      :      4.87s CPU      4.90s WALL (    2836 calls)
     cegterg:over :     11.93s CPU     11.98s WALL (    2236 calls)
     cegterg:upda :      6.40s CPU      6.43s WALL (    2236 calls)
     cegterg:last :     15.91s CPU     15.97s WALL (    1588 calls)
     h_psi        :    138.70s CPU    140.22s WALL (    2986 calls)
     s_psi        :     18.67s CPU     18.75s WALL (    2986 calls)
     g_psi        :      0.40s CPU      0.41s WALL (    2236 calls)

     Called by h_psi:
     h_psi:calbec :     22.37s CPU     22.47s WALL (    2986 calls)
     vloc_psi     :     97.45s CPU     98.80s WALL (    2986 calls)
     add_vuspsi   :     18.39s CPU     18.46s WALL (    2986 calls)

     General routines
     calbec       :     33.27s CPU     33.42s WALL (    4036 calls)
     fft          :      0.29s CPU      0.29s WALL (     125 calls)
     ffts         :      0.01s CPU      0.01s WALL (       9 calls)
     fftw         :    107.65s CPU    109.12s WALL (  131224 calls)

     Parallel routines
     fft_scatt_xy :      7.69s CPU      7.80s WALL (  131358 calls)
     fft_scatt_yz :     21.28s CPU     21.57s WALL (  131358 calls)

     PAW routines
     PAW_pot      :      1.40s CPU      1.60s WALL (       9 calls)
     PAW_symme    :      0.04s CPU      0.04s WALL (      18 calls)

     PWSCF        :   4m16.79s CPU   4m42.73s WALL


   This run was terminated on:  15: 9: 3  14Jan2021            

=------------------------------------------------------------------------------=
   JOB DONE.
=------------------------------------------------------------------------------=
