
     Program PWSCF v.6.7MaX starts on 14Jan2021 at 15:33:27 

     This program is part of the open-source Quantum ESPRESSO suite
     for quantum simulation of materials; please cite
         "P. Giannozzi et al., J. Phys.:Condens. Matter 21 395502 (2009);
         "P. Giannozzi et al., J. Phys.:Condens. Matter 29 465901 (2017);
          URL http://www.quantum-espresso.org", 
     in publications or presentations arising from this work. More details at
     http://www.quantum-espresso.org/quote

     Parallel version (MPI), running on    19 processors

     MPI processes distributed on     1 nodes
     R & G space division:  proc/nbgrp/npool/nimage =      19
     Waiting for input...
     Reading input from standard input

     Current dimensions of program PWSCF are:
     Max number of different atomic species (ntypx) = 10
     Max number of k-points (npk) =  40000
     Max angular momentum in pseudopotentials (lmaxx) =  3
     file Sn.pbe-dn-kjpaw_psl.1.0.0.UPF: wavefunction(s)  5S 5P 4D renormalized
     file I.pbe-n-kjpaw_psl.1.0.0.UPF: wavefunction(s)  5S renormalized

     Subspace diagonalization in iterative solution of the eigenvalue problem:
     a serial algorithm will be used

     Message from routine setup:
     using ibrav=0 with symmetry is DISCOURAGED, use correct ibrav instead

     Parallelization info
     --------------------
     sticks:   dense  smooth     PW     G-vecs:    dense   smooth      PW
     Min         220     220     60                10744    10744    1540
     Max         221     221     62                10749    10749    1542
     Sum        4197    4197   1153               204205   204205   29279


     Title: 
     SnI4un                                                                     


     bravais-lattice index     =            0
     lattice parameter (alat)  =      13.7130  a.u.
     unit-cell volume          =    2578.6558 (a.u.)^3
     number of atoms/cell      =            5
     number of atomic types    =            2
     number of electrons       =        42.00
     number of Kohn-Sham states=           21
     kinetic-energy cutoff     =      70.0000  Ry
     charge density cutoff     =     280.0000  Ry
     scf convergence threshold =      1.0E-06
     mixing beta               =       0.7000
     number of iterations used =            8  plain     mixing
     Exchange-correlation= SLA  PW   PBX  PBC
                           (   1   4   3   4   0   0   0)

     celldm(1)=  13.712957  celldm(2)=   0.000000  celldm(3)=   0.000000
     celldm(4)=   0.000000  celldm(5)=   0.000000  celldm(6)=   0.000000

     crystal axes: (cart. coord. in units of alat)
               a(1) = (   1.000000   0.000000   0.000000 )  
               a(2) = (   0.000000   1.000000   0.000000 )  
               a(3) = (   0.000000   0.000000   1.000000 )  

     reciprocal axes: (cart. coord. in units 2 pi/alat)
               b(1) = (  1.000000  0.000000  0.000000 )  
               b(2) = (  0.000000  1.000000  0.000000 )  
               b(3) = (  0.000000  0.000000  1.000000 )  


     PseudoPot. # 1 for Sn read from file:
     ../../../pseudo/Sn.pbe-dn-kjpaw_psl.1.0.0.UPF
     MD5 check sum: 67f11dec737d427557dc41ea34975807
     Pseudo is Projector augmented-wave + core cor, Zval = 14.0
     Generated using &quot;atomic&quot; code by A. Dal Corso  v.6.3
     Shape of augmentation charge: PSQ
     Using radial grid of 1243 points,  6 beta functions with: 
                l(1) =   0
                l(2) =   0
                l(3) =   1
                l(4) =   1
                l(5) =   2
                l(6) =   2
     Q(r) pseudized with 0 coefficients 


     PseudoPot. # 2 for I  read from file:
     ../../../pseudo/I.pbe-n-kjpaw_psl.1.0.0.UPF
     MD5 check sum: cd3d296c3308a581e1559a0c8a554cb5
     Pseudo is Projector augmented-wave + core cor, Zval =  7.0
     Generated using &quot;atomic&quot; code by A. Dal Corso  v.6.3
     Shape of augmentation charge: PSQ
     Using radial grid of 1247 points,  6 beta functions with: 
                l(1) =   0
                l(2) =   0
                l(3) =   1
                l(4) =   1
                l(5) =   2
                l(6) =   2
     Q(r) pseudized with 0 coefficients 


     atomic species   valence    mass     pseudopotential
        Sn            14.00   118.70000     Sn( 1.00)
        I              7.00   126.90000     I ( 1.00)

     24 Sym. Ops. (no inversion) found


                                    s                        frac. trans.

      isym =  1     identity                                     

 cryst.   s( 1) = (     1          0          0      )
                  (     0          1          0      )
                  (     0          0          1      )

 cart.    s( 1) = (  1.0000000  0.0000000  0.0000000 )
                  (  0.0000000  1.0000000  0.0000000 )
                  (  0.0000000  0.0000000  1.0000000 )


      isym =  2     180 deg rotation - cart. axis [0,0,1]        

 cryst.   s( 2) = (    -1          0          0      )
                  (     0         -1          0      )
                  (     0          0          1      )

 cart.    s( 2) = ( -1.0000000  0.0000000  0.0000000 )
                  (  0.0000000 -1.0000000  0.0000000 )
                  (  0.0000000  0.0000000  1.0000000 )


      isym =  3     180 deg rotation - cart. axis [0,1,0]        

 cryst.   s( 3) = (    -1          0          0      )
                  (     0          1          0      )
                  (     0          0         -1      )

 cart.    s( 3) = ( -1.0000000  0.0000000  0.0000000 )
                  (  0.0000000  1.0000000  0.0000000 )
                  (  0.0000000  0.0000000 -1.0000000 )


      isym =  4     180 deg rotation - cart. axis [1,0,0]        

 cryst.   s( 4) = (     1          0          0      )
                  (     0         -1          0      )
                  (     0          0         -1      )

 cart.    s( 4) = (  1.0000000  0.0000000  0.0000000 )
                  (  0.0000000 -1.0000000  0.0000000 )
                  (  0.0000000  0.0000000 -1.0000000 )


      isym =  5     120 deg rotation - cart. axis [-1,-1,-1]     

 cryst.   s( 5) = (     0          0          1      )
                  (     1          0          0      )
                  (     0          1          0      )

 cart.    s( 5) = (  0.0000000  1.0000000  0.0000000 )
                  (  0.0000000  0.0000000  1.0000000 )
                  (  1.0000000  0.0000000  0.0000000 )


      isym =  6     120 deg rotation - cart. axis [-1,1,1]       

 cryst.   s( 6) = (     0          0         -1      )
                  (    -1          0          0      )
                  (     0          1          0      )

 cart.    s( 6) = (  0.0000000 -1.0000000  0.0000000 )
                  (  0.0000000  0.0000000  1.0000000 )
                  ( -1.0000000  0.0000000  0.0000000 )


      isym =  7     120 deg rotation - cart. axis [1,1,-1]       

 cryst.   s( 7) = (     0          0         -1      )
                  (     1          0          0      )
                  (     0         -1          0      )

 cart.    s( 7) = (  0.0000000  1.0000000  0.0000000 )
                  (  0.0000000  0.0000000 -1.0000000 )
                  ( -1.0000000  0.0000000  0.0000000 )


      isym =  8     120 deg rotation - cart. axis [1,-1,1]       

 cryst.   s( 8) = (     0          0          1      )
                  (    -1          0          0      )
                  (     0         -1          0      )

 cart.    s( 8) = (  0.0000000 -1.0000000  0.0000000 )
                  (  0.0000000  0.0000000 -1.0000000 )
                  (  1.0000000  0.0000000  0.0000000 )


      isym =  9     120 deg rotation - cart. axis [1,1,1]        

 cryst.   s( 9) = (     0          1          0      )
                  (     0          0          1      )
                  (     1          0          0      )

 cart.    s( 9) = (  0.0000000  0.0000000  1.0000000 )
                  (  1.0000000  0.0000000  0.0000000 )
                  (  0.0000000  1.0000000  0.0000000 )


      isym = 10     120 deg rotation - cart. axis [-1,1,-1]      

 cryst.   s(10) = (     0         -1          0      )
                  (     0          0         -1      )
                  (     1          0          0      )

 cart.    s(10) = (  0.0000000  0.0000000  1.0000000 )
                  ( -1.0000000  0.0000000  0.0000000 )
                  (  0.0000000 -1.0000000  0.0000000 )


      isym = 11     120 deg rotation - cart. axis [1,-1,-1]      

 cryst.   s(11) = (     0         -1          0      )
                  (     0          0          1      )
                  (    -1          0          0      )

 cart.    s(11) = (  0.0000000  0.0000000 -1.0000000 )
                  ( -1.0000000  0.0000000  0.0000000 )
                  (  0.0000000  1.0000000  0.0000000 )


      isym = 12     120 deg rotation - cart. axis [-1,-1,1]      

 cryst.   s(12) = (     0          1          0      )
                  (     0          0         -1      )
                  (    -1          0          0      )

 cart.    s(12) = (  0.0000000  0.0000000 -1.0000000 )
                  (  1.0000000  0.0000000  0.0000000 )
                  (  0.0000000 -1.0000000  0.0000000 )


      isym = 13     inv. 180 deg rotation - cart. axis [1,1,0]   

 cryst.   s(13) = (     0         -1          0      )
                  (    -1          0          0      )
                  (     0          0          1      )

 cart.    s(13) = (  0.0000000 -1.0000000  0.0000000 )
                  ( -1.0000000  0.0000000  0.0000000 )
                  (  0.0000000  0.0000000  1.0000000 )


      isym = 14     inv. 180 deg rotation - cart. axis [1,-1,0]  

 cryst.   s(14) = (     0          1          0      )
                  (     1          0          0      )
                  (     0          0          1      )

 cart.    s(14) = (  0.0000000  1.0000000  0.0000000 )
                  (  1.0000000  0.0000000  0.0000000 )
                  (  0.0000000  0.0000000  1.0000000 )


      isym = 15     inv.  90 deg rotation - cart. axis [0,0,-1]  

 cryst.   s(15) = (     0          1          0      )
                  (    -1          0          0      )
                  (     0          0         -1      )

 cart.    s(15) = (  0.0000000 -1.0000000  0.0000000 )
                  (  1.0000000  0.0000000  0.0000000 )
                  (  0.0000000  0.0000000 -1.0000000 )


      isym = 16     inv.  90 deg rotation - cart. axis [0,0,1]   

 cryst.   s(16) = (     0         -1          0      )
                  (     1          0          0      )
                  (     0          0         -1      )

 cart.    s(16) = (  0.0000000  1.0000000  0.0000000 )
                  ( -1.0000000  0.0000000  0.0000000 )
                  (  0.0000000  0.0000000 -1.0000000 )


      isym = 17     inv. 180 deg rotation - cart. axis [1,0,1]   

 cryst.   s(17) = (     0          0         -1      )
                  (     0          1          0      )
                  (    -1          0          0      )

 cart.    s(17) = (  0.0000000  0.0000000 -1.0000000 )
                  (  0.0000000  1.0000000  0.0000000 )
                  ( -1.0000000  0.0000000  0.0000000 )


      isym = 18     inv. 180 deg rotation - cart. axis [-1,0,1]  

 cryst.   s(18) = (     0          0          1      )
                  (     0          1          0      )
                  (     1          0          0      )

 cart.    s(18) = (  0.0000000  0.0000000  1.0000000 )
                  (  0.0000000  1.0000000  0.0000000 )
                  (  1.0000000  0.0000000  0.0000000 )


      isym = 19     inv.  90 deg rotation - cart. axis [0,1,0]   

 cryst.   s(19) = (     0          0          1      )
                  (     0         -1          0      )
                  (    -1          0          0      )

 cart.    s(19) = (  0.0000000  0.0000000 -1.0000000 )
                  (  0.0000000 -1.0000000  0.0000000 )
                  (  1.0000000  0.0000000  0.0000000 )


      isym = 20     inv.  90 deg rotation - cart. axis [0,-1,0]  

 cryst.   s(20) = (     0          0         -1      )
                  (     0         -1          0      )
                  (     1          0          0      )

 cart.    s(20) = (  0.0000000  0.0000000  1.0000000 )
                  (  0.0000000 -1.0000000  0.0000000 )
                  ( -1.0000000  0.0000000  0.0000000 )


      isym = 21     inv. 180 deg rotation - cart. axis [0,1,1]   

 cryst.   s(21) = (     1          0          0      )
                  (     0          0         -1      )
                  (     0         -1          0      )

 cart.    s(21) = (  1.0000000  0.0000000  0.0000000 )
                  (  0.0000000  0.0000000 -1.0000000 )
                  (  0.0000000 -1.0000000  0.0000000 )


      isym = 22     inv. 180 deg rotation - cart. axis [0,1,-1]  

 cryst.   s(22) = (     1          0          0      )
                  (     0          0          1      )
                  (     0          1          0      )

 cart.    s(22) = (  1.0000000  0.0000000  0.0000000 )
                  (  0.0000000  0.0000000  1.0000000 )
                  (  0.0000000  1.0000000  0.0000000 )


      isym = 23     inv.  90 deg rotation - cart. axis [-1,0,0]  

 cryst.   s(23) = (    -1          0          0      )
                  (     0          0          1      )
                  (     0         -1          0      )

 cart.    s(23) = ( -1.0000000  0.0000000  0.0000000 )
                  (  0.0000000  0.0000000 -1.0000000 )
                  (  0.0000000  1.0000000  0.0000000 )


      isym = 24     inv.  90 deg rotation - cart. axis [1,0,0]   

 cryst.   s(24) = (    -1          0          0      )
                  (     0          0         -1      )
                  (     0          1          0      )

 cart.    s(24) = ( -1.0000000  0.0000000  0.0000000 )
                  (  0.0000000  0.0000000  1.0000000 )
                  (  0.0000000 -1.0000000  0.0000000 )


   Cartesian axes

     site n.     atom                  positions (alat units)
         1           Sn  tau(   1) = (   0.0000000   0.0000000   0.0000000  )
         2           I   tau(   2) = (   0.2339030   0.7660970   0.7660970  )
         3           I   tau(   3) = (   0.7660970   0.2339030   0.7660970  )
         4           I   tau(   4) = (   0.7660970   0.7660970   0.2339030  )
         5           I   tau(   5) = (   0.2339030   0.2339030   0.2339030  )

   Crystallographic axes

     site n.     atom                  positions (cryst. coord.)
         1           Sn  tau(   1) = (  0.0000000  0.0000000  0.0000000  )
         2           I   tau(   2) = (  0.2339030  0.7660970  0.7660970  )
         3           I   tau(   3) = (  0.7660970  0.2339030  0.7660970  )
         4           I   tau(   4) = (  0.7660970  0.7660970  0.2339030  )
         5           I   tau(   5) = (  0.2339030  0.2339030  0.2339030  )

     number of k points=    35
                       cart. coord. in units 2pi/alat
        k(    1) = (   0.0000000   0.0000000   0.0000000), wk =   0.0039062
        k(    2) = (   0.0000000   0.0000000   0.1250000), wk =   0.0234375
        k(    3) = (   0.0000000   0.0000000   0.2500000), wk =   0.0234375
        k(    4) = (   0.0000000   0.0000000   0.3750000), wk =   0.0234375
        k(    5) = (   0.0000000   0.0000000  -0.5000000), wk =   0.0117188
        k(    6) = (   0.0000000   0.1250000   0.1250000), wk =   0.0468750
        k(    7) = (   0.0000000   0.1250000   0.2500000), wk =   0.0937500
        k(    8) = (   0.0000000   0.1250000   0.3750000), wk =   0.0937500
        k(    9) = (   0.0000000   0.1250000  -0.5000000), wk =   0.0468750
        k(   10) = (   0.0000000   0.2500000   0.2500000), wk =   0.0468750
        k(   11) = (   0.0000000   0.2500000   0.3750000), wk =   0.0937500
        k(   12) = (   0.0000000   0.2500000  -0.5000000), wk =   0.0468750
        k(   13) = (   0.0000000   0.3750000   0.3750000), wk =   0.0468750
        k(   14) = (   0.0000000   0.3750000  -0.5000000), wk =   0.0468750
        k(   15) = (   0.0000000  -0.5000000  -0.5000000), wk =   0.0117188
        k(   16) = (   0.1250000   0.1250000   0.1250000), wk =   0.0312500
        k(   17) = (   0.1250000   0.1250000   0.2500000), wk =   0.0937500
        k(   18) = (   0.1250000   0.1250000   0.3750000), wk =   0.0937500
        k(   19) = (   0.1250000   0.1250000  -0.5000000), wk =   0.0468750
        k(   20) = (   0.1250000   0.2500000   0.2500000), wk =   0.0937500
        k(   21) = (   0.1250000   0.2500000   0.3750000), wk =   0.1875000
        k(   22) = (   0.1250000   0.2500000  -0.5000000), wk =   0.0937500
        k(   23) = (   0.1250000   0.3750000   0.3750000), wk =   0.0937500
        k(   24) = (   0.1250000   0.3750000  -0.5000000), wk =   0.0937500
        k(   25) = (   0.1250000  -0.5000000  -0.5000000), wk =   0.0234375
        k(   26) = (   0.2500000   0.2500000   0.2500000), wk =   0.0312500
        k(   27) = (   0.2500000   0.2500000   0.3750000), wk =   0.0937500
        k(   28) = (   0.2500000   0.2500000  -0.5000000), wk =   0.0468750
        k(   29) = (   0.2500000   0.3750000   0.3750000), wk =   0.0937500
        k(   30) = (   0.2500000   0.3750000  -0.5000000), wk =   0.0937500
        k(   31) = (   0.2500000  -0.5000000  -0.5000000), wk =   0.0234375
        k(   32) = (   0.3750000   0.3750000   0.3750000), wk =   0.0312500
        k(   33) = (   0.3750000   0.3750000  -0.5000000), wk =   0.0468750
        k(   34) = (   0.3750000  -0.5000000  -0.5000000), wk =   0.0234375
        k(   35) = (  -0.5000000  -0.5000000  -0.5000000), wk =   0.0039062

                       cryst. coord.
        k(    1) = (   0.0000000   0.0000000   0.0000000), wk =   0.0039062
        k(    2) = (   0.0000000   0.0000000   0.1250000), wk =   0.0234375
        k(    3) = (   0.0000000   0.0000000   0.2500000), wk =   0.0234375
        k(    4) = (   0.0000000   0.0000000   0.3750000), wk =   0.0234375
        k(    5) = (   0.0000000   0.0000000  -0.5000000), wk =   0.0117188
        k(    6) = (   0.0000000   0.1250000   0.1250000), wk =   0.0468750
        k(    7) = (   0.0000000   0.1250000   0.2500000), wk =   0.0937500
        k(    8) = (   0.0000000   0.1250000   0.3750000), wk =   0.0937500
        k(    9) = (   0.0000000   0.1250000  -0.5000000), wk =   0.0468750
        k(   10) = (   0.0000000   0.2500000   0.2500000), wk =   0.0468750
        k(   11) = (   0.0000000   0.2500000   0.3750000), wk =   0.0937500
        k(   12) = (   0.0000000   0.2500000  -0.5000000), wk =   0.0468750
        k(   13) = (   0.0000000   0.3750000   0.3750000), wk =   0.0468750
        k(   14) = (   0.0000000   0.3750000  -0.5000000), wk =   0.0468750
        k(   15) = (   0.0000000  -0.5000000  -0.5000000), wk =   0.0117188
        k(   16) = (   0.1250000   0.1250000   0.1250000), wk =   0.0312500
        k(   17) = (   0.1250000   0.1250000   0.2500000), wk =   0.0937500
        k(   18) = (   0.1250000   0.1250000   0.3750000), wk =   0.0937500
        k(   19) = (   0.1250000   0.1250000  -0.5000000), wk =   0.0468750
        k(   20) = (   0.1250000   0.2500000   0.2500000), wk =   0.0937500
        k(   21) = (   0.1250000   0.2500000   0.3750000), wk =   0.1875000
        k(   22) = (   0.1250000   0.2500000  -0.5000000), wk =   0.0937500
        k(   23) = (   0.1250000   0.3750000   0.3750000), wk =   0.0937500
        k(   24) = (   0.1250000   0.3750000  -0.5000000), wk =   0.0937500
        k(   25) = (   0.1250000  -0.5000000  -0.5000000), wk =   0.0234375
        k(   26) = (   0.2500000   0.2500000   0.2500000), wk =   0.0312500
        k(   27) = (   0.2500000   0.2500000   0.3750000), wk =   0.0937500
        k(   28) = (   0.2500000   0.2500000  -0.5000000), wk =   0.0468750
        k(   29) = (   0.2500000   0.3750000   0.3750000), wk =   0.0937500
        k(   30) = (   0.2500000   0.3750000  -0.5000000), wk =   0.0937500
        k(   31) = (   0.2500000  -0.5000000  -0.5000000), wk =   0.0234375
        k(   32) = (   0.3750000   0.3750000   0.3750000), wk =   0.0312500
        k(   33) = (   0.3750000   0.3750000  -0.5000000), wk =   0.0468750
        k(   34) = (   0.3750000  -0.5000000  -0.5000000), wk =   0.0234375
        k(   35) = (  -0.5000000  -0.5000000  -0.5000000), wk =   0.0039062

     Dense  grid:   204205 G-vectors     FFT dimensions: (  75,  75,  75)

     Dynamical RAM for                 wfc:       0.43 MB

     Dynamical RAM for     wfc (w. buffer):      15.48 MB

     Dynamical RAM for           str. fact:       0.33 MB

     Dynamical RAM for           local pot:       0.00 MB

     Dynamical RAM for          nlocal pot:       1.84 MB

     Dynamical RAM for                qrad:       2.69 MB

     Dynamical RAM for          rho,v,vnew:       1.01 MB

     Dynamical RAM for               rhoin:       0.34 MB

     Dynamical RAM for            rho*nmix:       2.62 MB

     Dynamical RAM for           G-vectors:       0.70 MB

     Dynamical RAM for          h,s,v(r/c):       0.08 MB

     Dynamical RAM for          <psi|beta>:       0.03 MB

     Dynamical RAM for                 psi:       0.86 MB

     Dynamical RAM for                hpsi:       0.86 MB

     Dynamical RAM for                spsi:       0.86 MB

     Dynamical RAM for      wfcinit/wfcrot:       1.04 MB

     Dynamical RAM for           addusdens:      31.16 MB

     Dynamical RAM for          addusforce:      32.24 MB

     Dynamical RAM for         addusstress:      32.97 MB

     Estimated static dynamical RAM per process >      26.35 MB

     Estimated max dynamical RAM per process >      59.32 MB

     Estimated total dynamical RAM >       1.10 GB

     Initial potential from superposition of free atoms

     starting charge   41.99831, renormalised to   42.00000
     Starting wfcs are   25 randomized atomic wfcs
     Checking if some PAW data can be deallocated... 
       PAW data deallocated on   15 nodes for type:  1
       PAW data deallocated on    4 nodes for type:  2

     total cpu time spent up to now is        7.4 secs

     Self-consistent Calculation

     iteration #  1     ecut=    70.00 Ry     beta= 0.70
     Davidson diagonalization with overlap
     ethr =  1.00E-02,  avg # of iterations =  1.0

     Threshold (ethr) on eigenvalues was too large:
     Diagonalizing with lowered threshold

     Davidson diagonalization with overlap
     ethr =  5.04E-04,  avg # of iterations =  2.0

     total cpu time spent up to now is       31.0 secs

     total energy              =   -1957.70914415 Ry
     estimated scf accuracy    <       0.18683702 Ry

     iteration #  2     ecut=    70.00 Ry     beta= 0.70
     Davidson diagonalization with overlap
     ethr =  4.45E-04,  avg # of iterations =  3.7

     total cpu time spent up to now is       47.6 secs

     total energy              =   -1957.74113101 Ry
     estimated scf accuracy    <       0.25310643 Ry

     iteration #  3     ecut=    70.00 Ry     beta= 0.70
     Davidson diagonalization with overlap
     ethr =  4.45E-04,  avg # of iterations =  4.0

     total cpu time spent up to now is       62.6 secs

     total energy              =   -1957.78879657 Ry
     estimated scf accuracy    <       0.00178698 Ry

     iteration #  4     ecut=    70.00 Ry     beta= 0.70
     Davidson diagonalization with overlap
     ethr =  4.25E-06,  avg # of iterations =  5.4

     total cpu time spent up to now is       80.1 secs

     total energy              =   -1957.78977776 Ry
     estimated scf accuracy    <       0.00086299 Ry

     iteration #  5     ecut=    70.00 Ry     beta= 0.70
     Davidson diagonalization with overlap
     ethr =  2.05E-06,  avg # of iterations =  2.3

     total cpu time spent up to now is       92.3 secs

     total energy              =   -1957.78983405 Ry
     estimated scf accuracy    <       0.00009360 Ry

     iteration #  6     ecut=    70.00 Ry     beta= 0.70
     Davidson diagonalization with overlap
     ethr =  2.23E-07,  avg # of iterations =  5.0

     total cpu time spent up to now is      109.2 secs

     total energy              =   -1957.78988511 Ry
     estimated scf accuracy    <       0.00003188 Ry

     iteration #  7     ecut=    70.00 Ry     beta= 0.70
     Davidson diagonalization with overlap
     ethr =  7.59E-08,  avg # of iterations =  1.8

     total cpu time spent up to now is      120.8 secs

     total energy              =   -1957.78988049 Ry
     estimated scf accuracy    <       0.00001059 Ry

     iteration #  8     ecut=    70.00 Ry     beta= 0.70
     Davidson diagonalization with overlap
     ethr =  2.52E-08,  avg # of iterations =  5.1

     total cpu time spent up to now is      136.8 secs

     total energy              =   -1957.78988578 Ry
     estimated scf accuracy    <       0.00000509 Ry

     iteration #  9     ecut=    70.00 Ry     beta= 0.70
     Davidson diagonalization with overlap
     ethr =  1.21E-08,  avg # of iterations =  2.1

     total cpu time spent up to now is      149.4 secs

     total energy              =   -1957.78988538 Ry
     estimated scf accuracy    <       0.00000183 Ry

     iteration # 10     ecut=    70.00 Ry     beta= 0.70
     Davidson diagonalization with overlap
     ethr =  4.36E-09,  avg # of iterations =  4.2

     total cpu time spent up to now is      163.2 secs

     End of self-consistent calculation

          k = 0.0000 0.0000 0.0000 ( 25533 PWs)   bands (ev):

   -22.8870 -22.8870 -22.8870 -22.8682 -22.8682 -12.7139 -12.3720 -12.3720
   -12.3720  -7.5666  -3.4774  -3.4774  -3.4774  -2.3456  -2.3456  -1.8103
    -1.8103  -1.8103  -1.7262  -1.7262  -1.7262

     occupation numbers 
     1.0000   1.0000   1.0000   1.0000   1.0000   1.0000   1.0000   1.0000
     1.0000   1.0000   1.0000   1.0000   1.0000   1.0000   1.0000   1.0000
     1.0000   1.0000   1.0000   1.0000   1.0000

          k = 0.0000 0.0000 0.1250 ( 25497 PWs)   bands (ev):

   -22.8869 -22.8869 -22.8869 -22.8682 -22.8682 -12.7103 -12.3763 -12.3720
   -12.3720  -7.5644  -3.4904  -3.4791  -3.4791  -2.3307  -2.3270  -1.8299
    -1.8190  -1.8190  -1.7627  -1.7212  -1.7212

     occupation numbers 
     1.0000   1.0000   1.0000   1.0000   1.0000   1.0000   1.0000   1.0000
     1.0000   1.0000   1.0000   1.0000   1.0000   1.0000   1.0000   1.0000
     1.0000   1.0000   1.0000   1.0000   1.0000

          k = 0.0000 0.0000 0.2500 ( 25497 PWs)   bands (ev):

   -22.8869 -22.8869 -22.8869 -22.8682 -22.8682 -12.7012 -12.3869 -12.3718
   -12.3718  -7.5591  -3.5209  -3.4834  -3.4834  -2.2894  -2.2741  -1.8826
    -1.8540  -1.8352  -1.8352  -1.7138  -1.7138

     occupation numbers 
     1.0000   1.0000   1.0000   1.0000   1.0000   1.0000   1.0000   1.0000
     1.0000   1.0000   1.0000   1.0000   1.0000   1.0000   1.0000   1.0000
     1.0000   1.0000   1.0000   1.0000   1.0000

          k = 0.0000 0.0000 0.3750 ( 25492 PWs)   bands (ev):

   -22.8869 -22.8869 -22.8869 -22.8682 -22.8682 -12.6914 -12.3982 -12.3717
   -12.3717  -7.5537  -3.5504  -3.4877  -3.4877  -2.2339  -2.1937  -1.9680
    -1.9493  -1.8474  -1.8474  -1.7104  -1.7104

     occupation numbers 
     1.0000   1.0000   1.0000   1.0000   1.0000   1.0000   1.0000   1.0000
     1.0000   1.0000   1.0000   1.0000   1.0000   1.0000   1.0000   1.0000
     1.0000   1.0000   1.0000   1.0000   1.0000

          k = 0.0000 0.0000-0.5000 ( 25532 PWs)   bands (ev):

   -22.8869 -22.8869 -22.8869 -22.8682 -22.8682 -12.6872 -12.4031 -12.3716
   -12.3716  -7.5515  -3.5623  -3.4894  -3.4894  -2.2015  -2.1125  -2.0621
    -1.9864  -1.8517  -1.8517  -1.7097  -1.7097

     occupation numbers 
     1.0000   1.0000   1.0000   1.0000   1.0000   1.0000   1.0000   1.0000
     1.0000   1.0000   1.0000   1.0000   1.0000   1.0000   1.0000   1.0000
     1.0000   1.0000   1.0000   1.0000   1.0000

          k = 0.0000 0.1250 0.1250 ( 25504 PWs)   bands (ev):

   -22.8869 -22.8869 -22.8869 -22.8682 -22.8682 -12.7068 -12.3771 -12.3751
   -12.3720  -7.5625  -3.5042  -3.4808  -3.4792  -2.3139  -2.3127  -1.8605
    -1.8228  -1.8076  -1.8051  -1.7241  -1.7058

     occupation numbers 
     1.0000   1.0000   1.0000   1.0000   1.0000   1.0000   1.0000   1.0000
     1.0000   1.0000   1.0000   1.0000   1.0000   1.0000   1.0000   1.0000
     1.0000   1.0000   1.0000   1.0000   1.0000

          k = 0.0000 0.1250 0.2500 ( 25506 PWs)   bands (ev):

   -22.8869 -22.8869 -22.8869 -22.8682 -22.8682 -12.6980 -12.3865 -12.3753
   -12.3722  -7.5580  -3.5335  -3.4849  -3.4827  -2.2745  -2.2649  -1.9153
    -1.8826  -1.8301  -1.8158  -1.7244  -1.6955

     occupation numbers 
     1.0000   1.0000   1.0000   1.0000   1.0000   1.0000   1.0000   1.0000
     1.0000   1.0000   1.0000   1.0000   1.0000   1.0000   1.0000   1.0000
     1.0000   1.0000   1.0000   1.0000   1.0000

          k = 0.0000 0.1250 0.3750 ( 25499 PWs)   bands (ev):

   -22.8869 -22.8869 -22.8869 -22.8682 -22.8682 -12.6887 -12.3973 -12.3748
   -12.3724  -7.5535  -3.5611  -3.4887  -3.4872  -2.2224  -2.1932  -2.0007
    -1.9527  -1.8355  -1.8319  -1.7212  -1.6938

     occupation numbers 
     1.0000   1.0000   1.0000   1.0000   1.0000   1.0000   1.0000   1.0000
     1.0000   1.0000   1.0000   1.0000   1.0000   1.0000   1.0000   1.0000
     1.0000   1.0000   1.0000   1.0000   1.0000

          k = 0.0000 0.1250-0.5000 ( 25502 PWs)   bands (ev):

   -22.8869 -22.8869 -22.8869 -22.8682 -22.8682 -12.6846 -12.4020 -12.3745
   -12.3726  -7.5516  -3.5722  -3.4899  -3.4894  -2.1917  -2.1249  -2.0769
    -1.9875  -1.8390  -1.8367  -1.7198  -1.6945

     occupation numbers 
     1.0000   1.0000   1.0000   1.0000   1.0000   1.0000   1.0000   1.0000
     1.0000   1.0000   1.0000   1.0000   1.0000   1.0000   1.0000   1.0000
     1.0000   1.0000   1.0000   1.0000   1.0000

          k = 0.0000 0.2500 0.2500 ( 25490 PWs)   bands (ev):

   -22.8869 -22.8869 -22.8869 -22.8682 -22.8682 -12.6901 -12.3872 -12.3823
   -12.3732  -7.5555  -3.5603  -3.4882  -3.4841  -2.2457  -2.2273  -1.9884
    -1.9181  -1.8219  -1.7982  -1.7455  -1.6708

     occupation numbers 
     1.0000   1.0000   1.0000   1.0000   1.0000   1.0000   1.0000   1.0000
     1.0000   1.0000   1.0000   1.0000   1.0000   1.0000   1.0000   1.0000
     1.0000   1.0000   1.0000   1.0000   1.0000

          k = 0.0000 0.2500 0.3750 ( 25494 PWs)   bands (ev):

   -22.8869 -22.8869 -22.8869 -22.8682 -22.8682 -12.6817 -12.3949 -12.3825
   -12.3745  -7.5530  -3.5849  -3.4907  -3.4876  -2.2094  -2.1746  -2.0610
    -1.9576  -1.8133  -1.8064  -1.7483  -1.6594

     occupation numbers 
     1.0000   1.0000   1.0000   1.0000   1.0000   1.0000   1.0000   1.0000
     1.0000   1.0000   1.0000   1.0000   1.0000   1.0000   1.0000   1.0000
     1.0000   1.0000   1.0000   1.0000   1.0000

          k = 0.0000 0.2500-0.5000 ( 25532 PWs)   bands (ev):

   -22.8870 -22.8869 -22.8869 -22.8682 -22.8682 -12.6780 -12.3989 -12.3817
   -12.3753  -7.5519  -3.5947  -3.4910  -3.4900  -2.1772  -2.1551  -2.0954
    -1.9815  -1.8174  -1.8079  -1.7445  -1.6572

     occupation numbers 
     1.0000   1.0000   1.0000   1.0000   1.0000   1.0000   1.0000   1.0000
     1.0000   1.0000   1.0000   1.0000   1.0000   1.0000   1.0000   1.0000
     1.0000   1.0000   1.0000   1.0000   1.0000

          k = 0.0000 0.3750 0.3750 ( 25542 PWs)   bands (ev):

   -22.8870 -22.8869 -22.8869 -22.8682 -22.8682 -12.6743 -12.3929 -12.3896
   -12.3774  -7.5524  -3.6070  -3.4921  -3.4897  -2.2019  -2.1581  -2.0930
    -1.9699  -1.7964  -1.7827  -1.7753  -1.6322

     occupation numbers 
     1.0000   1.0000   1.0000   1.0000   1.0000   1.0000   1.0000   1.0000
     1.0000   1.0000   1.0000   1.0000   1.0000   1.0000   1.0000   1.0000
     1.0000   1.0000   1.0000   1.0000   1.0000

          k = 0.0000 0.3750-0.5000 ( 25532 PWs)   bands (ev):

   -22.8869 -22.8869 -22.8869 -22.8682 -22.8682 -12.6712 -12.3949 -12.3893
   -12.3790  -7.5522  -3.6158  -3.4919  -3.4915  -2.1837  -2.1813  -2.0852
    -1.9784  -1.7945  -1.7859  -1.7694  -1.6227

     occupation numbers 
     1.0000   1.0000   1.0000   1.0000   1.0000   1.0000   1.0000   1.0000
     1.0000   1.0000   1.0000   1.0000   1.0000   1.0000   1.0000   1.0000
     1.0000   1.0000   1.0000   1.0000   1.0000

          k = 0.0000-0.5000-0.5000 ( 25500 PWs)   bands (ev):

   -22.8869 -22.8869 -22.8869 -22.8682 -22.8682 -12.6682 -12.3925 -12.3925
   -12.3812  -7.5524  -3.6243  -3.4922  -3.4922  -2.1908  -2.1908  -2.0748
    -1.9792  -1.7833  -1.7833  -1.7748  -1.6095

     occupation numbers 
     1.0000   1.0000   1.0000   1.0000   1.0000   1.0000   1.0000   1.0000
     1.0000   1.0000   1.0000   1.0000   1.0000   1.0000   1.0000   1.0000
     1.0000   1.0000   1.0000   1.0000   1.0000

          k = 0.1250 0.1250 0.1250 ( 25491 PWs)   bands (ev):

   -22.8869 -22.8869 -22.8869 -22.8682 -22.8682 -12.7035 -12.3779 -12.3750
   -12.3750  -7.5610  -3.5146  -3.4822  -3.4822  -2.2990  -2.2990  -1.8580
    -1.8580  -1.8471  -1.7861  -1.7098  -1.7098

     occupation numbers 
     1.0000   1.0000   1.0000   1.0000   1.0000   1.0000   1.0000   1.0000
     1.0000   1.0000   1.0000   1.0000   1.0000   1.0000   1.0000   1.0000
     1.0000   1.0000   1.0000   1.0000   1.0000

          k = 0.1250 0.1250 0.2500 ( 25496 PWs)   bands (ev):

   -22.8869 -22.8869 -22.8869 -22.8682 -22.8682 -12.6950 -12.3863 -12.3761
   -12.3748  -7.5573  -3.5404  -3.4895  -3.4842  -2.2616  -2.2573  -1.9300
    -1.9054  -1.8507  -1.7862  -1.7094  -1.7006

     occupation numbers 
     1.0000   1.0000   1.0000   1.0000   1.0000   1.0000   1.0000   1.0000
     1.0000   1.0000   1.0000   1.0000   1.0000   1.0000   1.0000   1.0000
     1.0000   1.0000   1.0000   1.0000   1.0000

          k = 0.1250 0.1250 0.3750 ( 25522 PWs)   bands (ev):

   -22.8869 -22.8869 -22.8869 -22.8682 -22.8682 -12.6860 -12.3965 -12.3761
   -12.3747  -7.5536  -3.5658  -3.4967  -3.4857  -2.2133  -2.1954  -2.0211
    -1.9540  -1.8431  -1.8026  -1.7038  -1.7026

     occupation numbers 
     1.0000   1.0000   1.0000   1.0000   1.0000   1.0000   1.0000   1.0000
     1.0000   1.0000   1.0000   1.0000   1.0000   1.0000   1.0000   1.0000
     1.0000   1.0000   1.0000   1.0000   1.0000

          k = 0.1250 0.1250-0.5000 ( 25528 PWs)   bands (ev):

   -22.8870 -22.8869 -22.8869 -22.8682 -22.8682 -12.6821 -12.4010 -12.3761
   -12.3746  -7.5521  -3.5761  -3.4997  -3.4862  -2.1867  -2.1366  -2.0903
    -1.9799  -1.8395  -1.8104  -1.7073  -1.6995

     occupation numbers 
     1.0000   1.0000   1.0000   1.0000   1.0000   1.0000   1.0000   1.0000
     1.0000   1.0000   1.0000   1.0000   1.0000   1.0000   1.0000   1.0000
     1.0000   1.0000   1.0000   1.0000   1.0000

          k = 0.1250 0.2500 0.2500 ( 25503 PWs)   bands (ev):

   -22.8869 -22.8869 -22.8869 -22.8682 -22.8682 -12.6874 -12.3873 -12.3822
   -12.3760  -7.5556  -3.5601  -3.4947  -3.4902  -2.2373  -2.2254  -2.0025
    -1.9167  -1.8510  -1.7632  -1.7242  -1.6787

     occupation numbers 
     1.0000   1.0000   1.0000   1.0000   1.0000   1.0000   1.0000   1.0000
     1.0000   1.0000   1.0000   1.0000   1.0000   1.0000   1.0000   1.0000
     1.0000   1.0000   1.0000   1.0000   1.0000

          k = 0.1250 0.2500 0.3750 ( 25499 PWs)   bands (ev):

   -22.8869 -22.8869 -22.8869 -22.8682 -22.8682 -12.6794 -12.3945 -12.3829
   -12.3769  -7.5540  -3.5811  -3.5020  -3.4916  -2.2053  -2.1839  -2.0738
    -1.9414  -1.8305  -1.7713  -1.7267  -1.6664

     occupation numbers 
     1.0000   1.0000   1.0000   1.0000   1.0000   1.0000   1.0000   1.0000
     1.0000   1.0000   1.0000   1.0000   1.0000   1.0000   1.0000   1.0000
     1.0000   1.0000   1.0000   1.0000   1.0000

          k = 0.1250 0.2500-0.5000 ( 25500 PWs)   bands (ev):

   -22.8869 -22.8869 -22.8869 -22.8682 -22.8682 -12.6759 -12.3982 -12.3824
   -12.3774  -7.5533  -3.5899  -3.5055  -3.4914  -2.1799  -2.1630  -2.1139
    -1.9543  -1.8204  -1.7794  -1.7259  -1.6634

     occupation numbers 
     1.0000   1.0000   1.0000   1.0000   1.0000   1.0000   1.0000   1.0000
     1.0000   1.0000   1.0000   1.0000   1.0000   1.0000   1.0000   1.0000
     1.0000   1.0000   1.0000   1.0000   1.0000

          k = 0.1250 0.3750 0.3750 ( 25516 PWs)   bands (ev):

   -22.8869 -22.8869 -22.8869 -22.8682 -22.8682 -12.6724 -12.3928 -12.3895
   -12.3793  -7.5543  -3.5993  -3.5021  -3.4989  -2.2007  -2.1704  -2.1143
    -1.9323  -1.8041  -1.7544  -1.7511  -1.6373

     occupation numbers 
     1.0000   1.0000   1.0000   1.0000   1.0000   1.0000   1.0000   1.0000
     1.0000   1.0000   1.0000   1.0000   1.0000   1.0000   1.0000   1.0000
     1.0000   1.0000   1.0000   1.0000   1.0000

          k = 0.1250 0.3750-0.5000 ( 25514 PWs)   bands (ev):

   -22.8869 -22.8869 -22.8869 -22.8682 -22.8682 -12.6694 -12.3946 -12.3894
   -12.3807  -7.5544  -3.6071  -3.5043  -3.4992  -2.1862  -2.1845  -2.1218
    -1.9285  -1.7912  -1.7622  -1.7494  -1.6270

     occupation numbers 
     1.0000   1.0000   1.0000   1.0000   1.0000   1.0000   1.0000   1.0000
     1.0000   1.0000   1.0000   1.0000   1.0000   1.0000   1.0000   1.0000
     1.0000   1.0000   1.0000   1.0000   1.0000

          k = 0.1250-0.5000-0.5000 ( 25524 PWs)   bands (ev):

   -22.8870 -22.8869 -22.8869 -22.8682 -22.8682 -12.6667 -12.3925 -12.3925
   -12.3828  -7.5549  -3.6147  -3.5027  -3.5027  -2.1922  -2.1922  -2.1216
    -1.9178  -1.7711  -1.7612  -1.7612  -1.6130

     occupation numbers 
     1.0000   1.0000   1.0000   1.0000   1.0000   1.0000   1.0000   1.0000
     1.0000   1.0000   1.0000   1.0000   1.0000   1.0000   1.0000   1.0000
     1.0000   1.0000   1.0000   1.0000   1.0000

          k = 0.2500 0.2500 0.2500 ( 25482 PWs)   bands (ev):

   -22.8869 -22.8869 -22.8869 -22.8682 -22.8682 -12.6807 -12.3885 -12.3821
   -12.3821  -7.5560  -3.5644  -3.5047  -3.5047  -2.2162  -2.2162  -2.0569
    -1.8778  -1.8778  -1.7262  -1.6948  -1.6948

     occupation numbers 
     1.0000   1.0000   1.0000   1.0000   1.0000   1.0000   1.0000   1.0000
     1.0000   1.0000   1.0000   1.0000   1.0000   1.0000   1.0000   1.0000
     1.0000   1.0000   1.0000   1.0000   1.0000

          k = 0.2500 0.2500 0.3750 ( 25497 PWs)   bands (ev):

   -22.8869 -22.8869 -22.8869 -22.8682 -22.8682 -12.6737 -12.3934 -12.3848
   -12.3819  -7.5563  -3.5761  -3.5190  -3.5063  -2.1976  -2.1936  -2.1140
    -1.8924  -1.8298  -1.7305  -1.6851  -1.6838

     occupation numbers 
     1.0000   1.0000   1.0000   1.0000   1.0000   1.0000   1.0000   1.0000
     1.0000   1.0000   1.0000   1.0000   1.0000   1.0000   1.0000   1.0000
     1.0000   1.0000   1.0000   1.0000   1.0000

          k = 0.2500 0.2500-0.5000 ( 25530 PWs)   bands (ev):

   -22.8870 -22.8869 -22.8869 -22.8682 -22.8682 -12.6707 -12.3964 -12.3851
   -12.3818  -7.5565  -3.5825  -3.5248  -3.5052  -2.1838  -2.1794  -2.1460
    -1.8966  -1.8072  -1.7396  -1.6870  -1.6743

     occupation numbers 
     1.0000   1.0000   1.0000   1.0000   1.0000   1.0000   1.0000   1.0000
     1.0000   1.0000   1.0000   1.0000   1.0000   1.0000   1.0000   1.0000
     1.0000   1.0000   1.0000   1.0000   1.0000

          k = 0.2500 0.3750 0.3750 ( 25485 PWs)   bands (ev):

   -22.8869 -22.8869 -22.8869 -22.8682 -22.8682 -12.6677 -12.3927 -12.3893
   -12.3842  -7.5587  -3.5814  -3.5247  -3.5206  -2.1978  -2.1873  -2.1515
    -1.8575  -1.8011  -1.7072  -1.7037  -1.6506

     occupation numbers 
     1.0000   1.0000   1.0000   1.0000   1.0000   1.0000   1.0000   1.0000
     1.0000   1.0000   1.0000   1.0000   1.0000   1.0000   1.0000   1.0000
     1.0000   1.0000   1.0000   1.0000   1.0000

          k = 0.2500 0.3750-0.5000 ( 25470 PWs)   bands (ev):

   -22.8869 -22.8869 -22.8869 -22.8682 -22.8682 -12.6652 -12.3938 -12.3899
   -12.3849  -7.5597  -3.5866  -3.5295  -3.5208  -2.1913  -2.1900  -2.1657
    -1.8482  -1.7800  -1.7149  -1.7002  -1.6381

     occupation numbers 
     1.0000   1.0000   1.0000   1.0000   1.0000   1.0000   1.0000   1.0000
     1.0000   1.0000   1.0000   1.0000   1.0000   1.0000   1.0000   1.0000
     1.0000   1.0000   1.0000   1.0000   1.0000

          k = 0.2500-0.5000-0.5000 ( 25460 PWs)   bands (ev):

   -22.8869 -22.8869 -22.8869 -22.8682 -22.8682 -12.6628 -12.3923 -12.3923
   -12.3865  -7.5610  -3.5919  -3.5274  -3.5274  -2.1948  -2.1948  -2.1704
    -1.8315  -1.7615  -1.7092  -1.7092  -1.6221

     occupation numbers 
     1.0000   1.0000   1.0000   1.0000   1.0000   1.0000   1.0000   1.0000
     1.0000   1.0000   1.0000   1.0000   1.0000   1.0000   1.0000   1.0000
     1.0000   1.0000   1.0000   1.0000   1.0000

          k = 0.3750 0.3750 0.3750 ( 25506 PWs)   bands (ev):

   -22.8869 -22.8869 -22.8869 -22.8682 -22.8682 -12.6628 -12.3926 -12.3891
   -12.3891  -7.5631  -3.5686  -3.5416  -3.5416  -2.1947  -2.1947  -2.1787
    -1.7912  -1.7912  -1.6674  -1.6674  -1.6641

     occupation numbers 
     1.0000   1.0000   1.0000   1.0000   1.0000   1.0000   1.0000   1.0000
     1.0000   1.0000   1.0000   1.0000   1.0000   1.0000   1.0000   1.0000
     1.0000   1.0000   1.0000   1.0000   1.0000

          k = 0.3750 0.3750-0.5000 ( 25514 PWs)   bands (ev):

   -22.8869 -22.8869 -22.8869 -22.8682 -22.8682 -12.6608 -12.3928 -12.3910
   -12.3890  -7.5649  -3.5694  -3.5500  -3.5422  -2.1956  -2.1934  -2.1883
    -1.7855  -1.7645  -1.6740  -1.6555  -1.6484

     occupation numbers 
     1.0000   1.0000   1.0000   1.0000   1.0000   1.0000   1.0000   1.0000
     1.0000   1.0000   1.0000   1.0000   1.0000   1.0000   1.0000   1.0000
     1.0000   1.0000   1.0000   1.0000   1.0000

          k = 0.3750-0.5000-0.5000 ( 25492 PWs)   bands (ev):

   -22.8869 -22.8869 -22.8869 -22.8682 -22.8682 -12.6589 -12.3921 -12.3921
   -12.3904  -7.5671  -3.5696  -3.5510  -3.5510  -2.1966  -2.1966  -2.1925
    -1.7681  -1.7503  -1.6584  -1.6584  -1.6326

     occupation numbers 
     1.0000   1.0000   1.0000   1.0000   1.0000   1.0000   1.0000   1.0000
     1.0000   1.0000   1.0000   1.0000   1.0000   1.0000   1.0000   1.0000
     1.0000   1.0000   1.0000   1.0000   1.0000

          k =-0.5000-0.5000-0.5000 ( 25576 PWs)   bands (ev):

   -22.8870 -22.8870 -22.8870 -22.8683 -22.8683 -12.6572 -12.3920 -12.3920
   -12.3920  -7.5696  -3.5605  -3.5605  -3.5605  -2.1971  -2.1971  -2.1971
    -1.7451  -1.7451  -1.6377  -1.6377  -1.6377

     occupation numbers 
     1.0000   1.0000   1.0000   1.0000   1.0000   1.0000   1.0000   1.0000
     1.0000   1.0000   1.0000   1.0000   1.0000   1.0000   1.0000   1.0000
     1.0000   1.0000   1.0000   1.0000   1.0000

     highest occupied level (ev):    -1.6095

!    total energy              =   -1957.78988564 Ry

     total all-electron energy =    -69286.407447 Ry
     estimated scf accuracy    <       0.00000005 Ry

     The total energy is the sum of the following terms:
     one-electron contribution =    -170.17901328 Ry
     hartree contribution      =      99.93895092 Ry
     xc contribution           =    -110.66938622 Ry
     ewald contribution        =    -110.04903772 Ry
     one-center paw contrib.   =   -1666.83139934 Ry
      -> PAW hartree energy AE =     107.49842459 Ry
      -> PAW hartree energy PS =    -106.73609506 Ry
      -> PAW xc energy AE      =    -328.88626373 Ry
      -> PAW xc energy PS      =      47.18910054 Ry
      -> total E_H with PAW    =     100.70128045 Ry
      -> total E_XC with PAW   =    -392.36654941 Ry

     convergence has been achieved in  10 iterations

     Forces acting on atoms (cartesian axes, Ry/au):

     atom    1 type  1   force =     0.00000000    0.00000000    0.00000000
     atom    2 type  2   force =    -0.02921812    0.02921812    0.02921812
     atom    3 type  2   force =     0.02921812   -0.02921812    0.02921812
     atom    4 type  2   force =     0.02921812    0.02921812   -0.02921812
     atom    5 type  2   force =    -0.02921812   -0.02921812   -0.02921812
     The non-local contrib.  to forces
     atom    1 type  1   force =     0.00000000    0.00000000    0.00000000
     atom    2 type  2   force =    -0.09377719    0.09377719    0.09377719
     atom    3 type  2   force =     0.09377719   -0.09377719    0.09377719
     atom    4 type  2   force =     0.09377719    0.09377719   -0.09377719
     atom    5 type  2   force =    -0.09377719   -0.09377719   -0.09377719
     The ionic contribution  to forces
     atom    1 type  1   force =    -0.00000000   -0.00000000    0.00000000
     atom    2 type  2   force =     3.22132870   -3.22132870   -3.22132870
     atom    3 type  2   force =    -3.22132870    3.22132870   -3.22132870
     atom    4 type  2   force =    -3.22132870   -3.22132870    3.22132870
     atom    5 type  2   force =     3.22132870    3.22132870    3.22132870
     The local contribution  to forces
     atom    1 type  1   force =     0.00000000    0.00000000   -0.00000000
     atom    2 type  2   force =    -3.16922572    3.16922572    3.16922572
     atom    3 type  2   force =     3.16922572   -3.16922572    3.16922572
     atom    4 type  2   force =     3.16922572    3.16922572   -3.16922572
     atom    5 type  2   force =    -3.16922572   -3.16922572   -3.16922572
     The core correction contribution to forces
     atom    1 type  1   force =     0.00000000    0.00000000   -0.00000000
     atom    2 type  2   force =     0.01256468   -0.01256468   -0.01256468
     atom    3 type  2   force =    -0.01256468    0.01256468   -0.01256468
     atom    4 type  2   force =    -0.01256468   -0.01256468    0.01256468
     atom    5 type  2   force =     0.01256468    0.01256468    0.01256468
     The Hubbard contrib.    to forces
     atom    1 type  1   force =     0.00000000    0.00000000    0.00000000
     atom    2 type  2   force =     0.00000000    0.00000000    0.00000000
     atom    3 type  2   force =     0.00000000    0.00000000    0.00000000
     atom    4 type  2   force =     0.00000000    0.00000000    0.00000000
     atom    5 type  2   force =     0.00000000    0.00000000    0.00000000
     The SCF correction term to forces
     atom    1 type  1   force =     0.00000000   -0.00000000   -0.00000000
     atom    2 type  2   force =    -0.00010859    0.00010859    0.00010859
     atom    3 type  2   force =     0.00010859   -0.00010859    0.00010859
     atom    4 type  2   force =     0.00010859    0.00010859   -0.00010859
     atom    5 type  2   force =    -0.00010859   -0.00010859   -0.00010859

     Total force =     0.101215     Total SCF correction =     0.000376


     Computing stress (Cartesian axis) and pressure

          total   stress  (Ry/bohr**3)                   (kbar)     P=      -22.11
  -0.00015029   0.00000000   0.00000000          -22.11        0.00        0.00
   0.00000000  -0.00015029   0.00000000            0.00      -22.11        0.00
   0.00000000   0.00000000  -0.00015029            0.00        0.00      -22.11

     kinetic stress (kbar)   3113.45      0.00      0.00
                                0.00   3113.45      0.00
                                0.00      0.00   3113.45

     local   stress (kbar)  -2527.92      0.00     -0.00
                                0.00  -2527.92     -0.00
                               -0.00     -0.00  -2527.92

     nonloc. stress (kbar)    610.76      0.00      0.00
                                0.00    610.76      0.00
                                0.00      0.00    610.76

     hartree stress (kbar)   1900.41     -0.00      0.00
                               -0.00   1900.41      0.00
                                0.00      0.00   1900.41

     exc-cor stress (kbar)   3211.78      0.00      0.00
                                0.00   3211.78      0.00
                                0.00      0.00   3211.78

     corecor stress (kbar)  -4237.93      0.00     -0.00
                                0.00  -4237.93     -0.00
                               -0.00     -0.00  -4237.93

     ewald   stress (kbar)  -2092.66     -0.00     -0.00
                               -0.00  -2092.66     -0.00
                               -0.00     -0.00  -2092.66

     hubbard stress (kbar)      0.00      0.00      0.00
                                0.00      0.00      0.00
                                0.00      0.00      0.00

     DFT-D   stress (kbar)      0.00      0.00      0.00
                                0.00      0.00      0.00
                                0.00      0.00      0.00

     XDM     stress (kbar)      0.00      0.00      0.00
                                0.00      0.00      0.00
                                0.00      0.00      0.00

     dft-nl  stress (kbar)      0.00      0.00      0.00
                                0.00      0.00      0.00
                                0.00      0.00      0.00

     TS-vdW  stress (kbar)      0.00      0.00      0.00
                                0.00      0.00      0.00
                                0.00      0.00      0.00



     Writing output data file ./out/SnI4un.save/

     init_run     :      6.16s CPU      6.29s WALL (       1 calls)
     electrons    :    147.96s CPU    156.08s WALL (       1 calls)
     forces       :      3.05s CPU      3.06s WALL (       1 calls)
     stress       :      5.22s CPU      5.23s WALL (       1 calls)

     Called by init_run:
     wfcinit      :      4.92s CPU      4.97s WALL (       1 calls)
     wfcinit:atom :      0.05s CPU      0.05s WALL (      35 calls)
     wfcinit:wfcr :      4.60s CPU      4.63s WALL (      35 calls)
     potinit      :      0.29s CPU      0.31s WALL (       1 calls)
     hinit0       :      0.32s CPU      0.33s WALL (       1 calls)

     Called by electrons:
     c_bands      :    123.50s CPU    131.01s WALL (      11 calls)
     sum_band     :     20.36s CPU     20.48s WALL (      11 calls)
     v_of_rho     :      0.49s CPU      0.49s WALL (      11 calls)
     v_h          :      0.03s CPU      0.03s WALL (      11 calls)
     v_xc         :      0.54s CPU      0.54s WALL (      13 calls)
     newd         :      2.10s CPU      2.15s WALL (      11 calls)
     PAW_pot      :      1.77s CPU      1.79s WALL (      11 calls)
     mix_rho      :      0.11s CPU      0.11s WALL (      11 calls)

     Called by c_bands:
     init_us_2    :      1.63s CPU      1.69s WALL (     875 calls)
     cegterg      :    119.45s CPU    120.02s WALL (     385 calls)

     Called by sum_band:
     sum_band:wei :      0.00s CPU      0.00s WALL (      11 calls)
     sum_band:loo :     18.40s CPU     18.49s WALL (      11 calls)
     sum_band:buf :      0.13s CPU      0.13s WALL (     385 calls)
     sum_band:ini :      0.71s CPU      0.72s WALL (     385 calls)
     sum_band:cal :      5.92s CPU      5.93s WALL (     385 calls)
     sum_band:bec :      0.03s CPU      0.03s WALL (     385 calls)
     addusdens    :      1.40s CPU      1.43s WALL (      11 calls)
     addusd:skk   :      0.01s CPU      0.01s WALL (      22 calls)
     addusd:dgemm :      0.46s CPU      0.49s WALL (      22 calls)
     addusd:qvan2 :      0.76s CPU      0.76s WALL (      22 calls)

     Called by *egterg:
     cdiaghg      :      1.22s CPU      1.22s WALL (    1629 calls)
     cegterg:over :      8.95s CPU      8.98s WALL (    1279 calls)
     cegterg:upda :      2.41s CPU      2.42s WALL (    1279 calls)
     cegterg:last :      5.69s CPU      5.70s WALL (     864 calls)
     h_psi        :     87.46s CPU     87.98s WALL (    1699 calls)
     s_psi        :     11.38s CPU     11.41s WALL (    1699 calls)
     g_psi        :      0.19s CPU      0.20s WALL (    1279 calls)

     Called by h_psi:
     h_psi:calbec :     16.62s CPU     16.64s WALL (    1699 calls)
     vloc_psi     :     58.30s CPU     58.78s WALL (    1699 calls)
     add_vuspsi   :     12.34s CPU     12.36s WALL (    1699 calls)

     General routines
     calbec       :     25.06s CPU     25.09s WALL (    2259 calls)
     fft          :      0.42s CPU      0.43s WALL (     147 calls)
     ffts         :      0.02s CPU      0.02s WALL (      11 calls)
     fftw         :     66.01s CPU     66.53s WALL (   52389 calls)

     Parallel routines
     fft_scatt_xy :      4.41s CPU      4.45s WALL (   52547 calls)
     fft_scatt_yz :     27.54s CPU     27.74s WALL (   52547 calls)

     PAW routines
     PAW_pot      :      1.77s CPU      1.79s WALL (      11 calls)
     PAW_symme    :      0.02s CPU      0.02s WALL (      22 calls)

     PWSCF        :   2m43.89s CPU   2m56.79s WALL


   This run was terminated on:  15:36:23  14Jan2021            

=------------------------------------------------------------------------------=
   JOB DONE.
=------------------------------------------------------------------------------=
