
     Program PWSCF v.6.7MaX starts on  1Mar2021 at 19:34:22 

     This program is part of the open-source Quantum ESPRESSO suite
     for quantum simulation of materials; please cite
         "P. Giannozzi et al., J. Phys.:Condens. Matter 21 395502 (2009);
         "P. Giannozzi et al., J. Phys.:Condens. Matter 29 465901 (2017);
          URL http://www.quantum-espresso.org", 
     in publications or presentations arising from this work. More details at
     http://www.quantum-espresso.org/quote

     Parallel version (MPI & OpenMP), running on      32 processor cores
     Number of MPI processes:                32
     Threads/MPI process:                     1

     MPI processes distributed on     1 nodes
     R & G space division:  proc/nbgrp/npool/nimage =      32
     Waiting for input...
     Reading input from standard input
Warning: card  &CELL ignored
Warning: card     CELL_DYNAMICS = 'BFGS', ignored
Warning: card / ignored

     Current dimensions of program PWSCF are:
     Max number of different atomic species (ntypx) = 10
     Max number of k-points (npk) =  40000
     Max angular momentum in pseudopotentials (lmaxx) =  3
     file Sn.rel-pbe-dn-rrkjus_psl.1.0.0.UPF: wavefunction(s)  5S 4D 4D renormalized
     file I.rel-pbe-n-rrkjus_psl.1.0.0.UPF: wavefunction(s)  5S renormalized
     file Cs.rel-pbe-spn-rrkjus_psl.1.0.0.UPF: wavefunction(s)  5S 6S renormalized

     Subspace diagonalization in iterative solution of the eigenvalue problem:
     one sub-group per band group will be used
     scalapack distributed-memory algorithm (size of sub-group:  5*  5 procs)

     Message from routine setup:
     using ibrav=0 with symmetry is DISCOURAGED, use correct ibrav instead
 
     Parallelization info
     --------------------
     sticks:   dense  smooth     PW     G-vecs:    dense   smooth      PW
     Min         576     460    121                58556    41894    5641
     Max         577     462    122                58561    41897    5647
     Sum       18449   14745   3875              1873853  1340637  180603
 

     Title: 
     perovskite                                                                 


     bravais-lattice index     =            0
     lattice parameter (alat)  =      24.3131  a.u.
     unit-cell volume          =   13868.3043 (a.u.)^3
     number of atoms/cell      =           20
     number of atomic types    =            3
     number of electrons       =       176.00
     number of Kohn-Sham states=          200
     kinetic-energy cutoff     =      80.0000  Ry
     charge density cutoff     =     400.0000  Ry
     scf convergence threshold =      1.0E-06
     mixing beta               =       0.5000
     number of iterations used =            8  plain     mixing
     energy convergence thresh.=      1.0E-04
     force convergence thresh. =      1.0E-02
     Exchange-correlation= PBE
                           (   1   4   3   4   0   0   0)
     nstep                     =           50

     Non magnetic calculation with spin-orbit


     celldm(1)=  24.313100  celldm(2)=   0.000000  celldm(3)=   0.000000
     celldm(4)=   0.000000  celldm(5)=   0.000000  celldm(6)=   0.000000

     crystal axes: (cart. coord. in units of alat)
               a(1) = (   1.000000   0.000000   0.000000 )  
               a(2) = (   0.000000   0.979406   0.000000 )  
               a(3) = (   0.000000   0.000000   0.985234 )  

     reciprocal axes: (cart. coord. in units 2 pi/alat)
               b(1) = (  1.000000  0.000000  0.000000 )  
               b(2) = (  0.000000  1.021027  0.000000 )  
               b(3) = (  0.000000  0.000000  1.014987 )  


     PseudoPot. # 1 for Sn read from file:
     ./Sn.rel-pbe-dn-rrkjus_psl.1.0.0.UPF
     MD5 check sum: e9415cc9ba1036dfb73502962f03961a
     Pseudo is Ultrasoft + core correction, Zval = 14.0
     Generated using &quot;atomic&quot; code by A. Dal Corso  v.6.3
     Using radial grid of 1243 points, 10 beta functions with: 
                l(1) =   0
                l(2) =   0
                l(3) =   1
                l(4) =   1
                l(5) =   1
                l(6) =   1
                l(7) =   2
                l(8) =   2
                l(9) =   2
               l(10) =   2
     Q(r) pseudized with 0 coefficients 


     PseudoPot. # 2 for I  read from file:
     ./I.rel-pbe-n-rrkjus_psl.1.0.0.UPF
     MD5 check sum: 6d021d2aa93960f239bd8adb25ac3fd1
     Pseudo is Ultrasoft + core correction, Zval =  7.0
     Generated using &quot;atomic&quot; code by A. Dal Corso  v.6.3
     Using radial grid of 1247 points, 10 beta functions with: 
                l(1) =   0
                l(2) =   0
                l(3) =   1
                l(4) =   1
                l(5) =   1
                l(6) =   1
                l(7) =   2
                l(8) =   2
                l(9) =   2
               l(10) =   2
     Q(r) pseudized with 0 coefficients 


     PseudoPot. # 3 for Cs read from file:
     ./Cs.rel-pbe-spn-rrkjus_psl.1.0.0.UPF
     MD5 check sum: 92f45d5fced885c1284380ec35df8368
     Pseudo is Ultrasoft + core correction, Zval =  9.0
     Generated using &quot;atomic&quot; code by A. Dal Corso  v.6.4.1
     Using radial grid of 1251 points, 15 beta functions with: 
                l(1) =   0
                l(2) =   0
                l(3) =   0
                l(4) =   1
                l(5) =   1
                l(6) =   1
                l(7) =   1
                l(8) =   2
                l(9) =   2
               l(10) =   2
               l(11) =   2
               l(12) =   3
               l(13) =   3
               l(14) =   3
               l(15) =   3
     Q(r) pseudized with 0 coefficients 


     atomic species   valence    mass     pseudopotential
        Sn            14.00   118.70000     Sn( 1.00)
        I              7.00   126.90000     I ( 1.00)
        Cs             9.00   132.90000     Cs( 1.00)

      4 Sym. Ops. (no inversion) found ( 2 have fractional translation)


                                    s                        frac. trans.

      isym =  1     identity                                     

 cryst.   s( 1) = (     1          0          0      )
                  (     0          1          0      )
                  (     0          0          1      )

 cart.    s( 1) = (  1.0000000  0.0000000  0.0000000 )
                  (  0.0000000  1.0000000  0.0000000 )
                  (  0.0000000  0.0000000  1.0000000 )


      isym =  2     180 deg rotation - cart. axis [0,1,0]        

 cryst.   s( 2) = (    -1          0          0      )    f =(  0.5000000 )
                  (     0          1          0      )       (  0.5000000 )
                  (     0          0         -1      )       (  0.0000000 )

 cart.    s( 2) = ( -1.0000000  0.0000000  0.0000000 )    f =(  0.5000000 )
                  (  0.0000000  1.0000000  0.0000000 )       (  0.4897031 )
                  (  0.0000000  0.0000000 -1.0000000 )       (  0.0000000 )


      isym =  3     inv. 180 deg rotation - cart. axis [0,0,1]   

 cryst.   s( 3) = (     1          0          0      )    f =( -0.5000000 )
                  (     0          1          0      )       (  0.5000000 )
                  (     0          0         -1      )       (  0.0000000 )

 cart.    s( 3) = (  1.0000000  0.0000000  0.0000000 )    f =( -0.5000000 )
                  (  0.0000000  1.0000000  0.0000000 )       (  0.4897031 )
                  (  0.0000000  0.0000000 -1.0000000 )       (  0.0000000 )


      isym =  4     inv. 180 deg rotation - cart. axis [1,0,0]   

 cryst.   s( 4) = (    -1          0          0      )
                  (     0          1          0      )
                  (     0          0          1      )

 cart.    s( 4) = ( -1.0000000  0.0000000  0.0000000 )
                  (  0.0000000  1.0000000  0.0000000 )
                  (  0.0000000  0.0000000  1.0000000 )


   Cartesian axes

     site n.     atom                  positions (alat units)
         1           Cs  tau(   1) = (   0.3771620   0.5319743   0.7309099  )
         2           Cs  tau(   2) = (   0.1228380   0.0422712   0.2543244  )
         3           Cs  tau(   3) = (   0.6228380   0.5319743   0.7309099  )
         4           Cs  tau(   4) = (   0.8771620   0.0422712   0.2543244  )
         5           Sn  tau(   5) = (   0.0000000   0.3383819   0.5664211  )
         6           Sn  tau(   6) = (   0.5000000   0.8280850   0.4188132  )
         7           Sn  tau(   7) = (   0.0000000   0.7036211   0.8686683  )
         8           Sn  tau(   8) = (   0.5000000   0.2139180   0.1165660  )
         9           I   tau(   9) = (   0.0492570   0.6495735   0.0632294  )
        10           I   tau(  10) = (   0.4507430   0.1598704   0.9220049  )
        11           I   tau(  11) = (   0.9507430   0.6495735   0.0632294  )
        12           I   tau(  12) = (   0.5492570   0.1598704   0.9220049  )
        13           I   tau(  13) = (   0.1110550   0.3318855   0.0247235  )
        14           I   tau(  14) = (   0.3889450   0.8215886   0.9605108  )
        15           I   tau(  15) = (   0.8889450   0.3318855   0.0247235  )
        16           I   tau(  16) = (   0.6110550   0.8215886   0.9605108  )
        17           I   tau(  17) = (   0.6465060   0.1341551   0.3665643  )
        18           I   tau(  18) = (   0.8534940   0.6238582   0.6186700  )
        19           I   tau(  19) = (   0.3534940   0.1341551   0.3665643  )
        20           I   tau(  20) = (   0.1465060   0.6238582   0.6186700  )

   Crystallographic axes

     site n.     atom                  positions (cryst. coord.)
         1           Cs  tau(   1) = (  0.3771620  0.5431600  0.7418640  )
         2           Cs  tau(   2) = (  0.1228380  0.0431600  0.2581360  )
         3           Cs  tau(   3) = (  0.6228380  0.5431600  0.7418640  )
         4           Cs  tau(   4) = (  0.8771620  0.0431600  0.2581360  )
         5           Sn  tau(   5) = (  0.0000000  0.3454970  0.5749100  )
         6           Sn  tau(   6) = (  0.5000000  0.8454970  0.4250900  )
         7           Sn  tau(   7) = (  0.0000000  0.7184160  0.8816870  )
         8           Sn  tau(   8) = (  0.5000000  0.2184160  0.1183130  )
         9           I   tau(   9) = (  0.0492570  0.6632320  0.0641770  )
        10           I   tau(  10) = (  0.4507430  0.1632320  0.9358230  )
        11           I   tau(  11) = (  0.9507430  0.6632320  0.0641770  )
        12           I   tau(  12) = (  0.5492570  0.1632320  0.9358230  )
        13           I   tau(  13) = (  0.1110550  0.3388640  0.0250940  )
        14           I   tau(  14) = (  0.3889450  0.8388640  0.9749060  )
        15           I   tau(  15) = (  0.8889450  0.3388640  0.0250940  )
        16           I   tau(  16) = (  0.6110550  0.8388640  0.9749060  )
        17           I   tau(  17) = (  0.6465060  0.1369760  0.3720580  )
        18           I   tau(  18) = (  0.8534940  0.6369760  0.6279420  )
        19           I   tau(  19) = (  0.3534940  0.1369760  0.3720580  )
        20           I   tau(  20) = (  0.1465060  0.6369760  0.6279420  )

     number of k points=     8  Marzari-Vanderbilt smearing, width (Ry)=  0.0200
                       cart. coord. in units 2pi/alat
        k(    1) = (   0.0000000   0.0000000   0.0000000), wk =   0.1250000
        k(    2) = (   0.0000000   0.0000000  -0.5074935), wk =   0.1250000
        k(    3) = (   0.0000000  -0.5105134   0.0000000), wk =   0.1250000
        k(    4) = (   0.0000000  -0.5105134  -0.5074935), wk =   0.1250000
        k(    5) = (  -0.5000000   0.0000000   0.0000000), wk =   0.1250000
        k(    6) = (  -0.5000000   0.0000000  -0.5074935), wk =   0.1250000
        k(    7) = (  -0.5000000  -0.5105134   0.0000000), wk =   0.1250000
        k(    8) = (  -0.5000000  -0.5105134  -0.5074935), wk =   0.1250000

                       cryst. coord.
        k(    1) = (   0.0000000   0.0000000   0.0000000), wk =   0.1250000
        k(    2) = (   0.0000000   0.0000000  -0.5000000), wk =   0.1250000
        k(    3) = (   0.0000000  -0.5000000   0.0000000), wk =   0.1250000
        k(    4) = (   0.0000000  -0.5000000  -0.5000000), wk =   0.1250000
        k(    5) = (  -0.5000000   0.0000000   0.0000000), wk =   0.1250000
        k(    6) = (  -0.5000000   0.0000000  -0.5000000), wk =   0.1250000
        k(    7) = (  -0.5000000  -0.5000000   0.0000000), wk =   0.1250000
        k(    8) = (  -0.5000000  -0.5000000  -0.5000000), wk =   0.1250000

     Dense  grid:  1873853 G-vectors     FFT dimensions: ( 160, 160, 160)

     Smooth grid:  1340637 G-vectors     FFT dimensions: ( 144, 144, 144)

     Dynamical RAM for                 wfc:      31.96 MB

     Dynamical RAM for     wfc (w. buffer):     287.62 MB

     Dynamical RAM for           str. fact:       2.68 MB

     Dynamical RAM for           local pot:       0.00 MB

     Dynamical RAM for          nlocal pot:      63.60 MB

     Dynamical RAM for                qrad:      38.53 MB

     Dynamical RAM for          rho,v,vnew:      22.44 MB

     Dynamical RAM for               rhoin:       7.48 MB

     Dynamical RAM for            rho*nmix:      57.19 MB

     Dynamical RAM for           G-vectors:       3.67 MB

     Dynamical RAM for          h,s,v(r/c):       0.29 MB

     Dynamical RAM for          <psi|beta>:       4.86 MB

     Dynamical RAM for                 psi:      63.92 MB

     Dynamical RAM for                hpsi:      63.92 MB

     Dynamical RAM for                spsi:      63.92 MB

     Dynamical RAM for      wfcinit/wfcrot:      50.85 MB

     Dynamical RAM for           addusdens:    1836.19 MB

     Dynamical RAM for          addusforce:    1856.85 MB

     Dynamical RAM for         addusstress:    1852.28 MB

     Estimated static dynamical RAM per process >     494.59 MB

     Estimated max dynamical RAM per process >       2.30 GB

     Estimated total dynamical RAM >      73.48 GB

     Initial potential from superposition of free atoms

     starting charge  175.83606, renormalised to  176.00000

     negative rho (up, down):  6.946E-08 0.000E+00
     Starting wfcs are  208 randomized atomic wfcs

     total cpu time spent up to now is       39.4 secs

     Self-consistent Calculation

     iteration #  1     ecut=    80.00 Ry     beta= 0.50
     Davidson diagonalization with overlap
     ethr =  1.00E-02,  avg # of iterations =  2.5

     total cpu time spent up to now is      143.9 secs

     total energy              =   -1250.48964532 Ry
     estimated scf accuracy    <       3.32235155 Ry

     iteration #  2     ecut=    80.00 Ry     beta= 0.50
     Davidson diagonalization with overlap
     ethr =  1.89E-03,  avg # of iterations =  7.1

     total cpu time spent up to now is      259.3 secs

     WARNING: integrated charge=   176.01368521, expected=   176.00000000

     total energy              =   -1250.55972673 Ry
     estimated scf accuracy    <      19.71080416 Ry

     iteration #  3     ecut=    80.00 Ry     beta= 0.50
     Davidson diagonalization with overlap
     ethr =  1.89E-03,  avg # of iterations =  2.2

     total cpu time spent up to now is      358.3 secs

     WARNING: integrated charge=   176.01327784, expected=   176.00000000

     total energy              =   -1251.98567583 Ry
     estimated scf accuracy    <       1.35475588 Ry

     iteration #  4     ecut=    80.00 Ry     beta= 0.50
     Davidson diagonalization with overlap
     ethr =  7.70E-04,  avg # of iterations =  2.0

     total cpu time spent up to now is      452.3 secs

     WARNING: integrated charge=   176.00999804, expected=   176.00000000

     total energy              =   -1252.12844755 Ry
     estimated scf accuracy    <       2.32172008 Ry

     iteration #  5     ecut=    80.00 Ry     beta= 0.50
     Davidson diagonalization with overlap
     ethr =  7.70E-04,  avg # of iterations =  1.5

     negative rho (up, down):  2.401E-04 0.000E+00

     total cpu time spent up to now is      542.8 secs

     WARNING: integrated charge=   176.00502131, expected=   176.00000000

     total energy              =   -1252.18895993 Ry
     estimated scf accuracy    <       0.27126133 Ry

     iteration #  6     ecut=    80.00 Ry     beta= 0.50
     Davidson diagonalization with overlap
     ethr =  1.54E-04,  avg # of iterations =  5.4

     negative rho (up, down):  3.867E-03 0.000E+00

     total cpu time spent up to now is      642.6 secs

     WARNING: integrated charge=   176.00483139, expected=   176.00000000

     total energy              =   -1252.20350503 Ry
     estimated scf accuracy    <       0.13412211 Ry

     iteration #  7     ecut=    80.00 Ry     beta= 0.50
     Davidson diagonalization with overlap
     c_bands:  4 eigenvalues not converged
     ethr =  7.62E-05,  avg # of iterations =  8.9

     negative rho (up, down):  6.408E-03 0.000E+00

     total cpu time spent up to now is      746.2 secs

     WARNING: integrated charge=   176.00132002, expected=   176.00000000

     total energy              =   -1252.21923504 Ry
     estimated scf accuracy    <       0.25873248 Ry

     iteration #  8     ecut=    80.00 Ry     beta= 0.50
     Davidson diagonalization with overlap
     ethr =  7.62E-05,  avg # of iterations =  2.0

     negative rho (up, down):  7.345E-03 0.000E+00

     total cpu time spent up to now is      840.0 secs

     WARNING: integrated charge=   176.00047058, expected=   176.00000000

     total energy              =   -1252.23006291 Ry
     estimated scf accuracy    <       0.00174164 Ry

     iteration #  9     ecut=    80.00 Ry     beta= 0.50
     Davidson diagonalization with overlap
     c_bands:  5 eigenvalues not converged
     c_bands:  4 eigenvalues not converged
     c_bands:  4 eigenvalues not converged
     c_bands:  4 eigenvalues not converged
     c_bands:  5 eigenvalues not converged
     c_bands:  4 eigenvalues not converged
     c_bands:  4 eigenvalues not converged
     ethr =  9.90E-07,  avg # of iterations = 24.2

     negative rho (up, down):  7.630E-03 0.000E+00

     total cpu time spent up to now is     1111.3 secs

     WARNING: integrated charge=   176.00038749, expected=   176.00000000

     total energy              =   -1252.23415228 Ry
     estimated scf accuracy    <       0.00204434 Ry

     iteration # 10     ecut=    80.00 Ry     beta= 0.50
     Davidson diagonalization with overlap
     c_bands:  3 eigenvalues not converged
     c_bands:  1 eigenvalues not converged
     c_bands:  2 eigenvalues not converged
     ethr =  9.90E-07,  avg # of iterations = 12.9

     negative rho (up, down):  8.241E-03 0.000E+00

     total cpu time spent up to now is     1216.4 secs

     WARNING: integrated charge=   176.00017023, expected=   176.00000000

     total energy              =   -1252.23414352 Ry
     estimated scf accuracy    <       0.00036833 Ry

     iteration # 11     ecut=    80.00 Ry     beta= 0.50
     Davidson diagonalization with overlap
     ethr =  2.09E-07,  avg # of iterations =  5.9

     negative rho (up, down):  8.459E-03 0.000E+00

     total cpu time spent up to now is     1319.4 secs

     WARNING: integrated charge=   175.99935258, expected=   176.00000000

     total energy              =   -1252.23415502 Ry
     estimated scf accuracy    <       0.00015693 Ry

     iteration # 12     ecut=    80.00 Ry     beta= 0.50
     Davidson diagonalization with overlap
     ethr =  8.92E-08,  avg # of iterations =  2.0

     negative rho (up, down):  8.547E-03 0.000E+00

     total cpu time spent up to now is     1416.7 secs

     WARNING: integrated charge=   175.99945055, expected=   176.00000000

     total energy              =   -1252.23419192 Ry
     estimated scf accuracy    <       0.00004965 Ry

     iteration # 13     ecut=    80.00 Ry     beta= 0.50
     Davidson diagonalization with overlap
     ethr =  2.82E-08,  avg # of iterations =  4.8

     negative rho (up, down):  8.555E-03 0.000E+00

     total cpu time spent up to now is     1517.9 secs

     WARNING: integrated charge=   176.00211121, expected=   176.00000000

     total energy              =   -1252.23419222 Ry
     estimated scf accuracy    <       0.00007258 Ry

     iteration # 14     ecut=    80.00 Ry     beta= 0.50
     Davidson diagonalization with overlap
     ethr =  2.82E-08,  avg # of iterations =  1.1

     negative rho (up, down):  8.586E-03 0.000E+00

     total cpu time spent up to now is     1606.3 secs

     WARNING: integrated charge=   176.00285965, expected=   176.00000000

     total energy              =   -1252.23419845 Ry
     estimated scf accuracy    <       0.00001998 Ry

     iteration # 15     ecut=    80.00 Ry     beta= 0.50
     Davidson diagonalization with overlap
     ethr =  1.14E-08,  avg # of iterations =  2.4

     negative rho (up, down):  8.602E-03 0.000E+00

     total cpu time spent up to now is     1702.9 secs

     WARNING: integrated charge=   176.00268289, expected=   176.00000000

     total energy              =   -1252.23419886 Ry
     estimated scf accuracy    <       0.00000789 Ry

     iteration # 16     ecut=    80.00 Ry     beta= 0.50
     Davidson diagonalization with overlap
     ethr =  4.49E-09,  avg # of iterations =  5.6

     negative rho (up, down):  8.590E-03 0.000E+00

     total cpu time spent up to now is     1802.9 secs

     WARNING: integrated charge=   176.00346569, expected=   176.00000000

     total energy              =   -1252.23419852 Ry
     estimated scf accuracy    <       0.00000840 Ry

     iteration # 17     ecut=    80.00 Ry     beta= 0.50
     Davidson diagonalization with overlap
     ethr =  4.49E-09,  avg # of iterations =  2.0

     negative rho (up, down):  8.600E-03 0.000E+00

     total cpu time spent up to now is     1897.1 secs

     WARNING: integrated charge=   176.00350975, expected=   176.00000000

     total energy              =   -1252.23419880 Ry
     estimated scf accuracy    <       0.00000197 Ry

     iteration # 18     ecut=    80.00 Ry     beta= 0.50
     Davidson diagonalization with overlap
     ethr =  1.12E-09,  avg # of iterations =  6.4

     negative rho (up, down):  8.603E-03 0.000E+00

     total cpu time spent up to now is     2003.8 secs

     WARNING: integrated charge=   176.00352057, expected=   176.00000000

     total energy              =   -1252.23419892 Ry
     estimated scf accuracy    <       0.00000259 Ry

     iteration # 19     ecut=    80.00 Ry     beta= 0.50
     Davidson diagonalization with overlap
     ethr =  1.12E-09,  avg # of iterations =  2.0

     negative rho (up, down):  8.606E-03 0.000E+00

     total cpu time spent up to now is     2097.5 secs

     WARNING: integrated charge=   176.00305212, expected=   176.00000000

     total energy              =   -1252.23419883 Ry
     estimated scf accuracy    <       0.00000175 Ry

     iteration # 20     ecut=    80.00 Ry     beta= 0.50
     Davidson diagonalization with overlap
     ethr =  9.97E-10,  avg # of iterations =  1.0

     negative rho (up, down):  8.609E-03 0.000E+00

     total cpu time spent up to now is     2185.3 secs

     WARNING: integrated charge=   176.00259392, expected=   176.00000000

     total energy              =   -1252.23419870 Ry
     estimated scf accuracy    <       0.00000117 Ry

     iteration # 21     ecut=    80.00 Ry     beta= 0.50
     Davidson diagonalization with overlap
     ethr =  6.65E-10,  avg # of iterations =  1.2

     negative rho (up, down):  8.609E-03 0.000E+00

     total cpu time spent up to now is     2274.1 secs

     End of self-consistent calculation

          k = 0.0000 0.0000 0.0000 (167611 PWs)   bands (ev):

   -24.7269 -24.7269 -24.7269 -24.7269 -24.0213 -24.0213 -24.0213 -24.0213
   -23.5624 -23.5624 -23.5624 -23.5624 -22.7211 -22.7211 -22.7211 -22.7211
   -22.6536 -22.6536 -22.6536 -22.6536 -22.2212 -22.2212 -22.2212 -22.2212
   -21.9627 -21.9627 -21.9627 -21.9627 -21.6913 -21.6913 -21.6913 -21.6913
   -21.6422 -21.6422 -21.6422 -21.6422 -21.6023 -21.6023 -21.6023 -21.6023
   -21.2620 -21.2620 -21.2620 -21.2620 -21.0841 -21.0841 -21.0841 -21.0841
   -20.8446 -20.8446 -20.8446 -20.8446 -13.2270 -13.2270 -13.2242 -13.2242
   -13.1245 -13.1245 -13.1216 -13.1216 -12.3170 -12.3170 -12.3168 -12.3168
   -11.7637 -11.7637 -11.7630 -11.7630 -11.6303 -11.6303 -11.6197 -11.6197
   -11.5910 -11.5910 -11.5871 -11.5871 -11.5383 -11.5383 -11.5360 -11.5360
   -11.4401 -11.4401 -11.4396 -11.4396 -11.0195 -11.0195 -11.0148 -11.0148
   -10.5177 -10.5177 -10.5174 -10.5174 -10.2822 -10.2822 -10.2819 -10.2819
    -9.8361  -9.8361  -9.8357  -9.8357  -9.2351  -9.2351  -9.2350  -9.2350
    -6.7218  -6.7218  -6.7192  -6.7192  -5.2973  -5.2973  -5.2967  -5.2967
    -4.1703  -4.1703  -4.1458  -4.1458  -3.8698  -3.8698  -3.8218  -3.8218
    -3.1016  -3.1016  -3.0873  -3.0873  -2.5983  -2.5983  -2.5850  -2.5850
    -2.4530  -2.4530  -2.4438  -2.4438  -2.2469  -2.2469  -2.2340  -2.2340
    -2.2207  -2.2207  -2.2156  -2.2156  -1.8446  -1.8446  -1.8138  -1.8138
    -1.6465  -1.6465  -1.6133  -1.6133  -1.5859  -1.5859  -1.5618  -1.5618
    -1.2975  -1.2975  -1.2466  -1.2466  -1.2252  -1.2252  -1.2083  -1.2083
    -0.8717  -0.8717  -0.8612  -0.8612  -0.6420  -0.6420  -0.6115  -0.6115
    -0.0561  -0.0561  -0.0495  -0.0495  -0.0197  -0.0197   0.0275   0.0275
     0.1426   0.1426   0.1596   0.1596   0.3616   0.3616   0.3861   0.3861
     0.4635   0.4635   0.5371   0.5371   1.1297   1.1297   1.2521   1.2521
     1.4515   1.4515   1.4625   1.4625   1.9222   1.9225   1.9976   1.9978

     occupation numbers 
     1.0000   1.0000   1.0000   1.0000   1.0000   1.0000   1.0000   1.0000
     1.0000   1.0000   1.0000   1.0000   1.0000   1.0000   1.0000   1.0000
     1.0000   1.0000   1.0000   1.0000   1.0000   1.0000   1.0000   1.0000
     1.0000   1.0000   1.0000   1.0000   1.0000   1.0000   1.0000   1.0000
     1.0000   1.0000   1.0000   1.0000   1.0000   1.0000   1.0000   1.0000
     1.0000   1.0000   1.0000   1.0000   1.0000   1.0000   1.0000   1.0000
     1.0000   1.0000   1.0000   1.0000   1.0000   1.0000   1.0000   1.0000
     1.0000   1.0000   1.0000   1.0000   1.0000   1.0000   1.0000   1.0000
     1.0000   1.0000   1.0000   1.0000   1.0000   1.0000   1.0000   1.0000
     1.0000   1.0000   1.0000   1.0000   1.0000   1.0000   1.0000   1.0000
     1.0000   1.0000   1.0000   1.0000   1.0000   1.0000   1.0000   1.0000
     1.0000   1.0000   1.0000   1.0000   1.0000   1.0000   1.0000   1.0000
     1.0000   1.0000   1.0000   1.0000   1.0000   1.0000   1.0000   1.0000
     1.0000   1.0000   1.0000   1.0000   1.0000   1.0000   1.0000   1.0000
     1.0000   1.0000   1.0000   1.0000   1.0000   1.0000   1.0000   1.0000
     1.0000   1.0000   1.0000   1.0000   1.0000   1.0000   1.0000   1.0000
     1.0000   1.0000   1.0000   1.0000   1.0000   1.0000   1.0000   1.0000
     1.0000   1.0000   1.0000   1.0000   1.0000   1.0000   1.0000   1.0000
     1.0000   1.0000   1.0000   1.0000   1.0000   1.0000   1.0000   1.0000
     1.0000   1.0000   1.0000   1.0000   1.0000   1.0000   1.0000   1.0000
     1.0000   1.0000   1.0001   1.0001   1.0031   1.0031   1.0049   1.0049
     0.8784   0.8784   0.8638   0.8638   0.7930   0.7930   0.6688   0.6688
     0.3613   0.3613   0.3217   0.3217   0.0470   0.0470   0.0347   0.0347
     0.0120   0.0120   0.0038   0.0038   0.0000   0.0000   0.0000   0.0000
     0.0000   0.0000   0.0000   0.0000   0.0000   0.0000   0.0000   0.0000

          k = 0.0000 0.0000-0.5075 (167640 PWs)   bands (ev):

   -24.7269 -24.7269 -24.7269 -24.7269 -24.0213 -24.0213 -24.0213 -24.0213
   -23.5624 -23.5624 -23.5624 -23.5624 -22.7211 -22.7211 -22.7211 -22.7211
   -22.6536 -22.6536 -22.6536 -22.6536 -22.2212 -22.2212 -22.2212 -22.2212
   -21.9627 -21.9627 -21.9627 -21.9627 -21.6913 -21.6913 -21.6913 -21.6913
   -21.6422 -21.6422 -21.6422 -21.6422 -21.6023 -21.6023 -21.6023 -21.6023
   -21.2620 -21.2620 -21.2620 -21.2620 -21.0841 -21.0841 -21.0841 -21.0841
   -20.8446 -20.8446 -20.8446 -20.8446 -13.2271 -13.2271 -13.2242 -13.2242
   -13.1245 -13.1245 -13.1216 -13.1216 -12.3169 -12.3169 -12.3169 -12.3169
   -11.7640 -11.7640 -11.7627 -11.7627 -11.6303 -11.6303 -11.6197 -11.6197
   -11.5910 -11.5910 -11.5872 -11.5872 -11.5380 -11.5380 -11.5362 -11.5362
   -11.4402 -11.4402 -11.4395 -11.4395 -11.0195 -11.0195 -11.0148 -11.0148
   -10.5176 -10.5176 -10.5175 -10.5175 -10.2821 -10.2821 -10.2820 -10.2820
    -9.8361  -9.8361  -9.8358  -9.8358  -9.2350  -9.2350  -9.2350  -9.2350
    -6.7218  -6.7218  -6.7192  -6.7192  -5.2977  -5.2977  -5.2972  -5.2972
    -4.1703  -4.1703  -4.1458  -4.1458  -3.8695  -3.8695  -3.8216  -3.8216
    -3.1011  -3.1011  -3.0867  -3.0867  -2.5964  -2.5964  -2.5859  -2.5859
    -2.4519  -2.4519  -2.4428  -2.4428  -2.2467  -2.2467  -2.2324  -2.2324
    -2.2192  -2.2192  -2.2124  -2.2124  -1.8445  -1.8445  -1.8135  -1.8135
    -1.6446  -1.6446  -1.6212  -1.6212  -1.5853  -1.5853  -1.5585  -1.5585
    -1.2911  -1.2911  -1.2512  -1.2512  -1.2417  -1.2417  -1.2023  -1.2023
    -0.8733  -0.8733  -0.8594  -0.8594  -0.6421  -0.6421  -0.6123  -0.6123
    -0.0593  -0.0593  -0.0393  -0.0393  -0.0202  -0.0202   0.0282   0.0282
     0.1394   0.1394   0.1592   0.1592   0.3508   0.3508   0.3799   0.3799
     0.4559   0.4559   0.5372   0.5372   1.2158   1.2158   1.2533   1.2533
     1.3142   1.3142   1.4485   1.4485   1.9640   1.9641   1.9960   1.9965

     occupation numbers 
     1.0000   1.0000   1.0000   1.0000   1.0000   1.0000   1.0000   1.0000
     1.0000   1.0000   1.0000   1.0000   1.0000   1.0000   1.0000   1.0000
     1.0000   1.0000   1.0000   1.0000   1.0000   1.0000   1.0000   1.0000
     1.0000   1.0000   1.0000   1.0000   1.0000   1.0000   1.0000   1.0000
     1.0000   1.0000   1.0000   1.0000   1.0000   1.0000   1.0000   1.0000
     1.0000   1.0000   1.0000   1.0000   1.0000   1.0000   1.0000   1.0000
     1.0000   1.0000   1.0000   1.0000   1.0000   1.0000   1.0000   1.0000
     1.0000   1.0000   1.0000   1.0000   1.0000   1.0000   1.0000   1.0000
     1.0000   1.0000   1.0000   1.0000   1.0000   1.0000   1.0000   1.0000
     1.0000   1.0000   1.0000   1.0000   1.0000   1.0000   1.0000   1.0000
     1.0000   1.0000   1.0000   1.0000   1.0000   1.0000   1.0000   1.0000
     1.0000   1.0000   1.0000   1.0000   1.0000   1.0000   1.0000   1.0000
     1.0000   1.0000   1.0000   1.0000   1.0000   1.0000   1.0000   1.0000
     1.0000   1.0000   1.0000   1.0000   1.0000   1.0000   1.0000   1.0000
     1.0000   1.0000   1.0000   1.0000   1.0000   1.0000   1.0000   1.0000
     1.0000   1.0000   1.0000   1.0000   1.0000   1.0000   1.0000   1.0000
     1.0000   1.0000   1.0000   1.0000   1.0000   1.0000   1.0000   1.0000
     1.0000   1.0000   1.0000   1.0000   1.0000   1.0000   1.0000   1.0000
     1.0000   1.0000   1.0000   1.0000   1.0000   1.0000   1.0000   1.0000
     1.0000   1.0000   1.0000   1.0000   1.0000   1.0000   1.0000   1.0000
     1.0000   1.0000   1.0001   1.0001   1.0031   1.0031   1.0048   1.0048
     0.8853   0.8853   0.8404   0.8404   0.7942   0.7942   0.6668   0.6668
     0.3692   0.3692   0.3226   0.3226   0.0535   0.0535   0.0376   0.0376
     0.0135   0.0135   0.0038   0.0038   0.0000   0.0000   0.0000   0.0000
     0.0000   0.0000   0.0000   0.0000   0.0000   0.0000   0.0000   0.0000

          k = 0.0000-0.5105 0.0000 (167612 PWs)   bands (ev):

   -24.7269 -24.7269 -24.7269 -24.7269 -24.0213 -24.0213 -24.0213 -24.0213
   -23.5624 -23.5624 -23.5624 -23.5624 -22.7211 -22.7211 -22.7211 -22.7211
   -22.6536 -22.6536 -22.6536 -22.6536 -22.2212 -22.2212 -22.2212 -22.2212
   -21.9627 -21.9627 -21.9627 -21.9627 -21.6913 -21.6913 -21.6913 -21.6913
   -21.6422 -21.6422 -21.6422 -21.6422 -21.6023 -21.6023 -21.6023 -21.6023
   -21.2620 -21.2620 -21.2620 -21.2620 -21.0841 -21.0841 -21.0841 -21.0841
   -20.8446 -20.8446 -20.8446 -20.8446 -13.2256 -13.2256 -13.2256 -13.2256
   -13.1230 -13.1230 -13.1230 -13.1230 -12.3169 -12.3169 -12.3169 -12.3169
   -11.7634 -11.7634 -11.7634 -11.7634 -11.6253 -11.6253 -11.6253 -11.6253
   -11.5888 -11.5888 -11.5888 -11.5888 -11.5371 -11.5371 -11.5371 -11.5371
   -11.4398 -11.4398 -11.4398 -11.4398 -11.0171 -11.0171 -11.0171 -11.0171
   -10.5176 -10.5176 -10.5176 -10.5176 -10.2820 -10.2820 -10.2820 -10.2820
    -9.8359  -9.8359  -9.8359  -9.8359  -9.2350  -9.2350  -9.2350  -9.2350
    -6.7205  -6.7205  -6.7205  -6.7205  -5.2970  -5.2970  -5.2970  -5.2970
    -4.1591  -4.1591  -4.1591  -4.1591  -3.8451  -3.8451  -3.8451  -3.8451
    -3.0944  -3.0944  -3.0944  -3.0944  -2.5916  -2.5916  -2.5916  -2.5916
    -2.4485  -2.4485  -2.4485  -2.4485  -2.2399  -2.2399  -2.2399  -2.2399
    -2.2182  -2.2182  -2.2182  -2.2182  -1.8286  -1.8286  -1.8286  -1.8286
    -1.6289  -1.6289  -1.6289  -1.6289  -1.5743  -1.5743  -1.5743  -1.5743
    -1.2712  -1.2712  -1.2712  -1.2712  -1.2169  -1.2169  -1.2169  -1.2169
    -0.8667  -0.8667  -0.8667  -0.8667  -0.6343  -0.6343  -0.6343  -0.6343
    -0.0545  -0.0545  -0.0545  -0.0545   0.0095   0.0095   0.0095   0.0095
     0.1540   0.1540   0.1540   0.1540   0.3764   0.3764   0.3764   0.3764
     0.4780   0.4780   0.4780   0.4780   1.2650   1.2650   1.2650   1.2650
     1.4425   1.4425   1.4425   1.4425   1.9588   1.9590   1.9593   1.9601

     occupation numbers 
     1.0000   1.0000   1.0000   1.0000   1.0000   1.0000   1.0000   1.0000
     1.0000   1.0000   1.0000   1.0000   1.0000   1.0000   1.0000   1.0000
     1.0000   1.0000   1.0000   1.0000   1.0000   1.0000   1.0000   1.0000
     1.0000   1.0000   1.0000   1.0000   1.0000   1.0000   1.0000   1.0000
     1.0000   1.0000   1.0000   1.0000   1.0000   1.0000   1.0000   1.0000
     1.0000   1.0000   1.0000   1.0000   1.0000   1.0000   1.0000   1.0000
     1.0000   1.0000   1.0000   1.0000   1.0000   1.0000   1.0000   1.0000
     1.0000   1.0000   1.0000   1.0000   1.0000   1.0000   1.0000   1.0000
     1.0000   1.0000   1.0000   1.0000   1.0000   1.0000   1.0000   1.0000
     1.0000   1.0000   1.0000   1.0000   1.0000   1.0000   1.0000   1.0000
     1.0000   1.0000   1.0000   1.0000   1.0000   1.0000   1.0000   1.0000
     1.0000   1.0000   1.0000   1.0000   1.0000   1.0000   1.0000   1.0000
     1.0000   1.0000   1.0000   1.0000   1.0000   1.0000   1.0000   1.0000
     1.0000   1.0000   1.0000   1.0000   1.0000   1.0000   1.0000   1.0000
     1.0000   1.0000   1.0000   1.0000   1.0000   1.0000   1.0000   1.0000
     1.0000   1.0000   1.0000   1.0000   1.0000   1.0000   1.0000   1.0000
     1.0000   1.0000   1.0000   1.0000   1.0000   1.0000   1.0000   1.0000
     1.0000   1.0000   1.0000   1.0000   1.0000   1.0000   1.0000   1.0000
     1.0000   1.0000   1.0000   1.0000   1.0000   1.0000   1.0000   1.0000
     1.0000   1.0000   1.0000   1.0000   1.0000   1.0000   1.0000   1.0000
     1.0001   1.0001   1.0001   1.0001   1.0035   1.0035   1.0035   1.0035
     0.8750   0.8750   0.8750   0.8750   0.7175   0.7175   0.7175   0.7175
     0.3346   0.3346   0.3346   0.3346   0.0392   0.0392   0.0392   0.0392
     0.0097   0.0097   0.0097   0.0097   0.0000   0.0000   0.0000   0.0000
     0.0000   0.0000   0.0000   0.0000   0.0000   0.0000   0.0000   0.0000

          k = 0.0000-0.5105-0.5075 (167612 PWs)   bands (ev):

   -24.7269 -24.7269 -24.7269 -24.7269 -24.0213 -24.0213 -24.0213 -24.0213
   -23.5624 -23.5624 -23.5624 -23.5624 -22.7211 -22.7211 -22.7211 -22.7211
   -22.6536 -22.6536 -22.6536 -22.6536 -22.2212 -22.2212 -22.2212 -22.2212
   -21.9627 -21.9627 -21.9627 -21.9627 -21.6913 -21.6913 -21.6913 -21.6913
   -21.6422 -21.6422 -21.6422 -21.6422 -21.6023 -21.6023 -21.6023 -21.6023
   -21.2620 -21.2620 -21.2620 -21.2620 -21.0841 -21.0841 -21.0841 -21.0841
   -20.8446 -20.8446 -20.8446 -20.8446 -13.2256 -13.2256 -13.2256 -13.2256
   -13.1230 -13.1230 -13.1230 -13.1230 -12.3169 -12.3169 -12.3169 -12.3169
   -11.7634 -11.7634 -11.7634 -11.7634 -11.6253 -11.6253 -11.6253 -11.6253
   -11.5888 -11.5888 -11.5888 -11.5888 -11.5371 -11.5371 -11.5371 -11.5371
   -11.4398 -11.4398 -11.4398 -11.4398 -11.0171 -11.0171 -11.0171 -11.0171
   -10.5176 -10.5176 -10.5176 -10.5176 -10.2820 -10.2820 -10.2820 -10.2820
    -9.8359  -9.8359  -9.8359  -9.8359  -9.2350  -9.2350  -9.2350  -9.2350
    -6.7205  -6.7205  -6.7205  -6.7205  -5.2975  -5.2975  -5.2975  -5.2975
    -4.1590  -4.1590  -4.1590  -4.1590  -3.8449  -3.8449  -3.8449  -3.8449
    -3.0940  -3.0940  -3.0940  -3.0940  -2.5912  -2.5912  -2.5912  -2.5912
    -2.4475  -2.4475  -2.4475  -2.4475  -2.2392  -2.2392  -2.2392  -2.2392
    -2.2153  -2.2153  -2.2153  -2.2153  -1.8285  -1.8285  -1.8285  -1.8285
    -1.6318  -1.6318  -1.6318  -1.6318  -1.5723  -1.5723  -1.5723  -1.5723
    -1.2719  -1.2719  -1.2719  -1.2719  -1.2199  -1.2199  -1.2199  -1.2199
    -0.8665  -0.8665  -0.8665  -0.8665  -0.6346  -0.6346  -0.6346  -0.6346
    -0.0477  -0.0477  -0.0477  -0.0477   0.0048   0.0048   0.0048   0.0048
     0.1525   0.1525   0.1525   0.1525   0.3681   0.3681   0.3681   0.3681
     0.4758   0.4758   0.4758   0.4758   1.2647   1.2647   1.2647   1.2647
     1.4080   1.4080   1.4080   1.4080   1.9771   1.9777   1.9777   1.9784

     occupation numbers 
     1.0000   1.0000   1.0000   1.0000   1.0000   1.0000   1.0000   1.0000
     1.0000   1.0000   1.0000   1.0000   1.0000   1.0000   1.0000   1.0000
     1.0000   1.0000   1.0000   1.0000   1.0000   1.0000   1.0000   1.0000
     1.0000   1.0000   1.0000   1.0000   1.0000   1.0000   1.0000   1.0000
     1.0000   1.0000   1.0000   1.0000   1.0000   1.0000   1.0000   1.0000
     1.0000   1.0000   1.0000   1.0000   1.0000   1.0000   1.0000   1.0000
     1.0000   1.0000   1.0000   1.0000   1.0000   1.0000   1.0000   1.0000
     1.0000   1.0000   1.0000   1.0000   1.0000   1.0000   1.0000   1.0000
     1.0000   1.0000   1.0000   1.0000   1.0000   1.0000   1.0000   1.0000
     1.0000   1.0000   1.0000   1.0000   1.0000   1.0000   1.0000   1.0000
     1.0000   1.0000   1.0000   1.0000   1.0000   1.0000   1.0000   1.0000
     1.0000   1.0000   1.0000   1.0000   1.0000   1.0000   1.0000   1.0000
     1.0000   1.0000   1.0000   1.0000   1.0000   1.0000   1.0000   1.0000
     1.0000   1.0000   1.0000   1.0000   1.0000   1.0000   1.0000   1.0000
     1.0000   1.0000   1.0000   1.0000   1.0000   1.0000   1.0000   1.0000
     1.0000   1.0000   1.0000   1.0000   1.0000   1.0000   1.0000   1.0000
     1.0000   1.0000   1.0000   1.0000   1.0000   1.0000   1.0000   1.0000
     1.0000   1.0000   1.0000   1.0000   1.0000   1.0000   1.0000   1.0000
     1.0000   1.0000   1.0000   1.0000   1.0000   1.0000   1.0000   1.0000
     1.0000   1.0000   1.0000   1.0000   1.0000   1.0000   1.0000   1.0000
     1.0001   1.0001   1.0001   1.0001   1.0035   1.0035   1.0035   1.0035
     0.8597   0.8597   0.8597   0.8597   0.7299   0.7299   0.7299   0.7299
     0.3379   0.3379   0.3379   0.3379   0.0435   0.0435   0.0435   0.0435
     0.0100   0.0100   0.0100   0.0100   0.0000   0.0000   0.0000   0.0000
     0.0000   0.0000   0.0000   0.0000   0.0000   0.0000   0.0000   0.0000

          k =-0.5000 0.0000 0.0000 (167398 PWs)   bands (ev):

   -24.7269 -24.7269 -24.7269 -24.7269 -24.0213 -24.0213 -24.0213 -24.0213
   -23.5624 -23.5624 -23.5624 -23.5624 -22.7211 -22.7211 -22.7211 -22.7211
   -22.6536 -22.6536 -22.6536 -22.6536 -22.2212 -22.2212 -22.2212 -22.2212
   -21.9627 -21.9627 -21.9627 -21.9627 -21.6913 -21.6913 -21.6913 -21.6913
   -21.6422 -21.6422 -21.6422 -21.6422 -21.6023 -21.6023 -21.6023 -21.6023
   -21.2620 -21.2620 -21.2620 -21.2620 -21.0841 -21.0841 -21.0841 -21.0841
   -20.8446 -20.8446 -20.8446 -20.8446 -13.2262 -13.2262 -13.2250 -13.2250
   -13.1237 -13.1237 -13.1225 -13.1225 -12.3053 -12.3053 -12.3053 -12.3053
   -11.7844 -11.7844 -11.7838 -11.7838 -11.6271 -11.6271 -11.6233 -11.6233
   -11.6092 -11.6092 -11.6021 -11.6021 -11.5838 -11.5838 -11.5805 -11.5805
   -11.3657 -11.3657 -11.3653 -11.3653 -11.0177 -11.0177 -11.0173 -11.0173
   -10.5157 -10.5157 -10.5157 -10.5157 -10.2762 -10.2762 -10.2762 -10.2762
    -9.8384  -9.8384  -9.8383  -9.8383  -9.2467  -9.2467  -9.2467  -9.2467
    -6.7205  -6.7205  -6.7204  -6.7204  -5.2955  -5.2955  -5.2955  -5.2955
    -4.1431  -4.1431  -4.1400  -4.1400  -3.8692  -3.8692  -3.8691  -3.8691
    -3.0986  -3.0986  -3.0940  -3.0940  -2.5485  -2.5485  -2.5481  -2.5481
    -2.4543  -2.4543  -2.4480  -2.4480  -2.2410  -2.2410  -2.2334  -2.2334
    -2.2024  -2.2024  -2.1980  -2.1980  -1.8295  -1.8295  -1.8292  -1.8292
    -1.6358  -1.6358  -1.6296  -1.6296  -1.5521  -1.5521  -1.5496  -1.5496
    -1.2922  -1.2922  -1.2813  -1.2813  -1.2532  -1.2532  -1.2462  -1.2462
    -0.9622  -0.9622  -0.9339  -0.9339  -0.6185  -0.6185  -0.6057  -0.6057
    -0.0974  -0.0974  -0.0949  -0.0949  -0.0101  -0.0101   0.0189   0.0189
     0.1819   0.1819   0.1926   0.1926   0.3647   0.3647   0.3839   0.3839
     0.4908   0.4908   0.4933   0.4933   1.2394   1.2394   1.2456   1.2456
     1.4664   1.4664   1.4922   1.4922   1.9677   1.9681   1.9724   1.9727

     occupation numbers 
     1.0000   1.0000   1.0000   1.0000   1.0000   1.0000   1.0000   1.0000
     1.0000   1.0000   1.0000   1.0000   1.0000   1.0000   1.0000   1.0000
     1.0000   1.0000   1.0000   1.0000   1.0000   1.0000   1.0000   1.0000
     1.0000   1.0000   1.0000   1.0000   1.0000   1.0000   1.0000   1.0000
     1.0000   1.0000   1.0000   1.0000   1.0000   1.0000   1.0000   1.0000
     1.0000   1.0000   1.0000   1.0000   1.0000   1.0000   1.0000   1.0000
     1.0000   1.0000   1.0000   1.0000   1.0000   1.0000   1.0000   1.0000
     1.0000   1.0000   1.0000   1.0000   1.0000   1.0000   1.0000   1.0000
     1.0000   1.0000   1.0000   1.0000   1.0000   1.0000   1.0000   1.0000
     1.0000   1.0000   1.0000   1.0000   1.0000   1.0000   1.0000   1.0000
     1.0000   1.0000   1.0000   1.0000   1.0000   1.0000   1.0000   1.0000
     1.0000   1.0000   1.0000   1.0000   1.0000   1.0000   1.0000   1.0000
     1.0000   1.0000   1.0000   1.0000   1.0000   1.0000   1.0000   1.0000
     1.0000   1.0000   1.0000   1.0000   1.0000   1.0000   1.0000   1.0000
     1.0000   1.0000   1.0000   1.0000   1.0000   1.0000   1.0000   1.0000
     1.0000   1.0000   1.0000   1.0000   1.0000   1.0000   1.0000   1.0000
     1.0000   1.0000   1.0000   1.0000   1.0000   1.0000   1.0000   1.0000
     1.0000   1.0000   1.0000   1.0000   1.0000   1.0000   1.0000   1.0000
     1.0000   1.0000   1.0000   1.0000   1.0000   1.0000   1.0000   1.0000
     1.0000   1.0000   1.0000   1.0000   1.0000   1.0000   1.0000   1.0000
     1.0000   1.0000   1.0000   1.0000   1.0044   1.0044   1.0053   1.0053
     0.9589   0.9589   0.9546   0.9546   0.7688   0.7688   0.6921   0.6921
     0.2733   0.2733   0.2517   0.2517   0.0453   0.0453   0.0357   0.0357
     0.0080   0.0080   0.0077   0.0077   0.0000   0.0000   0.0000   0.0000
     0.0000   0.0000   0.0000   0.0000   0.0000   0.0000   0.0000   0.0000

          k =-0.5000 0.0000-0.5075 (167584 PWs)   bands (ev):

   -24.7269 -24.7269 -24.7269 -24.7269 -24.0213 -24.0213 -24.0213 -24.0213
   -23.5624 -23.5624 -23.5624 -23.5624 -22.7211 -22.7211 -22.7211 -22.7211
   -22.6536 -22.6536 -22.6536 -22.6536 -22.2212 -22.2212 -22.2212 -22.2212
   -21.9627 -21.9627 -21.9627 -21.9627 -21.6913 -21.6913 -21.6913 -21.6913
   -21.6422 -21.6422 -21.6422 -21.6422 -21.6023 -21.6023 -21.6023 -21.6023
   -21.2620 -21.2620 -21.2620 -21.2620 -21.0841 -21.0841 -21.0841 -21.0841
   -20.8446 -20.8446 -20.8446 -20.8446 -13.2262 -13.2262 -13.2250 -13.2250
   -13.1237 -13.1237 -13.1225 -13.1225 -12.3054 -12.3054 -12.3053 -12.3053
   -11.7845 -11.7845 -11.7836 -11.7836 -11.6271 -11.6271 -11.6233 -11.6233
   -11.6093 -11.6093 -11.6020 -11.6020 -11.5838 -11.5838 -11.5804 -11.5804
   -11.3656 -11.3656 -11.3654 -11.3654 -11.0177 -11.0177 -11.0173 -11.0173
   -10.5158 -10.5158 -10.5156 -10.5156 -10.2762 -10.2762 -10.2762 -10.2762
    -9.8383  -9.8383  -9.8383  -9.8383  -9.2467  -9.2467  -9.2466  -9.2466
    -6.7205  -6.7205  -6.7204  -6.7204  -5.2960  -5.2960  -5.2960  -5.2960
    -4.1431  -4.1431  -4.1400  -4.1400  -3.8690  -3.8690  -3.8689  -3.8689
    -3.0982  -3.0982  -3.0935  -3.0935  -2.5496  -2.5496  -2.5456  -2.5456
    -2.4533  -2.4533  -2.4464  -2.4464  -2.2413  -2.2413  -2.2320  -2.2320
    -2.2002  -2.2002  -2.1954  -2.1954  -1.8294  -1.8294  -1.8288  -1.8288
    -1.6419  -1.6419  -1.6288  -1.6288  -1.5489  -1.5489  -1.5486  -1.5486
    -1.2943  -1.2943  -1.2888  -1.2888  -1.2521  -1.2521  -1.2458  -1.2458
    -0.9621  -0.9621  -0.9357  -0.9357  -0.6186  -0.6186  -0.6066  -0.6066
    -0.0973  -0.0973  -0.0935  -0.0935  -0.0073  -0.0073   0.0239   0.0239
     0.1815   0.1815   0.1897   0.1897   0.3519   0.3519   0.3747   0.3747
     0.4856   0.4856   0.4951   0.4951   1.2570   1.2570   1.2725   1.2725
     1.4211   1.4211   1.4297   1.4297   1.9958   1.9959   1.9999   2.0002

     occupation numbers 
     1.0000   1.0000   1.0000   1.0000   1.0000   1.0000   1.0000   1.0000
     1.0000   1.0000   1.0000   1.0000   1.0000   1.0000   1.0000   1.0000
     1.0000   1.0000   1.0000   1.0000   1.0000   1.0000   1.0000   1.0000
     1.0000   1.0000   1.0000   1.0000   1.0000   1.0000   1.0000   1.0000
     1.0000   1.0000   1.0000   1.0000   1.0000   1.0000   1.0000   1.0000
     1.0000   1.0000   1.0000   1.0000   1.0000   1.0000   1.0000   1.0000
     1.0000   1.0000   1.0000   1.0000   1.0000   1.0000   1.0000   1.0000
     1.0000   1.0000   1.0000   1.0000   1.0000   1.0000   1.0000   1.0000
     1.0000   1.0000   1.0000   1.0000   1.0000   1.0000   1.0000   1.0000
     1.0000   1.0000   1.0000   1.0000   1.0000   1.0000   1.0000   1.0000
     1.0000   1.0000   1.0000   1.0000   1.0000   1.0000   1.0000   1.0000
     1.0000   1.0000   1.0000   1.0000   1.0000   1.0000   1.0000   1.0000
     1.0000   1.0000   1.0000   1.0000   1.0000   1.0000   1.0000   1.0000
     1.0000   1.0000   1.0000   1.0000   1.0000   1.0000   1.0000   1.0000
     1.0000   1.0000   1.0000   1.0000   1.0000   1.0000   1.0000   1.0000
     1.0000   1.0000   1.0000   1.0000   1.0000   1.0000   1.0000   1.0000
     1.0000   1.0000   1.0000   1.0000   1.0000   1.0000   1.0000   1.0000
     1.0000   1.0000   1.0000   1.0000   1.0000   1.0000   1.0000   1.0000
     1.0000   1.0000   1.0000   1.0000   1.0000   1.0000   1.0000   1.0000
     1.0000   1.0000   1.0000   1.0000   1.0000   1.0000   1.0000   1.0000
     1.0000   1.0000   1.0000   1.0000   1.0044   1.0044   1.0052   1.0052
     0.9588   0.9588   0.9521   0.9521   0.7615   0.7615   0.6785   0.6785
     0.2740   0.2740   0.2575   0.2575   0.0528   0.0528   0.0401   0.0401
     0.0087   0.0087   0.0075   0.0075   0.0000   0.0000   0.0000   0.0000
     0.0000   0.0000   0.0000   0.0000   0.0000   0.0000   0.0000   0.0000

          k =-0.5000-0.5105 0.0000 (167540 PWs)   bands (ev):

   -24.7269 -24.7269 -24.7269 -24.7269 -24.0213 -24.0213 -24.0213 -24.0213
   -23.5624 -23.5624 -23.5624 -23.5624 -22.7211 -22.7211 -22.7211 -22.7211
   -22.6536 -22.6536 -22.6536 -22.6536 -22.2212 -22.2212 -22.2212 -22.2212
   -21.9627 -21.9627 -21.9627 -21.9627 -21.6913 -21.6913 -21.6913 -21.6913
   -21.6422 -21.6422 -21.6422 -21.6422 -21.6023 -21.6023 -21.6023 -21.6023
   -21.2620 -21.2620 -21.2620 -21.2620 -21.0841 -21.0841 -21.0841 -21.0841
   -20.8446 -20.8446 -20.8446 -20.8446 -13.2257 -13.2257 -13.2254 -13.2254
   -13.1233 -13.1233 -13.1229 -13.1229 -12.3054 -12.3054 -12.3053 -12.3053
   -11.7844 -11.7844 -11.7838 -11.7838 -11.6272 -11.6272 -11.6230 -11.6230
   -11.6092 -11.6092 -11.6030 -11.6030 -11.5825 -11.5825 -11.5811 -11.5811
   -11.3655 -11.3655 -11.3654 -11.3654 -11.0177 -11.0177 -11.0172 -11.0172
   -10.5158 -10.5158 -10.5156 -10.5156 -10.2762 -10.2762 -10.2761 -10.2761
    -9.8384  -9.8384  -9.8384  -9.8384  -9.2467  -9.2467  -9.2466  -9.2466
    -6.7205  -6.7205  -6.7204  -6.7204  -5.2956  -5.2956  -5.2955  -5.2955
    -4.1424  -4.1424  -4.1406  -4.1406  -3.8712  -3.8712  -3.8678  -3.8678
    -3.0977  -3.0977  -3.0951  -3.0951  -2.5485  -2.5485  -2.5484  -2.5484
    -2.4539  -2.4539  -2.4485  -2.4485  -2.2373  -2.2373  -2.2370  -2.2370
    -2.2016  -2.2016  -2.1982  -2.1982  -1.8334  -1.8334  -1.8228  -1.8228
    -1.6327  -1.6327  -1.6324  -1.6324  -1.5510  -1.5510  -1.5498  -1.5498
    -1.2861  -1.2861  -1.2857  -1.2857  -1.2520  -1.2520  -1.2470  -1.2470
    -0.9484  -0.9484  -0.9474  -0.9474  -0.6212  -0.6212  -0.6130  -0.6130
    -0.1108  -0.1108  -0.0798  -0.0798  -0.0321  -0.0321   0.0348   0.0348
     0.1680   0.1680   0.2047   0.2047   0.3226   0.3226   0.4020   0.4020
     0.4983   0.4983   0.5038   0.5038   1.3009   1.3009   1.3097   1.3097
     1.4578   1.4578   1.4684   1.4684   1.9527   1.9531   1.9758   1.9759

     occupation numbers 
     1.0000   1.0000   1.0000   1.0000   1.0000   1.0000   1.0000   1.0000
     1.0000   1.0000   1.0000   1.0000   1.0000   1.0000   1.0000   1.0000
     1.0000   1.0000   1.0000   1.0000   1.0000   1.0000   1.0000   1.0000
     1.0000   1.0000   1.0000   1.0000   1.0000   1.0000   1.0000   1.0000
     1.0000   1.0000   1.0000   1.0000   1.0000   1.0000   1.0000   1.0000
     1.0000   1.0000   1.0000   1.0000   1.0000   1.0000   1.0000   1.0000
     1.0000   1.0000   1.0000   1.0000   1.0000   1.0000   1.0000   1.0000
     1.0000   1.0000   1.0000   1.0000   1.0000   1.0000   1.0000   1.0000
     1.0000   1.0000   1.0000   1.0000   1.0000   1.0000   1.0000   1.0000
     1.0000   1.0000   1.0000   1.0000   1.0000   1.0000   1.0000   1.0000
     1.0000   1.0000   1.0000   1.0000   1.0000   1.0000   1.0000   1.0000
     1.0000   1.0000   1.0000   1.0000   1.0000   1.0000   1.0000   1.0000
     1.0000   1.0000   1.0000   1.0000   1.0000   1.0000   1.0000   1.0000
     1.0000   1.0000   1.0000   1.0000   1.0000   1.0000   1.0000   1.0000
     1.0000   1.0000   1.0000   1.0000   1.0000   1.0000   1.0000   1.0000
     1.0000   1.0000   1.0000   1.0000   1.0000   1.0000   1.0000   1.0000
     1.0000   1.0000   1.0000   1.0000   1.0000   1.0000   1.0000   1.0000
     1.0000   1.0000   1.0000   1.0000   1.0000   1.0000   1.0000   1.0000
     1.0000   1.0000   1.0000   1.0000   1.0000   1.0000   1.0000   1.0000
     1.0000   1.0000   1.0000   1.0000   1.0000   1.0000   1.0000   1.0000
     1.0000   1.0000   1.0000   1.0000   1.0042   1.0042   1.0048   1.0048
     0.9806   0.9806   0.9270   0.9270   0.8233   0.8233   0.6486   0.6486
     0.3029   0.3029   0.2284   0.2284   0.0738   0.0738   0.0283   0.0283
     0.0071   0.0071   0.0065   0.0065   0.0000   0.0000   0.0000   0.0000
     0.0000   0.0000   0.0000   0.0000   0.0000   0.0000   0.0000   0.0000

          k =-0.5000-0.5105-0.5075 (167640 PWs)   bands (ev):

   -24.7269 -24.7269 -24.7269 -24.7269 -24.0213 -24.0213 -24.0213 -24.0213
   -23.5624 -23.5624 -23.5624 -23.5624 -22.7211 -22.7211 -22.7211 -22.7211
   -22.6536 -22.6536 -22.6536 -22.6536 -22.2212 -22.2212 -22.2212 -22.2212
   -21.9627 -21.9627 -21.9627 -21.9627 -21.6913 -21.6913 -21.6913 -21.6913
   -21.6422 -21.6422 -21.6422 -21.6422 -21.6023 -21.6023 -21.6023 -21.6023
   -21.2620 -21.2620 -21.2620 -21.2620 -21.0841 -21.0841 -21.0841 -21.0841
   -20.8446 -20.8446 -20.8446 -20.8446 -13.2258 -13.2258 -13.2254 -13.2254
   -13.1233 -13.1233 -13.1229 -13.1229 -12.3053 -12.3053 -12.3053 -12.3053
   -11.7846 -11.7846 -11.7837 -11.7837 -11.6272 -11.6272 -11.6230 -11.6230
   -11.6094 -11.6094 -11.6028 -11.6028 -11.5824 -11.5824 -11.5811 -11.5811
   -11.3656 -11.3656 -11.3653 -11.3653 -11.0177 -11.0177 -11.0172 -11.0172
   -10.5157 -10.5157 -10.5157 -10.5157 -10.2762 -10.2762 -10.2761 -10.2761
    -9.8384  -9.8384  -9.8384  -9.8384  -9.2467  -9.2467  -9.2467  -9.2467
    -6.7205  -6.7205  -6.7205  -6.7205  -5.2961  -5.2961  -5.2960  -5.2960
    -4.1423  -4.1423  -4.1406  -4.1406  -3.8710  -3.8710  -3.8676  -3.8676
    -3.0972  -3.0972  -3.0946  -3.0946  -2.5494  -2.5494  -2.5460  -2.5460
    -2.4527  -2.4527  -2.4479  -2.4479  -2.2359  -2.2359  -2.2359  -2.2359
    -2.1988  -2.1988  -2.1967  -2.1967  -1.8334  -1.8334  -1.8227  -1.8227
    -1.6379  -1.6379  -1.6325  -1.6325  -1.5495  -1.5495  -1.5460  -1.5460
    -1.2938  -1.2938  -1.2873  -1.2873  -1.2515  -1.2515  -1.2466  -1.2466
    -0.9500  -0.9500  -0.9466  -0.9466  -0.6217  -0.6217  -0.6136  -0.6136
    -0.0976  -0.0976  -0.0796  -0.0796  -0.0410  -0.0410   0.0364   0.0364
     0.1692   0.1692   0.2045   0.2045   0.3115   0.3115   0.3935   0.3935
     0.4929   0.4929   0.4988   0.4988   1.2891   1.2891   1.2966   1.2966
     1.4408   1.4408   1.4567   1.4567   1.9750   1.9752   1.9945   1.9958

     occupation numbers 
     1.0000   1.0000   1.0000   1.0000   1.0000   1.0000   1.0000   1.0000
     1.0000   1.0000   1.0000   1.0000   1.0000   1.0000   1.0000   1.0000
     1.0000   1.0000   1.0000   1.0000   1.0000   1.0000   1.0000   1.0000
     1.0000   1.0000   1.0000   1.0000   1.0000   1.0000   1.0000   1.0000
     1.0000   1.0000   1.0000   1.0000   1.0000   1.0000   1.0000   1.0000
     1.0000   1.0000   1.0000   1.0000   1.0000   1.0000   1.0000   1.0000
     1.0000   1.0000   1.0000   1.0000   1.0000   1.0000   1.0000   1.0000
     1.0000   1.0000   1.0000   1.0000   1.0000   1.0000   1.0000   1.0000
     1.0000   1.0000   1.0000   1.0000   1.0000   1.0000   1.0000   1.0000
     1.0000   1.0000   1.0000   1.0000   1.0000   1.0000   1.0000   1.0000
     1.0000   1.0000   1.0000   1.0000   1.0000   1.0000   1.0000   1.0000
     1.0000   1.0000   1.0000   1.0000   1.0000   1.0000   1.0000   1.0000
     1.0000   1.0000   1.0000   1.0000   1.0000   1.0000   1.0000   1.0000
     1.0000   1.0000   1.0000   1.0000   1.0000   1.0000   1.0000   1.0000
     1.0000   1.0000   1.0000   1.0000   1.0000   1.0000   1.0000   1.0000
     1.0000   1.0000   1.0000   1.0000   1.0000   1.0000   1.0000   1.0000
     1.0000   1.0000   1.0000   1.0000   1.0000   1.0000   1.0000   1.0000
     1.0000   1.0000   1.0000   1.0000   1.0000   1.0000   1.0000   1.0000
     1.0000   1.0000   1.0000   1.0000   1.0000   1.0000   1.0000   1.0000
     1.0000   1.0000   1.0000   1.0000   1.0000   1.0000   1.0000   1.0000
     1.0000   1.0000   1.0000   1.0000   1.0042   1.0042   1.0047   1.0047
     0.9593   0.9593   0.9266   0.9266   0.8445   0.8445   0.6441   0.6441
     0.3002   0.3002   0.2288   0.2288   0.0833   0.0833   0.0316   0.0316
     0.0077   0.0077   0.0071   0.0071   0.0000   0.0000   0.0000   0.0000
     0.0000   0.0000   0.0000   0.0000   0.0000   0.0000   0.0000   0.0000

     the Fermi energy is     0.1267 ev

!    total energy              =   -1252.23419810 Ry
     estimated scf accuracy    <       0.00000073 Ry
     smearing contrib. (-TS)   =      -0.02385135 Ry
     internal energy E=F+TS    =   -1252.21034675 Ry

     The total energy is F=E-TS. E is the sum of the following terms:
     one-electron contribution =    -946.87822038 Ry
     hartree contribution      =     517.04244341 Ry
     xc contribution           =    -469.36421344 Ry
     ewald contribution        =    -353.01035634 Ry

     convergence has been achieved in  21 iterations

     negative rho (up, down):  8.609E-03 0.000E+00

     Forces acting on atoms (cartesian axes, Ry/au):

     atom    1 type  3   force =    -0.08724749    0.00625592    0.00466723
     atom    2 type  3   force =     0.08724749    0.00625592   -0.00466723
     atom    3 type  3   force =     0.08724749    0.00625592    0.00466723
     atom    4 type  3   force =    -0.08724749    0.00625592   -0.00466723
     atom    5 type  1   force =     0.00000000    0.02150244    0.00425351
     atom    6 type  1   force =     0.00000000    0.02150244   -0.00425351
     atom    7 type  1   force =     0.00000000    0.08406607   -0.32162196
     atom    8 type  1   force =     0.00000000    0.08406607    0.32162196
     atom    9 type  2   force =    12.31777222   -0.04548170    0.15527667
     atom   10 type  2   force =   -12.31777222   -0.04548170   -0.15527667
     atom   11 type  2   force =   -12.31777222   -0.04548170    0.15527667
     atom   12 type  2   force =    12.31777222   -0.04548170   -0.15527667
     atom   13 type  2   force =     0.05255589   -0.00515839    0.00275840
     atom   14 type  2   force =    -0.05255589   -0.00515839   -0.00275840
     atom   15 type  2   force =    -0.05255589   -0.00515839    0.00275840
     atom   16 type  2   force =     0.05255589   -0.00515839   -0.00275840
     atom   17 type  2   force =     0.01326684   -0.00840009   -0.00320811
     atom   18 type  2   force =    -0.01326684   -0.00840009    0.00320811
     atom   19 type  2   force =    -0.01326684   -0.00840009   -0.00320811
     atom   20 type  2   force =     0.01326684   -0.00840009    0.00320811
     The non-local contrib.  to forces
     atom    1 type  3   force =     0.02327186   -0.01988833    0.01373576
     atom    2 type  3   force =    -0.02327186   -0.01988833   -0.01373576
     atom    3 type  3   force =    -0.02327186   -0.01988833    0.01373576
     atom    4 type  3   force =     0.02327186   -0.01988833   -0.01373576
     atom    5 type  1   force =     0.00000000    0.08465637   -0.01257858
     atom    6 type  1   force =     0.00000000    0.08465637    0.01257858
     atom    7 type  1   force =     0.00000000    0.03953935   -0.03173697
     atom    8 type  1   force =     0.00000000    0.03953935    0.03173697
     atom    9 type  2   force =     2.62492271    0.02990089    0.01824991
     atom   10 type  2   force =    -2.62492271    0.02990089   -0.01824991
     atom   11 type  2   force =    -2.62492271    0.02990089    0.01824991
     atom   12 type  2   force =     2.62492271    0.02990089   -0.01824991
     atom   13 type  2   force =    -0.05563900   -0.01318774    0.00989279
     atom   14 type  2   force =     0.05563900   -0.01318774   -0.00989279
     atom   15 type  2   force =     0.05563900   -0.01318774    0.00989279
     atom   16 type  2   force =    -0.05563900   -0.01318774   -0.00989279
     atom   17 type  2   force =     0.05640639   -0.02870009   -0.02637665
     atom   18 type  2   force =    -0.05640639   -0.02870009    0.02637665
     atom   19 type  2   force =    -0.05640639   -0.02870009   -0.02637665
     atom   20 type  2   force =     0.05640639   -0.02870009    0.02637665
     The ionic contribution  to forces
     atom    1 type  3   force =    -0.73314525   -1.16254720   -1.35898028
     atom    2 type  3   force =     0.73314525   -1.16254720    1.35898028
     atom    3 type  3   force =     0.73314525   -1.16254720   -1.35898028
     atom    4 type  3   force =    -0.73314525   -1.16254720    1.35898028
     atom    5 type  1   force =    -0.00000000   -4.14325555   -1.80332931
     atom    6 type  1   force =    -0.00000000   -4.14325555    1.80332931
     atom    7 type  1   force =     0.00000000    8.17897620  -11.54133323
     atom    8 type  1   force =     0.00000000    8.17897620   11.54133323
     atom    9 type  2   force =    18.61872420   -1.30407096    8.55210719
     atom   10 type  2   force =   -18.61872420   -1.30407096   -8.55210719
     atom   11 type  2   force =   -18.61872420   -1.30407096    8.55210719
     atom   12 type  2   force =    18.61872420   -1.30407096   -8.55210719
     atom   13 type  2   force =     2.29371927   -1.25562381    0.15343742
     atom   14 type  2   force =    -2.29371927   -1.25562381   -0.15343742
     atom   15 type  2   force =    -2.29371927   -1.25562381    0.15343742
     atom   16 type  2   force =     2.29371927   -1.25562381   -0.15343742
     atom   17 type  2   force =     1.43046484    1.70438165    3.98978340
     atom   18 type  2   force =    -1.43046484    1.70438165   -3.98978340
     atom   19 type  2   force =    -1.43046484    1.70438165    3.98978340
     atom   20 type  2   force =     1.43046484    1.70438165   -3.98978340
     The local contribution  to forces
     atom    1 type  3   force =     0.62213876    1.18758051    1.35044687
     atom    2 type  3   force =    -0.62213876    1.18758051   -1.35044687
     atom    3 type  3   force =    -0.62213876    1.18758051    1.35044687
     atom    4 type  3   force =     0.62213876    1.18758051   -1.35044687
     atom    5 type  1   force =     0.00000000    4.08353694    1.82036912
     atom    6 type  1   force =     0.00000000    4.08353694   -1.82036912
     atom    7 type  1   force =    -0.00000000   -8.12139118   11.20752397
     atom    8 type  1   force =    -0.00000000   -8.12139118  -11.20752397
     atom    9 type  2   force =    -8.32647946    1.23253520   -8.41619170
     atom   10 type  2   force =     8.32647946    1.23253520    8.41619170
     atom   11 type  2   force =     8.32647946    1.23253520   -8.41619170
     atom   12 type  2   force =    -8.32647946    1.23253520    8.41619170
     atom   13 type  2   force =    -2.19438306    1.26199181   -0.15944208
     atom   14 type  2   force =     2.19438306    1.26199181    0.15944208
     atom   15 type  2   force =     2.19438306    1.26199181   -0.15944208
     atom   16 type  2   force =    -2.19438306    1.26199181    0.15944208
     atom   17 type  2   force =    -1.46709198   -1.68785732   -3.96970755
     atom   18 type  2   force =     1.46709198   -1.68785732    3.96970755
     atom   19 type  2   force =     1.46709198   -1.68785732   -3.96970755
     atom   20 type  2   force =    -1.46709198   -1.68785732    3.96970755
     The core correction contribution to forces
     atom    1 type  3   force =     0.00043370    0.00108248   -0.00070771
     atom    2 type  3   force =    -0.00043370    0.00108248    0.00070771
     atom    3 type  3   force =    -0.00043370    0.00108248   -0.00070771
     atom    4 type  3   force =     0.00043370    0.00108248    0.00070771
     atom    5 type  1   force =     0.00000000   -0.00363893   -0.00040435
     atom    6 type  1   force =    -0.00000000   -0.00363893    0.00040435
     atom    7 type  1   force =     0.00000000   -0.01326277    0.04377670
     atom    8 type  1   force =     0.00000000   -0.01326277   -0.04377670
     atom    9 type  2   force =    -0.59934001   -0.00384968    0.00120747
     atom   10 type  2   force =     0.59934001   -0.00384968   -0.00120747
     atom   11 type  2   force =     0.59934001   -0.00384968    0.00120747
     atom   12 type  2   force =    -0.59934001   -0.00384968   -0.00120747
     atom   13 type  2   force =     0.00890452    0.00164322   -0.00118355
     atom   14 type  2   force =    -0.00890452    0.00164322    0.00118355
     atom   15 type  2   force =    -0.00890452    0.00164322   -0.00118355
     atom   16 type  2   force =     0.00890452    0.00164322    0.00118355
     atom   17 type  2   force =    -0.00650904    0.00370809    0.00324089
     atom   18 type  2   force =     0.00650904    0.00370809   -0.00324089
     atom   19 type  2   force =     0.00650904    0.00370809    0.00324089
     atom   20 type  2   force =    -0.00650904    0.00370809   -0.00324089
     The Hubbard contrib.    to forces
     atom    1 type  3   force =     0.00000000    0.00000000    0.00000000
     atom    2 type  3   force =     0.00000000    0.00000000    0.00000000
     atom    3 type  3   force =     0.00000000    0.00000000    0.00000000
     atom    4 type  3   force =     0.00000000    0.00000000    0.00000000
     atom    5 type  1   force =     0.00000000    0.00000000    0.00000000
     atom    6 type  1   force =     0.00000000    0.00000000    0.00000000
     atom    7 type  1   force =     0.00000000    0.00000000    0.00000000
     atom    8 type  1   force =     0.00000000    0.00000000    0.00000000
     atom    9 type  2   force =     0.00000000    0.00000000    0.00000000
     atom   10 type  2   force =     0.00000000    0.00000000    0.00000000
     atom   11 type  2   force =     0.00000000    0.00000000    0.00000000
     atom   12 type  2   force =     0.00000000    0.00000000    0.00000000
     atom   13 type  2   force =     0.00000000    0.00000000    0.00000000
     atom   14 type  2   force =     0.00000000    0.00000000    0.00000000
     atom   15 type  2   force =     0.00000000    0.00000000    0.00000000
     atom   16 type  2   force =     0.00000000    0.00000000    0.00000000
     atom   17 type  2   force =     0.00000000    0.00000000    0.00000000
     atom   18 type  2   force =     0.00000000    0.00000000    0.00000000
     atom   19 type  2   force =     0.00000000    0.00000000    0.00000000
     atom   20 type  2   force =     0.00000000    0.00000000    0.00000000
     The SCF correction term to forces
     atom    1 type  3   force =     0.00005344    0.00002748    0.00017259
     atom    2 type  3   force =    -0.00005344    0.00002748   -0.00017259
     atom    3 type  3   force =    -0.00005344    0.00002748    0.00017259
     atom    4 type  3   force =     0.00005344    0.00002748   -0.00017259
     atom    5 type  1   force =    -0.00000000    0.00020262    0.00019664
     atom    6 type  1   force =    -0.00000000    0.00020262   -0.00019664
     atom    7 type  1   force =    -0.00000000    0.00020348    0.00014756
     atom    8 type  1   force =    -0.00000000    0.00020348   -0.00014756
     atom    9 type  2   force =    -0.00005521    0.00000186   -0.00009622
     atom   10 type  2   force =     0.00005521    0.00000186    0.00009622
     atom   11 type  2   force =     0.00005521    0.00000186   -0.00009622
     atom   12 type  2   force =    -0.00005521    0.00000186    0.00009622
     atom   13 type  2   force =    -0.00004584    0.00001714    0.00005382
     atom   14 type  2   force =     0.00004584    0.00001714   -0.00005382
     atom   15 type  2   force =     0.00004584    0.00001714    0.00005382
     atom   16 type  2   force =    -0.00004584    0.00001714   -0.00005382
     atom   17 type  2   force =    -0.00000337    0.00006660   -0.00014819
     atom   18 type  2   force =     0.00000337    0.00006660    0.00014819
     atom   19 type  2   force =     0.00000337    0.00006660   -0.00014819
     atom   20 type  2   force =    -0.00000337    0.00006660    0.00014819

     Total force =    24.643045     Total SCF correction =     0.000772


     Computing stress (Cartesian axis) and pressure


     negative rho (up, down):  8.609E-03 0.000E+00
          total   stress  (Ry/bohr**3)                   (kbar)     P=      219.54
   0.00434609   0.00000000   0.00000000          639.33        0.00        0.00
   0.00000000  -0.00003028   0.00000000            0.00       -4.45        0.00
   0.00000000   0.00000000   0.00016132            0.00        0.00       23.73

     kinetic stress (kbar)   2607.75      0.00      0.00
                                0.00   2608.11      0.00
                                0.00      0.00   2587.07

     local   stress (kbar)  -3927.43     -0.00     -0.00
                               -0.00  -1799.41      0.00
                               -0.00      0.00  -2612.09

     nonloc. stress (kbar)    687.37      0.00      0.00
                                0.00    631.73      0.00
                                0.00      0.00    632.92

     hartree stress (kbar)   2286.71      0.00     -0.00
                                0.00   1487.81      0.00
                               -0.00      0.00   1709.91

     exc-cor stress (kbar)   2510.16      0.00      0.00
                                0.00   2506.76     -0.00
                                0.00     -0.00   2507.89

     corecor stress (kbar)  -3353.42      0.00     -0.00
                                0.00  -3334.29      0.00
                               -0.00      0.00  -3334.44

     ewald   stress (kbar)   -171.80     -0.00      0.00
                               -0.00  -2105.16     -0.00
                                0.00     -0.00  -1467.52

     hubbard stress (kbar)      0.00      0.00      0.00
                                0.00      0.00      0.00
                                0.00      0.00      0.00

     DFT-D   stress (kbar)      0.00      0.00      0.00
                                0.00      0.00      0.00
                                0.00      0.00      0.00

     XDM     stress (kbar)      0.00      0.00      0.00
                                0.00      0.00      0.00
                                0.00      0.00      0.00

     dft-nl  stress (kbar)      0.00      0.00      0.00
                                0.00      0.00      0.00
                                0.00      0.00      0.00

     TS-vdW  stress (kbar)      0.00      0.00      0.00
                                0.00      0.00      0.00
                                0.00      0.00      0.00



     BFGS Geometry Optimization
     Energy error            =      0.0E+00
     Gradient error          =      1.2E+01

     number of scf cycles    =   1
     number of bfgs steps    =   0

     energy   new            =   -1252.2341981045 Ry

     new trust radius        =       0.5000000000 bohr
     new conv_thr            =       0.0000010000 Ry


ATOMIC_POSITIONS (crystal)
Cs            0.3770163492        0.5431706632        0.7418719082
Cs            0.1229836508        0.0431706632        0.2581280918
Cs            0.6229836508        0.5431706632        0.7418719082
Cs            0.8770163492        0.0431706632        0.2581280918
Sn            0.0000000000        0.3455336509        0.5749172072
Sn            0.5000000000        0.8455336509        0.4250827928
Sn            0.0000000000        0.7185592907        0.8811420380
Sn            0.5000000000        0.2185592907        0.1188579620
I             0.0698202712        0.6631544764        0.0644401036
I             0.4301797288        0.1631544764        0.9355598964
I             0.9301797288        0.6631544764        0.0644401036
I             0.5698202712        0.1631544764        0.9355598964
I             0.1111427367        0.3388552075        0.0250986739
I             0.3888572633        0.8388552075        0.9749013261
I             0.8888572633        0.3388552075        0.0250986739
I             0.6111427367        0.8388552075        0.9749013261
I             0.6465281476        0.1369616820        0.3720525641
I             0.8534718524        0.6369616820        0.6279474359
I             0.3534718524        0.1369616820        0.3720525641
I             0.1465281476        0.6369616820        0.6279474359



     Writing output data file ./CsSnI3.save/
     NEW-OLD atomic charge density approx. for the potential

     total cpu time spent up to now is     2502.3 secs

     Self-consistent Calculation

     iteration #  1     ecut=    80.00 Ry     beta= 0.50
     Davidson diagonalization with overlap
     c_bands:  2 eigenvalues not converged

 %%%%%%%%%%%%%%%%%%%%%%%%%%%%%%%%%%%%%%%%%%%%%%%%%%%%%%%%%%%%%%%%%%%%%%%%%%%%%%
     Error in routine  cdiaghg (219):
      problems computing cholesky
 %%%%%%%%%%%%%%%%%%%%%%%%%%%%%%%%%%%%%%%%%%%%%%%%%%%%%%%%%%%%%%%%%%%%%%%%%%%%%%

     stopping ...

 %%%%%%%%%%%%%%%%%%%%%%%%%%%%%%%%%%%%%%%%%%%%%%%%%%%%%%%%%%%%%%%%%%%%%%%%%%%%%%
     Error in routine  cdiaghg (219):
      problems computing cholesky
 %%%%%%%%%%%%%%%%%%%%%%%%%%%%%%%%%%%%%%%%%%%%%%%%%%%%%%%%%%%%%%%%%%%%%%%%%%%%%%

     stopping ...

 %%%%%%%%%%%%%%%%%%%%%%%%%%%%%%%%%%%%%%%%%%%%%%%%%%%%%%%%%%%%%%%%%%%%%%%%%%%%%%
     Error in routine  cdiaghg (219):
      problems computing cholesky
 %%%%%%%%%%%%%%%%%%%%%%%%%%%%%%%%%%%%%%%%%%%%%%%%%%%%%%%%%%%%%%%%%%%%%%%%%%%%%%

     stopping ...

 %%%%%%%%%%%%%%%%%%%%%%%%%%%%%%%%%%%%%%%%%%%%%%%%%%%%%%%%%%%%%%%%%%%%%%%%%%%%%%
     Error in routine  cdiaghg (219):
      problems computing cholesky
 %%%%%%%%%%%%%%%%%%%%%%%%%%%%%%%%%%%%%%%%%%%%%%%%%%%%%%%%%%%%%%%%%%%%%%%%%%%%%%

     stopping ...
