
     Program PWSCF v.6.7MaX starts on 27Jan2021 at  8:48:49 

     This program is part of the open-source Quantum ESPRESSO suite
     for quantum simulation of materials; please cite
         "P. Giannozzi et al., J. Phys.:Condens. Matter 21 395502 (2009);
         "P. Giannozzi et al., J. Phys.:Condens. Matter 29 465901 (2017);
          URL http://www.quantum-espresso.org", 
     in publications or presentations arising from this work. More details at
     http://www.quantum-espresso.org/quote

     Parallel version (MPI & OpenMP), running on      96 processor cores
     Number of MPI processes:                48
     Threads/MPI process:                     2

     MPI processes distributed on     2 nodes
     R & G space division:  proc/nbgrp/npool/nimage =      48
     Waiting for input...
     Reading input from standard input

     Current dimensions of program PWSCF are:
     Max number of different atomic species (ntypx) = 10
     Max number of k-points (npk) =  40000
     Max angular momentum in pseudopotentials (lmaxx) =  3
     file Cs.rel-pbesol-spn-rrkjus_psl.1.0.0.UPF: wavefunction(s)  5S 6S renormalized
     file Sn.rel-pbesol-dn-rrkjus_psl.1.0.0.UPF: wavefunction(s)  5S 4D 4D renormalized
     file I.rel-pbesol-n-rrkjus_psl.1.0.0.UPF: wavefunction(s)  5S renormalized

     Subspace diagonalization in iterative solution of the eigenvalue problem:
     a serial algorithm will be used


     Parallelization info
     --------------------
     sticks:   dense  smooth     PW     G-vecs:    dense   smooth      PW
     Min         107      86     22                14667    10498    1402
     Max         108      87     23                14680    10509    1415
     Sum        5183    4145   1087               704507   504115   67611


     Title: 
     CsSnI3                                                                     


     bravais-lattice index     =            8
     lattice parameter (alat)  =       9.1317  a.u.
     unit-cell volume          =    6370.5385 (a.u.)^3
     number of atoms/cell      =           20
     number of atomic types    =            3
     number of electrons       =       176.00
     number of Kohn-Sham states=          176
     kinetic-energy cutoff     =      70.0000  Ry
     charge density cutoff     =     350.0000  Ry
     scf convergence threshold =      1.0E-06
     mixing beta               =       0.5000
     number of iterations used =            8  plain     mixing
     Exchange-correlation= PBESOL
                           (   1   4  10   8   0   0   0)
     Non magnetic calculation with spin-orbit


     celldm(1)=   9.131705  celldm(2)=   2.227728  celldm(3)=   3.755420
     celldm(4)=   0.000000  celldm(5)=   0.000000  celldm(6)=   0.000000

     crystal axes: (cart. coord. in units of alat)
               a(1) = (   1.000000   0.000000   0.000000 )  
               a(2) = (   0.000000   2.227728   0.000000 )  
               a(3) = (   0.000000   0.000000   3.755420 )  

     reciprocal axes: (cart. coord. in units 2 pi/alat)
               b(1) = (  1.000000  0.000000  0.000000 )  
               b(2) = (  0.000000  0.448888  0.000000 )  
               b(3) = (  0.000000  0.000000  0.266282 )  


     PseudoPot. # 1 for Cs read from file:
     /scratch/cmalosso/degironcoli/pseudo/pseudo-usp/Cs.rel-pbesol-spn-rrkjus_psl.1.0.0.UPF
     MD5 check sum: 846889b67fb1b19751b5b37931589d70
     Pseudo is Ultrasoft + core correction, Zval =  9.0
     Generated using &quot;atomic&quot; code by A. Dal Corso  v.6.4.1
     Using radial grid of 1251 points, 15 beta functions with: 
                l(1) =   0
                l(2) =   0
                l(3) =   0
                l(4) =   1
                l(5) =   1
                l(6) =   1
                l(7) =   1
                l(8) =   2
                l(9) =   2
               l(10) =   2
               l(11) =   2
               l(12) =   3
               l(13) =   3
               l(14) =   3
               l(15) =   3
     Q(r) pseudized with 0 coefficients 


     PseudoPot. # 2 for Sn read from file:
     /scratch/cmalosso/degironcoli/pseudo/pseudo-usp/Sn.rel-pbesol-dn-rrkjus_psl.1.0.0.UPF
     MD5 check sum: c1cf6ea56b96a3656bdf0d1db379e093
     Pseudo is Ultrasoft + core correction, Zval = 14.0
     Generated using &quot;atomic&quot; code by A. Dal Corso  v.6.3
     Using radial grid of 1243 points, 10 beta functions with: 
                l(1) =   0
                l(2) =   0
                l(3) =   1
                l(4) =   1
                l(5) =   1
                l(6) =   1
                l(7) =   2
                l(8) =   2
                l(9) =   2
               l(10) =   2
     Q(r) pseudized with 0 coefficients 


     PseudoPot. # 3 for I  read from file:
     /scratch/cmalosso/degironcoli/pseudo/pseudo-usp/I.rel-pbesol-n-rrkjus_psl.1.0.0.UPF
     MD5 check sum: 0f96c6bfb1b448f280658f96eb466b08
     Pseudo is Ultrasoft + core correction, Zval =  7.0
     Generated using &quot;atomic&quot; code by A. Dal Corso  v.6.3
     Using radial grid of 1247 points, 10 beta functions with: 
                l(1) =   0
                l(2) =   0
                l(3) =   1
                l(4) =   1
                l(5) =   1
                l(6) =   1
                l(7) =   2
                l(8) =   2
                l(9) =   2
               l(10) =   2
     Q(r) pseudized with 0 coefficients 


     atomic species   valence    mass     pseudopotential
        Cs             9.00   132.90000     Cs( 1.00)
        Sn            14.00   118.70000     Sn( 1.00)
        I              7.00   126.90000     I ( 1.00)

      8 Sym. Ops., with inversion, found ( 6 have fractional translation)


                                    s                        frac. trans.

      isym =  1     identity                                     

 cryst.   s( 1) = (     1          0          0      )
                  (     0          1          0      )
                  (     0          0          1      )

 cart.    s( 1) = (  1.0000000  0.0000000  0.0000000 )
                  (  0.0000000  1.0000000  0.0000000 )
                  (  0.0000000  0.0000000  1.0000000 )


      isym =  2     180 deg rotation - cart. axis [0,0,1]        

 cryst.   s( 2) = (    -1          0          0      )    f =(  0.0000000 )
                  (     0         -1          0      )       (  0.5000000 )
                  (     0          0          1      )       (  0.5000000 )

 cart.    s( 2) = ( -1.0000000  0.0000000  0.0000000 )    f =(  0.0000000 )
                  (  0.0000000 -1.0000000  0.0000000 )       (  1.1138638 )
                  (  0.0000000  0.0000000  1.0000000 )       (  1.8777098 )


      isym =  3     180 deg rotation - cart. axis [0,1,0]        

 cryst.   s( 3) = (    -1          0          0      )    f =(  0.5000000 )
                  (     0          1          0      )       ( -0.5000000 )
                  (     0          0         -1      )       ( -0.5000000 )

 cart.    s( 3) = ( -1.0000000  0.0000000  0.0000000 )    f =(  0.5000000 )
                  (  0.0000000  1.0000000  0.0000000 )       ( -1.1138638 )
                  (  0.0000000  0.0000000 -1.0000000 )       ( -1.8777098 )


      isym =  4     180 deg rotation - cart. axis [1,0,0]        

 cryst.   s( 4) = (     1          0          0      )    f =( -0.5000000 )
                  (     0         -1          0      )       (  0.0000000 )
                  (     0          0         -1      )       (  0.0000000 )

 cart.    s( 4) = (  1.0000000  0.0000000  0.0000000 )    f =( -0.5000000 )
                  (  0.0000000 -1.0000000  0.0000000 )       (  0.0000000 )
                  (  0.0000000  0.0000000 -1.0000000 )       (  0.0000000 )


      isym =  5     inversion                                    

 cryst.   s( 5) = (    -1          0          0      )
                  (     0         -1          0      )
                  (     0          0         -1      )

 cart.    s( 5) = ( -1.0000000  0.0000000  0.0000000 )
                  (  0.0000000 -1.0000000  0.0000000 )
                  (  0.0000000  0.0000000 -1.0000000 )


      isym =  6     inv. 180 deg rotation - cart. axis [0,0,1]   

 cryst.   s( 6) = (     1          0          0      )    f =(  0.0000000 )
                  (     0          1          0      )       ( -0.5000000 )
                  (     0          0         -1      )       ( -0.5000000 )

 cart.    s( 6) = (  1.0000000  0.0000000  0.0000000 )    f =(  0.0000000 )
                  (  0.0000000  1.0000000  0.0000000 )       ( -1.1138638 )
                  (  0.0000000  0.0000000 -1.0000000 )       ( -1.8777098 )


      isym =  7     inv. 180 deg rotation - cart. axis [0,1,0]   

 cryst.   s( 7) = (     1          0          0      )    f =( -0.5000000 )
                  (     0         -1          0      )       (  0.5000000 )
                  (     0          0          1      )       (  0.5000000 )

 cart.    s( 7) = (  1.0000000  0.0000000  0.0000000 )    f =( -0.5000000 )
                  (  0.0000000 -1.0000000  0.0000000 )       (  1.1138638 )
                  (  0.0000000  0.0000000  1.0000000 )       (  1.8777098 )


      isym =  8     inv. 180 deg rotation - cart. axis [1,0,0]   

 cryst.   s( 8) = (    -1          0          0      )    f =(  0.5000000 )
                  (     0          1          0      )       (  0.0000000 )
                  (     0          0          1      )       (  0.0000000 )

 cart.    s( 8) = ( -1.0000000  0.0000000  0.0000000 )    f =(  0.5000000 )
                  (  0.0000000  1.0000000  0.0000000 )       (  0.0000000 )
                  (  0.0000000  0.0000000  1.0000000 )       (  0.0000000 )


     double point group D_2h (mmm) 
     there are 10 classes and  2 irreducible representations
     the character table:

       E     -E     C2    C2'  C2''  i     -i     s_v   s_v' s_v''
                   -C2   -C2'  -C2''             -s_v  -s_v' -s_v'
G_5+   2.00 -2.00  0.00  0.00  0.00  2.00 -2.00  0.00  0.00  0.00
G_5-   2.00 -2.00  0.00  0.00  0.00 -2.00  2.00  0.00  0.00  0.00

     the symmetry operations in each class and the name of the first element:

     E             1
          identity                                               
     -E           -1
          identity E                                             
      C2  -C2      2   -2
          180 deg rotation - cart. axis [0,0,1]                  
      C2' -C2'     4   -4
          180 deg rotation - cart. axis [1,0,0]                  
     C2'' -C2''    3   -3
          180 deg rotation - cart. axis [0,1,0]                  
     i             5
          inversion                                              
     -i           -5
          inversion E                                            
      s_v -s_v     6   -6
          inv. 180 deg rotation - cart. axis [0,0,1]             
      s_v'-s_v'    8   -8
          inv. 180 deg rotation - cart. axis [1,0,0]             
     s_v''-s_v'    7   -7
          inv. 180 deg rotation - cart. axis [0,1,0]             

   Cartesian axes

     site n.     atom                  positions (alat units)
         1           Cs  tau(   1) = (   0.2500000   0.1859640   2.5168147  )
         2           Cs  tau(   2) = (   0.7500000   2.0417636   1.2386050  )
         3           Cs  tau(   3) = (   0.2500000   1.2998278   3.1163149  )
         4           Cs  tau(   4) = (   0.7500000   0.9278998   0.6391048  )
         5           Sn  tau(   5) = (   0.2500000   0.7615710   1.6485466  )
         6           Sn  tau(   6) = (   0.7500000   1.4661567   2.1068731  )
         7           Sn  tau(   7) = (   0.2500000   1.8754348   0.2291632  )
         8           Sn  tau(   8) = (   0.7500000   0.3522928   3.5262565  )
         9           I   tau(   9) = (   0.7500000   0.0581437   0.4202578  )
        10           I   tau(  10) = (   0.2500000   2.1695839   3.3351619  )
        11           I   tau(  11) = (   0.7500000   1.1720075   1.4574521  )
        12           I   tau(  12) = (   0.2500000   1.0557201   2.2979676  )
        13           I   tau(  13) = (   0.7500000   0.6531118   2.9738192  )
        14           I   tau(  14) = (   0.2500000   1.5746158   0.7816005  )
        15           I   tau(  15) = (   0.7500000   1.7669756   2.6593103  )
        16           I   tau(  16) = (   0.2500000   0.4607520   1.0961094  )
        17           I   tau(  17) = (   0.7500000   0.3753632   1.8734812  )
        18           I   tau(  18) = (   0.2500000   1.8523644   1.8819384  )
        19           I   tau(  19) = (   0.7500000   1.4892270   0.0042286  )
        20           I   tau(  20) = (   0.2500000   0.7385006   3.7511911  )

   Crystallographic axes

     site n.     atom                  positions (cryst. coord.)
         1           Cs  tau(   1) = (  0.2500000  0.0834770  0.6701820  )
         2           Cs  tau(   2) = (  0.7500000  0.9165230  0.3298180  )
         3           Cs  tau(   3) = (  0.2500000  0.5834770  0.8298180  )
         4           Cs  tau(   4) = (  0.7500000  0.4165230  0.1701820  )
         5           Sn  tau(   5) = (  0.2500000  0.3418600  0.4389780  )
         6           Sn  tau(   6) = (  0.7500000  0.6581400  0.5610220  )
         7           Sn  tau(   7) = (  0.2500000  0.8418600  0.0610220  )
         8           Sn  tau(   8) = (  0.7500000  0.1581400  0.9389780  )
         9           I   tau(   9) = (  0.7500000  0.0261000  0.1119070  )
        10           I   tau(  10) = (  0.2500000  0.9739000  0.8880930  )
        11           I   tau(  11) = (  0.7500000  0.5261000  0.3880930  )
        12           I   tau(  12) = (  0.2500000  0.4739000  0.6119070  )
        13           I   tau(  13) = (  0.7500000  0.2931740  0.7918740  )
        14           I   tau(  14) = (  0.2500000  0.7068260  0.2081260  )
        15           I   tau(  15) = (  0.7500000  0.7931740  0.7081260  )
        16           I   tau(  16) = (  0.2500000  0.2068260  0.2918740  )
        17           I   tau(  17) = (  0.7500000  0.1684960  0.4988740  )
        18           I   tau(  18) = (  0.2500000  0.8315040  0.5011260  )
        19           I   tau(  19) = (  0.7500000  0.6684960  0.0011260  )
        20           I   tau(  20) = (  0.2500000  0.3315040  0.9988740  )

     number of k points=     1
                       cart. coord. in units 2pi/alat
        k(    1) = (   0.2500000   0.1122220   0.0665705), wk =   1.0000000

                       cryst. coord.
        k(    1) = (   0.2500000   0.2500000   0.2500000), wk =   1.0000000

     Dense  grid:   704507 G-vectors     FFT dimensions: (  60, 128, 216)

     Smooth grid:   504115 G-vectors     FFT dimensions: (  50, 120, 192)

     Dynamical RAM for                 wfc:       7.05 MB

     Dynamical RAM for     wfc (w. buffer):       7.05 MB

     Dynamical RAM for           str. fact:       0.67 MB

     Dynamical RAM for           local pot:       0.00 MB

     Dynamical RAM for          nlocal pot:      15.94 MB

     Dynamical RAM for                qrad:      36.03 MB

     Dynamical RAM for          rho,v,vnew:       6.20 MB

     Dynamical RAM for               rhoin:       2.07 MB

     Dynamical RAM for            rho*nmix:      14.33 MB

     Dynamical RAM for           G-vectors:       0.92 MB

     Dynamical RAM for          h,s,v(r/c):       5.67 MB

     Dynamical RAM for          <psi|beta>:       4.28 MB

     Dynamical RAM for                 psi:      14.09 MB

     Dynamical RAM for                hpsi:      14.09 MB

     Dynamical RAM for                spsi:      14.09 MB

     Dynamical RAM for      wfcinit/wfcrot:      13.48 MB

     Dynamical RAM for           addusdens:     460.07 MB

     Dynamical RAM for          addusforce:     465.66 MB

     Dynamical RAM for         addusstress:     464.10 MB

     Estimated static dynamical RAM per process >      86.44 MB

     Estimated max dynamical RAM per process >     552.10 MB

     Estimated total dynamical RAM >      25.88 GB

     Initial potential from superposition of free atoms

     starting charge  175.84164, renormalised to  176.00000
     Starting wfcs are  208 randomized atomic wfcs

     total cpu time spent up to now is       11.1 secs

     Self-consistent Calculation

     iteration #  1     ecut=    70.00 Ry     beta= 0.50
     Davidson diagonalization with overlap
     ethr =  1.00E-02,  avg # of iterations =  1.0

     Threshold (ethr) on eigenvalues was too large:
     Diagonalizing with lowered threshold

     Davidson diagonalization with overlap
     ethr =  3.07E-04,  avg # of iterations =  3.0

     total cpu time spent up to now is       28.8 secs

     total energy              =   -1267.95805338 Ry
     estimated scf accuracy    <       0.46498432 Ry

     iteration #  2     ecut=    70.00 Ry     beta= 0.50
     Davidson diagonalization with overlap
     ethr =  2.64E-04,  avg # of iterations =  4.0

     total cpu time spent up to now is       40.5 secs

     total energy              =   -1268.13064477 Ry
     estimated scf accuracy    <       0.15489648 Ry

     iteration #  3     ecut=    70.00 Ry     beta= 0.50
     Davidson diagonalization with overlap
     ethr =  8.80E-05,  avg # of iterations =  2.0

     total cpu time spent up to now is       52.3 secs

     total energy              =   -1268.14928261 Ry
     estimated scf accuracy    <       0.01476945 Ry

     iteration #  4     ecut=    70.00 Ry     beta= 0.50
     Davidson diagonalization with overlap
     ethr =  8.39E-06,  avg # of iterations =  6.0

     total cpu time spent up to now is       64.9 secs

     total energy              =   -1268.15875635 Ry
     estimated scf accuracy    <       0.01090185 Ry

     iteration #  5     ecut=    70.00 Ry     beta= 0.50
     Davidson diagonalization with overlap
     ethr =  6.19E-06,  avg # of iterations =  2.0

     total cpu time spent up to now is       75.2 secs

     total energy              =   -1268.16005266 Ry
     estimated scf accuracy    <       0.00088796 Ry

     iteration #  6     ecut=    70.00 Ry     beta= 0.50
     Davidson diagonalization with overlap
     ethr =  5.05E-07,  avg # of iterations = 10.0

     total cpu time spent up to now is       89.9 secs

     total energy              =   -1268.16078702 Ry
     estimated scf accuracy    <       0.00259613 Ry

     iteration #  7     ecut=    70.00 Ry     beta= 0.50
     Davidson diagonalization with overlap
     ethr =  5.05E-07,  avg # of iterations =  6.0

     total cpu time spent up to now is      101.3 secs

     total energy              =   -1268.16104670 Ry
     estimated scf accuracy    <       0.00011134 Ry

     iteration #  8     ecut=    70.00 Ry     beta= 0.50
     Davidson diagonalization with overlap
     ethr =  6.33E-08,  avg # of iterations =  5.0

     total cpu time spent up to now is      114.7 secs

     total energy              =   -1268.16112035 Ry
     estimated scf accuracy    <       0.00009212 Ry

     iteration #  9     ecut=    70.00 Ry     beta= 0.50
     Davidson diagonalization with overlap
     ethr =  5.23E-08,  avg # of iterations =  2.0

     total cpu time spent up to now is      126.3 secs

     total energy              =   -1268.16111477 Ry
     estimated scf accuracy    <       0.00002318 Ry

     iteration # 10     ecut=    70.00 Ry     beta= 0.50
     Davidson diagonalization with overlap
     ethr =  1.32E-08,  avg # of iterations =  5.0

     total cpu time spent up to now is      138.5 secs

     total energy              =   -1268.16112815 Ry
     estimated scf accuracy    <       0.00000933 Ry

     iteration # 11     ecut=    70.00 Ry     beta= 0.50
     Davidson diagonalization with overlap
     ethr =  5.30E-09,  avg # of iterations =  2.0

     total cpu time spent up to now is      148.3 secs

     total energy              =   -1268.16112650 Ry
     estimated scf accuracy    <       0.00000410 Ry

     iteration # 12     ecut=    70.00 Ry     beta= 0.50
     Davidson diagonalization with overlap
     ethr =  2.33E-09,  avg # of iterations =  5.0

     total cpu time spent up to now is      161.3 secs

     End of self-consistent calculation

          k = 0.2500 0.1122 0.0666 ( 63008 PWs)   bands (ev):

   -18.4212 -18.4212 -18.4212 -18.4212 -18.4211 -18.4211 -18.4211 -18.4211
   -18.4094 -18.4094 -18.4094 -18.4094 -18.4093 -18.4093 -18.4093 -18.4093
   -17.8383 -17.8383 -17.8382 -17.8382 -17.8377 -17.8377 -17.8376 -17.8376
   -17.3834 -17.3834 -17.3834 -17.3834 -17.3833 -17.3833 -17.3833 -17.3833
   -17.3714 -17.3714 -17.3714 -17.3714 -17.3713 -17.3713 -17.3713 -17.3713
   -17.3682 -17.3682 -17.3681 -17.3681 -17.3680 -17.3680 -17.3680 -17.3680
    -8.8090  -8.8090  -8.7978  -8.7978  -8.6591  -8.6591  -8.6433  -8.6433
    -8.5480  -8.5480  -8.5425  -8.5425  -8.4763  -8.4763  -8.4595  -8.4595
    -8.4022  -8.4022  -8.3976  -8.3976  -8.3823  -8.3823  -8.3767  -8.3767
    -5.8020  -5.8020  -5.7981  -5.7981  -5.7944  -5.7944  -5.7903  -5.7903
    -4.2236  -4.2236  -4.2183  -4.2183  -4.2071  -4.2071  -4.2000  -4.2000
    -4.1620  -4.1620  -4.1588  -4.1588  -4.1538  -4.1538  -4.1490  -4.1490
    -3.1725  -3.1725  -3.1685  -3.1685  -3.0800  -3.0800  -3.0700  -3.0700
    -0.0208  -0.0208   0.0393   0.0393   0.1307   0.1307   0.1634   0.1634
     0.2806   0.2806   0.3713   0.3713   0.5000   0.5000   0.5580   0.5580
     0.6744   0.6744   0.7074   0.7074   0.7416   0.7416   0.8079   0.8079
     1.0141   1.0141   1.0801   1.0801   1.2821   1.2821   1.3562   1.3562
     1.4099   1.4099   1.4766   1.4766   1.5948   1.5948   1.6543   1.6543
     1.7279   1.7279   1.7669   1.7669   1.8188   1.8188   1.8469   1.8469
     1.8789   1.8789   1.9581   1.9581   2.0062   2.0062   2.0774   2.0774
     2.1319   2.1319   2.1595   2.1595   2.3123   2.3123   2.3450   2.3450
     2.6537   2.6537   2.7509   2.7509   2.9421   2.9421   2.9898   2.9898

     occupation numbers 
     1.0000   1.0000   1.0000   1.0000   1.0000   1.0000   1.0000   1.0000
     1.0000   1.0000   1.0000   1.0000   1.0000   1.0000   1.0000   1.0000
     1.0000   1.0000   1.0000   1.0000   1.0000   1.0000   1.0000   1.0000
     1.0000   1.0000   1.0000   1.0000   1.0000   1.0000   1.0000   1.0000
     1.0000   1.0000   1.0000   1.0000   1.0000   1.0000   1.0000   1.0000
     1.0000   1.0000   1.0000   1.0000   1.0000   1.0000   1.0000   1.0000
     1.0000   1.0000   1.0000   1.0000   1.0000   1.0000   1.0000   1.0000
     1.0000   1.0000   1.0000   1.0000   1.0000   1.0000   1.0000   1.0000
     1.0000   1.0000   1.0000   1.0000   1.0000   1.0000   1.0000   1.0000
     1.0000   1.0000   1.0000   1.0000   1.0000   1.0000   1.0000   1.0000
     1.0000   1.0000   1.0000   1.0000   1.0000   1.0000   1.0000   1.0000
     1.0000   1.0000   1.0000   1.0000   1.0000   1.0000   1.0000   1.0000
     1.0000   1.0000   1.0000   1.0000   1.0000   1.0000   1.0000   1.0000
     1.0000   1.0000   1.0000   1.0000   1.0000   1.0000   1.0000   1.0000
     1.0000   1.0000   1.0000   1.0000   1.0000   1.0000   1.0000   1.0000
     1.0000   1.0000   1.0000   1.0000   1.0000   1.0000   1.0000   1.0000
     1.0000   1.0000   1.0000   1.0000   1.0000   1.0000   1.0000   1.0000
     1.0000   1.0000   1.0000   1.0000   1.0000   1.0000   1.0000   1.0000
     1.0000   1.0000   1.0000   1.0000   1.0000   1.0000   1.0000   1.0000
     1.0000   1.0000   1.0000   1.0000   1.0000   1.0000   1.0000   1.0000
     1.0000   1.0000   1.0000   1.0000   1.0000   1.0000   1.0000   1.0000
     1.0000   1.0000   1.0000   1.0000   1.0000   1.0000   1.0000   1.0000

     highest occupied level (ev):     2.9898

!    total energy              =   -1268.16112803 Ry
     estimated scf accuracy    <       0.00000023 Ry

     The total energy is the sum of the following terms:
     one-electron contribution =    -488.15030412 Ry
     hartree contribution      =     316.30171651 Ry
     xc contribution           =    -462.74293604 Ry
     ewald contribution        =    -633.56960439 Ry

     convergence has been achieved in  12 iterations

     Forces acting on atoms (cartesian axes, Ry/au):

     atom    1 type  1   force =    -0.00000000   -0.00089865    0.00005075
     atom    2 type  1   force =    -0.00000000    0.00089865   -0.00005075
     atom    3 type  1   force =     0.00000000   -0.00089865   -0.00005075
     atom    4 type  1   force =     0.00000000    0.00089865    0.00005075
     atom    5 type  2   force =     0.00000000   -0.00080521    0.00004740
     atom    6 type  2   force =     0.00000000    0.00080521   -0.00004740
     atom    7 type  2   force =     0.00000000   -0.00080521   -0.00004740
     atom    8 type  2   force =     0.00000000    0.00080521    0.00004740
     atom    9 type  3   force =     0.00000000    0.00101137   -0.00195368
     atom   10 type  3   force =     0.00000000   -0.00101137    0.00195368
     atom   11 type  3   force =     0.00000000    0.00101137    0.00195368
     atom   12 type  3   force =     0.00000000   -0.00101137   -0.00195368
     atom   13 type  3   force =     0.00000000   -0.00160939    0.00225187
     atom   14 type  3   force =     0.00000000    0.00160939   -0.00225187
     atom   15 type  3   force =     0.00000000   -0.00160939   -0.00225187
     atom   16 type  3   force =     0.00000000    0.00160939    0.00225187
     atom   17 type  3   force =     0.00000000   -0.00202994    0.00056409
     atom   18 type  3   force =     0.00000000    0.00202994   -0.00056409
     atom   19 type  3   force =     0.00000000   -0.00202994   -0.00056409
     atom   20 type  3   force =     0.00000000    0.00202994    0.00056409
     The non-local contrib.  to forces
     atom    1 type  1   force =     0.00000000    0.00262948   -0.00366921
     atom    2 type  1   force =     0.00000000   -0.00262948    0.00366921
     atom    3 type  1   force =     0.00000000    0.00262948    0.00366921
     atom    4 type  1   force =     0.00000000   -0.00262948   -0.00366921
     atom    5 type  2   force =     0.00000000   -0.08401741   -0.12906039
     atom    6 type  2   force =     0.00000000    0.08401741    0.12906039
     atom    7 type  2   force =     0.00000000   -0.08401741    0.12906039
     atom    8 type  2   force =     0.00000000    0.08401741   -0.12906039
     atom    9 type  3   force =     0.00000000   -0.05027137   -0.04898810
     atom   10 type  3   force =     0.00000000    0.05027137    0.04898810
     atom   11 type  3   force =    -0.00000000   -0.05027137    0.04898810
     atom   12 type  3   force =     0.00000000    0.05027137   -0.04898810
     atom   13 type  3   force =     0.00000000   -0.03230621    0.05472639
     atom   14 type  3   force =     0.00000000    0.03230621   -0.05472639
     atom   15 type  3   force =    -0.00000000   -0.03230621   -0.05472639
     atom   16 type  3   force =     0.00000000    0.03230621    0.05472639
     atom   17 type  3   force =     0.00000000    0.05655534   -0.01765329
     atom   18 type  3   force =     0.00000000   -0.05655534    0.01765329
     atom   19 type  3   force =     0.00000000    0.05655534    0.01765329
     atom   20 type  3   force =     0.00000000   -0.05655534   -0.01765329
     The ionic contribution  to forces
     atom    1 type  1   force =    -0.00000000    0.02273773    0.42856976
     atom    2 type  1   force =    -0.00000000   -0.02273773   -0.42856976
     atom    3 type  1   force =    -0.00000000    0.02273773   -0.42856976
     atom    4 type  1   force =    -0.00000000   -0.02273773    0.42856976
     atom    5 type  2   force =    -0.00000000   -2.44382135   -1.60292983
     atom    6 type  2   force =     0.00000000    2.44382135    1.60292983
     atom    7 type  2   force =    -0.00000000   -2.44382135    1.60292983
     atom    8 type  2   force =     0.00000000    2.44382135   -1.60292983
     atom    9 type  3   force =    -0.00000000    3.00608891    5.13288893
     atom   10 type  3   force =     0.00000000   -3.00608891   -5.13288893
     atom   11 type  3   force =    -0.00000000    3.00608891   -5.13288893
     atom   12 type  3   force =    -0.00000000   -3.00608891    5.13288893
     atom   13 type  3   force =     0.00000000    2.02422849   -3.75281499
     atom   14 type  3   force =    -0.00000000   -2.02422849    3.75281499
     atom   15 type  3   force =     0.00000000    2.02422849    3.75281499
     atom   16 type  3   force =    -0.00000000   -2.02422849   -3.75281499
     atom   17 type  3   force =     0.00000000   -4.20564473    2.10270404
     atom   18 type  3   force =     0.00000000    4.20564473   -2.10270404
     atom   19 type  3   force =     0.00000000   -4.20564473   -2.10270404
     atom   20 type  3   force =     0.00000000    4.20564473    2.10270404
     The local contribution  to forces
     atom    1 type  1   force =     0.00000000   -0.02622769   -0.42507677
     atom    2 type  1   force =    -0.00000000    0.02622769    0.42507677
     atom    3 type  1   force =     0.00000000   -0.02622769    0.42507677
     atom    4 type  1   force =    -0.00000000    0.02622769   -0.42507677
     atom    5 type  2   force =    -0.00000000    2.52653284    1.73166632
     atom    6 type  2   force =    -0.00000000   -2.52653284   -1.73166632
     atom    7 type  2   force =    -0.00000000    2.52653284   -1.73166632
     atom    8 type  2   force =    -0.00000000   -2.52653284    1.73166632
     atom    9 type  3   force =     0.00000000   -2.96007186   -5.09102552
     atom   10 type  3   force =    -0.00000000    2.96007186    5.09102552
     atom   11 type  3   force =     0.00000000   -2.96007186    5.09102552
     atom   12 type  3   force =     0.00000000    2.96007186   -5.09102552
     atom   13 type  3   force =    -0.00000000   -1.99661007    3.70566724
     atom   14 type  3   force =     0.00000000    1.99661007   -3.70566724
     atom   15 type  3   force =     0.00000000   -1.99661007   -3.70566724
     atom   16 type  3   force =    -0.00000000    1.99661007    3.70566724
     atom   17 type  3   force =     0.00000000    4.15318963   -2.08651992
     atom   18 type  3   force =    -0.00000000   -4.15318963    2.08651992
     atom   19 type  3   force =     0.00000000    4.15318963    2.08651992
     atom   20 type  3   force =    -0.00000000   -4.15318963   -2.08651992
     The core correction contribution to forces
     atom    1 type  1   force =    -0.00000000   -0.00007135    0.00021753
     atom    2 type  1   force =     0.00000000    0.00007135   -0.00021753
     atom    3 type  1   force =    -0.00000000   -0.00007135   -0.00021753
     atom    4 type  1   force =     0.00000000    0.00007135    0.00021753
     atom    5 type  2   force =    -0.00000000    0.00018687    0.00017269
     atom    6 type  2   force =    -0.00000000   -0.00018687   -0.00017269
     atom    7 type  2   force =     0.00000000    0.00018687   -0.00017269
     atom    8 type  2   force =    -0.00000000   -0.00018687    0.00017269
     atom    9 type  3   force =    -0.00000000    0.00539133    0.00547199
     atom   10 type  3   force =     0.00000000   -0.00539133   -0.00547199
     atom   11 type  3   force =     0.00000000    0.00539133   -0.00547199
     atom   12 type  3   force =     0.00000000   -0.00539133    0.00547199
     atom   13 type  3   force =    -0.00000000    0.00320281   -0.00548634
     atom   14 type  3   force =     0.00000000   -0.00320281    0.00548634
     atom   15 type  3   force =    -0.00000000    0.00320281    0.00548634
     atom   16 type  3   force =     0.00000000   -0.00320281   -0.00548634
     atom   17 type  3   force =     0.00000000   -0.00642238    0.00210694
     atom   18 type  3   force =    -0.00000000    0.00642238   -0.00210694
     atom   19 type  3   force =     0.00000000   -0.00642238   -0.00210694
     atom   20 type  3   force =    -0.00000000    0.00642238    0.00210694
     The Hubbard contrib.    to forces
     atom    1 type  1   force =     0.00000000    0.00000000    0.00000000
     atom    2 type  1   force =     0.00000000    0.00000000    0.00000000
     atom    3 type  1   force =     0.00000000    0.00000000    0.00000000
     atom    4 type  1   force =     0.00000000    0.00000000    0.00000000
     atom    5 type  2   force =     0.00000000    0.00000000    0.00000000
     atom    6 type  2   force =     0.00000000    0.00000000    0.00000000
     atom    7 type  2   force =     0.00000000    0.00000000    0.00000000
     atom    8 type  2   force =     0.00000000    0.00000000    0.00000000
     atom    9 type  3   force =     0.00000000    0.00000000    0.00000000
     atom   10 type  3   force =     0.00000000    0.00000000    0.00000000
     atom   11 type  3   force =     0.00000000    0.00000000    0.00000000
     atom   12 type  3   force =     0.00000000    0.00000000    0.00000000
     atom   13 type  3   force =     0.00000000    0.00000000    0.00000000
     atom   14 type  3   force =     0.00000000    0.00000000    0.00000000
     atom   15 type  3   force =     0.00000000    0.00000000    0.00000000
     atom   16 type  3   force =     0.00000000    0.00000000    0.00000000
     atom   17 type  3   force =     0.00000000    0.00000000    0.00000000
     atom   18 type  3   force =     0.00000000    0.00000000    0.00000000
     atom   19 type  3   force =     0.00000000    0.00000000    0.00000000
     atom   20 type  3   force =     0.00000000    0.00000000    0.00000000
     The SCF correction term to forces
     atom    1 type  1   force =    -0.00000000    0.00003318    0.00000944
     atom    2 type  1   force =    -0.00000000   -0.00003318   -0.00000944
     atom    3 type  1   force =     0.00000000    0.00003318   -0.00000944
     atom    4 type  1   force =    -0.00000000   -0.00003318    0.00000944
     atom    5 type  2   force =     0.00000000    0.00031384    0.00019862
     atom    6 type  2   force =    -0.00000000   -0.00031384   -0.00019862
     atom    7 type  2   force =    -0.00000000    0.00031384   -0.00019862
     atom    8 type  2   force =    -0.00000000   -0.00031384    0.00019862
     atom    9 type  3   force =    -0.00000000   -0.00012566   -0.00030099
     atom   10 type  3   force =    -0.00000000    0.00012566    0.00030099
     atom   11 type  3   force =    -0.00000000   -0.00012566    0.00030099
     atom   12 type  3   force =     0.00000000    0.00012566   -0.00030099
     atom   13 type  3   force =     0.00000000   -0.00012441    0.00015957
     atom   14 type  3   force =     0.00000000    0.00012441   -0.00015957
     atom   15 type  3   force =     0.00000000   -0.00012441   -0.00015957
     atom   16 type  3   force =    -0.00000000    0.00012441    0.00015957
     atom   17 type  3   force =     0.00000000    0.00029220   -0.00007368
     atom   18 type  3   force =     0.00000000   -0.00029220    0.00007368
     atom   19 type  3   force =     0.00000000    0.00029220    0.00007368
     atom   20 type  3   force =    -0.00000000   -0.00029220   -0.00007368

     Total force =     0.008579     Total SCF correction =     0.001228
     SCF correction compared to forces is large: reduce conv_thr to get better values


     Computing stress (Cartesian axis) and pressure

          total   stress  (Ry/bohr**3)                   (kbar)     P=      -13.08
  -0.00011769   0.00000000   0.00000000          -17.31        0.00        0.00
   0.00000000  -0.00006742   0.00000000            0.00       -9.92        0.00
   0.00000000   0.00000000  -0.00008167            0.00        0.00      -12.01

     kinetic stress (kbar)   5514.45      0.00      0.00
                                0.00   5535.19      0.00
                                0.00      0.00   5527.16

     local   stress (kbar)  -4553.34      0.00      0.00
                                0.00  -1927.11      0.00
                                0.00      0.00  -1031.61

     nonloc. stress (kbar)   1158.38      0.00      0.00
                                0.00   1159.00      0.00
                                0.00      0.00   1161.25

     hartree stress (kbar)   3399.79      0.00     -0.00
                                0.00   2187.57     -0.00
                               -0.00     -0.00   1716.50

     exc-cor stress (kbar)   5452.08     -0.00     -0.00
                               -0.00   5452.00      0.00
                               -0.00      0.00   5452.20

     corecor stress (kbar)  -7203.87      0.00     -0.00
                                0.00  -7204.42     -0.00
                               -0.00     -0.00  -7204.43

     ewald   stress (kbar)  -3784.80      0.00     -0.00
                                0.00  -5212.16      0.00
                               -0.00      0.00  -5633.09

     hubbard stress (kbar)      0.00      0.00      0.00
                                0.00      0.00      0.00
                                0.00      0.00      0.00

     DFT-D   stress (kbar)      0.00      0.00      0.00
                                0.00      0.00      0.00
                                0.00      0.00      0.00

     XDM     stress (kbar)      0.00      0.00      0.00
                                0.00      0.00      0.00
                                0.00      0.00      0.00

     dft-nl  stress (kbar)      0.00      0.00      0.00
                                0.00      0.00      0.00
                                0.00      0.00      0.00

     TS-vdW  stress (kbar)      0.00      0.00      0.00
                                0.00      0.00      0.00
                                0.00      0.00      0.00



     Writing output data file ./CsSnI3.save/

     init_run     :     12.52s CPU      8.89s WALL (       1 calls)
     electrons    :    231.75s CPU    151.91s WALL (       1 calls)
     forces       :     12.99s CPU      9.72s WALL (       1 calls)
     stress       :     52.77s CPU     29.08s WALL (       1 calls)

     Called by init_run:
     wfcinit      :      3.13s CPU      2.16s WALL (       1 calls)
     wfcinit:atom :      0.01s CPU      0.01s WALL (       1 calls)
     wfcinit:wfcr :      3.05s CPU      2.07s WALL (       1 calls)
     potinit      :      1.11s CPU      0.65s WALL (       1 calls)
     hinit0       :      3.20s CPU      2.24s WALL (       1 calls)

     Called by electrons:
     c_bands      :    101.75s CPU     58.32s WALL (      13 calls)
     sum_band     :     61.15s CPU     42.10s WALL (      13 calls)
     v_of_rho     :      1.88s CPU      1.27s WALL (      13 calls)
     v_h          :      0.19s CPU      0.12s WALL (      13 calls)
     v_xc         :      1.94s CPU      1.30s WALL (      15 calls)
     newd         :     60.42s CPU     42.82s WALL (      13 calls)
     mix_rho      :      1.36s CPU      1.01s WALL (      13 calls)

     Called by c_bands:
     init_us_2    :      0.72s CPU      0.40s WALL (      27 calls)
     cegterg      :     96.42s CPU     55.24s WALL (      13 calls)

     Called by sum_band:
     sum_band:wei :      0.00s CPU      0.00s WALL (      13 calls)
     sum_band:loo :     15.99s CPU      8.61s WALL (      13 calls)
     sum_band:buf :      0.00s CPU      0.00s WALL (      13 calls)
     sum_band:ini :      0.37s CPU      0.19s WALL (      13 calls)
     sum_band:cal :      3.12s CPU      1.73s WALL (      13 calls)
     sum_band:bec :      1.76s CPU      1.13s WALL (      13 calls)
     addusdens    :     42.96s CPU     31.51s WALL (      13 calls)
     addusd:skk   :      0.06s CPU      0.04s WALL (      39 calls)
     addusd:dgemm :     12.49s CPU     16.05s WALL (      39 calls)
     addusd:qvan2 :     29.81s CPU     15.03s WALL (      39 calls)

     Called by *egterg:
     cdiaghg      :      4.03s CPU      2.63s WALL (      65 calls)
     cegterg:over :      7.21s CPU      4.99s WALL (      53 calls)
     cegterg:upda :      3.05s CPU      1.61s WALL (      53 calls)
     cegterg:last :      6.97s CPU      3.63s WALL (      33 calls)
     h_psi        :     63.99s CPU     34.61s WALL (      67 calls)
     s_psi        :     10.24s CPU      6.90s WALL (      67 calls)
     g_psi        :      0.19s CPU      0.10s WALL (      53 calls)

     Called by h_psi:
     h_psi:calbec :     10.00s CPU      5.55s WALL (      67 calls)
     vloc_psi     :     44.10s CPU     23.05s WALL (      67 calls)
     add_vuspsi   :      9.42s CPU      5.75s WALL (      67 calls)

     General routines
     calbec       :     14.56s CPU      8.29s WALL (      85 calls)
     fft          :      3.19s CPU      2.31s WALL (     304 calls)
     ffts         :      1.00s CPU      0.72s WALL (     104 calls)
     fftw         :     45.34s CPU     23.71s WALL (   32336 calls)
     interpolate  :      0.83s CPU      0.52s WALL (      52 calls)

     Parallel routines
     fft_scatt_xy :      3.53s CPU      1.79s WALL (   32744 calls)
     fft_scatt_yz :     32.07s CPU     17.82s WALL (   32744 calls)

     PWSCF        :   5m12.14s CPU   3m23.41s WALL


   This run was terminated on:   8:52:13  27Jan2021            

=------------------------------------------------------------------------------=
   JOB DONE.
=------------------------------------------------------------------------------=
