
     Program PWSCF v.6.4.1 starts on 23Jan2021 at 16:51:59 

     This program is part of the open-source Quantum ESPRESSO suite
     for quantum simulation of materials; please cite
         "P. Giannozzi et al., J. Phys.:Condens. Matter 21 395502 (2009);
         "P. Giannozzi et al., J. Phys.:Condens. Matter 29 465901 (2017);
          URL http://www.quantum-espresso.org", 
     in publications or presentations arising from this work. More details at
     http://www.quantum-espresso.org/quote

     Parallel version (MPI & OpenMP), running on      48 processor cores
     Number of MPI processes:                24
     Threads/MPI process:                     2

     MPI processes distributed on     1 nodes
     R & G space division:  proc/nbgrp/npool/nimage =      24
     Waiting for input...
     Reading input from standard input

     Current dimensions of program PWSCF are:
     Max number of different atomic species (ntypx) = 10
     Max number of k-points (npk) =  40000
     Max angular momentum in pseudopotentials (lmaxx) =  3
               file Cs.rel-pbesol-spn-kjpaw_psl.1.0.0.UPF: wavefunction(s)  5S 6S renormalized
               file I.rel-pbesol-n-kjpaw_psl.1.0.0.UPF: wavefunction(s)  5S renormalized

     Subspace diagonalization in iterative solution of the eigenvalue problem:
     one sub-group per band group will be used
     scalapack distributed-memory algorithm (size of sub-group:  3*  3 procs)

     Found symmetry operation: I + (  0.0000 -0.5000 -0.5000)
     This is a supercell, fractional translations are disabled
 
     Parallelization info
     --------------------
     sticks:   dense  smooth     PW     G-vecs:    dense   smooth      PW
     Min          92      61     18                 3288     1789     281
     Max          93      62     19                 3295     1794     282
     Sum        2225    1481    437                78997    43003    6763
 

     Title: 
     CsIsalt                                                                    


     bravais-lattice index     =            1
     lattice parameter (alat)  =       8.8160  a.u.
     unit-cell volume          =     685.1896 (a.u.)^3
     number of atoms/cell      =            8
     number of atomic types    =            2
     number of electrons       =        64.00
     number of Kohn-Sham states=           64
     kinetic-energy cutoff     =      60.0000  Ry
     charge density cutoff     =     360.0000  Ry
     convergence threshold     =      1.0E-06
     mixing beta               =       0.3500
     number of iterations used =            8  plain     mixing
     Exchange-correlation      = SLA PW PSX PSC ( 1  4 10  8 0 0)
     Non magnetic calculation with spin-orbit


     celldm(1)=   8.815973  celldm(2)=   0.000000  celldm(3)=   0.000000
     celldm(4)=   0.000000  celldm(5)=   0.000000  celldm(6)=   0.000000

     crystal axes: (cart. coord. in units of alat)
               a(1) = (   1.000000   0.000000   0.000000 )  
               a(2) = (   0.000000   1.000000   0.000000 )  
               a(3) = (   0.000000   0.000000   1.000000 )  

     reciprocal axes: (cart. coord. in units 2 pi/alat)
               b(1) = (  1.000000  0.000000  0.000000 )  
               b(2) = (  0.000000  1.000000  0.000000 )  
               b(3) = (  0.000000  0.000000  1.000000 )  


     PseudoPot. # 1 for Cs read from file:
     /marconi_scratch/userexternal/cmalosso/degironcoli/pseudo/Cs.rel-pbesol-spn-kjpaw_psl.1.0.0.UPF
     MD5 check sum: 2adfb289dd462649b099d7edbec69378
     Pseudo is Projector augmented-wave + core cor, Zval =  9.0
     Generated using "atomic" code by A. Dal Corso v.6.4.1
     Shape of augmentation charge: PSQ
     Using radial grid of 1251 points, 15 beta functions with: 
                l(1) =   0
                l(2) =   0
                l(3) =   0
                l(4) =   1
                l(5) =   1
                l(6) =   1
                l(7) =   1
                l(8) =   2
                l(9) =   2
               l(10) =   2
               l(11) =   2
               l(12) =   3
               l(13) =   3
               l(14) =   3
               l(15) =   3
     Q(r) pseudized with 0 coefficients 


     PseudoPot. # 2 for I  read from file:
     /marconi_scratch/userexternal/cmalosso/degironcoli/pseudo/I.rel-pbesol-n-kjpaw_psl.1.0.0.UPF
     MD5 check sum: 4478c427bd443f303eca1937a163b991
     Pseudo is Projector augmented-wave + core cor, Zval =  7.0
     Generated using "atomic" code by A. Dal Corso v.6.3
     Shape of augmentation charge: PSQ
     Using radial grid of 1247 points, 10 beta functions with: 
                l(1) =   0
                l(2) =   0
                l(3) =   1
                l(4) =   1
                l(5) =   1
                l(6) =   1
                l(7) =   2
                l(8) =   2
                l(9) =   2
               l(10) =   2
     Q(r) pseudized with 0 coefficients 


     atomic species   valence    mass     pseudopotential
        Cs             9.00   132.90000     Cs( 1.00)
        I              7.00   126.90000     I ( 1.00)

     48 Sym. Ops., with inversion, found


                                    s                        frac. trans.

      isym =  1     identity                                     

 cryst.   s( 1) = (     1          0          0      )
                  (     0          1          0      )
                  (     0          0          1      )

 cart.    s( 1) = (  1.0000000  0.0000000  0.0000000 )
                  (  0.0000000  1.0000000  0.0000000 )
                  (  0.0000000  0.0000000  1.0000000 )


      isym =  2     180 deg rotation - cart. axis [0,0,1]        

 cryst.   s( 2) = (    -1          0          0      )
                  (     0         -1          0      )
                  (     0          0          1      )

 cart.    s( 2) = ( -1.0000000  0.0000000  0.0000000 )
                  (  0.0000000 -1.0000000  0.0000000 )
                  (  0.0000000  0.0000000  1.0000000 )


      isym =  3     180 deg rotation - cart. axis [0,1,0]        

 cryst.   s( 3) = (    -1          0          0      )
                  (     0          1          0      )
                  (     0          0         -1      )

 cart.    s( 3) = ( -1.0000000  0.0000000  0.0000000 )
                  (  0.0000000  1.0000000  0.0000000 )
                  (  0.0000000  0.0000000 -1.0000000 )


      isym =  4     180 deg rotation - cart. axis [1,0,0]        

 cryst.   s( 4) = (     1          0          0      )
                  (     0         -1          0      )
                  (     0          0         -1      )

 cart.    s( 4) = (  1.0000000  0.0000000  0.0000000 )
                  (  0.0000000 -1.0000000  0.0000000 )
                  (  0.0000000  0.0000000 -1.0000000 )


      isym =  5     180 deg rotation - cart. axis [1,1,0]        

 cryst.   s( 5) = (     0          1          0      )
                  (     1          0          0      )
                  (     0          0         -1      )

 cart.    s( 5) = (  0.0000000  1.0000000  0.0000000 )
                  (  1.0000000  0.0000000  0.0000000 )
                  (  0.0000000  0.0000000 -1.0000000 )


      isym =  6     180 deg rotation - cart. axis [1,-1,0]       

 cryst.   s( 6) = (     0         -1          0      )
                  (    -1          0          0      )
                  (     0          0         -1      )

 cart.    s( 6) = (  0.0000000 -1.0000000  0.0000000 )
                  ( -1.0000000  0.0000000  0.0000000 )
                  (  0.0000000  0.0000000 -1.0000000 )


      isym =  7      90 deg rotation - cart. axis [0,0,-1]       

 cryst.   s( 7) = (     0         -1          0      )
                  (     1          0          0      )
                  (     0          0          1      )

 cart.    s( 7) = (  0.0000000  1.0000000  0.0000000 )
                  ( -1.0000000  0.0000000  0.0000000 )
                  (  0.0000000  0.0000000  1.0000000 )


      isym =  8      90 deg rotation - cart. axis [0,0,1]        

 cryst.   s( 8) = (     0          1          0      )
                  (    -1          0          0      )
                  (     0          0          1      )

 cart.    s( 8) = (  0.0000000 -1.0000000  0.0000000 )
                  (  1.0000000  0.0000000  0.0000000 )
                  (  0.0000000  0.0000000  1.0000000 )


      isym =  9     180 deg rotation - cart. axis [1,0,1]        

 cryst.   s( 9) = (     0          0          1      )
                  (     0         -1          0      )
                  (     1          0          0      )

 cart.    s( 9) = (  0.0000000  0.0000000  1.0000000 )
                  (  0.0000000 -1.0000000  0.0000000 )
                  (  1.0000000  0.0000000  0.0000000 )


      isym = 10     180 deg rotation - cart. axis [-1,0,1]       

 cryst.   s(10) = (     0          0         -1      )
                  (     0         -1          0      )
                  (    -1          0          0      )

 cart.    s(10) = (  0.0000000  0.0000000 -1.0000000 )
                  (  0.0000000 -1.0000000  0.0000000 )
                  ( -1.0000000  0.0000000  0.0000000 )


      isym = 11      90 deg rotation - cart. axis [0,1,0]        

 cryst.   s(11) = (     0          0         -1      )
                  (     0          1          0      )
                  (     1          0          0      )

 cart.    s(11) = (  0.0000000  0.0000000  1.0000000 )
                  (  0.0000000  1.0000000  0.0000000 )
                  ( -1.0000000  0.0000000  0.0000000 )


      isym = 12      90 deg rotation - cart. axis [0,-1,0]       

 cryst.   s(12) = (     0          0          1      )
                  (     0          1          0      )
                  (    -1          0          0      )

 cart.    s(12) = (  0.0000000  0.0000000 -1.0000000 )
                  (  0.0000000  1.0000000  0.0000000 )
                  (  1.0000000  0.0000000  0.0000000 )


      isym = 13     180 deg rotation - cart. axis [0,1,1]        

 cryst.   s(13) = (    -1          0          0      )
                  (     0          0          1      )
                  (     0          1          0      )

 cart.    s(13) = ( -1.0000000  0.0000000  0.0000000 )
                  (  0.0000000  0.0000000  1.0000000 )
                  (  0.0000000  1.0000000  0.0000000 )


      isym = 14     180 deg rotation - cart. axis [0,1,-1]       

 cryst.   s(14) = (    -1          0          0      )
                  (     0          0         -1      )
                  (     0         -1          0      )

 cart.    s(14) = ( -1.0000000  0.0000000  0.0000000 )
                  (  0.0000000  0.0000000 -1.0000000 )
                  (  0.0000000 -1.0000000  0.0000000 )


      isym = 15      90 deg rotation - cart. axis [-1,0,0]       

 cryst.   s(15) = (     1          0          0      )
                  (     0          0         -1      )
                  (     0          1          0      )

 cart.    s(15) = (  1.0000000  0.0000000  0.0000000 )
                  (  0.0000000  0.0000000  1.0000000 )
                  (  0.0000000 -1.0000000  0.0000000 )


      isym = 16      90 deg rotation - cart. axis [1,0,0]        

 cryst.   s(16) = (     1          0          0      )
                  (     0          0          1      )
                  (     0         -1          0      )

 cart.    s(16) = (  1.0000000  0.0000000  0.0000000 )
                  (  0.0000000  0.0000000 -1.0000000 )
                  (  0.0000000  1.0000000  0.0000000 )


      isym = 17     120 deg rotation - cart. axis [-1,-1,-1]     

 cryst.   s(17) = (     0          0          1      )
                  (     1          0          0      )
                  (     0          1          0      )

 cart.    s(17) = (  0.0000000  1.0000000  0.0000000 )
                  (  0.0000000  0.0000000  1.0000000 )
                  (  1.0000000  0.0000000  0.0000000 )


      isym = 18     120 deg rotation - cart. axis [-1,1,1]       

 cryst.   s(18) = (     0          0         -1      )
                  (    -1          0          0      )
                  (     0          1          0      )

 cart.    s(18) = (  0.0000000 -1.0000000  0.0000000 )
                  (  0.0000000  0.0000000  1.0000000 )
                  ( -1.0000000  0.0000000  0.0000000 )


      isym = 19     120 deg rotation - cart. axis [1,1,-1]       

 cryst.   s(19) = (     0          0         -1      )
                  (     1          0          0      )
                  (     0         -1          0      )

 cart.    s(19) = (  0.0000000  1.0000000  0.0000000 )
                  (  0.0000000  0.0000000 -1.0000000 )
                  ( -1.0000000  0.0000000  0.0000000 )


      isym = 20     120 deg rotation - cart. axis [1,-1,1]       

 cryst.   s(20) = (     0          0          1      )
                  (    -1          0          0      )
                  (     0         -1          0      )

 cart.    s(20) = (  0.0000000 -1.0000000  0.0000000 )
                  (  0.0000000  0.0000000 -1.0000000 )
                  (  1.0000000  0.0000000  0.0000000 )


      isym = 21     120 deg rotation - cart. axis [1,1,1]        

 cryst.   s(21) = (     0          1          0      )
                  (     0          0          1      )
                  (     1          0          0      )

 cart.    s(21) = (  0.0000000  0.0000000  1.0000000 )
                  (  1.0000000  0.0000000  0.0000000 )
                  (  0.0000000  1.0000000  0.0000000 )


      isym = 22     120 deg rotation - cart. axis [-1,1,-1]      

 cryst.   s(22) = (     0         -1          0      )
                  (     0          0         -1      )
                  (     1          0          0      )

 cart.    s(22) = (  0.0000000  0.0000000  1.0000000 )
                  ( -1.0000000  0.0000000  0.0000000 )
                  (  0.0000000 -1.0000000  0.0000000 )


      isym = 23     120 deg rotation - cart. axis [1,-1,-1]      

 cryst.   s(23) = (     0         -1          0      )
                  (     0          0          1      )
                  (    -1          0          0      )

 cart.    s(23) = (  0.0000000  0.0000000 -1.0000000 )
                  ( -1.0000000  0.0000000  0.0000000 )
                  (  0.0000000  1.0000000  0.0000000 )


      isym = 24     120 deg rotation - cart. axis [-1,-1,1]      

 cryst.   s(24) = (     0          1          0      )
                  (     0          0         -1      )
                  (    -1          0          0      )

 cart.    s(24) = (  0.0000000  0.0000000 -1.0000000 )
                  (  1.0000000  0.0000000  0.0000000 )
                  (  0.0000000 -1.0000000  0.0000000 )


      isym = 25     inversion                                    

 cryst.   s(25) = (    -1          0          0      )
                  (     0         -1          0      )
                  (     0          0         -1      )

 cart.    s(25) = ( -1.0000000  0.0000000  0.0000000 )
                  (  0.0000000 -1.0000000  0.0000000 )
                  (  0.0000000  0.0000000 -1.0000000 )


      isym = 26     inv. 180 deg rotation - cart. axis [0,0,1]   

 cryst.   s(26) = (     1          0          0      )
                  (     0          1          0      )
                  (     0          0         -1      )

 cart.    s(26) = (  1.0000000  0.0000000  0.0000000 )
                  (  0.0000000  1.0000000  0.0000000 )
                  (  0.0000000  0.0000000 -1.0000000 )


      isym = 27     inv. 180 deg rotation - cart. axis [0,1,0]   

 cryst.   s(27) = (     1          0          0      )
                  (     0         -1          0      )
                  (     0          0          1      )

 cart.    s(27) = (  1.0000000  0.0000000  0.0000000 )
                  (  0.0000000 -1.0000000  0.0000000 )
                  (  0.0000000  0.0000000  1.0000000 )


      isym = 28     inv. 180 deg rotation - cart. axis [1,0,0]   

 cryst.   s(28) = (    -1          0          0      )
                  (     0          1          0      )
                  (     0          0          1      )

 cart.    s(28) = ( -1.0000000  0.0000000  0.0000000 )
                  (  0.0000000  1.0000000  0.0000000 )
                  (  0.0000000  0.0000000  1.0000000 )


      isym = 29     inv. 180 deg rotation - cart. axis [1,1,0]   

 cryst.   s(29) = (     0         -1          0      )
                  (    -1          0          0      )
                  (     0          0          1      )

 cart.    s(29) = (  0.0000000 -1.0000000  0.0000000 )
                  ( -1.0000000  0.0000000  0.0000000 )
                  (  0.0000000  0.0000000  1.0000000 )


      isym = 30     inv. 180 deg rotation - cart. axis [1,-1,0]  

 cryst.   s(30) = (     0          1          0      )
                  (     1          0          0      )
                  (     0          0          1      )

 cart.    s(30) = (  0.0000000  1.0000000  0.0000000 )
                  (  1.0000000  0.0000000  0.0000000 )
                  (  0.0000000  0.0000000  1.0000000 )


      isym = 31     inv.  90 deg rotation - cart. axis [0,0,-1]  

 cryst.   s(31) = (     0          1          0      )
                  (    -1          0          0      )
                  (     0          0         -1      )

 cart.    s(31) = (  0.0000000 -1.0000000  0.0000000 )
                  (  1.0000000  0.0000000  0.0000000 )
                  (  0.0000000  0.0000000 -1.0000000 )


      isym = 32     inv.  90 deg rotation - cart. axis [0,0,1]   

 cryst.   s(32) = (     0         -1          0      )
                  (     1          0          0      )
                  (     0          0         -1      )

 cart.    s(32) = (  0.0000000  1.0000000  0.0000000 )
                  ( -1.0000000  0.0000000  0.0000000 )
                  (  0.0000000  0.0000000 -1.0000000 )


      isym = 33     inv. 180 deg rotation - cart. axis [1,0,1]   

 cryst.   s(33) = (     0          0         -1      )
                  (     0          1          0      )
                  (    -1          0          0      )

 cart.    s(33) = (  0.0000000  0.0000000 -1.0000000 )
                  (  0.0000000  1.0000000  0.0000000 )
                  ( -1.0000000  0.0000000  0.0000000 )


      isym = 34     inv. 180 deg rotation - cart. axis [-1,0,1]  

 cryst.   s(34) = (     0          0          1      )
                  (     0          1          0      )
                  (     1          0          0      )

 cart.    s(34) = (  0.0000000  0.0000000  1.0000000 )
                  (  0.0000000  1.0000000  0.0000000 )
                  (  1.0000000  0.0000000  0.0000000 )


      isym = 35     inv.  90 deg rotation - cart. axis [0,1,0]   

 cryst.   s(35) = (     0          0          1      )
                  (     0         -1          0      )
                  (    -1          0          0      )

 cart.    s(35) = (  0.0000000  0.0000000 -1.0000000 )
                  (  0.0000000 -1.0000000  0.0000000 )
                  (  1.0000000  0.0000000  0.0000000 )


      isym = 36     inv.  90 deg rotation - cart. axis [0,-1,0]  

 cryst.   s(36) = (     0          0         -1      )
                  (     0         -1          0      )
                  (     1          0          0      )

 cart.    s(36) = (  0.0000000  0.0000000  1.0000000 )
                  (  0.0000000 -1.0000000  0.0000000 )
                  ( -1.0000000  0.0000000  0.0000000 )


      isym = 37     inv. 180 deg rotation - cart. axis [0,1,1]   

 cryst.   s(37) = (     1          0          0      )
                  (     0          0         -1      )
                  (     0         -1          0      )

 cart.    s(37) = (  1.0000000  0.0000000  0.0000000 )
                  (  0.0000000  0.0000000 -1.0000000 )
                  (  0.0000000 -1.0000000  0.0000000 )


      isym = 38     inv. 180 deg rotation - cart. axis [0,1,-1]  

 cryst.   s(38) = (     1          0          0      )
                  (     0          0          1      )
                  (     0          1          0      )

 cart.    s(38) = (  1.0000000  0.0000000  0.0000000 )
                  (  0.0000000  0.0000000  1.0000000 )
                  (  0.0000000  1.0000000  0.0000000 )


      isym = 39     inv.  90 deg rotation - cart. axis [-1,0,0]  

 cryst.   s(39) = (    -1          0          0      )
                  (     0          0          1      )
                  (     0         -1          0      )

 cart.    s(39) = ( -1.0000000  0.0000000  0.0000000 )
                  (  0.0000000  0.0000000 -1.0000000 )
                  (  0.0000000  1.0000000  0.0000000 )


      isym = 40     inv.  90 deg rotation - cart. axis [1,0,0]   

 cryst.   s(40) = (    -1          0          0      )
                  (     0          0         -1      )
                  (     0          1          0      )

 cart.    s(40) = ( -1.0000000  0.0000000  0.0000000 )
                  (  0.0000000  0.0000000  1.0000000 )
                  (  0.0000000 -1.0000000  0.0000000 )


      isym = 41     inv. 120 deg rotation - cart. axis [-1,-1,-1]

 cryst.   s(41) = (     0          0         -1      )
                  (    -1          0          0      )
                  (     0         -1          0      )

 cart.    s(41) = (  0.0000000 -1.0000000  0.0000000 )
                  (  0.0000000  0.0000000 -1.0000000 )
                  ( -1.0000000  0.0000000  0.0000000 )


      isym = 42     inv. 120 deg rotation - cart. axis [-1,1,1]  

 cryst.   s(42) = (     0          0          1      )
                  (     1          0          0      )
                  (     0         -1          0      )

 cart.    s(42) = (  0.0000000  1.0000000  0.0000000 )
                  (  0.0000000  0.0000000 -1.0000000 )
                  (  1.0000000  0.0000000  0.0000000 )


      isym = 43     inv. 120 deg rotation - cart. axis [1,1,-1]  

 cryst.   s(43) = (     0          0          1      )
                  (    -1          0          0      )
                  (     0          1          0      )

 cart.    s(43) = (  0.0000000 -1.0000000  0.0000000 )
                  (  0.0000000  0.0000000  1.0000000 )
                  (  1.0000000  0.0000000  0.0000000 )


      isym = 44     inv. 120 deg rotation - cart. axis [1,-1,1]  

 cryst.   s(44) = (     0          0         -1      )
                  (     1          0          0      )
                  (     0          1          0      )

 cart.    s(44) = (  0.0000000  1.0000000  0.0000000 )
                  (  0.0000000  0.0000000  1.0000000 )
                  ( -1.0000000  0.0000000  0.0000000 )


      isym = 45     inv. 120 deg rotation - cart. axis [1,1,1]   

 cryst.   s(45) = (     0         -1          0      )
                  (     0          0         -1      )
                  (    -1          0          0      )

 cart.    s(45) = (  0.0000000  0.0000000 -1.0000000 )
                  ( -1.0000000  0.0000000  0.0000000 )
                  (  0.0000000 -1.0000000  0.0000000 )


      isym = 46     inv. 120 deg rotation - cart. axis [-1,1,-1] 

 cryst.   s(46) = (     0          1          0      )
                  (     0          0          1      )
                  (    -1          0          0      )

 cart.    s(46) = (  0.0000000  0.0000000 -1.0000000 )
                  (  1.0000000  0.0000000  0.0000000 )
                  (  0.0000000  1.0000000  0.0000000 )


      isym = 47     inv. 120 deg rotation - cart. axis [1,-1,-1] 

 cryst.   s(47) = (     0          1          0      )
                  (     0          0         -1      )
                  (     1          0          0      )

 cart.    s(47) = (  0.0000000  0.0000000  1.0000000 )
                  (  1.0000000  0.0000000  0.0000000 )
                  (  0.0000000 -1.0000000  0.0000000 )


      isym = 48     inv. 120 deg rotation - cart. axis [-1,-1,1] 

 cryst.   s(48) = (     0         -1          0      )
                  (     0          0          1      )
                  (     1          0          0      )

 cart.    s(48) = (  0.0000000  0.0000000  1.0000000 )
                  ( -1.0000000  0.0000000  0.0000000 )
                  (  0.0000000  1.0000000  0.0000000 )


     double point group O_h (m-3m) 
     there are 16 classes and  6 irreducible representations
     the character table:

       E     -E    8C3   -8C3   3C2  6C4   -6C4   6C2' i     -i    8S6   -8S6 
                               -3C2              -6C2'                        
G_6+   2.00 -2.00  1.00 -1.00  0.00  1.41 -1.41  0.00  2.00 -2.00  1.00 -1.00
G_7+   2.00 -2.00  1.00 -1.00  0.00 -1.41  1.41  0.00  2.00 -2.00  1.00 -1.00
G_8+   4.00 -4.00 -1.00  1.00  0.00  0.00  0.00  0.00  4.00 -4.00 -1.00  1.00
G_6-   2.00 -2.00  1.00 -1.00  0.00  1.41 -1.41  0.00 -2.00  2.00 -1.00  1.00
G_7-   2.00 -2.00  1.00 -1.00  0.00 -1.41  1.41  0.00 -2.00  2.00 -1.00  1.00
G_8-   4.00 -4.00 -1.00  1.00  0.00  0.00  0.00  0.00 -4.00  4.00  1.00 -1.00

        3s_h 6S4   -6S4   6s_d
       -3s_h             -6s_d
G_6+   0.00  1.41 -1.41  0.00
G_7+   0.00 -1.41  1.41  0.00
G_8+   0.00  0.00  0.00  0.00
G_6-   0.00 -1.41  1.41  0.00
G_7-   0.00  1.41 -1.41  0.00
G_8-   0.00  0.00  0.00  0.00

     the symmetry operations in each class and the name of the first element:

     E             1
          identity                                               
     -E           -1
          identity E                                             
     8C3          17   19   20   18   24   21   22   23
          120 deg rotation - cart. axis [-1,-1,-1]               
     -8C3        -17  -19  -20  -18  -24  -21  -22  -23
          120 deg rotation - cart. axis [-1,-1,-1] E             
      3C2 -3C2     2   -2    4   -4    3   -3
          180 deg rotation - cart. axis [0,0,1]                  
     6C4           7    8   15   16   12   11
           90 deg rotation - cart. axis [0,0,-1]                 
     -6C4         -7   -8  -15  -16  -12  -11
           90 deg rotation - cart. axis [0,0,-1] E               
      6C2'-6C2'    5   -5   -6    6   14  -13  -14   13   10   -9  -10    9
          180 deg rotation - cart. axis [1,1,0]                  
     i            25
          inversion                                              
     -i          -25
          inversion E                                            
     8S6          41   43   44   42   48   45   46   47
          inv. 120 deg rotation - cart. axis [-1,-1,-1]          
     -8S6        -41  -43  -44  -42  -48  -45  -46  -47
          inv. 120 deg rotation - cart. axis [-1,-1,-1] E        
      3s_h-3s_h   26  -26   28  -28   27  -27
          inv. 180 deg rotation - cart. axis [0,0,1]             
     6S4          31   32   39   40   36   35
          inv.  90 deg rotation - cart. axis [0,0,-1]            
     -6S4        -31  -32  -39  -40  -36  -35
          inv.  90 deg rotation - cart. axis [0,0,-1] E          
      6s_d-6s_d   29  -29  -30   30   38  -37  -38   37   34  -33  -34   33
          inv. 180 deg rotation - cart. axis [1,1,0]             

   Cartesian axes

     site n.     atom                  positions (alat units)
         1           Cs  tau(   1) = (   0.0000000   0.0000000   0.0000000  )
         2           Cs  tau(   2) = (   0.0000000   0.5000000   0.5000000  )
         3           Cs  tau(   3) = (   0.5000000   0.0000000   0.5000000  )
         4           Cs  tau(   4) = (   0.5000000   0.5000000   0.0000000  )
         5           I   tau(   5) = (   0.5000000   0.0000000   0.0000000  )
         6           I   tau(   6) = (   0.5000000   0.5000000   0.5000000  )
         7           I   tau(   7) = (   0.0000000   0.0000000   0.5000000  )
         8           I   tau(   8) = (   0.0000000   0.5000000   0.0000000  )

   Crystallographic axes

     site n.     atom                  positions (cryst. coord.)
         1           Cs  tau(   1) = (  0.0000000  0.0000000  0.0000000  )
         2           Cs  tau(   2) = (  0.0000000  0.5000000  0.5000000  )
         3           Cs  tau(   3) = (  0.5000000  0.0000000  0.5000000  )
         4           Cs  tau(   4) = (  0.5000000  0.5000000  0.0000000  )
         5           I   tau(   5) = (  0.5000000  0.0000000  0.0000000  )
         6           I   tau(   6) = (  0.5000000  0.5000000  0.5000000  )
         7           I   tau(   7) = (  0.0000000  0.0000000  0.5000000  )
         8           I   tau(   8) = (  0.0000000  0.5000000  0.0000000  )

     number of k points=    20
                       cart. coord. in units 2pi/alat
        k(    1) = (   0.0714286   0.0714286   0.0714286), wk =   0.0233236
        k(    2) = (   0.0714286   0.0714286   0.2142857), wk =   0.0699708
        k(    3) = (   0.0714286   0.0714286   0.3571429), wk =   0.0699708
        k(    4) = (   0.0714286   0.0714286  -0.5000000), wk =   0.0349854
        k(    5) = (   0.0714286   0.2142857   0.2142857), wk =   0.0699708
        k(    6) = (   0.0714286   0.2142857   0.3571429), wk =   0.1399417
        k(    7) = (   0.0714286   0.2142857  -0.5000000), wk =   0.0699708
        k(    8) = (   0.0714286   0.3571429   0.3571429), wk =   0.0699708
        k(    9) = (   0.0714286   0.3571429  -0.5000000), wk =   0.0699708
        k(   10) = (   0.0714286  -0.5000000  -0.5000000), wk =   0.0174927
        k(   11) = (   0.2142857   0.2142857   0.2142857), wk =   0.0233236
        k(   12) = (   0.2142857   0.2142857   0.3571429), wk =   0.0699708
        k(   13) = (   0.2142857   0.2142857  -0.5000000), wk =   0.0349854
        k(   14) = (   0.2142857   0.3571429   0.3571429), wk =   0.0699708
        k(   15) = (   0.2142857   0.3571429  -0.5000000), wk =   0.0699708
        k(   16) = (   0.2142857  -0.5000000  -0.5000000), wk =   0.0174927
        k(   17) = (   0.3571429   0.3571429   0.3571429), wk =   0.0233236
        k(   18) = (   0.3571429   0.3571429  -0.5000000), wk =   0.0349854
        k(   19) = (   0.3571429  -0.5000000  -0.5000000), wk =   0.0174927
        k(   20) = (  -0.5000000  -0.5000000  -0.5000000), wk =   0.0029155

                       cryst. coord.
        k(    1) = (   0.0714286   0.0714286   0.0714286), wk =   0.0233236
        k(    2) = (   0.0714286   0.0714286   0.2142857), wk =   0.0699708
        k(    3) = (   0.0714286   0.0714286   0.3571429), wk =   0.0699708
        k(    4) = (   0.0714286   0.0714286  -0.5000000), wk =   0.0349854
        k(    5) = (   0.0714286   0.2142857   0.2142857), wk =   0.0699708
        k(    6) = (   0.0714286   0.2142857   0.3571429), wk =   0.1399417
        k(    7) = (   0.0714286   0.2142857  -0.5000000), wk =   0.0699708
        k(    8) = (   0.0714286   0.3571429   0.3571429), wk =   0.0699708
        k(    9) = (   0.0714286   0.3571429  -0.5000000), wk =   0.0699708
        k(   10) = (   0.0714286  -0.5000000  -0.5000000), wk =   0.0174927
        k(   11) = (   0.2142857   0.2142857   0.2142857), wk =   0.0233236
        k(   12) = (   0.2142857   0.2142857   0.3571429), wk =   0.0699708
        k(   13) = (   0.2142857   0.2142857  -0.5000000), wk =   0.0349854
        k(   14) = (   0.2142857   0.3571429   0.3571429), wk =   0.0699708
        k(   15) = (   0.2142857   0.3571429  -0.5000000), wk =   0.0699708
        k(   16) = (   0.2142857  -0.5000000  -0.5000000), wk =   0.0174927
        k(   17) = (   0.3571429   0.3571429   0.3571429), wk =   0.0233236
        k(   18) = (   0.3571429   0.3571429  -0.5000000), wk =   0.0349854
        k(   19) = (   0.3571429  -0.5000000  -0.5000000), wk =   0.0174927
        k(   20) = (  -0.5000000  -0.5000000  -0.5000000), wk =   0.0029155

     Dense  grid:    78997 G-vectors     FFT dimensions: (  54,  54,  54)

     Smooth grid:    43003 G-vectors     FFT dimensions: (  45,  45,  45)

     Dynamical RAM for                 wfc:       0.44 MB

     Dynamical RAM for     wfc (w. buffer):       9.19 MB

     Dynamical RAM for           str. fact:       0.10 MB

     Dynamical RAM for           local pot:       0.00 MB

     Dynamical RAM for          nlocal pot:       1.33 MB

     Dynamical RAM for                qrad:      34.17 MB

     Dynamical RAM for          rho,v,vnew:       1.40 MB

     Dynamical RAM for               rhoin:       0.47 MB

     Dynamical RAM for            rho*nmix:       3.21 MB

     Dynamical RAM for           G-vectors:       0.20 MB

     Dynamical RAM for          h,s,v(r/c):       0.33 MB

     Dynamical RAM for          <psi|beta>:       0.76 MB

     Dynamical RAM for                 psi:       1.75 MB

     Dynamical RAM for                hpsi:       1.75 MB

     Dynamical RAM for                spsi:       1.75 MB

     Dynamical RAM for      wfcinit/wfcrot:       0.86 MB

     Dynamical RAM for           addusdens:     102.76 MB

     Dynamical RAM for          addusforce:     104.06 MB

     Dynamical RAM for         addusstress:     104.07 MB

     Estimated static dynamical RAM per process >      50.76 MB

     Estimated max dynamical RAM per process >     154.82 MB

     Estimated total dynamical RAM >       3.63 GB

     Initial potential from superposition of free atoms

     starting charge   63.84620, renormalised to   64.00000
     Starting wfcs are   72 randomized atomic wfcs
     Checking if some PAW data can be deallocated... 
       PAW data deallocated on   12 nodes for type:  1
       PAW data deallocated on   12 nodes for type:  2

     total cpu time spent up to now is       30.5 secs

     Self-consistent Calculation

     iteration #  1     ecut=    60.00 Ry     beta= 0.35
     Davidson diagonalization with overlap
     ethr =  1.00E-02,  avg # of iterations =  5.9

     Threshold (ethr) on eigenvalues was too large:
     Diagonalizing with lowered threshold

     Davidson diagonalization with overlap
     ethr =  1.52E-04,  avg # of iterations =  7.8

     total cpu time spent up to now is      213.9 secs

     total energy              =   -3131.13902034 Ry
     Harris-Foulkes estimate   =   -3131.16882819 Ry
     estimated scf accuracy    <       0.11553442 Ry

     iteration #  2     ecut=    60.00 Ry     beta= 0.35
     Davidson diagonalization with overlap
     ethr =  1.81E-04,  avg # of iterations =  1.0

     total cpu time spent up to now is      257.9 secs

     total energy              =   -3131.12949247 Ry
     Harris-Foulkes estimate   =   -3131.14234128 Ry
     estimated scf accuracy    <       0.04003922 Ry

     iteration #  3     ecut=    60.00 Ry     beta= 0.35
     Davidson diagonalization with overlap
     ethr =  6.26E-05,  avg # of iterations =  4.5

     total cpu time spent up to now is      327.2 secs

     total energy              =   -3131.14623014 Ry
     Harris-Foulkes estimate   =   -3131.14320100 Ry
     estimated scf accuracy    <       0.00648359 Ry

     iteration #  4     ecut=    60.00 Ry     beta= 0.35
     Davidson diagonalization with overlap
     c_bands:  1 eigenvalues not converged
     ethr =  1.01E-05,  avg # of iterations =  6.2

     total cpu time spent up to now is      399.2 secs

     total energy              =   -3131.14124047 Ry
     Harris-Foulkes estimate   =   -3131.14873843 Ry
     estimated scf accuracy    <       0.01621854 Ry

     iteration #  5     ecut=    60.00 Ry     beta= 0.35
     Davidson diagonalization with overlap
     c_bands:  1 eigenvalues not converged
     ethr =  1.01E-05,  avg # of iterations =  3.9

     total cpu time spent up to now is      458.4 secs

     total energy              =   -3131.14134525 Ry
     Harris-Foulkes estimate   =   -3131.14307176 Ry
     estimated scf accuracy    <       0.00356808 Ry

     iteration #  6     ecut=    60.00 Ry     beta= 0.35
     Davidson diagonalization with overlap
     ethr =  5.58E-06,  avg # of iterations =  6.5

     total cpu time spent up to now is      533.4 secs

     total energy              =   -3131.14352243 Ry
     Harris-Foulkes estimate   =   -3131.14352403 Ry
     estimated scf accuracy    <       0.00012742 Ry

     iteration #  7     ecut=    60.00 Ry     beta= 0.35
     Davidson diagonalization with overlap
     c_bands:  1 eigenvalues not converged
     c_bands:  2 eigenvalues not converged
     c_bands:  1 eigenvalues not converged
     ethr =  1.99E-07,  avg # of iterations =  8.8

     total cpu time spent up to now is      627.3 secs

     total energy              =   -3131.14459203 Ry
     Harris-Foulkes estimate   =   -3131.14457216 Ry
     estimated scf accuracy    <       0.00017511 Ry

     iteration #  8     ecut=    60.00 Ry     beta= 0.35
     Davidson diagonalization with overlap
     c_bands:  1 eigenvalues not converged
     ethr =  1.99E-07,  avg # of iterations =  4.0

     total cpu time spent up to now is      679.0 secs

     total energy              =   -3131.14501969 Ry
     Harris-Foulkes estimate   =   -3131.14470202 Ry
     estimated scf accuracy    <       0.00021720 Ry

     iteration #  9     ecut=    60.00 Ry     beta= 0.35
     Davidson diagonalization with overlap
     c_bands:  1 eigenvalues not converged
     c_bands:  2 eigenvalues not converged
     c_bands:  2 eigenvalues not converged
     c_bands:  1 eigenvalues not converged
     c_bands:  2 eigenvalues not converged
     ethr =  1.99E-07,  avg # of iterations = 10.3

     total cpu time spent up to now is      782.8 secs

     total energy              =   -3131.14481550 Ry
     Harris-Foulkes estimate   =   -3131.14530820 Ry
     estimated scf accuracy    <       0.00189339 Ry

     iteration # 10     ecut=    60.00 Ry     beta= 0.35
     Davidson diagonalization with overlap
     ethr =  1.99E-07,  avg # of iterations =  6.3

     total cpu time spent up to now is      869.9 secs

     total energy              =   -3131.14444869 Ry
     Harris-Foulkes estimate   =   -3131.14488714 Ry
     estimated scf accuracy    <       0.00080624 Ry

     iteration # 11     ecut=    60.00 Ry     beta= 0.35
     Davidson diagonalization with overlap
     c_bands:  2 eigenvalues not converged
     c_bands:  2 eigenvalues not converged
     c_bands:  1 eigenvalues not converged
     c_bands:  2 eigenvalues not converged
     ethr =  1.99E-07,  avg # of iterations = 10.0

     total cpu time spent up to now is      980.3 secs

     total energy              =   -3131.14459308 Ry
     Harris-Foulkes estimate   =   -3131.14490139 Ry
     estimated scf accuracy    <       0.00079446 Ry

     iteration # 12     ecut=    60.00 Ry     beta= 0.35
     Davidson diagonalization with overlap
     ethr =  1.99E-07,  avg # of iterations =  6.0

     total cpu time spent up to now is     1063.6 secs

     total energy              =   -3131.14461074 Ry
     Harris-Foulkes estimate   =   -3131.14465631 Ry
     estimated scf accuracy    <       0.00008639 Ry

     iteration # 13     ecut=    60.00 Ry     beta= 0.35
     Davidson diagonalization with overlap
     ethr =  1.35E-07,  avg # of iterations =  3.4

     total cpu time spent up to now is     1117.2 secs

     total energy              =   -3131.14461540 Ry
     Harris-Foulkes estimate   =   -3131.14461972 Ry
     estimated scf accuracy    <       0.00000817 Ry

     iteration # 14     ecut=    60.00 Ry     beta= 0.35
     Davidson diagonalization with overlap
     c_bands:  2 eigenvalues not converged
     c_bands:  2 eigenvalues not converged
     c_bands:  1 eigenvalues not converged
     ethr =  1.28E-08,  avg # of iterations =  9.9

     total cpu time spent up to now is     1230.3 secs

     total energy              =   -3131.14464618 Ry
     Harris-Foulkes estimate   =   -3131.14464118 Ry
     estimated scf accuracy    <       0.00028518 Ry

     iteration # 15     ecut=    60.00 Ry     beta= 0.35
     Davidson diagonalization with overlap
     ethr =  1.28E-08,  avg # of iterations =  2.4

     total cpu time spent up to now is     1283.6 secs

     WARNING: integrated charge=    63.99987663, expected=    64.00000000

     total energy              =   -3131.14462487 Ry
     Harris-Foulkes estimate   =   -3131.14464024 Ry
     estimated scf accuracy    <       0.00005083 Ry

     iteration # 16     ecut=    60.00 Ry     beta= 0.35
     Davidson diagonalization with overlap
     c_bands:  1 eigenvalues not converged
     ethr =  1.28E-08,  avg # of iterations =  6.3

     total cpu time spent up to now is     1372.6 secs

     WARNING: integrated charge=    63.99985735, expected=    64.00000000

     total energy              =   -3131.14463771 Ry
     Harris-Foulkes estimate   =   -3131.14463812 Ry
     estimated scf accuracy    <       0.00006159 Ry

     iteration # 17     ecut=    60.00 Ry     beta= 0.35
     Davidson diagonalization with overlap
     ethr =  1.28E-08,  avg # of iterations =  1.0

     total cpu time spent up to now is     1418.2 secs

     WARNING: integrated charge=    63.99992469, expected=    64.00000000

     total energy              =   -3131.14464271 Ry
     Harris-Foulkes estimate   =   -3131.14463778 Ry
     estimated scf accuracy    <       0.00005990 Ry

     iteration # 18     ecut=    60.00 Ry     beta= 0.35
     Davidson diagonalization with overlap
     ethr =  1.28E-08,  avg # of iterations =  1.0

     total cpu time spent up to now is     1463.6 secs

     WARNING: integrated charge=    63.99983088, expected=    64.00000000

     total energy              =   -3131.14464228 Ry
     Harris-Foulkes estimate   =   -3131.14464281 Ry
     estimated scf accuracy    <       0.00006839 Ry

     iteration # 19     ecut=    60.00 Ry     beta= 0.35
     Davidson diagonalization with overlap
     ethr =  1.28E-08,  avg # of iterations =  1.0

     total cpu time spent up to now is     1507.6 secs

     WARNING: integrated charge=    63.99930414, expected=    64.00000000

     total energy              =   -3131.14464112 Ry
     Harris-Foulkes estimate   =   -3131.14464232 Ry
     estimated scf accuracy    <       0.00006816 Ry

     iteration # 20     ecut=    60.00 Ry     beta= 0.35
     Davidson diagonalization with overlap
     ethr =  1.28E-08,  avg # of iterations =  1.0

     total cpu time spent up to now is     1551.5 secs

     WARNING: integrated charge=    63.99877695, expected=    64.00000000

     total energy              =   -3131.14463982 Ry
     Harris-Foulkes estimate   =   -3131.14464113 Ry
     estimated scf accuracy    <       0.00006695 Ry

     iteration # 21     ecut=    60.00 Ry     beta= 0.35
     Davidson diagonalization with overlap
     ethr =  1.28E-08,  avg # of iterations =  1.0

     total cpu time spent up to now is     1595.4 secs

     WARNING: integrated charge=    63.99794158, expected=    64.00000000

     total energy              =   -3131.14463749 Ry
     Harris-Foulkes estimate   =   -3131.14463984 Ry
     estimated scf accuracy    <       0.00006529 Ry

     iteration # 22     ecut=    60.00 Ry     beta= 0.35
     Davidson diagonalization with overlap
     ethr =  1.28E-08,  avg # of iterations =  1.0

     total cpu time spent up to now is     1635.8 secs

     WARNING: integrated charge=    63.98648599, expected=    64.00000000

     total energy              =   -3131.14461824 Ry
     Harris-Foulkes estimate   =   -3131.14463757 Ry
     estimated scf accuracy    <       0.00009800 Ry

     iteration # 23     ecut=    60.00 Ry     beta= 0.35
     Davidson diagonalization with overlap
     c_bands:  2 eigenvalues not converged
     c_bands:  4 eigenvalues not converged
     c_bands:  4 eigenvalues not converged
     c_bands:  1 eigenvalues not converged
     ethr =  1.28E-08,  avg # of iterations = 10.8

     total cpu time spent up to now is     1750.4 secs

     WARNING: integrated charge=    63.99739698, expected=    64.00000000

     total energy              =   -3131.14460825 Ry
     Harris-Foulkes estimate   =   -3131.14464707 Ry
     estimated scf accuracy    <       0.00011119 Ry

     iteration # 24     ecut=    60.00 Ry     beta= 0.35
     Davidson diagonalization with overlap
     c_bands:  2 eigenvalues not converged
     c_bands:  1 eigenvalues not converged
     ethr =  1.28E-08,  avg # of iterations =  9.7

     total cpu time spent up to now is     1845.1 secs

     WARNING: integrated charge=    63.99615399, expected=    64.00000000

     total energy              =   -3131.14462090 Ry
     Harris-Foulkes estimate   =   -3131.14462419 Ry
     estimated scf accuracy    <       0.00000898 Ry

     iteration # 25     ecut=    60.00 Ry     beta= 0.35
     Davidson diagonalization with overlap
     c_bands:  1 eigenvalues not converged
     c_bands:  1 eigenvalues not converged
     ethr =  1.28E-08,  avg # of iterations =  6.5

     total cpu time spent up to now is     1931.6 secs

     WARNING: integrated charge=    63.99822136, expected=    64.00000000

     total energy              =   -3131.14462073 Ry
     Harris-Foulkes estimate   =   -3131.14462314 Ry
     estimated scf accuracy    <       0.00000609 Ry

     iteration # 26     ecut=    60.00 Ry     beta= 0.35
     Davidson diagonalization with overlap
     c_bands:  1 eigenvalues not converged
     ethr =  9.51E-09,  avg # of iterations =  6.5

     total cpu time spent up to now is     2019.5 secs

     WARNING: integrated charge=    63.99807580, expected=    64.00000000

     total energy              =   -3131.14463438 Ry
     Harris-Foulkes estimate   =   -3131.14463416 Ry
     estimated scf accuracy    <       0.00001367 Ry

     iteration # 27     ecut=    60.00 Ry     beta= 0.35
     Davidson diagonalization with overlap
     ethr =  9.51E-09,  avg # of iterations =  1.0

     total cpu time spent up to now is     2062.3 secs

     WARNING: integrated charge=    63.99777449, expected=    64.00000000

     total energy              =   -3131.14463472 Ry
     Harris-Foulkes estimate   =   -3131.14463446 Ry
     estimated scf accuracy    <       0.00001432 Ry

     iteration # 28     ecut=    60.00 Ry     beta= 0.35
     Davidson diagonalization with overlap
     ethr =  9.51E-09,  avg # of iterations =  1.0

     total cpu time spent up to now is     2110.6 secs

     WARNING: integrated charge=    63.99847222, expected=    64.00000000

     total energy              =   -3131.14463456 Ry
     Harris-Foulkes estimate   =   -3131.14463477 Ry
     estimated scf accuracy    <       0.00001512 Ry

     iteration # 29     ecut=    60.00 Ry     beta= 0.35
     Davidson diagonalization with overlap
     ethr =  9.51E-09,  avg # of iterations =  1.0

     total cpu time spent up to now is     2153.0 secs

     WARNING: integrated charge=    63.99730799, expected=    64.00000000

     total energy              =   -3131.14463570 Ry
     Harris-Foulkes estimate   =   -3131.14463461 Ry
     estimated scf accuracy    <       0.00001508 Ry

     iteration # 30     ecut=    60.00 Ry     beta= 0.35
     Davidson diagonalization with overlap
     ethr =  9.51E-09,  avg # of iterations =  1.2

     total cpu time spent up to now is     2200.6 secs

     WARNING: integrated charge=    64.00142461, expected=    64.00000000

     total energy              =   -3131.14463370 Ry
     Harris-Foulkes estimate   =   -3131.14463582 Ry
     estimated scf accuracy    <       0.00001772 Ry

     iteration # 31     ecut=    60.00 Ry     beta= 0.35
     Davidson diagonalization with overlap
     ethr =  9.51E-09,  avg # of iterations =  1.1

     total cpu time spent up to now is     2247.8 secs

     WARNING: integrated charge=    64.00077897, expected=    64.00000000

     total energy              =   -3131.14464030 Ry
     Harris-Foulkes estimate   =   -3131.14463379 Ry
     estimated scf accuracy    <       0.00043926 Ry

     iteration # 32     ecut=    60.00 Ry     beta= 0.35
     Davidson diagonalization with overlap
     ethr =  9.51E-09,  avg # of iterations =  1.6

     total cpu time spent up to now is     2297.4 secs

     WARNING: integrated charge=    63.99898770, expected=    64.00000000

     total energy              =   -3131.14463573 Ry
     Harris-Foulkes estimate   =   -3131.14463431 Ry
     estimated scf accuracy    <       0.00001595 Ry

     iteration # 33     ecut=    60.00 Ry     beta= 0.35
     Davidson diagonalization with overlap
     ethr =  9.51E-09,  avg # of iterations =  1.0

     total cpu time spent up to now is     2346.9 secs

     WARNING: integrated charge=    64.00345677, expected=    64.00000000

     total energy              =   -3131.14463137 Ry
     Harris-Foulkes estimate   =   -3131.14463578 Ry
     estimated scf accuracy    <       0.00001856 Ry

     iteration # 34     ecut=    60.00 Ry     beta= 0.35
     Davidson diagonalization with overlap
     ethr =  9.51E-09,  avg # of iterations =  3.4

     total cpu time spent up to now is     2410.6 secs

     WARNING: integrated charge=    64.00777567, expected=    64.00000000

     total energy              =   -3131.14463048 Ry
     Harris-Foulkes estimate   =   -3131.14463207 Ry
     estimated scf accuracy    <       0.00000903 Ry

     iteration # 35     ecut=    60.00 Ry     beta= 0.35
     Davidson diagonalization with overlap
     ethr =  9.51E-09,  avg # of iterations =  6.2

     total cpu time spent up to now is     2508.3 secs

     WARNING: integrated charge=    64.00312494, expected=    64.00000000

     total energy              =   -3131.14462862 Ry
     Harris-Foulkes estimate   =   -3131.14463673 Ry
     estimated scf accuracy    <       0.00002215 Ry

     iteration # 36     ecut=    60.00 Ry     beta= 0.35
     Davidson diagonalization with overlap
     ethr =  9.51E-09,  avg # of iterations =  6.1

     total cpu time spent up to now is     2603.5 secs

     WARNING: integrated charge=    64.00361098, expected=    64.00000000

     total energy              =   -3131.14463240 Ry
     Harris-Foulkes estimate   =   -3131.14463235 Ry
     estimated scf accuracy    <       0.00000338 Ry

     iteration # 37     ecut=    60.00 Ry     beta= 0.35
     Davidson diagonalization with overlap
     ethr =  5.29E-09,  avg # of iterations =  1.0

     total cpu time spent up to now is     2658.6 secs

     WARNING: integrated charge=    64.00434929, expected=    64.00000000

     total energy              =   -3131.14463266 Ry
     Harris-Foulkes estimate   =   -3131.14463245 Ry
     estimated scf accuracy    <       0.00000346 Ry

     iteration # 38     ecut=    60.00 Ry     beta= 0.35
     Davidson diagonalization with overlap
     ethr =  5.29E-09,  avg # of iterations =  1.0

     total cpu time spent up to now is     2709.7 secs

     WARNING: integrated charge=    64.00407382, expected=    64.00000000

     total energy              =   -3131.14463258 Ry
     Harris-Foulkes estimate   =   -3131.14463270 Ry
     estimated scf accuracy    <       0.00000375 Ry

     iteration # 39     ecut=    60.00 Ry     beta= 0.35
     Davidson diagonalization with overlap
     ethr =  5.29E-09,  avg # of iterations =  1.0

     total cpu time spent up to now is     2763.8 secs

     WARNING: integrated charge=    64.00522870, expected=    64.00000000

     total energy              =   -3131.14463289 Ry
     Harris-Foulkes estimate   =   -3131.14463260 Ry
     estimated scf accuracy    <       0.00000354 Ry

     iteration # 40     ecut=    60.00 Ry     beta= 0.35
     Davidson diagonalization with overlap
     ethr =  5.29E-09,  avg # of iterations =  1.0

     total cpu time spent up to now is     2812.6 secs

     WARNING: integrated charge=    63.99705599, expected=    64.00000000

     total energy              =   -3131.14463195 Ry
     Harris-Foulkes estimate   =   -3131.14463291 Ry
     estimated scf accuracy    <       0.00000395 Ry

     iteration # 41     ecut=    60.00 Ry     beta= 0.35
     Davidson diagonalization with overlap
     ethr =  5.29E-09,  avg # of iterations =  5.2

     total cpu time spent up to now is     2908.8 secs

     WARNING: integrated charge=    63.99836290, expected=    64.00000000

     total energy              =   -3131.14463403 Ry
     Harris-Foulkes estimate   =   -3131.14463477 Ry
     estimated scf accuracy    <       0.00001555 Ry

     iteration # 42     ecut=    60.00 Ry     beta= 0.35
     Davidson diagonalization with overlap
     ethr =  5.29E-09,  avg # of iterations =  1.0

     total cpu time spent up to now is     2961.4 secs

     WARNING: integrated charge=    63.99750054, expected=    64.00000000

     total energy              =   -3131.14463335 Ry
     Harris-Foulkes estimate   =   -3131.14463406 Ry
     estimated scf accuracy    <       0.00001431 Ry

     iteration # 43     ecut=    60.00 Ry     beta= 0.35
     Davidson diagonalization with overlap
     ethr =  5.29E-09,  avg # of iterations =  1.0

     total cpu time spent up to now is     3010.7 secs

     WARNING: integrated charge=    63.99798560, expected=    64.00000000

     total energy              =   -3131.14463372 Ry
     Harris-Foulkes estimate   =   -3131.14463339 Ry
     estimated scf accuracy    <       0.00001305 Ry

     iteration # 44     ecut=    60.00 Ry     beta= 0.35
     Davidson diagonalization with overlap
     ethr =  5.29E-09,  avg # of iterations =  1.0

     total cpu time spent up to now is     3058.9 secs

     WARNING: integrated charge=    63.99547766, expected=    64.00000000

     total energy              =   -3131.14463852 Ry
     Harris-Foulkes estimate   =   -3131.14463374 Ry
     estimated scf accuracy    <       0.00001332 Ry

     iteration # 45     ecut=    60.00 Ry     beta= 0.35
     Davidson diagonalization with overlap

 %%%%%%%%%%%%%%%%%%%%%%%%%%%%%%%%%%%%%%%%%%%%%%%%%%%%%%%%%%%%%%%%%%%%%%%%%%%%%%
     Error in routine  cdiaghg (108):
      problems computing cholesky
 %%%%%%%%%%%%%%%%%%%%%%%%%%%%%%%%%%%%%%%%%%%%%%%%%%%%%%%%%%%%%%%%%%%%%%%%%%%%%%

     stopping ...
