
     Program PWSCF v.6.7MaX starts on 14Jan2021 at 13:53:51 

     This program is part of the open-source Quantum ESPRESSO suite
     for quantum simulation of materials; please cite
         "P. Giannozzi et al., J. Phys.:Condens. Matter 21 395502 (2009);
         "P. Giannozzi et al., J. Phys.:Condens. Matter 29 465901 (2017);
          URL http://www.quantum-espresso.org", 
     in publications or presentations arising from this work. More details at
     http://www.quantum-espresso.org/quote

     Parallel version (MPI), running on    19 processors

     MPI processes distributed on     1 nodes
     R & G space division:  proc/nbgrp/npool/nimage =      19
     Waiting for input...
     Reading input from standard input

     Current dimensions of program PWSCF are:
     Max number of different atomic species (ntypx) = 10
     Max number of k-points (npk) =  40000
     Max angular momentum in pseudopotentials (lmaxx) =  3
     file Sn.pbe-dn-kjpaw_psl.1.0.0.UPF: wavefunction(s)  5S 5P 4D renormalized
     file I.pbe-n-kjpaw_psl.1.0.0.UPF: wavefunction(s)  5S renormalized

     Subspace diagonalization in iterative solution of the eigenvalue problem:
     a serial algorithm will be used

     Message from routine setup:
     using ibrav=0 with symmetry is DISCOURAGED, use correct ibrav instead

     Parallelization info
     --------------------
     sticks:   dense  smooth     PW     G-vecs:    dense   smooth      PW
     Min         138     138     39                 3313     3313     515
     Max         140     140     41                 3314     3314     516
     Sum        2637    2637    761                62959    62959    9795


     Title: 
     SnI2tetr                                                                   


     bravais-lattice index     =            0
     lattice parameter (alat)  =      14.4199  a.u.
     unit-cell volume          =    1845.1511 (a.u.)^3
     number of atoms/cell      =            6
     number of atomic types    =            2
     number of electrons       =        56.00
     number of Kohn-Sham states=           28
     kinetic-energy cutoff     =      40.0000  Ry
     charge density cutoff     =     160.0000  Ry
     scf convergence threshold =      1.0E-06
     mixing beta               =       0.5000
     number of iterations used =            8  plain     mixing
     energy convergence thresh.=      1.0E-04
     force convergence thresh. =      1.0E-04
     press convergence thresh. =      5.0E-01
     Exchange-correlation= SLA  PW   PBX  PBC
                           (   1   4   3   4   0   0   0)
     nstep                     =           50


     celldm(1)=  14.419944  celldm(2)=   0.000000  celldm(3)=   0.000000
     celldm(4)=   0.000000  celldm(5)=   0.000000  celldm(6)=   0.000000

     crystal axes: (cart. coord. in units of alat)
               a(1) = (   1.000000   0.000000   0.000000 )  
               a(2) = (   0.000000   1.000000   0.000000 )  
               a(3) = (   0.000000   0.000000   0.615377 )  

     reciprocal axes: (cart. coord. in units 2 pi/alat)
               b(1) = (  1.000000  0.000000  0.000000 )  
               b(2) = (  0.000000  1.000000  0.000000 )  
               b(3) = (  0.000000  0.000000  1.625020 )  


     PseudoPot. # 1 for Sn read from file:
     ../../../pseudo/Sn.pbe-dn-kjpaw_psl.1.0.0.UPF
     MD5 check sum: 67f11dec737d427557dc41ea34975807
     Pseudo is Projector augmented-wave + core cor, Zval = 14.0
     Generated using &quot;atomic&quot; code by A. Dal Corso  v.6.3
     Shape of augmentation charge: PSQ
     Using radial grid of 1243 points,  6 beta functions with: 
                l(1) =   0
                l(2) =   0
                l(3) =   1
                l(4) =   1
                l(5) =   2
                l(6) =   2
     Q(r) pseudized with 0 coefficients 


     PseudoPot. # 2 for I  read from file:
     ../../../pseudo/I.pbe-n-kjpaw_psl.1.0.0.UPF
     MD5 check sum: cd3d296c3308a581e1559a0c8a554cb5
     Pseudo is Projector augmented-wave + core cor, Zval =  7.0
     Generated using &quot;atomic&quot; code by A. Dal Corso  v.6.3
     Shape of augmentation charge: PSQ
     Using radial grid of 1247 points,  6 beta functions with: 
                l(1) =   0
                l(2) =   0
                l(3) =   1
                l(4) =   1
                l(5) =   2
                l(6) =   2
     Q(r) pseudized with 0 coefficients 


     atomic species   valence    mass     pseudopotential
        Sn            14.00   118.70000     Sn( 1.00)
        I              7.00   126.90000     I ( 1.00)

     16 Sym. Ops., with inversion, found ( 8 have fractional translation)


                                    s                        frac. trans.

      isym =  1     identity                                     

 cryst.   s( 1) = (     1          0          0      )
                  (     0          1          0      )
                  (     0          0          1      )

 cart.    s( 1) = (  1.0000000  0.0000000  0.0000000 )
                  (  0.0000000  1.0000000  0.0000000 )
                  (  0.0000000  0.0000000  1.0000000 )


      isym =  2     180 deg rotation - cart. axis [0,0,1]        

 cryst.   s( 2) = (    -1          0          0      )
                  (     0         -1          0      )
                  (     0          0          1      )

 cart.    s( 2) = ( -1.0000000  0.0000000  0.0000000 )
                  (  0.0000000 -1.0000000  0.0000000 )
                  (  0.0000000  0.0000000  1.0000000 )


      isym =  3     180 deg rotation - cart. axis [0,1,0]        

 cryst.   s( 3) = (    -1          0          0      )    f =(  0.5000000 )
                  (     0          1          0      )       ( -0.5000000 )
                  (     0          0         -1      )       (  0.5000000 )

 cart.    s( 3) = ( -1.0000000  0.0000000  0.0000000 )    f =(  0.5000000 )
                  (  0.0000000  1.0000000  0.0000000 )       ( -0.5000000 )
                  (  0.0000000  0.0000000 -1.0000000 )       (  0.3076884 )


      isym =  4     180 deg rotation - cart. axis [1,0,0]        

 cryst.   s( 4) = (     1          0          0      )    f =( -0.5000000 )
                  (     0         -1          0      )       (  0.5000000 )
                  (     0          0         -1      )       (  0.5000000 )

 cart.    s( 4) = (  1.0000000  0.0000000  0.0000000 )    f =( -0.5000000 )
                  (  0.0000000 -1.0000000  0.0000000 )       (  0.5000000 )
                  (  0.0000000  0.0000000 -1.0000000 )       (  0.3076884 )


      isym =  5     180 deg rotation - cart. axis [1,1,0]        

 cryst.   s( 5) = (     0          1          0      )
                  (     1          0          0      )
                  (     0          0         -1      )

 cart.    s( 5) = (  0.0000000  1.0000000  0.0000000 )
                  (  1.0000000  0.0000000  0.0000000 )
                  (  0.0000000  0.0000000 -1.0000000 )


      isym =  6     180 deg rotation - cart. axis [1,-1,0]       

 cryst.   s( 6) = (     0         -1          0      )
                  (    -1          0          0      )
                  (     0          0         -1      )

 cart.    s( 6) = (  0.0000000 -1.0000000  0.0000000 )
                  ( -1.0000000  0.0000000  0.0000000 )
                  (  0.0000000  0.0000000 -1.0000000 )


      isym =  7      90 deg rotation - cart. axis [0,0,-1]       

 cryst.   s( 7) = (     0         -1          0      )    f =( -0.5000000 )
                  (     1          0          0      )       (  0.5000000 )
                  (     0          0          1      )       ( -0.5000000 )

 cart.    s( 7) = (  0.0000000  1.0000000  0.0000000 )    f =( -0.5000000 )
                  ( -1.0000000  0.0000000  0.0000000 )       (  0.5000000 )
                  (  0.0000000  0.0000000  1.0000000 )       ( -0.3076884 )


      isym =  8      90 deg rotation - cart. axis [0,0,1]        

 cryst.   s( 8) = (     0          1          0      )    f =(  0.5000000 )
                  (    -1          0          0      )       ( -0.5000000 )
                  (     0          0          1      )       ( -0.5000000 )

 cart.    s( 8) = (  0.0000000 -1.0000000  0.0000000 )    f =(  0.5000000 )
                  (  1.0000000  0.0000000  0.0000000 )       ( -0.5000000 )
                  (  0.0000000  0.0000000  1.0000000 )       ( -0.3076884 )


      isym =  9     inversion                                    

 cryst.   s( 9) = (    -1          0          0      )
                  (     0         -1          0      )
                  (     0          0         -1      )

 cart.    s( 9) = ( -1.0000000  0.0000000  0.0000000 )
                  (  0.0000000 -1.0000000  0.0000000 )
                  (  0.0000000  0.0000000 -1.0000000 )


      isym = 10     inv. 180 deg rotation - cart. axis [0,0,1]   

 cryst.   s(10) = (     1          0          0      )
                  (     0          1          0      )
                  (     0          0         -1      )

 cart.    s(10) = (  1.0000000  0.0000000  0.0000000 )
                  (  0.0000000  1.0000000  0.0000000 )
                  (  0.0000000  0.0000000 -1.0000000 )


      isym = 11     inv. 180 deg rotation - cart. axis [0,1,0]   

 cryst.   s(11) = (     1          0          0      )    f =( -0.5000000 )
                  (     0         -1          0      )       (  0.5000000 )
                  (     0          0          1      )       ( -0.5000000 )

 cart.    s(11) = (  1.0000000  0.0000000  0.0000000 )    f =( -0.5000000 )
                  (  0.0000000 -1.0000000  0.0000000 )       (  0.5000000 )
                  (  0.0000000  0.0000000  1.0000000 )       ( -0.3076884 )


      isym = 12     inv. 180 deg rotation - cart. axis [1,0,0]   

 cryst.   s(12) = (    -1          0          0      )    f =(  0.5000000 )
                  (     0          1          0      )       ( -0.5000000 )
                  (     0          0          1      )       ( -0.5000000 )

 cart.    s(12) = ( -1.0000000  0.0000000  0.0000000 )    f =(  0.5000000 )
                  (  0.0000000  1.0000000  0.0000000 )       ( -0.5000000 )
                  (  0.0000000  0.0000000  1.0000000 )       ( -0.3076884 )


      isym = 13     inv. 180 deg rotation - cart. axis [1,1,0]   

 cryst.   s(13) = (     0         -1          0      )
                  (    -1          0          0      )
                  (     0          0          1      )

 cart.    s(13) = (  0.0000000 -1.0000000  0.0000000 )
                  ( -1.0000000  0.0000000  0.0000000 )
                  (  0.0000000  0.0000000  1.0000000 )


      isym = 14     inv. 180 deg rotation - cart. axis [1,-1,0]  

 cryst.   s(14) = (     0          1          0      )
                  (     1          0          0      )
                  (     0          0          1      )

 cart.    s(14) = (  0.0000000  1.0000000  0.0000000 )
                  (  1.0000000  0.0000000  0.0000000 )
                  (  0.0000000  0.0000000  1.0000000 )


      isym = 15     inv.  90 deg rotation - cart. axis [0,0,-1]  

 cryst.   s(15) = (     0          1          0      )    f =(  0.5000000 )
                  (    -1          0          0      )       ( -0.5000000 )
                  (     0          0         -1      )       (  0.5000000 )

 cart.    s(15) = (  0.0000000 -1.0000000  0.0000000 )    f =(  0.5000000 )
                  (  1.0000000  0.0000000  0.0000000 )       ( -0.5000000 )
                  (  0.0000000  0.0000000 -1.0000000 )       (  0.3076884 )


      isym = 16     inv.  90 deg rotation - cart. axis [0,0,1]   

 cryst.   s(16) = (     0         -1          0      )    f =( -0.5000000 )
                  (     1          0          0      )       (  0.5000000 )
                  (     0          0         -1      )       (  0.5000000 )

 cart.    s(16) = (  0.0000000  1.0000000  0.0000000 )    f =( -0.5000000 )
                  ( -1.0000000  0.0000000  0.0000000 )       (  0.5000000 )
                  (  0.0000000  0.0000000 -1.0000000 )       (  0.3076884 )


   Cartesian axes

     site n.     atom                  positions (alat units)
         1           Sn  tau(   1) = (   0.0000000   0.0000000   0.0000000  )
         2           Sn  tau(   2) = (   0.5000000   0.5000000   0.3076884  )
         3           I   tau(   3) = (   0.2985210   0.2985210   0.0000000  )
         4           I   tau(   4) = (   0.7014790   0.7014790   0.0000000  )
         5           I   tau(   5) = (   0.7985210   0.2014790   0.3076884  )
         6           I   tau(   6) = (   0.2014790   0.7985210   0.3076884  )

   Crystallographic axes

     site n.     atom                  positions (cryst. coord.)
         1           Sn  tau(   1) = (  0.0000000  0.0000000  0.0000000  )
         2           Sn  tau(   2) = (  0.5000000  0.5000000  0.5000000  )
         3           I   tau(   3) = (  0.2985210  0.2985210  0.0000000  )
         4           I   tau(   4) = (  0.7014790  0.7014790  0.0000000  )
         5           I   tau(   5) = (  0.7985210  0.2014790  0.5000000  )
         6           I   tau(   6) = (  0.2014790  0.7985210  0.5000000  )

     number of k points=     6
                       cart. coord. in units 2pi/alat
        k(    1) = (   0.0000000   0.0000000   0.0000000), wk =   0.2500000
        k(    2) = (   0.0000000   0.0000000  -0.8125102), wk =   0.2500000
        k(    3) = (   0.0000000  -0.5000000   0.0000000), wk =   0.5000000
        k(    4) = (   0.0000000  -0.5000000  -0.8125102), wk =   0.5000000
        k(    5) = (  -0.5000000  -0.5000000   0.0000000), wk =   0.2500000
        k(    6) = (  -0.5000000  -0.5000000  -0.8125102), wk =   0.2500000

                       cryst. coord.
        k(    1) = (   0.0000000   0.0000000   0.0000000), wk =   0.2500000
        k(    2) = (   0.0000000   0.0000000  -0.5000000), wk =   0.2500000
        k(    3) = (   0.0000000  -0.5000000   0.0000000), wk =   0.5000000
        k(    4) = (   0.0000000  -0.5000000  -0.5000000), wk =   0.5000000
        k(    5) = (  -0.5000000  -0.5000000   0.0000000), wk =   0.2500000
        k(    6) = (  -0.5000000  -0.5000000  -0.5000000), wk =   0.2500000

     Dense  grid:    62959 G-vectors     FFT dimensions: (  60,  60,  36)

     Dynamical RAM for                 wfc:       0.18 MB

     Dynamical RAM for     wfc (w. buffer):       1.24 MB

     Dynamical RAM for           str. fact:       0.10 MB

     Dynamical RAM for           local pot:       0.00 MB

     Dynamical RAM for          nlocal pot:       0.68 MB

     Dynamical RAM for                qrad:       4.06 MB

     Dynamical RAM for          rho,v,vnew:       0.32 MB

     Dynamical RAM for               rhoin:       0.11 MB

     Dynamical RAM for            rho*nmix:       0.81 MB

     Dynamical RAM for           G-vectors:       0.21 MB

     Dynamical RAM for          h,s,v(r/c):       0.14 MB

     Dynamical RAM for          <psi|beta>:       0.05 MB

     Dynamical RAM for                 psi:       0.35 MB

     Dynamical RAM for                hpsi:       0.35 MB

     Dynamical RAM for                spsi:       0.35 MB

     Dynamical RAM for      wfcinit/wfcrot:       0.46 MB

     Dynamical RAM for           addusdens:       9.61 MB

     Dynamical RAM for          addusforce:       9.95 MB

     Dynamical RAM for         addusstress:      10.16 MB

     Estimated static dynamical RAM per process >       7.96 MB

     Estimated max dynamical RAM per process >      18.12 MB

     Estimated total dynamical RAM >     344.33 MB

     Check: negative core charge=   -0.000001

     Initial potential from superposition of free atoms

     starting charge   55.99693, renormalised to   56.00000
     Starting wfcs are   34 randomized atomic wfcs
     Checking if some PAW data can be deallocated... 
       PAW data deallocated on   12 nodes for type:  1
       PAW data deallocated on    7 nodes for type:  2

     total cpu time spent up to now is        2.3 secs

     Self-consistent Calculation

     iteration #  1     ecut=    40.00 Ry     beta= 0.50
     Davidson diagonalization with overlap
     ethr =  1.00E-02,  avg # of iterations =  1.3

     Threshold (ethr) on eigenvalues was too large:
     Diagonalizing with lowered threshold

     Davidson diagonalization with overlap
     ethr =  2.58E-04,  avg # of iterations =  2.3

     total cpu time spent up to now is        4.1 secs

     total energy              =   -2399.88966228 Ry
     estimated scf accuracy    <       0.13076349 Ry

     iteration #  2     ecut=    40.00 Ry     beta= 0.50
     Davidson diagonalization with overlap
     ethr =  2.34E-04,  avg # of iterations =  3.2

     total cpu time spent up to now is        5.2 secs

     total energy              =   -2399.92574315 Ry
     estimated scf accuracy    <       0.00726699 Ry

     iteration #  3     ecut=    40.00 Ry     beta= 0.50
     Davidson diagonalization with overlap
     ethr =  1.30E-05,  avg # of iterations =  3.5

     total cpu time spent up to now is        6.3 secs

     total energy              =   -2399.92701499 Ry
     estimated scf accuracy    <       0.00163997 Ry

     iteration #  4     ecut=    40.00 Ry     beta= 0.50
     Davidson diagonalization with overlap
     ethr =  2.93E-06,  avg # of iterations =  3.8

     total cpu time spent up to now is        7.5 secs

     total energy              =   -2399.92742342 Ry
     estimated scf accuracy    <       0.00036137 Ry

     iteration #  5     ecut=    40.00 Ry     beta= 0.50
     Davidson diagonalization with overlap
     ethr =  6.45E-07,  avg # of iterations =  3.2

     total cpu time spent up to now is        8.5 secs

     total energy              =   -2399.92749552 Ry
     estimated scf accuracy    <       0.00000672 Ry

     iteration #  6     ecut=    40.00 Ry     beta= 0.50
     Davidson diagonalization with overlap
     ethr =  1.20E-08,  avg # of iterations =  6.8

     total cpu time spent up to now is       10.1 secs

     total energy              =   -2399.92750171 Ry
     estimated scf accuracy    <       0.00000789 Ry

     iteration #  7     ecut=    40.00 Ry     beta= 0.50
     Davidson diagonalization with overlap
     ethr =  1.20E-08,  avg # of iterations =  3.2

     total cpu time spent up to now is       11.2 secs

     End of self-consistent calculation

          k = 0.0000 0.0000 0.0000 (  7857 PWs)   bands (ev):

   -18.3734 -18.3720 -18.3640 -18.3610 -18.3484 -18.3483 -18.3483 -18.3475
   -18.3438 -18.3438  -9.3173  -8.8046  -8.8046  -8.6855  -4.1376  -2.2864
    -0.1018  -0.1018   0.4413   0.7586   1.2629   1.3655   1.6198   1.6198
     2.0278   2.0278   2.4044   2.8764

     occupation numbers 
     1.0000   1.0000   1.0000   1.0000   1.0000   1.0000   1.0000   1.0000
     1.0000   1.0000   1.0000   1.0000   1.0000   1.0000   1.0000   1.0000
     1.0000   1.0000   1.0000   1.0000   1.0000   1.0000   1.0000   1.0000
     1.0000   1.0000   1.0000   1.0000

          k = 0.0000 0.0000-0.8125 (  7906 PWs)   bands (ev):

   -18.3714 -18.3714 -18.3631 -18.3631 -18.3523 -18.3523 -18.3520 -18.3520
   -18.3437 -18.3437  -8.8546  -8.8546  -8.6815  -8.6815  -3.6833  -3.6833
    -0.0383  -0.0383  -0.0121  -0.0121   0.5310   0.5310   1.5876   1.5876
     1.6412   1.6412   2.3775   2.3775

     occupation numbers 
     1.0000   1.0000   1.0000   1.0000   1.0000   1.0000   1.0000   1.0000
     1.0000   1.0000   1.0000   1.0000   1.0000   1.0000   1.0000   1.0000
     1.0000   1.0000   1.0000   1.0000   1.0000   1.0000   1.0000   1.0000
     1.0000   1.0000   1.0000   1.0000

          k = 0.0000-0.5000 0.0000 (  7870 PWs)   bands (ev):

   -18.3705 -18.3705 -18.3629 -18.3629 -18.3528 -18.3528 -18.3480 -18.3480
   -18.3452 -18.3452  -9.1047  -9.1047  -8.7182  -8.7182  -3.3936  -3.3936
     0.3870   0.3870   0.7856   0.7856   1.0856   1.0856   1.7091   1.7091
     1.8494   1.8494   2.1984   2.1984

     occupation numbers 
     1.0000   1.0000   1.0000   1.0000   1.0000   1.0000   1.0000   1.0000
     1.0000   1.0000   1.0000   1.0000   1.0000   1.0000   1.0000   1.0000
     1.0000   1.0000   1.0000   1.0000   1.0000   1.0000   1.0000   1.0000
     1.0000   1.0000   1.0000   1.0000

          k = 0.0000-0.5000-0.8125 (  7868 PWs)   bands (ev):

   -18.3698 -18.3698 -18.3608 -18.3608 -18.3525 -18.3525 -18.3506 -18.3506
   -18.3425 -18.3425  -8.8332  -8.8332  -8.7035  -8.7035  -3.6648  -3.6648
    -0.6385  -0.6385   0.0300   0.0300   1.1900   1.1900   1.7091   1.7091
     1.8308   1.8308   2.6226   2.6226

     occupation numbers 
     1.0000   1.0000   1.0000   1.0000   1.0000   1.0000   1.0000   1.0000
     1.0000   1.0000   1.0000   1.0000   1.0000   1.0000   1.0000   1.0000
     1.0000   1.0000   1.0000   1.0000   1.0000   1.0000   1.0000   1.0000
     1.0000   1.0000   1.0000   1.0000

          k =-0.5000-0.5000 0.0000 (  7864 PWs)   bands (ev):

   -18.3717 -18.3717 -18.3615 -18.3615 -18.3526 -18.3526 -18.3481 -18.3481
   -18.3436 -18.3436  -9.0214  -9.0214  -8.8176  -8.8176  -3.3007  -3.3007
     0.0768   0.0768   0.8539   0.8539   1.3649   1.3649   1.5951   1.5951
     1.7101   1.7101   2.2071   2.2071

     occupation numbers 
     1.0000   1.0000   1.0000   1.0000   1.0000   1.0000   1.0000   1.0000
     1.0000   1.0000   1.0000   1.0000   1.0000   1.0000   1.0000   1.0000
     1.0000   1.0000   1.0000   1.0000   1.0000   1.0000   1.0000   1.0000
     1.0000   1.0000   1.0000   1.0000

          k =-0.5000-0.5000-0.8125 (  7856 PWs)   bands (ev):

   -18.3713 -18.3713 -18.3580 -18.3580 -18.3511 -18.3511 -18.3508 -18.3508
   -18.3425 -18.3425  -8.8402  -8.8402  -8.6921  -8.6921  -3.7472  -3.7472
    -0.2278  -0.2278   0.2796   0.2796   0.5593   0.5593   1.8441   1.8441
     1.8609   1.8609   2.0312   2.0312

     occupation numbers 
     1.0000   1.0000   1.0000   1.0000   1.0000   1.0000   1.0000   1.0000
     1.0000   1.0000   1.0000   1.0000   1.0000   1.0000   1.0000   1.0000
     1.0000   1.0000   1.0000   1.0000   1.0000   1.0000   1.0000   1.0000
     1.0000   1.0000   1.0000   1.0000

     highest occupied level (ev):     2.8764

!    total energy              =   -2399.92750397 Ry

     total all-electron energy =    -81641.172852 Ry
     estimated scf accuracy    <       0.00000052 Ry

     The total energy is the sum of the following terms:
     one-electron contribution =    -203.66099293 Ry
     hartree contribution      =     130.07434520 Ry
     xc contribution           =    -159.02552932 Ry
     ewald contribution        =    -219.54274839 Ry
     one-center paw contrib.   =   -1947.77257852 Ry
      -> PAW hartree energy AE =     108.72717828 Ry
      -> PAW hartree energy PS =    -107.95650327 Ry
      -> PAW xc energy AE      =    -328.97684304 Ry
      -> PAW xc energy PS      =      47.28171162 Ry
      -> total E_H with PAW    =     130.84502020 Ry
      -> total E_XC with PAW   =    -440.72066074 Ry

     convergence has been achieved in   7 iterations

     Forces acting on atoms (cartesian axes, Ry/au):

     atom    1 type  1   force =     0.00000000    0.00000000    0.00000000
     atom    2 type  1   force =     0.00000000    0.00000000   -0.00000000
     atom    3 type  2   force =     0.00285669    0.00285669   -0.00000000
     atom    4 type  2   force =    -0.00285669   -0.00285669    0.00000000
     atom    5 type  2   force =     0.00285669   -0.00285669    0.00000000
     atom    6 type  2   force =    -0.00285669    0.00285669    0.00000000
     The non-local contrib.  to forces
     atom    1 type  1   force =     0.00000000    0.00000000    0.00000000
     atom    2 type  1   force =     0.00000000    0.00000000    0.00000000
     atom    3 type  2   force =     0.01550611    0.01550611    0.00000000
     atom    4 type  2   force =    -0.01550611   -0.01550611   -0.00000000
     atom    5 type  2   force =     0.01550611   -0.01550611   -0.00000000
     atom    6 type  2   force =    -0.01550611    0.01550611   -0.00000000
     The ionic contribution  to forces
     atom    1 type  1   force =    -0.00000000   -0.00000000    0.00000000
     atom    2 type  1   force =    -0.00000000   -0.00000000   -0.00000000
     atom    3 type  2   force =    -0.90990984   -0.90990984   -0.00000000
     atom    4 type  2   force =     0.90990984    0.90990984   -0.00000000
     atom    5 type  2   force =    -0.90990984    0.90990984   -0.00000000
     atom    6 type  2   force =     0.90990984   -0.90990984   -0.00000000
     The local contribution  to forces
     atom    1 type  1   force =     0.00000000    0.00000000    0.00000000
     atom    2 type  1   force =     0.00000000    0.00000000    0.00000000
     atom    3 type  2   force =     0.89919005    0.89919005   -0.00000000
     atom    4 type  2   force =    -0.89919005   -0.89919005   -0.00000000
     atom    5 type  2   force =     0.89919005   -0.89919005    0.00000000
     atom    6 type  2   force =    -0.89919005    0.89919005    0.00000000
     The core correction contribution to forces
     atom    1 type  1   force =     0.00000000    0.00000000    0.00000000
     atom    2 type  1   force =     0.00000000    0.00000000    0.00000000
     atom    3 type  2   force =    -0.00198199   -0.00198199    0.00000000
     atom    4 type  2   force =     0.00198199    0.00198199    0.00000000
     atom    5 type  2   force =    -0.00198199    0.00198199    0.00000000
     atom    6 type  2   force =     0.00198199   -0.00198199   -0.00000000
     The Hubbard contrib.    to forces
     atom    1 type  1   force =     0.00000000    0.00000000    0.00000000
     atom    2 type  1   force =     0.00000000    0.00000000    0.00000000
     atom    3 type  2   force =     0.00000000    0.00000000    0.00000000
     atom    4 type  2   force =     0.00000000    0.00000000    0.00000000
     atom    5 type  2   force =     0.00000000    0.00000000    0.00000000
     atom    6 type  2   force =     0.00000000    0.00000000    0.00000000
     The SCF correction term to forces
     atom    1 type  1   force =    -0.00000000    0.00000000    0.00000000
     atom    2 type  1   force =    -0.00000000   -0.00000000    0.00000000
     atom    3 type  2   force =     0.00005236    0.00005236   -0.00000000
     atom    4 type  2   force =    -0.00005236   -0.00005236   -0.00000000
     atom    5 type  2   force =     0.00005236   -0.00005236   -0.00000000
     atom    6 type  2   force =    -0.00005236    0.00005236   -0.00000000

     Total force =     0.008080     Total SCF correction =     0.000148


     Computing stress (Cartesian axis) and pressure

          total   stress  (Ry/bohr**3)                   (kbar)     P=      -35.31
  -0.00026049   0.00000000   0.00000000          -38.32        0.00        0.00
   0.00000000  -0.00026049   0.00000000            0.00      -38.32        0.00
   0.00000000   0.00000000  -0.00019902            0.00        0.00      -29.28

     kinetic stress (kbar)   7333.56      0.00      0.00
                                0.00   7333.56      0.00
                                0.00      0.00   7321.51

     local   stress (kbar)  -1444.03      0.00     -0.00
                                0.00  -1444.03     -0.00
                               -0.00     -0.00  -5862.23

     nonloc. stress (kbar)     65.72      0.00      0.00
                                0.00     65.72      0.00
                                0.00      0.00     69.25

     hartree stress (kbar)   2825.22     -0.00      0.00
                               -0.00   2825.22      0.00
                                0.00      0.00   4719.77

     exc-cor stress (kbar)   6160.64      0.00      0.00
                                0.00   6160.64      0.00
                                0.00      0.00   6161.84

     corecor stress (kbar)  -8298.66     -0.00     -0.00
                               -0.00  -8298.66     -0.00
                                0.00     -0.00  -8297.86

     ewald   stress (kbar)  -6680.77      0.00     -0.00
                                0.00  -6680.77     -0.00
                               -0.00     -0.00  -4141.56

     hubbard stress (kbar)      0.00      0.00      0.00
                                0.00      0.00      0.00
                                0.00      0.00      0.00

     DFT-D   stress (kbar)      0.00      0.00      0.00
                                0.00      0.00      0.00
                                0.00      0.00      0.00

     XDM     stress (kbar)      0.00      0.00      0.00
                                0.00      0.00      0.00
                                0.00      0.00      0.00

     dft-nl  stress (kbar)      0.00      0.00      0.00
                                0.00      0.00      0.00
                                0.00      0.00      0.00

     TS-vdW  stress (kbar)      0.00      0.00      0.00
                                0.00      0.00      0.00
                                0.00      0.00      0.00



     BFGS Geometry Optimization
     Energy error            =      0.0E+00
     Gradient error          =      2.9E-03
     Cell gradient error     =      2.6E-04


     number of scf cycles    =   1
     number of bfgs steps    =   0

     enthalpy new            =   -2399.9275039694 Ry

     new trust radius        =       0.0559477160 bohr
     new conv_thr            =       0.0000010000 Ry

     new unit-cell volume =   1812.13531 a.u.^3 (   268.53075 Ang^3 )
     density =      4.60693 g/cm^3

CELL_PARAMETERS (angstrom)
   7.581012324   0.000000000   0.000000000
   0.000000000   7.581012324   0.000000000
   0.000000000   0.000000000   4.672395718

ATOMIC_POSITIONS (crystal)
Sn            0.0000000000        0.0000000000        0.0000000000
Sn            0.5000000000        0.5000000000        0.5000000000
I             0.2987191069        0.2987191069       -0.0000000000
I             0.7012808931        0.7012808931        0.0000000000
I             0.7987191069        0.2012808931        0.5000000000
I             0.2012808931        0.7987191069        0.5000000000



     Writing output data file ./out/SnI2tetr.save/
     NEW-OLD atomic charge density approx. for the potential

     Check: negative core charge=   -0.000001
     extrapolated charge   54.97978, renormalised to   56.00000

     total cpu time spent up to now is       15.1 secs

     Self-consistent Calculation

     iteration #  1     ecut=    40.00 Ry     beta= 0.50
     Davidson diagonalization with overlap
     ethr =  1.00E-06,  avg # of iterations =  8.3

     total cpu time spent up to now is       17.5 secs

     total energy              =   -2399.85401621 Ry
     estimated scf accuracy    <       0.05944983 Ry

     iteration #  2     ecut=    40.00 Ry     beta= 0.50
     Davidson diagonalization with overlap
     ethr =  1.06E-04,  avg # of iterations =  4.3

     total cpu time spent up to now is       18.9 secs

     total energy              =   -2399.93539298 Ry
     estimated scf accuracy    <       0.05466036 Ry

     iteration #  3     ecut=    40.00 Ry     beta= 0.50
     Davidson diagonalization with overlap
     ethr =  9.76E-05,  avg # of iterations =  1.7

     total cpu time spent up to now is       19.8 secs

     total energy              =   -2399.93300872 Ry
     estimated scf accuracy    <       0.01602167 Ry

     iteration #  4     ecut=    40.00 Ry     beta= 0.50
     Davidson diagonalization with overlap
     ethr =  2.86E-05,  avg # of iterations =  2.7

     total cpu time spent up to now is       20.8 secs

     total energy              =   -2399.93433818 Ry
     estimated scf accuracy    <       0.00391233 Ry

     iteration #  5     ecut=    40.00 Ry     beta= 0.50
     Davidson diagonalization with overlap
     ethr =  6.99E-06,  avg # of iterations =  2.3

     total cpu time spent up to now is       21.8 secs

     total energy              =   -2399.93457702 Ry
     estimated scf accuracy    <       0.00221400 Ry

     iteration #  6     ecut=    40.00 Ry     beta= 0.50
     Davidson diagonalization with overlap
     ethr =  3.95E-06,  avg # of iterations =  1.2

     total cpu time spent up to now is       22.7 secs

     total energy              =   -2399.93430374 Ry
     estimated scf accuracy    <       0.00194706 Ry

     iteration #  7     ecut=    40.00 Ry     beta= 0.50
     Davidson diagonalization with overlap
     ethr =  3.48E-06,  avg # of iterations =  2.0

     total cpu time spent up to now is       23.6 secs

     total energy              =   -2399.93428069 Ry
     estimated scf accuracy    <       0.00110473 Ry

     iteration #  8     ecut=    40.00 Ry     beta= 0.50
     Davidson diagonalization with overlap
     ethr =  1.97E-06,  avg # of iterations =  2.5

     total cpu time spent up to now is       24.6 secs

     total energy              =   -2399.93434936 Ry
     estimated scf accuracy    <       0.00083627 Ry

     iteration #  9     ecut=    40.00 Ry     beta= 0.50
     Davidson diagonalization with overlap
     ethr =  1.49E-06,  avg # of iterations =  1.3

     total cpu time spent up to now is       25.5 secs

     total energy              =   -2399.93453937 Ry
     estimated scf accuracy    <       0.00058556 Ry

     iteration # 10     ecut=    40.00 Ry     beta= 0.50
     Davidson diagonalization with overlap
     ethr =  1.05E-06,  avg # of iterations =  2.2

     total cpu time spent up to now is       26.5 secs

     total energy              =   -2399.93459786 Ry
     estimated scf accuracy    <       0.00062127 Ry

     iteration # 11     ecut=    40.00 Ry     beta= 0.50
     Davidson diagonalization with overlap
     ethr =  1.05E-06,  avg # of iterations =  2.0

     total cpu time spent up to now is       27.4 secs

     total energy              =   -2399.93449350 Ry
     estimated scf accuracy    <       0.00071562 Ry

     iteration # 12     ecut=    40.00 Ry     beta= 0.50
     Davidson diagonalization with overlap
     ethr =  1.05E-06,  avg # of iterations =  1.0

     total cpu time spent up to now is       28.3 secs

     total energy              =   -2399.93435755 Ry
     estimated scf accuracy    <       0.00048242 Ry

     iteration # 13     ecut=    40.00 Ry     beta= 0.50
     Davidson diagonalization with overlap
     ethr =  8.61E-07,  avg # of iterations =  2.0

     total cpu time spent up to now is       29.2 secs

     total energy              =   -2399.93435143 Ry
     estimated scf accuracy    <       0.00015939 Ry

     iteration # 14     ecut=    40.00 Ry     beta= 0.50
     Davidson diagonalization with overlap
     ethr =  2.85E-07,  avg # of iterations =  2.0

     total cpu time spent up to now is       30.2 secs

     total energy              =   -2399.93430518 Ry
     estimated scf accuracy    <       0.00008286 Ry

     iteration # 15     ecut=    40.00 Ry     beta= 0.50
     Davidson diagonalization with overlap
     ethr =  1.48E-07,  avg # of iterations =  5.0

     total cpu time spent up to now is       31.4 secs

     total energy              =   -2399.93435847 Ry
     estimated scf accuracy    <       0.00002488 Ry

     iteration # 16     ecut=    40.00 Ry     beta= 0.50
     Davidson diagonalization with overlap
     ethr =  4.44E-08,  avg # of iterations =  1.8

     total cpu time spent up to now is       32.3 secs

     total energy              =   -2399.93434192 Ry
     estimated scf accuracy    <       0.00003914 Ry

     iteration # 17     ecut=    40.00 Ry     beta= 0.50
     Davidson diagonalization with overlap
     ethr =  4.44E-08,  avg # of iterations =  2.2

     total cpu time spent up to now is       33.3 secs

     total energy              =   -2399.93434314 Ry
     estimated scf accuracy    <       0.00000715 Ry

     iteration # 18     ecut=    40.00 Ry     beta= 0.50
     Davidson diagonalization with overlap
     ethr =  1.28E-08,  avg # of iterations =  3.2

     total cpu time spent up to now is       34.3 secs

     total energy              =   -2399.93434310 Ry
     estimated scf accuracy    <       0.00000256 Ry

     iteration # 19     ecut=    40.00 Ry     beta= 0.50
     Davidson diagonalization with overlap
     ethr =  4.57E-09,  avg # of iterations =  4.2

     total cpu time spent up to now is       35.4 secs

     End of self-consistent calculation

          k = 0.0000 0.0000 0.0000 (  7857 PWs)   bands (ev):

   -18.1787 -18.1782 -18.1686 -18.1663 -18.1529 -18.1529 -18.1527 -18.1519
   -18.1497 -18.1497  -9.2174  -8.6760  -8.6760  -8.5510  -4.0200  -2.0735
     0.0044   0.0044   0.5487   0.8636   1.4049   1.4997   1.7635   1.7635
     2.1818   2.1818   2.5671   3.0841

     occupation numbers 
     1.0000   1.0000   1.0000   1.0000   1.0000   1.0000   1.0000   1.0000
     1.0000   1.0000   1.0000   1.0000   1.0000   1.0000   1.0000   1.0000
     1.0000   1.0000   1.0000   1.0000   1.0000   1.0000   1.0000   1.0000
     1.0000   1.0000   1.0000   1.0000

          k = 0.0000 0.0000-0.8166 (  7906 PWs)   bands (ev):

   -18.1770 -18.1770 -18.1680 -18.1680 -18.1578 -18.1578 -18.1564 -18.1564
   -18.1476 -18.1476  -8.7309  -8.7309  -8.5454  -8.5454  -3.5540  -3.5540
     0.0728   0.0728   0.0895   0.0895   0.6566   0.6566   1.7173   1.7173
     1.7743   1.7743   2.5699   2.5699

     occupation numbers 
     1.0000   1.0000   1.0000   1.0000   1.0000   1.0000   1.0000   1.0000
     1.0000   1.0000   1.0000   1.0000   1.0000   1.0000   1.0000   1.0000
     1.0000   1.0000   1.0000   1.0000   1.0000   1.0000   1.0000   1.0000
     1.0000   1.0000   1.0000   1.0000

          k = 0.0000-0.5033 0.0000 (  7870 PWs)   bands (ev):

   -18.1767 -18.1767 -18.1678 -18.1678 -18.1567 -18.1567 -18.1531 -18.1531
   -18.1500 -18.1500  -8.9941  -8.9941  -8.5845  -8.5845  -3.2464  -3.2464
     0.5083   0.5083   0.9024   0.9024   1.2171   1.2171   1.8559   1.8559
     2.0173   2.0173   2.3649   2.3649

     occupation numbers 
     1.0000   1.0000   1.0000   1.0000   1.0000   1.0000   1.0000   1.0000
     1.0000   1.0000   1.0000   1.0000   1.0000   1.0000   1.0000   1.0000
     1.0000   1.0000   1.0000   1.0000   1.0000   1.0000   1.0000   1.0000
     1.0000   1.0000   1.0000   1.0000

          k = 0.0000-0.5033-0.8166 (  7868 PWs)   bands (ev):

   -18.1758 -18.1758 -18.1660 -18.1660 -18.1576 -18.1576 -18.1555 -18.1555
   -18.1467 -18.1467  -8.7080  -8.7080  -8.5689  -8.5689  -3.5332  -3.5332
    -0.5459  -0.5459   0.1332   0.1332   1.3183   1.3183   1.8605   1.8605
     1.9724   1.9724   2.8248   2.8248

     occupation numbers 
     1.0000   1.0000   1.0000   1.0000   1.0000   1.0000   1.0000   1.0000
     1.0000   1.0000   1.0000   1.0000   1.0000   1.0000   1.0000   1.0000
     1.0000   1.0000   1.0000   1.0000   1.0000   1.0000   1.0000   1.0000
     1.0000   1.0000   1.0000   1.0000

          k =-0.5033-0.5033 0.0000 (  7864 PWs)   bands (ev):

   -18.1776 -18.1776 -18.1667 -18.1667 -18.1564 -18.1564 -18.1533 -18.1533
   -18.1487 -18.1487  -8.9065  -8.9065  -8.6901  -8.6901  -3.1436  -3.1436
     0.1887   0.1887   0.9727   0.9727   1.4961   1.4961   1.7373   1.7373
     1.8484   1.8484   2.3961   2.3961

     occupation numbers 
     1.0000   1.0000   1.0000   1.0000   1.0000   1.0000   1.0000   1.0000
     1.0000   1.0000   1.0000   1.0000   1.0000   1.0000   1.0000   1.0000
     1.0000   1.0000   1.0000   1.0000   1.0000   1.0000   1.0000   1.0000
     1.0000   1.0000   1.0000   1.0000

          k =-0.5033-0.5033-0.8166 (  7856 PWs)   bands (ev):

   -18.1769 -18.1769 -18.1637 -18.1637 -18.1568 -18.1568 -18.1554 -18.1554
   -18.1466 -18.1466  -8.7152  -8.7152  -8.5569  -8.5569  -3.6238  -3.6238
    -0.1348  -0.1348   0.4073   0.4073   0.6864   0.6864   1.9863   1.9863
     2.0045   2.0045   2.2088   2.2088

     occupation numbers 
     1.0000   1.0000   1.0000   1.0000   1.0000   1.0000   1.0000   1.0000
     1.0000   1.0000   1.0000   1.0000   1.0000   1.0000   1.0000   1.0000
     1.0000   1.0000   1.0000   1.0000   1.0000   1.0000   1.0000   1.0000
     1.0000   1.0000   1.0000   1.0000

     highest occupied level (ev):     3.0841

!    total energy              =   -2399.93434319 Ry

     total all-electron energy =    -81641.179691 Ry
     estimated scf accuracy    <       0.00000040 Ry

     The total energy is the sum of the following terms:
     one-electron contribution =    -201.62210852 Ry
     hartree contribution      =     129.41174365 Ry
     xc contribution           =    -159.06508927 Ry
     ewald contribution        =    -220.88016938 Ry
     one-center paw contrib.   =   -1947.77871968 Ry
      -> PAW hartree energy AE =     108.76528104 Ry
      -> PAW hartree energy PS =    -107.99596163 Ry
      -> PAW xc energy AE      =    -328.98045826 Ry
      -> PAW xc energy PS      =      47.28443123 Ry
      -> total E_H with PAW    =     130.18106305 Ry
      -> total E_XC with PAW   =    -440.76111629 Ry

     convergence has been achieved in  19 iterations

     Forces acting on atoms (cartesian axes, Ry/au):

     atom    1 type  1   force =     0.00000000    0.00000000   -0.00000000
     atom    2 type  1   force =     0.00000000    0.00000000   -0.00000000
     atom    3 type  2   force =     0.00216422    0.00216422   -0.00000000
     atom    4 type  2   force =    -0.00216422   -0.00216422   -0.00000000
     atom    5 type  2   force =     0.00216422   -0.00216422   -0.00000000
     atom    6 type  2   force =    -0.00216422    0.00216422   -0.00000000
     The non-local contrib.  to forces
     atom    1 type  1   force =     0.00000000    0.00000000    0.00000000
     atom    2 type  1   force =     0.00000000    0.00000000    0.00000000
     atom    3 type  2   force =     0.01509262    0.01509262   -0.00000000
     atom    4 type  2   force =    -0.01509262   -0.01509262   -0.00000000
     atom    5 type  2   force =     0.01509262   -0.01509262    0.00000000
     atom    6 type  2   force =    -0.01509262    0.01509262    0.00000000
     The ionic contribution  to forces
     atom    1 type  1   force =    -0.00000000   -0.00000000    0.00000000
     atom    2 type  1   force =     0.00000000    0.00000000   -0.00000000
     atom    3 type  2   force =    -0.92176738   -0.92176738   -0.00000000
     atom    4 type  2   force =     0.92176738    0.92176738   -0.00000000
     atom    5 type  2   force =    -0.92176738    0.92176738   -0.00000000
     atom    6 type  2   force =     0.92176738   -0.92176738   -0.00000000
     The local contribution  to forces
     atom    1 type  1   force =     0.00000000    0.00000000    0.00000000
     atom    2 type  1   force =     0.00000000    0.00000000    0.00000000
     atom    3 type  2   force =     0.91077900    0.91077900    0.00000000
     atom    4 type  2   force =    -0.91077900   -0.91077900    0.00000000
     atom    5 type  2   force =     0.91077900   -0.91077900   -0.00000000
     atom    6 type  2   force =    -0.91077900    0.91077900   -0.00000000
     The core correction contribution to forces
     atom    1 type  1   force =     0.00000000    0.00000000    0.00000000
     atom    2 type  1   force =    -0.00000000   -0.00000000    0.00000000
     atom    3 type  2   force =    -0.00192285   -0.00192285    0.00000000
     atom    4 type  2   force =     0.00192285    0.00192285   -0.00000000
     atom    5 type  2   force =    -0.00192285    0.00192285    0.00000000
     atom    6 type  2   force =     0.00192285   -0.00192285    0.00000000
     The Hubbard contrib.    to forces
     atom    1 type  1   force =     0.00000000    0.00000000    0.00000000
     atom    2 type  1   force =     0.00000000    0.00000000    0.00000000
     atom    3 type  2   force =     0.00000000    0.00000000    0.00000000
     atom    4 type  2   force =     0.00000000    0.00000000    0.00000000
     atom    5 type  2   force =     0.00000000    0.00000000    0.00000000
     atom    6 type  2   force =     0.00000000    0.00000000    0.00000000
     The SCF correction term to forces
     atom    1 type  1   force =     0.00000000   -0.00000000    0.00000000
     atom    2 type  1   force =    -0.00000000   -0.00000000   -0.00000000
     atom    3 type  2   force =    -0.00001717   -0.00001717   -0.00000000
     atom    4 type  2   force =     0.00001717    0.00001717   -0.00000000
     atom    5 type  2   force =    -0.00001717    0.00001717    0.00000000
     atom    6 type  2   force =     0.00001717   -0.00001717   -0.00000000

     Total force =     0.006121     Total SCF correction =     0.000049


     Computing stress (Cartesian axis) and pressure

          total   stress  (Ry/bohr**3)                   (kbar)     P=      -24.64
  -0.00018813   0.00000000   0.00000000          -27.67        0.00        0.00
   0.00000000  -0.00018813   0.00000000            0.00      -27.67        0.00
   0.00000000   0.00000000  -0.00012628            0.00        0.00      -18.58

     kinetic stress (kbar)   7467.30      0.00      0.00
                                0.00   7467.30      0.00
                                0.00      0.00   7454.86

     local   stress (kbar)  -1405.26      0.00      0.00
                                0.00  -1405.26      0.00
                                0.00      0.00  -5934.73

     nonloc. stress (kbar)     78.12      0.00      0.00
                                0.00     78.12      0.00
                                0.00      0.00     81.41

     hartree stress (kbar)   2855.85     -0.00     -0.00
                               -0.00   2855.85     -0.00
                               -0.00     -0.00   4793.66

     exc-cor stress (kbar)   6272.24      0.00      0.00
                                0.00   6272.24      0.00
                                0.00      0.00   6273.51

     corecor stress (kbar)  -8449.78     -0.00      0.00
                               -0.00  -8449.78      0.00
                                0.00      0.00  -8449.02

     ewald   stress (kbar)  -6846.14     -0.00     -0.00
                               -0.00  -6846.14     -0.00
                               -0.00     -0.00  -4238.27

     hubbard stress (kbar)      0.00      0.00      0.00
                                0.00      0.00      0.00
                                0.00      0.00      0.00

     DFT-D   stress (kbar)      0.00      0.00      0.00
                                0.00      0.00      0.00
                                0.00      0.00      0.00

     XDM     stress (kbar)      0.00      0.00      0.00
                                0.00      0.00      0.00
                                0.00      0.00      0.00

     dft-nl  stress (kbar)      0.00      0.00      0.00
                                0.00      0.00      0.00
                                0.00      0.00      0.00

     TS-vdW  stress (kbar)      0.00      0.00      0.00
                                0.00      0.00      0.00
                                0.00      0.00      0.00


     Energy error            =      6.8E-03
     Gradient error          =      2.2E-03
     Cell gradient error     =      1.9E-04


     number of scf cycles    =   2
     number of bfgs steps    =   1

     enthalpy old            =   -2399.9275039694 Ry
     enthalpy new            =   -2399.9343431878 Ry

     CASE: enthalpy_new < enthalpy_old

     new trust radius        =       0.0837125331 bohr
     new conv_thr            =       0.0000002164 Ry

     new unit-cell volume =   1764.97450 a.u.^3 (   261.54224 Ang^3 )
     density =      4.73003 g/cm^3

CELL_PARAMETERS (angstrom)
   7.506471810   0.000000000   0.000000000
   0.000000000   7.506471810   0.000000000
   0.000000000   0.000000000   4.641625719

ATOMIC_POSITIONS (crystal)
Sn            0.0000000000        0.0000000000       -0.0000000000
Sn            0.5000000000        0.5000000000        0.5000000000
I             0.2990322935        0.2990322935       -0.0000000000
I             0.7009677065        0.7009677065       -0.0000000000
I             0.7990322935        0.2009677065        0.5000000000
I             0.2009677065        0.7990322935        0.5000000000



     Writing output data file ./out/SnI2tetr.save/
     NEW-OLD atomic charge density approx. for the potential

     Check: negative core charge=   -0.000002
     extrapolated charge   54.50374, renormalised to   56.00000

     total cpu time spent up to now is       39.3 secs

     Self-consistent Calculation

     iteration #  1     ecut=    40.00 Ry     beta= 0.50
     Davidson diagonalization with overlap
     ethr =  1.00E-06,  avg # of iterations =  9.0

     total cpu time spent up to now is       41.8 secs

     total energy              =   -2399.76530136 Ry
     estimated scf accuracy    <       0.13015283 Ry

     iteration #  2     ecut=    40.00 Ry     beta= 0.50
     Davidson diagonalization with overlap
     ethr =  2.32E-04,  avg # of iterations =  4.3

     total cpu time spent up to now is       43.2 secs

     total energy              =   -2399.94257830 Ry
     estimated scf accuracy    <       0.11896279 Ry

     iteration #  3     ecut=    40.00 Ry     beta= 0.50
     Davidson diagonalization with overlap
     ethr =  2.12E-04,  avg # of iterations =  1.7

     total cpu time spent up to now is       44.1 secs

     total energy              =   -2399.93748682 Ry
     estimated scf accuracy    <       0.03489275 Ry

     iteration #  4     ecut=    40.00 Ry     beta= 0.50
     Davidson diagonalization with overlap
     ethr =  6.23E-05,  avg # of iterations =  2.7

     total cpu time spent up to now is       45.2 secs

     total energy              =   -2399.94023900 Ry
     estimated scf accuracy    <       0.00868152 Ry

     iteration #  5     ecut=    40.00 Ry     beta= 0.50
     Davidson diagonalization with overlap
     ethr =  1.55E-05,  avg # of iterations =  2.0

     total cpu time spent up to now is       46.1 secs

     total energy              =   -2399.94060361 Ry
     estimated scf accuracy    <       0.00482183 Ry

     iteration #  6     ecut=    40.00 Ry     beta= 0.50
     Davidson diagonalization with overlap
     ethr =  8.61E-06,  avg # of iterations =  1.3

     total cpu time spent up to now is       47.0 secs

     total energy              =   -2399.94070857 Ry
     estimated scf accuracy    <       0.00380073 Ry

     iteration #  7     ecut=    40.00 Ry     beta= 0.50
     Davidson diagonalization with overlap
     ethr =  6.79E-06,  avg # of iterations =  1.0

     total cpu time spent up to now is       47.9 secs

     total energy              =   -2399.94012385 Ry
     estimated scf accuracy    <       0.00357977 Ry

     iteration #  8     ecut=    40.00 Ry     beta= 0.50
     Davidson diagonalization with overlap
     ethr =  6.39E-06,  avg # of iterations =  1.8

     total cpu time spent up to now is       48.9 secs

     total energy              =   -2399.93988367 Ry
     estimated scf accuracy    <       0.00140851 Ry

     iteration #  9     ecut=    40.00 Ry     beta= 0.50
     Davidson diagonalization with overlap
     ethr =  2.52E-06,  avg # of iterations =  4.2

     total cpu time spent up to now is       50.1 secs

     total energy              =   -2399.94027888 Ry
     estimated scf accuracy    <       0.00008432 Ry

     iteration # 10     ecut=    40.00 Ry     beta= 0.50
     Davidson diagonalization with overlap
     ethr =  1.51E-07,  avg # of iterations =  3.5

     total cpu time spent up to now is       51.2 secs

     total energy              =   -2399.94030824 Ry
     estimated scf accuracy    <       0.00008031 Ry

     iteration # 11     ecut=    40.00 Ry     beta= 0.50
     Davidson diagonalization with overlap
     ethr =  1.43E-07,  avg # of iterations =  5.2

     total cpu time spent up to now is       52.5 secs

     total energy              =   -2399.94036102 Ry
     estimated scf accuracy    <       0.00015498 Ry

     iteration # 12     ecut=    40.00 Ry     beta= 0.50
     Davidson diagonalization with overlap
     ethr =  1.43E-07,  avg # of iterations =  1.2

     total cpu time spent up to now is       53.3 secs

     total energy              =   -2399.94036695 Ry
     estimated scf accuracy    <       0.00016906 Ry

     iteration # 13     ecut=    40.00 Ry     beta= 0.50
     Davidson diagonalization with overlap
     ethr =  1.43E-07,  avg # of iterations =  1.0

     total cpu time spent up to now is       54.2 secs

     total energy              =   -2399.94034079 Ry
     estimated scf accuracy    <       0.00018498 Ry

     iteration # 14     ecut=    40.00 Ry     beta= 0.50
     Davidson diagonalization with overlap
     ethr =  1.43E-07,  avg # of iterations =  1.0

     total cpu time spent up to now is       55.1 secs

     total energy              =   -2399.94031108 Ry
     estimated scf accuracy    <       0.00012735 Ry

     iteration # 15     ecut=    40.00 Ry     beta= 0.50
     Davidson diagonalization with overlap
     ethr =  1.43E-07,  avg # of iterations =  2.7

     total cpu time spent up to now is       56.2 secs

     total energy              =   -2399.94032686 Ry
     estimated scf accuracy    <       0.00006641 Ry

     iteration # 16     ecut=    40.00 Ry     beta= 0.50
     Davidson diagonalization with overlap
     ethr =  1.19E-07,  avg # of iterations =  2.0

     total cpu time spent up to now is       57.4 secs

     total energy              =   -2399.94034998 Ry
     estimated scf accuracy    <       0.00008863 Ry

     iteration # 17     ecut=    40.00 Ry     beta= 0.50
     Davidson diagonalization with overlap
     ethr =  1.19E-07,  avg # of iterations =  1.0

     total cpu time spent up to now is       58.2 secs

     total energy              =   -2399.94033116 Ry
     estimated scf accuracy    <       0.00011215 Ry

     iteration # 18     ecut=    40.00 Ry     beta= 0.50
     Davidson diagonalization with overlap
     ethr =  1.19E-07,  avg # of iterations =  1.0

     total cpu time spent up to now is       59.1 secs

     total energy              =   -2399.94027477 Ry
     estimated scf accuracy    <       0.00007771 Ry

     iteration # 19     ecut=    40.00 Ry     beta= 0.50
     Davidson diagonalization with overlap
     ethr =  1.19E-07,  avg # of iterations =  3.2

     total cpu time spent up to now is       60.3 secs

     total energy              =   -2399.94030310 Ry
     estimated scf accuracy    <       0.00000713 Ry

     iteration # 20     ecut=    40.00 Ry     beta= 0.50
     Davidson diagonalization with overlap
     ethr =  1.27E-08,  avg # of iterations =  2.8

     total cpu time spent up to now is       61.4 secs

     total energy              =   -2399.94030400 Ry
     estimated scf accuracy    <       0.00000058 Ry

     iteration # 21     ecut=    40.00 Ry     beta= 0.50
     Davidson diagonalization with overlap
     ethr =  1.03E-09,  avg # of iterations =  4.7

     total cpu time spent up to now is       62.5 secs

     End of self-consistent calculation

          k = 0.0000 0.0000 0.0000 (  7857 PWs)   bands (ev):

   -17.8859 -17.8849 -17.8736 -17.8721 -17.8580 -17.8580 -17.8574 -17.8568
   -17.8567 -17.8567  -9.0724  -8.4869  -8.4869  -8.3528  -3.8445  -1.7518
     0.1634   0.1634   0.7039   1.0179   1.6130   1.6967   1.9743   1.9743
     2.4105   2.4105   2.8077   3.3888

     occupation numbers 
     1.0000   1.0000   1.0000   1.0000   1.0000   1.0000   1.0000   1.0000
     1.0000   1.0000   1.0000   1.0000   1.0000   1.0000   1.0000   1.0000
     1.0000   1.0000   1.0000   1.0000   1.0000   1.0000   1.0000   1.0000
     1.0000   1.0000   1.0000   1.0000

          k = 0.0000 0.0000-0.8220 (  7906 PWs)   bands (ev):

   -17.8838 -17.8838 -17.8732 -17.8732 -17.8650 -17.8650 -17.8608 -17.8608
   -17.8518 -17.8518  -8.5506  -8.5506  -8.3456  -8.3456  -3.3619  -3.3619
     0.2397   0.2397   0.2424   0.2424   0.8431   0.8431   1.9073   1.9073
     1.9701   1.9701   2.8594   2.8594

     occupation numbers 
     1.0000   1.0000   1.0000   1.0000   1.0000   1.0000   1.0000   1.0000
     1.0000   1.0000   1.0000   1.0000   1.0000   1.0000   1.0000   1.0000
     1.0000   1.0000   1.0000   1.0000   1.0000   1.0000   1.0000   1.0000
     1.0000   1.0000   1.0000   1.0000

          k = 0.0000-0.5083 0.0000 (  7870 PWs)   bands (ev):

   -17.8842 -17.8842 -17.8732 -17.8732 -17.8610 -17.8610 -17.8591 -17.8591
   -17.8554 -17.8554  -8.8330  -8.8330  -8.3876  -8.3876  -3.0269  -3.0269
     0.6878   0.6878   1.0720   1.0720   1.4122   1.4122   2.0717   2.0717
     2.2689   2.2689   2.6141   2.6141

     occupation numbers 
     1.0000   1.0000   1.0000   1.0000   1.0000   1.0000   1.0000   1.0000
     1.0000   1.0000   1.0000   1.0000   1.0000   1.0000   1.0000   1.0000
     1.0000   1.0000   1.0000   1.0000   1.0000   1.0000   1.0000   1.0000
     1.0000   1.0000   1.0000   1.0000

          k = 0.0000-0.5083-0.8220 (  7868 PWs)   bands (ev):

   -17.8829 -17.8829 -17.8718 -17.8718 -17.8646 -17.8646 -17.8604 -17.8604
   -17.8512 -17.8512  -8.5256  -8.5256  -8.3715  -8.3715  -3.3374  -3.3374
    -0.4085  -0.4085   0.2882   0.2882   1.5071   1.5071   2.0863   2.0863
     2.1814   2.1814   3.1296   3.1296

     occupation numbers 
     1.0000   1.0000   1.0000   1.0000   1.0000   1.0000   1.0000   1.0000
     1.0000   1.0000   1.0000   1.0000   1.0000   1.0000   1.0000   1.0000
     1.0000   1.0000   1.0000   1.0000   1.0000   1.0000   1.0000   1.0000
     1.0000   1.0000   1.0000   1.0000

          k =-0.5083-0.5083 0.0000 (  7864 PWs)   bands (ev):

   -17.8847 -17.8847 -17.8724 -17.8724 -17.8606 -17.8606 -17.8594 -17.8594
   -17.8544 -17.8544  -8.7385  -8.7385  -8.5028  -8.5028  -2.9082  -2.9082
     0.3563   0.3563   1.1457   1.1457   1.6902   1.6902   1.9457   1.9457
     2.0534   2.0534   2.6759   2.6759

     occupation numbers 
     1.0000   1.0000   1.0000   1.0000   1.0000   1.0000   1.0000   1.0000
     1.0000   1.0000   1.0000   1.0000   1.0000   1.0000   1.0000   1.0000
     1.0000   1.0000   1.0000   1.0000   1.0000   1.0000   1.0000   1.0000
     1.0000   1.0000   1.0000   1.0000

          k =-0.5083-0.5083-0.8220 (  7856 PWs)   bands (ev):

   -17.8837 -17.8837 -17.8702 -17.8702 -17.8642 -17.8642 -17.8601 -17.8601
   -17.8511 -17.8511  -8.5328  -8.5328  -8.3585  -8.3585  -3.4416  -3.4416
     0.0039   0.0039   0.6001   0.6001   0.8754   0.8754   2.1968   2.1968
     2.2167   2.2167   2.4758   2.4758

     occupation numbers 
     1.0000   1.0000   1.0000   1.0000   1.0000   1.0000   1.0000   1.0000
     1.0000   1.0000   1.0000   1.0000   1.0000   1.0000   1.0000   1.0000
     1.0000   1.0000   1.0000   1.0000   1.0000   1.0000   1.0000   1.0000
     1.0000   1.0000   1.0000   1.0000

     highest occupied level (ev):     3.3888

!    total energy              =   -2399.94030417 Ry

     total all-electron energy =    -81641.185652 Ry
     estimated scf accuracy    <       0.00000013 Ry

     The total energy is the sum of the following terms:
     one-electron contribution =    -198.57394652 Ry
     hartree contribution      =     128.41510049 Ry
     xc contribution           =    -159.12550756 Ry
     ewald contribution        =    -222.86775117 Ry
     one-center paw contrib.   =   -1947.78819941 Ry
      -> PAW hartree energy AE =     108.82451934 Ry
      -> PAW hartree energy PS =    -108.05701118 Ry
      -> PAW xc energy AE      =    -328.98563841 Ry
      -> PAW xc energy PS      =      47.28852721 Ry
      -> total E_H with PAW    =     129.18260864 Ry
      -> total E_XC with PAW   =    -440.82261875 Ry

     convergence has been achieved in  21 iterations

     Forces acting on atoms (cartesian axes, Ry/au):

     atom    1 type  1   force =     0.00000000    0.00000000    0.00000000
     atom    2 type  1   force =     0.00000000    0.00000000    0.00000000
     atom    3 type  2   force =     0.00115000    0.00115000   -0.00000000
     atom    4 type  2   force =    -0.00115000   -0.00115000    0.00000000
     atom    5 type  2   force =     0.00115000   -0.00115000    0.00000000
     atom    6 type  2   force =    -0.00115000    0.00115000    0.00000000
     The non-local contrib.  to forces
     atom    1 type  1   force =     0.00000000    0.00000000   -0.00000000
     atom    2 type  1   force =     0.00000000    0.00000000    0.00000000
     atom    3 type  2   force =     0.01442172    0.01442172    0.00000000
     atom    4 type  2   force =    -0.01442172   -0.01442172   -0.00000000
     atom    5 type  2   force =     0.01442172   -0.01442172    0.00000000
     atom    6 type  2   force =    -0.01442172    0.01442172   -0.00000000
     The ionic contribution  to forces
     atom    1 type  1   force =     0.00000000    0.00000000    0.00000000
     atom    2 type  1   force =     0.00000000    0.00000000   -0.00000000
     atom    3 type  2   force =    -0.93450681   -0.93450681    0.00000000
     atom    4 type  2   force =     0.93450681    0.93450681    0.00000000
     atom    5 type  2   force =    -0.93450681    0.93450681    0.00000000
     atom    6 type  2   force =     0.93450681   -0.93450681    0.00000000
     The local contribution  to forces
     atom    1 type  1   force =     0.00000000    0.00000000    0.00000000
     atom    2 type  1   force =    -0.00000000   -0.00000000    0.00000000
     atom    3 type  2   force =     0.92319724    0.92319724    0.00000000
     atom    4 type  2   force =    -0.92319724   -0.92319724    0.00000000
     atom    5 type  2   force =     0.92319724   -0.92319724   -0.00000000
     atom    6 type  2   force =    -0.92319724    0.92319724   -0.00000000
     The core correction contribution to forces
     atom    1 type  1   force =     0.00000000    0.00000000    0.00000000
     atom    2 type  1   force =    -0.00000000   -0.00000000    0.00000000
     atom    3 type  2   force =    -0.00182263   -0.00182263    0.00000000
     atom    4 type  2   force =     0.00182263    0.00182263    0.00000000
     atom    5 type  2   force =    -0.00182263    0.00182263   -0.00000000
     atom    6 type  2   force =     0.00182263   -0.00182263   -0.00000000
     The Hubbard contrib.    to forces
     atom    1 type  1   force =     0.00000000    0.00000000    0.00000000
     atom    2 type  1   force =     0.00000000    0.00000000    0.00000000
     atom    3 type  2   force =     0.00000000    0.00000000    0.00000000
     atom    4 type  2   force =     0.00000000    0.00000000    0.00000000
     atom    5 type  2   force =     0.00000000    0.00000000    0.00000000
     atom    6 type  2   force =     0.00000000    0.00000000    0.00000000
     The SCF correction term to forces
     atom    1 type  1   force =     0.00000000   -0.00000000   -0.00000000
     atom    2 type  1   force =    -0.00000000   -0.00000000    0.00000000
     atom    3 type  2   force =    -0.00013952   -0.00013952    0.00000000
     atom    4 type  2   force =     0.00013952    0.00013952    0.00000000
     atom    5 type  2   force =    -0.00013952    0.00013952    0.00000000
     atom    6 type  2   force =     0.00013952   -0.00013952    0.00000000

     Total force =     0.003253     Total SCF correction =     0.000395
     SCF correction compared to forces is large: reduce conv_thr to get better values


     Computing stress (Cartesian axis) and pressure

          total   stress  (Ry/bohr**3)                   (kbar)     P=      -10.53
  -0.00009183   0.00000000   0.00000000          -13.51        0.00        0.00
   0.00000000  -0.00009183   0.00000000            0.00      -13.51        0.00
   0.00000000   0.00000000  -0.00003103            0.00        0.00       -4.56

     kinetic stress (kbar)   7668.25      0.00      0.00
                                0.00   7668.25      0.00
                                0.00      0.00   7654.96

     local   stress (kbar)  -1346.67      0.00     -0.00
                                0.00  -1346.67     -0.00
                               -0.00     -0.00  -6034.60

     nonloc. stress (kbar)     94.17      0.00      0.00
                                0.00     94.17      0.00
                                0.00      0.00     96.97

     hartree stress (kbar)   2901.51     -0.00      0.00
                               -0.00   2901.51     -0.00
                                0.00     -0.00   4899.98

     exc-cor stress (kbar)   6438.82     -0.00      0.00
                               -0.00   6438.82     -0.00
                                0.00     -0.00   6440.21

     corecor stress (kbar)  -8675.54     -0.00     -0.00
                               -0.00  -8675.54     -0.00
                               -0.00     -0.00  -8674.84

     ewald   stress (kbar)  -7094.04      0.00     -0.00
                                0.00  -7094.04     -0.00
                               -0.00     -0.00  -4387.24

     hubbard stress (kbar)      0.00      0.00      0.00
                                0.00      0.00      0.00
                                0.00      0.00      0.00

     DFT-D   stress (kbar)      0.00      0.00      0.00
                                0.00      0.00      0.00
                                0.00      0.00      0.00

     XDM     stress (kbar)      0.00      0.00      0.00
                                0.00      0.00      0.00
                                0.00      0.00      0.00

     dft-nl  stress (kbar)      0.00      0.00      0.00
                                0.00      0.00      0.00
                                0.00      0.00      0.00

     TS-vdW  stress (kbar)      0.00      0.00      0.00
                                0.00      0.00      0.00
                                0.00      0.00      0.00


     Energy error            =      6.0E-03
     Gradient error          =      1.2E-03
     Cell gradient error     =      9.2E-05


     number of scf cycles    =   3
     number of bfgs steps    =   2

     enthalpy old            =   -2399.9343431878 Ry
     enthalpy new            =   -2399.9403041705 Ry

     CASE: enthalpy_new < enthalpy_old

     new trust radius        =       0.0688643981 bohr
     new conv_thr            =       0.0000001150 Ry

     new unit-cell volume =   1728.97423 a.u.^3 (   256.20755 Ang^3 )
     density =      4.82851 g/cm^3

CELL_PARAMETERS (angstrom)
   7.444949674   0.000000000   0.000000000
   0.000000000   7.444949674   0.000000000
   0.000000000   0.000000000   4.622409187

ATOMIC_POSITIONS (crystal)
Sn            0.0000000000        0.0000000000        0.0000000000
Sn            0.5000000000        0.5000000000        0.5000000000
I             0.2993028274        0.2993028274       -0.0000000000
I             0.7006971726        0.7006971726       -0.0000000000
I             0.7993028274        0.2006971726        0.5000000000
I             0.2006971726        0.7993028274        0.5000000000



     Writing output data file ./out/SnI2tetr.save/
     NEW-OLD atomic charge density approx. for the potential

     Check: negative core charge=   -0.000002
     extrapolated charge   54.83405, renormalised to   56.00000

     total cpu time spent up to now is       66.4 secs

     Self-consistent Calculation

     iteration #  1     ecut=    40.00 Ry     beta= 0.50
     Davidson diagonalization with overlap
     ethr =  1.00E-06,  avg # of iterations =  8.5

     total cpu time spent up to now is       68.8 secs

     total energy              =   -2399.83898318 Ry
     estimated scf accuracy    <       0.07540209 Ry

     iteration #  2     ecut=    40.00 Ry     beta= 0.50
     Davidson diagonalization with overlap
     ethr =  1.35E-04,  avg # of iterations =  4.2

     total cpu time spent up to now is       70.3 secs

     total energy              =   -2399.94336613 Ry
     estimated scf accuracy    <       0.06856427 Ry

     iteration #  3     ecut=    40.00 Ry     beta= 0.50
     Davidson diagonalization with overlap
     ethr =  1.22E-04,  avg # of iterations =  1.5

     total cpu time spent up to now is       71.2 secs

     total energy              =   -2399.94050782 Ry
     estimated scf accuracy    <       0.02035906 Ry

     iteration #  4     ecut=    40.00 Ry     beta= 0.50
     Davidson diagonalization with overlap
     ethr =  3.64E-05,  avg # of iterations =  2.7

     total cpu time spent up to now is       72.2 secs

     total energy              =   -2399.94192502 Ry
     estimated scf accuracy    <       0.00538158 Ry

     iteration #  5     ecut=    40.00 Ry     beta= 0.50
     Davidson diagonalization with overlap
     ethr =  9.61E-06,  avg # of iterations =  2.0

     total cpu time spent up to now is       73.1 secs

     total energy              =   -2399.94209079 Ry
     estimated scf accuracy    <       0.00307548 Ry

     iteration #  6     ecut=    40.00 Ry     beta= 0.50
     Davidson diagonalization with overlap
     ethr =  5.49E-06,  avg # of iterations =  1.3

     total cpu time spent up to now is       74.0 secs

     total energy              =   -2399.94207916 Ry
     estimated scf accuracy    <       0.00236329 Ry

     iteration #  7     ecut=    40.00 Ry     beta= 0.50
     Davidson diagonalization with overlap
     ethr =  4.22E-06,  avg # of iterations =  1.0

     total cpu time spent up to now is       74.9 secs

     total energy              =   -2399.94176751 Ry
     estimated scf accuracy    <       0.00210331 Ry

     iteration #  8     ecut=    40.00 Ry     beta= 0.50
     Davidson diagonalization with overlap
     ethr =  3.76E-06,  avg # of iterations =  2.0

     total cpu time spent up to now is       75.9 secs

     total energy              =   -2399.94172070 Ry
     estimated scf accuracy    <       0.00067446 Ry

     iteration #  9     ecut=    40.00 Ry     beta= 0.50
     Davidson diagonalization with overlap
     ethr =  1.20E-06,  avg # of iterations =  4.0

     total cpu time spent up to now is       77.1 secs

     total energy              =   -2399.94188537 Ry
     estimated scf accuracy    <       0.00005345 Ry

     iteration # 10     ecut=    40.00 Ry     beta= 0.50
     Davidson diagonalization with overlap
     ethr =  9.54E-08,  avg # of iterations =  2.8

     total cpu time spent up to now is       78.1 secs

     total energy              =   -2399.94188370 Ry
     estimated scf accuracy    <       0.00004451 Ry

     iteration # 11     ecut=    40.00 Ry     beta= 0.50
     Davidson diagonalization with overlap
     ethr =  7.95E-08,  avg # of iterations =  2.0

     total cpu time spent up to now is       79.1 secs

     total energy              =   -2399.94188272 Ry
     estimated scf accuracy    <       0.00001898 Ry

     iteration # 12     ecut=    40.00 Ry     beta= 0.50
     Davidson diagonalization with overlap
     ethr =  3.39E-08,  avg # of iterations =  3.8

     total cpu time spent up to now is       80.3 secs

     total energy              =   -2399.94189104 Ry
     estimated scf accuracy    <       0.00000700 Ry

     iteration # 13     ecut=    40.00 Ry     beta= 0.50
     Davidson diagonalization with overlap
     ethr =  1.25E-08,  avg # of iterations =  3.8

     total cpu time spent up to now is       81.5 secs

     total energy              =   -2399.94189819 Ry
     estimated scf accuracy    <       0.00002044 Ry

     iteration # 14     ecut=    40.00 Ry     beta= 0.50
     Davidson diagonalization with overlap
     ethr =  1.25E-08,  avg # of iterations =  2.3

     total cpu time spent up to now is       82.5 secs

     total energy              =   -2399.94189121 Ry
     estimated scf accuracy    <       0.00002947 Ry

     iteration # 15     ecut=    40.00 Ry     beta= 0.50
     Davidson diagonalization with overlap
     ethr =  1.25E-08,  avg # of iterations =  2.2

     total cpu time spent up to now is       83.5 secs

     total energy              =   -2399.94189481 Ry
     estimated scf accuracy    <       0.00001618 Ry

     iteration # 16     ecut=    40.00 Ry     beta= 0.50
     Davidson diagonalization with overlap
     ethr =  1.25E-08,  avg # of iterations =  1.0

     total cpu time spent up to now is       84.4 secs

     total energy              =   -2399.94190063 Ry
     estimated scf accuracy    <       0.00002205 Ry

     iteration # 17     ecut=    40.00 Ry     beta= 0.50
     Davidson diagonalization with overlap
     ethr =  1.25E-08,  avg # of iterations =  2.3

     total cpu time spent up to now is       85.4 secs

     total energy              =   -2399.94190798 Ry
     estimated scf accuracy    <       0.00003917 Ry

     iteration # 18     ecut=    40.00 Ry     beta= 0.50
     Davidson diagonalization with overlap
     ethr =  1.25E-08,  avg # of iterations =  2.2

     total cpu time spent up to now is       86.4 secs

     total energy              =   -2399.94185837 Ry
     estimated scf accuracy    <       0.00005808 Ry

     iteration # 19     ecut=    40.00 Ry     beta= 0.50
     Davidson diagonalization with overlap
     ethr =  1.25E-08,  avg # of iterations =  5.3

     total cpu time spent up to now is       88.0 secs

     total energy              =   -2399.94191676 Ry
     estimated scf accuracy    <       0.00008377 Ry

     iteration # 20     ecut=    40.00 Ry     beta= 0.50
     Davidson diagonalization with overlap
     ethr =  1.25E-08,  avg # of iterations =  1.0

     total cpu time spent up to now is       88.9 secs

     total energy              =   -2399.94187164 Ry
     estimated scf accuracy    <       0.00008274 Ry

     iteration # 21     ecut=    40.00 Ry     beta= 0.50
     Davidson diagonalization with overlap
     ethr =  1.25E-08,  avg # of iterations =  4.2

     total cpu time spent up to now is       90.2 secs

     total energy              =   -2399.94188695 Ry
     estimated scf accuracy    <       0.00000046 Ry

     iteration # 22     ecut=    40.00 Ry     beta= 0.50
     Davidson diagonalization with overlap
     ethr =  8.26E-10,  avg # of iterations =  4.2

     total cpu time spent up to now is       91.4 secs

     total energy              =   -2399.94188706 Ry
     estimated scf accuracy    <       0.00000018 Ry

     iteration # 23     ecut=    40.00 Ry     beta= 0.50
     Davidson diagonalization with overlap
     ethr =  3.23E-10,  avg # of iterations =  1.5

     total cpu time spent up to now is       92.3 secs

     total energy              =   -2399.94188701 Ry
     estimated scf accuracy    <       0.00000013 Ry

     iteration # 24     ecut=    40.00 Ry     beta= 0.50
     Davidson diagonalization with overlap
     ethr =  2.29E-10,  avg # of iterations =  4.0

     total cpu time spent up to now is       93.4 secs

     End of self-consistent calculation

          k = 0.0000 0.0000 0.0000 (  7857 PWs)   bands (ev):

   -17.6549 -17.6527 -17.6402 -17.6393 -17.6255 -17.6255 -17.6237 -17.6237
   -17.6236 -17.6232  -8.9570  -8.3347  -8.3347  -8.1928  -3.7061  -1.4927
     0.2928   0.2928   0.8219   1.1417   1.7766   1.8515   2.1403   2.1403
     2.5956   2.5956   3.0011   3.6259

     occupation numbers 
     1.0000   1.0000   1.0000   1.0000   1.0000   1.0000   1.0000   1.0000
     1.0000   1.0000   1.0000   1.0000   1.0000   1.0000   1.0000   1.0000
     1.0000   1.0000   1.0000   1.0000   1.0000   1.0000   1.0000   1.0000
     1.0000   1.0000   1.0000   1.0000

          k = 0.0000 0.0000-0.8254 (  7906 PWs)   bands (ev):

   -17.6520 -17.6520 -17.6401 -17.6401 -17.6335 -17.6335 -17.6266 -17.6266
   -17.6177 -17.6177  -8.4074  -8.4074  -8.1855  -8.1855  -3.2115  -3.2115
     0.3682   0.3682   0.3764   0.3764   0.9925   0.9925   2.0582   2.0582
     2.1265   2.1265   3.0948   3.0948

     occupation numbers 
     1.0000   1.0000   1.0000   1.0000   1.0000   1.0000   1.0000   1.0000
     1.0000   1.0000   1.0000   1.0000   1.0000   1.0000   1.0000   1.0000
     1.0000   1.0000   1.0000   1.0000   1.0000   1.0000   1.0000   1.0000
     1.0000   1.0000   1.0000   1.0000

          k = 0.0000-0.5125 0.0000 (  7870 PWs)   bands (ev):

   -17.6529 -17.6529 -17.6401 -17.6401 -17.6279 -17.6279 -17.6257 -17.6257
   -17.6220 -17.6220  -8.7042  -8.7042  -8.2286  -8.2286  -2.8529  -2.8529
     0.8305   0.8305   1.2027   1.2027   1.5698   1.5698   2.2422   2.2422
     2.4736   2.4736   2.8153   2.8153

     occupation numbers 
     1.0000   1.0000   1.0000   1.0000   1.0000   1.0000   1.0000   1.0000
     1.0000   1.0000   1.0000   1.0000   1.0000   1.0000   1.0000   1.0000
     1.0000   1.0000   1.0000   1.0000   1.0000   1.0000   1.0000   1.0000
     1.0000   1.0000   1.0000   1.0000

          k = 0.0000-0.5125-0.8254 (  7868 PWs)   bands (ev):

   -17.6514 -17.6514 -17.6390 -17.6390 -17.6331 -17.6331 -17.6263 -17.6263
   -17.6173 -17.6173  -8.3803  -8.3803  -8.2135  -8.2135  -3.1836  -3.1836
    -0.2981  -0.2981   0.4150   0.4150   1.6577   1.6577   2.2702   2.2702
     2.3492   2.3492   3.3786   3.3786

     occupation numbers 
     1.0000   1.0000   1.0000   1.0000   1.0000   1.0000   1.0000   1.0000
     1.0000   1.0000   1.0000   1.0000   1.0000   1.0000   1.0000   1.0000
     1.0000   1.0000   1.0000   1.0000   1.0000   1.0000   1.0000   1.0000
     1.0000   1.0000   1.0000   1.0000

          k =-0.5125-0.5125 0.0000 (  7864 PWs)   bands (ev):

   -17.6533 -17.6533 -17.6395 -17.6395 -17.6275 -17.6275 -17.6257 -17.6257
   -17.6213 -17.6213  -8.6041  -8.6041  -8.3522  -8.3522  -2.7208  -2.7208
     0.4930   0.4930   1.2793   1.2793   1.8458   1.8458   2.1096   2.1096
     2.2194   2.2194   2.8970   2.8970

     occupation numbers 
     1.0000   1.0000   1.0000   1.0000   1.0000   1.0000   1.0000   1.0000
     1.0000   1.0000   1.0000   1.0000   1.0000   1.0000   1.0000   1.0000
     1.0000   1.0000   1.0000   1.0000   1.0000   1.0000   1.0000   1.0000
     1.0000   1.0000   1.0000   1.0000

          k =-0.5125-0.5125-0.8254 (  7856 PWs)   bands (ev):

   -17.6520 -17.6520 -17.6378 -17.6378 -17.6329 -17.6329 -17.6261 -17.6261
   -17.6171 -17.6171  -8.3876  -8.3876  -8.1997  -8.1997  -3.2999  -3.2999
     0.1165   0.1165   0.7590   0.7590   1.0270   1.0270   2.3663   2.3663
     2.3873   2.3873   2.6925   2.6925

     occupation numbers 
     1.0000   1.0000   1.0000   1.0000   1.0000   1.0000   1.0000   1.0000
     1.0000   1.0000   1.0000   1.0000   1.0000   1.0000   1.0000   1.0000
     1.0000   1.0000   1.0000   1.0000   1.0000   1.0000   1.0000   1.0000
     1.0000   1.0000   1.0000   1.0000

     highest occupied level (ev):     3.6259

!    total energy              =   -2399.94188705 Ry

     total all-electron energy =    -81641.187235 Ry
     estimated scf accuracy    <       0.00000002 Ry

     The total energy is the sum of the following terms:
     one-electron contribution =    -196.11531267 Ry
     hartree contribution      =     127.60591713 Ry
     xc contribution           =    -159.17296968 Ry
     ewald contribution        =    -224.46417491 Ry
     one-center paw contrib.   =   -1947.79534693 Ry
      -> PAW hartree energy AE =     108.89943153 Ry
      -> PAW hartree energy PS =    -108.13343269 Ry
      -> PAW xc energy AE      =    -328.99150338 Ry
      -> PAW xc energy PS      =      47.29373892 Ry
      -> total E_H with PAW    =     128.37191597 Ry
      -> total E_XC with PAW   =    -440.87073414 Ry

     convergence has been achieved in  24 iterations

     Forces acting on atoms (cartesian axes, Ry/au):

     atom    1 type  1   force =     0.00000000    0.00000000    0.00000000
     atom    2 type  1   force =     0.00000000    0.00000000   -0.00000000
     atom    3 type  2   force =     0.00035201    0.00035201    0.00000000
     atom    4 type  2   force =    -0.00035201   -0.00035201    0.00000000
     atom    5 type  2   force =     0.00035201   -0.00035201   -0.00000000
     atom    6 type  2   force =    -0.00035201    0.00035201   -0.00000000
     The non-local contrib.  to forces
     atom    1 type  1   force =     0.00000000    0.00000000    0.00000000
[...]
        k(    3) = (   0.0000000  -0.5151012   0.0000000), wk =   0.5000000
        k(    4) = (   0.0000000  -0.5151012  -0.8173994), wk =   0.5000000
        k(    5) = (  -0.5151012  -0.5151012   0.0000000), wk =   0.2500000
        k(    6) = (  -0.5151012  -0.5151012  -0.8173994), wk =   0.2500000

                       cryst. coord.
        k(    1) = (   0.0000000   0.0000000   0.0000000), wk =   0.2500000
        k(    2) = (   0.0000000   0.0000000  -0.5000000), wk =   0.2500000
        k(    3) = (   0.0000000  -0.5000000   0.0000000), wk =   0.5000000
        k(    4) = (   0.0000000  -0.5000000  -0.5000000), wk =   0.5000000
        k(    5) = (  -0.5000000  -0.5000000   0.0000000), wk =   0.2500000
        k(    6) = (  -0.5000000  -0.5000000  -0.5000000), wk =   0.2500000

     Dense  grid:    59063 G-vectors     FFT dimensions: (  60,  60,  36)

     Dynamical RAM for                 wfc:       0.17 MB

     Dynamical RAM for     wfc (w. buffer):       1.16 MB

     Dynamical RAM for           str. fact:       0.09 MB

     Dynamical RAM for           local pot:       0.05 MB

     Dynamical RAM for          nlocal pot:       0.64 MB

     Dynamical RAM for                qrad:       4.06 MB

     Dynamical RAM for          rho,v,vnew:       0.31 MB

     Dynamical RAM for               rhoin:       0.10 MB

     Dynamical RAM for            rho*nmix:       0.76 MB

     Dynamical RAM for           G-vectors:       0.20 MB

     Dynamical RAM for          h,s,v(r/c):       0.14 MB

     Dynamical RAM for          <psi|beta>:       0.05 MB

     Dynamical RAM for                 psi:       0.33 MB

     Dynamical RAM for                hpsi:       0.33 MB

     Dynamical RAM for                spsi:       0.33 MB

     Dynamical RAM for      wfcinit/wfcrot:       0.43 MB

     Dynamical RAM for           addusdens:       9.01 MB

     Dynamical RAM for          addusforce:       9.34 MB

     Dynamical RAM for         addusstress:       9.54 MB

     Estimated static dynamical RAM per process >       7.80 MB

     Estimated max dynamical RAM per process >      17.33 MB

     Estimated total dynamical RAM >     329.32 MB

     Check: negative core charge=   -0.000001

     Initial potential from superposition of free atoms

     starting charge   55.99693, renormalised to   56.00000
     Starting wfcs are   34 randomized atomic wfcs
     Checking if some PAW data can be deallocated... 
       PAW data deallocated on   12 nodes for type:  1
       PAW data deallocated on    7 nodes for type:  2

     total cpu time spent up to now is      240.5 secs

     Self-consistent Calculation

     iteration #  1     ecut=    40.00 Ry     beta= 0.50
     Davidson diagonalization with overlap
     ethr =  1.00E-06,  avg # of iterations =  9.0

     total cpu time spent up to now is      243.0 secs

     total energy              =   -2399.89951677 Ry
     estimated scf accuracy    <       0.09375059 Ry

     iteration #  2     ecut=    40.00 Ry     beta= 0.50
     Davidson diagonalization with overlap
     ethr =  1.67E-04,  avg # of iterations =  2.2

     total cpu time spent up to now is      244.0 secs

     total energy              =   -2399.92127886 Ry
     estimated scf accuracy    <       0.00498018 Ry

     iteration #  3     ecut=    40.00 Ry     beta= 0.50
     Davidson diagonalization with overlap
     ethr =  8.89E-06,  avg # of iterations =  2.0

     total cpu time spent up to now is      245.0 secs

     total energy              =   -2399.92204105 Ry
     estimated scf accuracy    <       0.00103417 Ry

     iteration #  4     ecut=    40.00 Ry     beta= 0.50
     Davidson diagonalization with overlap
     ethr =  1.85E-06,  avg # of iterations =  3.3

     total cpu time spent up to now is      246.1 secs

     total energy              =   -2399.92219884 Ry
     estimated scf accuracy    <       0.00014797 Ry

     iteration #  5     ecut=    40.00 Ry     beta= 0.50
     Davidson diagonalization with overlap
     ethr =  2.64E-07,  avg # of iterations =  3.8

     total cpu time spent up to now is      247.2 secs

     total energy              =   -2399.92223096 Ry
     estimated scf accuracy    <       0.00000403 Ry

     iteration #  6     ecut=    40.00 Ry     beta= 0.50
     Davidson diagonalization with overlap
     ethr =  7.20E-09,  avg # of iterations =  4.3

     total cpu time spent up to now is      248.4 secs

     total energy              =   -2399.92223260 Ry
     estimated scf accuracy    <       0.00000172 Ry

     iteration #  7     ecut=    40.00 Ry     beta= 0.50
     Davidson diagonalization with overlap
     ethr =  3.06E-09,  avg # of iterations =  3.2

     total cpu time spent up to now is      249.4 secs

     total energy              =   -2399.92223305 Ry
     estimated scf accuracy    <       0.00000003 Ry

     iteration #  8     ecut=    40.00 Ry     beta= 0.50
     Davidson diagonalization with overlap
     ethr =  5.00E-11,  avg # of iterations =  4.8

     total cpu time spent up to now is      250.7 secs

     total energy              =   -2399.92223306 Ry
     estimated scf accuracy    <       0.00000002 Ry

     iteration #  9     ecut=    40.00 Ry     beta= 0.50
     Davidson diagonalization with overlap
     ethr =  3.01E-11,  avg # of iterations =  3.7

     total cpu time spent up to now is      251.8 secs

     End of self-consistent calculation

          k = 0.0000 0.0000 0.0000 (  7373 PWs)   bands (ev):

   -17.6360 -17.6352 -17.6210 -17.6198 -17.6138 -17.6138 -17.6095 -17.6095
   -17.6085 -17.6083  -8.9543  -8.3215  -8.3215  -8.1872  -3.6848  -1.4635
     0.3279   0.3279   0.7560   1.1537   1.7401   1.8013   2.1110   2.1110
     2.6096   2.6096   3.0026   3.5668

     occupation numbers 
     1.0000   1.0000   1.0000   1.0000   1.0000   1.0000   1.0000   1.0000
     1.0000   1.0000   1.0000   1.0000   1.0000   1.0000   1.0000   1.0000
     1.0000   1.0000   1.0000   1.0000   1.0000   1.0000   1.0000   1.0000
     1.0000   1.0000   1.0000   1.0000

          k = 0.0000 0.0000-0.8174 (  7354 PWs)   bands (ev):

   -17.6320 -17.6320 -17.6183 -17.6183 -17.6179 -17.6179 -17.6089 -17.6089
   -17.6016 -17.6016  -8.4132  -8.4132  -8.1811  -8.1811  -3.2154  -3.2154
     0.3915   0.3915   0.3932   0.3932   1.0109   1.0109   2.0551   2.0551
     2.1239   2.1239   3.1353   3.1353

     occupation numbers 
     1.0000   1.0000   1.0000   1.0000   1.0000   1.0000   1.0000   1.0000
     1.0000   1.0000   1.0000   1.0000   1.0000   1.0000   1.0000   1.0000
     1.0000   1.0000   1.0000   1.0000   1.0000   1.0000   1.0000   1.0000
     1.0000   1.0000   1.0000   1.0000

          k = 0.0000-0.5151 0.0000 (  7384 PWs)   bands (ev):

   -17.6354 -17.6354 -17.6224 -17.6224 -17.6132 -17.6132 -17.6087 -17.6087
   -17.6080 -17.6080  -8.6986  -8.6986  -8.2170  -8.2170  -2.8268  -2.8268
     0.8223   0.8223   1.1431   1.1431   1.5975   1.5975   2.2145   2.2145
     2.5086   2.5086   2.8056   2.8056

     occupation numbers 
     1.0000   1.0000   1.0000   1.0000   1.0000   1.0000   1.0000   1.0000
     1.0000   1.0000   1.0000   1.0000   1.0000   1.0000   1.0000   1.0000
     1.0000   1.0000   1.0000   1.0000   1.0000   1.0000   1.0000   1.0000
     1.0000   1.0000   1.0000   1.0000

          k = 0.0000-0.5151-0.8174 (  7400 PWs)   bands (ev):

   -17.6346 -17.6346 -17.6212 -17.6212 -17.6183 -17.6183 -17.6094 -17.6094
   -17.6046 -17.6046  -8.3855  -8.3855  -8.2101  -8.2101  -3.1853  -3.1853
    -0.2943  -0.2943   0.4339   0.4339   1.6663   1.6663   2.2931   2.2931
     2.3551   2.3551   3.4261   3.4261

     occupation numbers 
     1.0000   1.0000   1.0000   1.0000   1.0000   1.0000   1.0000   1.0000
     1.0000   1.0000   1.0000   1.0000   1.0000   1.0000   1.0000   1.0000
     1.0000   1.0000   1.0000   1.0000   1.0000   1.0000   1.0000   1.0000
     1.0000   1.0000   1.0000   1.0000

          k =-0.5151-0.5151 0.0000 (  7368 PWs)   bands (ev):

   -17.6344 -17.6344 -17.6221 -17.6221 -17.6123 -17.6123 -17.6083 -17.6083
   -17.6082 -17.6082  -8.5992  -8.5992  -8.3398  -8.3398  -2.6989  -2.6989
     0.5274   0.5274   1.2207   1.2207   1.8522   1.8522   2.0783   2.0783
     2.2388   2.2388   2.8558   2.8558

     occupation numbers 
     1.0000   1.0000   1.0000   1.0000   1.0000   1.0000   1.0000   1.0000
     1.0000   1.0000   1.0000   1.0000   1.0000   1.0000   1.0000   1.0000
     1.0000   1.0000   1.0000   1.0000   1.0000   1.0000   1.0000   1.0000
     1.0000   1.0000   1.0000   1.0000

          k =-0.5151-0.5151-0.8174 (  7400 PWs)   bands (ev):

   -17.6344 -17.6344 -17.6225 -17.6225 -17.6188 -17.6188 -17.6097 -17.6097
   -17.6038 -17.6038  -8.3925  -8.3925  -8.1961  -8.1961  -3.3056  -3.3056
     0.1301   0.1301   0.7755   0.7755   1.0462   1.0462   2.3685   2.3685
     2.3955   2.3955   2.7354   2.7354

     occupation numbers 
     1.0000   1.0000   1.0000   1.0000   1.0000   1.0000   1.0000   1.0000
     1.0000   1.0000   1.0000   1.0000   1.0000   1.0000   1.0000   1.0000
     1.0000   1.0000   1.0000   1.0000   1.0000   1.0000   1.0000   1.0000
     1.0000   1.0000   1.0000   1.0000

     highest occupied level (ev):     3.5668

!    total energy              =   -2399.92223306 Ry

     total all-electron energy =    -81641.167581 Ry
     estimated scf accuracy    <          2.7E-09 Ry

     The total energy is the sum of the following terms:
     one-electron contribution =    -195.62876090 Ry
     hartree contribution      =     127.37272927 Ry
     xc contribution           =    -159.16586088 Ry
     ewald contribution        =    -224.71236716 Ry
     one-center paw contrib.   =   -1947.78797339 Ry
      -> PAW hartree energy AE =     109.18413792 Ry
      -> PAW hartree energy PS =    -108.41668469 Ry
      -> PAW xc energy AE      =    -329.01040153 Ry
      -> PAW xc energy PS      =      47.31490598 Ry
      -> total E_H with PAW    =     128.14018250 Ry
      -> total E_XC with PAW   =    -440.86135643 Ry

     convergence has been achieved in   9 iterations

     Forces acting on atoms (cartesian axes, Ry/au):

     atom    1 type  1   force =     0.00000000    0.00000000   -0.00000000
     atom    2 type  1   force =     0.00000000    0.00000000   -0.00000000
     atom    3 type  2   force =     0.00002716    0.00002716    0.00000000
     atom    4 type  2   force =    -0.00002716   -0.00002716   -0.00000000
     atom    5 type  2   force =     0.00002716   -0.00002716   -0.00000000
     atom    6 type  2   force =    -0.00002716    0.00002716    0.00000000
     The non-local contrib.  to forces
     atom    1 type  1   force =     0.00000000    0.00000000   -0.00000000
     atom    2 type  1   force =     0.00000000    0.00000000   -0.00000000
     atom    3 type  2   force =     0.01381049    0.01381049    0.00000000
     atom    4 type  2   force =    -0.01381049   -0.01381049   -0.00000000
     atom    5 type  2   force =     0.01381049   -0.01381049   -0.00000000
     atom    6 type  2   force =    -0.01381049    0.01381049   -0.00000000
     The ionic contribution  to forces
     atom    1 type  1   force =     0.00000000    0.00000000   -0.00000000
     atom    2 type  1   force =     0.00000000    0.00000000    0.00000000
     atom    3 type  2   force =    -0.90120616   -0.90120616   -0.00000000
     atom    4 type  2   force =     0.90120616    0.90120616   -0.00000000
     atom    5 type  2   force =    -0.90120616    0.90120616    0.00000000
     atom    6 type  2   force =     0.90120616   -0.90120616    0.00000000
     The local contribution  to forces
     atom    1 type  1   force =     0.00000000    0.00000000    0.00000000
     atom    2 type  1   force =    -0.00000000   -0.00000000    0.00000000
     atom    3 type  2   force =     0.88921944    0.88921944    0.00000000
     atom    4 type  2   force =    -0.88921944   -0.88921944    0.00000000
     atom    5 type  2   force =     0.88921944   -0.88921944    0.00000000
     atom    6 type  2   force =    -0.88921944    0.88921944    0.00000000
     The core correction contribution to forces
     atom    1 type  1   force =     0.00000000    0.00000000   -0.00000000
     atom    2 type  1   force =    -0.00000000   -0.00000000    0.00000000
     atom    3 type  2   force =    -0.00179071   -0.00179071   -0.00000000
     atom    4 type  2   force =     0.00179071    0.00179071   -0.00000000
     atom    5 type  2   force =    -0.00179071    0.00179071   -0.00000000
     atom    6 type  2   force =     0.00179071   -0.00179071   -0.00000000
     The Hubbard contrib.    to forces
     atom    1 type  1   force =     0.00000000    0.00000000    0.00000000
     atom    2 type  1   force =     0.00000000    0.00000000    0.00000000
     atom    3 type  2   force =     0.00000000    0.00000000    0.00000000
     atom    4 type  2   force =     0.00000000    0.00000000    0.00000000
     atom    5 type  2   force =     0.00000000    0.00000000    0.00000000
     atom    6 type  2   force =     0.00000000    0.00000000    0.00000000
     The SCF correction term to forces
     atom    1 type  1   force =     0.00000000    0.00000000    0.00000000
     atom    2 type  1   force =    -0.00000000   -0.00000000   -0.00000000
     atom    3 type  2   force =    -0.00000590   -0.00000590    0.00000000
     atom    4 type  2   force =     0.00000590    0.00000590    0.00000000
     atom    5 type  2   force =    -0.00000590    0.00000590   -0.00000000
     atom    6 type  2   force =     0.00000590   -0.00000590    0.00000000

     Total force =     0.000077     Total SCF correction =     0.000017
     SCF correction compared to forces is large: reduce conv_thr to get better values


     Computing stress (Cartesian axis) and pressure

          total   stress  (Ry/bohr**3)                   (kbar)     P=      -19.57
  -0.00015433   0.00000000   0.00000000          -22.70        0.00        0.00
   0.00000000  -0.00015433   0.00000000            0.00      -22.70        0.00
   0.00000000   0.00000000  -0.00009035            0.00        0.00      -13.29

     kinetic stress (kbar)   7844.76      0.00      0.00
                                0.00   7844.76      0.00
                                0.00      0.00   7825.12

     local   stress (kbar)  -1300.29     -0.00     -0.00
                               -0.00  -1300.29     -0.00
                               -0.00     -0.00  -6076.12

     nonloc. stress (kbar)     79.94      0.00      0.00
                                0.00     79.94      0.00
                                0.00      0.00     85.46

     hartree stress (kbar)   2940.67     -0.00     -0.00
                               -0.00   2940.67      0.00
                               -0.00      0.00   4961.00

     exc-cor stress (kbar)   6574.90      0.00      0.00
                                0.00   6574.90     -0.00
                                0.00     -0.00   6576.52

     corecor stress (kbar)  -8861.16      0.00     -0.00
                                0.00  -8861.16     -0.00
                                0.00     -0.00  -8860.15

     ewald   stress (kbar)  -7301.52      0.00     -0.00
                                0.00  -7301.52     -0.00
                               -0.00     -0.00  -4525.12

     hubbard stress (kbar)      0.00      0.00      0.00
                                0.00      0.00      0.00
                                0.00      0.00      0.00

     DFT-D   stress (kbar)      0.00      0.00      0.00
                                0.00      0.00      0.00
                                0.00      0.00      0.00

     XDM     stress (kbar)      0.00      0.00      0.00
                                0.00      0.00      0.00
                                0.00      0.00      0.00

     dft-nl  stress (kbar)      0.00      0.00      0.00
                                0.00      0.00      0.00
                                0.00      0.00      0.00

     TS-vdW  stress (kbar)      0.00      0.00      0.00
                                0.00      0.00      0.00
                                0.00      0.00      0.00



     Writing output data file ./out/SnI2tetr.save/

     init_run     :      2.77s CPU      2.83s WALL (       2 calls)
     electrons    :    193.72s CPU    198.71s WALL (      14 calls)
     update_pot   :     13.14s CPU     13.19s WALL (      12 calls)
     forces       :      9.66s CPU      9.70s WALL (      14 calls)
     stress       :     25.61s CPU     25.66s WALL (      14 calls)

     Called by init_run:
     wfcinit      :      0.55s CPU      0.58s WALL (       2 calls)
     wfcinit:atom :      0.00s CPU      0.00s WALL (      12 calls)
     wfcinit:wfcr :      0.52s CPU      0.53s WALL (      12 calls)
     potinit      :      0.80s CPU      0.82s WALL (       2 calls)
     hinit0       :      1.20s CPU      1.20s WALL (       2 calls)

     Called by electrons:
     c_bands      :    129.11s CPU    132.91s WALL (     181 calls)
     sum_band     :     25.67s CPU     26.08s WALL (     181 calls)
     v_of_rho     :      2.08s CPU      2.10s WALL (     188 calls)
     v_h          :      0.13s CPU      0.13s WALL (     188 calls)
     v_xc         :      2.24s CPU      2.26s WALL (     216 calls)
     newd         :      9.75s CPU      9.79s WALL (     188 calls)
     PAW_pot      :     31.17s CPU     31.30s WALL (     200 calls)
     mix_rho      :      0.38s CPU      0.39s WALL (     181 calls)

     Called by c_bands:
     init_us_2    :      1.17s CPU      1.38s WALL (    2424 calls)
     cegterg      :    124.72s CPU    126.61s WALL (    1086 calls)

     Called by sum_band:
     sum_band:wei :      0.00s CPU      0.00s WALL (     181 calls)
     sum_band:loo :     15.95s CPU     16.30s WALL (     181 calls)
     sum_band:buf :      0.11s CPU      0.11s WALL (    1086 calls)
     sum_band:ini :      0.55s CPU      0.58s WALL (    1086 calls)
     sum_band:cal :      4.90s CPU      4.93s WALL (    1158 calls)
     sum_band:bec :      0.16s CPU      0.16s WALL (    1158 calls)
     addusdens    :      8.72s CPU      8.75s WALL (     181 calls)
     addusd:skk   :      0.04s CPU      0.04s WALL (     362 calls)
     addusd:dgemm :      2.70s CPU      2.72s WALL (     362 calls)
     addusd:qvan2 :      5.00s CPU      5.01s WALL (     362 calls)

     Called by *egterg:
     cdiaghg      :      6.57s CPU      6.61s WALL (    4146 calls)
     cegterg:over :      8.33s CPU      8.36s WALL (    3174 calls)
     cegterg:upda :      3.94s CPU      3.97s WALL (    3174 calls)
     cegterg:last :      9.45s CPU      9.48s WALL (    2363 calls)
     h_psi        :     81.00s CPU     82.71s WALL (    4272 calls)
     s_psi        :     11.80s CPU     11.85s WALL (    4272 calls)
     g_psi        :      0.24s CPU      0.24s WALL (    3174 calls)

     Called by h_psi:
     h_psi:calbec :     13.56s CPU     13.64s WALL (    4272 calls)
     vloc_psi     :     55.28s CPU     56.86s WALL (    4272 calls)
     add_vuspsi   :     11.89s CPU     11.94s WALL (    4272 calls)

     General routines
     calbec       :     20.22s CPU     20.36s WALL (    5850 calls)
     fft          :      1.72s CPU      1.74s WALL (    2437 calls)
     ffts         :      0.11s CPU      0.11s WALL (     181 calls)
     fftw         :     61.99s CPU     63.74s WALL (  196640 calls)

     Parallel routines
     fft_scatt_xy :      4.13s CPU      4.24s WALL (  199258 calls)
     fft_scatt_yz :     13.99s CPU     14.49s WALL (  199258 calls)

     PAW routines
     PAW_pot      :     31.17s CPU     31.30s WALL (     200 calls)
     PAW_symme    :      0.12s CPU      0.13s WALL (     381 calls)

     PWSCF        :   4m 8.74s CPU   4m14.38s WALL


   This run was terminated on:  13:58: 5  14Jan2021            

=------------------------------------------------------------------------------=
   JOB DONE.
=------------------------------------------------------------------------------=
