
     Program PWSCF v.6.7MaX starts on 14Jan2021 at 13: 0:27 

     This program is part of the open-source Quantum ESPRESSO suite
     for quantum simulation of materials; please cite
         "P. Giannozzi et al., J. Phys.:Condens. Matter 21 395502 (2009);
         "P. Giannozzi et al., J. Phys.:Condens. Matter 29 465901 (2017);
          URL http://www.quantum-espresso.org", 
     in publications or presentations arising from this work. More details at
     http://www.quantum-espresso.org/quote

     Parallel version (MPI), running on    19 processors

     MPI processes distributed on     1 nodes
     R & G space division:  proc/nbgrp/npool/nimage =      19
     Waiting for input...
     Reading input from standard input

     Current dimensions of program PWSCF are:
     Max number of different atomic species (ntypx) = 10
     Max number of k-points (npk) =  40000
     Max angular momentum in pseudopotentials (lmaxx) =  3
     file Cs.pbe-spn-kjpaw_psl.1.0.0.UPF: wavefunction(s)  5S 6S renormalized
     file I.pbe-n-kjpaw_psl.1.0.0.UPF: wavefunction(s)  5S renormalized

     Subspace diagonalization in iterative solution of the eigenvalue problem:
     a serial algorithm will be used

     Message from routine setup:
     using ibrav=0 with symmetry is DISCOURAGED, use correct ibrav instead

     Parallelization info
     --------------------
     sticks:   dense  smooth     PW     G-vecs:    dense   smooth      PW
     Min         117     117     33                 4157     4157     622
     Max         118     118     34                 4160     4160     625
     Sum        2225    2225    633                78997    78997   11837


     Title: 
     CsIrsalt                                                                   


     bravais-lattice index     =            0
     lattice parameter (alat)  =       8.8160  a.u.
     unit-cell volume          =     685.1896 (a.u.)^3
     number of atoms/cell      =            2
     number of atomic types    =            2
     number of electrons       =        16.00
     number of Kohn-Sham states=            8
     kinetic-energy cutoff     =      90.0000  Ry
     charge density cutoff     =     360.0000  Ry
     scf convergence threshold =      1.0E-06
     mixing beta               =       0.5000
     number of iterations used =            8  plain     mixing
     energy convergence thresh.=      1.0E-04
     force convergence thresh. =      1.0E-04
     press convergence thresh. =      5.0E-01
     Exchange-correlation= SLA  PW   PBX  PBC
                           (   1   4   3   4   0   0   0)
     nstep                     =           50


     celldm(1)=   8.815973  celldm(2)=   0.000000  celldm(3)=   0.000000
     celldm(4)=   0.000000  celldm(5)=   0.000000  celldm(6)=   0.000000

     crystal axes: (cart. coord. in units of alat)
               a(1) = (   1.000000   0.000000   0.000000 )  
               a(2) = (   0.000000   1.000000   0.000000 )  
               a(3) = (   0.000000   0.000000   1.000000 )  

     reciprocal axes: (cart. coord. in units 2 pi/alat)
               b(1) = (  1.000000  0.000000  0.000000 )  
               b(2) = (  0.000000  1.000000  0.000000 )  
               b(3) = (  0.000000  0.000000  1.000000 )  


     PseudoPot. # 1 for Cs read from file:
     ../../../pseudo/Cs.pbe-spn-kjpaw_psl.1.0.0.UPF
     MD5 check sum: b82c75cc2e1f4ff73b6412cffeb9c584
     Pseudo is Projector augmented-wave + core cor, Zval =  9.0
     Generated using &quot;atomic&quot; code by A. Dal Corso  v.6.4.1
     Shape of augmentation charge: PSQ
     Using radial grid of 1251 points,  9 beta functions with: 
                l(1) =   0
                l(2) =   0
                l(3) =   0
                l(4) =   1
                l(5) =   1
                l(6) =   2
                l(7) =   2
                l(8) =   3
                l(9) =   3
     Q(r) pseudized with 0 coefficients 


     PseudoPot. # 2 for I  read from file:
     ../../../pseudo/I.pbe-n-kjpaw_psl.1.0.0.UPF
     MD5 check sum: cd3d296c3308a581e1559a0c8a554cb5
     Pseudo is Projector augmented-wave + core cor, Zval =  7.0
     Generated using &quot;atomic&quot; code by A. Dal Corso  v.6.3
     Shape of augmentation charge: PSQ
     Using radial grid of 1247 points,  6 beta functions with: 
                l(1) =   0
                l(2) =   0
                l(3) =   1
                l(4) =   1
                l(5) =   2
                l(6) =   2
     Q(r) pseudized with 0 coefficients 


     atomic species   valence    mass     pseudopotential
        Cs             9.00   132.90000     Cs( 1.00)
        I              7.00   126.90000     I ( 1.00)

     48 Sym. Ops., with inversion, found


                                    s                        frac. trans.

      isym =  1     identity                                     

 cryst.   s( 1) = (     1          0          0      )
                  (     0          1          0      )
                  (     0          0          1      )

 cart.    s( 1) = (  1.0000000  0.0000000  0.0000000 )
                  (  0.0000000  1.0000000  0.0000000 )
                  (  0.0000000  0.0000000  1.0000000 )


      isym =  2     180 deg rotation - cart. axis [0,0,1]        

 cryst.   s( 2) = (    -1          0          0      )
                  (     0         -1          0      )
                  (     0          0          1      )

 cart.    s( 2) = ( -1.0000000  0.0000000  0.0000000 )
                  (  0.0000000 -1.0000000  0.0000000 )
                  (  0.0000000  0.0000000  1.0000000 )


      isym =  3     180 deg rotation - cart. axis [0,1,0]        

 cryst.   s( 3) = (    -1          0          0      )
                  (     0          1          0      )
                  (     0          0         -1      )

 cart.    s( 3) = ( -1.0000000  0.0000000  0.0000000 )
                  (  0.0000000  1.0000000  0.0000000 )
                  (  0.0000000  0.0000000 -1.0000000 )


      isym =  4     180 deg rotation - cart. axis [1,0,0]        

 cryst.   s( 4) = (     1          0          0      )
                  (     0         -1          0      )
                  (     0          0         -1      )

 cart.    s( 4) = (  1.0000000  0.0000000  0.0000000 )
                  (  0.0000000 -1.0000000  0.0000000 )
                  (  0.0000000  0.0000000 -1.0000000 )


      isym =  5     180 deg rotation - cart. axis [1,1,0]        

 cryst.   s( 5) = (     0          1          0      )
                  (     1          0          0      )
                  (     0          0         -1      )

 cart.    s( 5) = (  0.0000000  1.0000000  0.0000000 )
                  (  1.0000000  0.0000000  0.0000000 )
                  (  0.0000000  0.0000000 -1.0000000 )


      isym =  6     180 deg rotation - cart. axis [1,-1,0]       

 cryst.   s( 6) = (     0         -1          0      )
                  (    -1          0          0      )
                  (     0          0         -1      )

 cart.    s( 6) = (  0.0000000 -1.0000000  0.0000000 )
                  ( -1.0000000  0.0000000  0.0000000 )
                  (  0.0000000  0.0000000 -1.0000000 )


      isym =  7      90 deg rotation - cart. axis [0,0,-1]       

 cryst.   s( 7) = (     0         -1          0      )
                  (     1          0          0      )
                  (     0          0          1      )

 cart.    s( 7) = (  0.0000000  1.0000000  0.0000000 )
                  ( -1.0000000  0.0000000  0.0000000 )
                  (  0.0000000  0.0000000  1.0000000 )


      isym =  8      90 deg rotation - cart. axis [0,0,1]        

 cryst.   s( 8) = (     0          1          0      )
                  (    -1          0          0      )
                  (     0          0          1      )

 cart.    s( 8) = (  0.0000000 -1.0000000  0.0000000 )
                  (  1.0000000  0.0000000  0.0000000 )
                  (  0.0000000  0.0000000  1.0000000 )


      isym =  9     180 deg rotation - cart. axis [1,0,1]        

 cryst.   s( 9) = (     0          0          1      )
                  (     0         -1          0      )
                  (     1          0          0      )

 cart.    s( 9) = (  0.0000000  0.0000000  1.0000000 )
                  (  0.0000000 -1.0000000  0.0000000 )
                  (  1.0000000  0.0000000  0.0000000 )


      isym = 10     180 deg rotation - cart. axis [-1,0,1]       

 cryst.   s(10) = (     0          0         -1      )
                  (     0         -1          0      )
                  (    -1          0          0      )

 cart.    s(10) = (  0.0000000  0.0000000 -1.0000000 )
                  (  0.0000000 -1.0000000  0.0000000 )
                  ( -1.0000000  0.0000000  0.0000000 )


      isym = 11      90 deg rotation - cart. axis [0,1,0]        

 cryst.   s(11) = (     0          0         -1      )
                  (     0          1          0      )
                  (     1          0          0      )

 cart.    s(11) = (  0.0000000  0.0000000  1.0000000 )
                  (  0.0000000  1.0000000  0.0000000 )
                  ( -1.0000000  0.0000000  0.0000000 )


      isym = 12      90 deg rotation - cart. axis [0,-1,0]       

 cryst.   s(12) = (     0          0          1      )
                  (     0          1          0      )
                  (    -1          0          0      )

 cart.    s(12) = (  0.0000000  0.0000000 -1.0000000 )
                  (  0.0000000  1.0000000  0.0000000 )
                  (  1.0000000  0.0000000  0.0000000 )


      isym = 13     180 deg rotation - cart. axis [0,1,1]        

 cryst.   s(13) = (    -1          0          0      )
                  (     0          0          1      )
                  (     0          1          0      )

 cart.    s(13) = ( -1.0000000  0.0000000  0.0000000 )
                  (  0.0000000  0.0000000  1.0000000 )
                  (  0.0000000  1.0000000  0.0000000 )


      isym = 14     180 deg rotation - cart. axis [0,1,-1]       

 cryst.   s(14) = (    -1          0          0      )
                  (     0          0         -1      )
                  (     0         -1          0      )

 cart.    s(14) = ( -1.0000000  0.0000000  0.0000000 )
                  (  0.0000000  0.0000000 -1.0000000 )
                  (  0.0000000 -1.0000000  0.0000000 )


      isym = 15      90 deg rotation - cart. axis [-1,0,0]       

 cryst.   s(15) = (     1          0          0      )
                  (     0          0         -1      )
                  (     0          1          0      )

 cart.    s(15) = (  1.0000000  0.0000000  0.0000000 )
                  (  0.0000000  0.0000000  1.0000000 )
                  (  0.0000000 -1.0000000  0.0000000 )


      isym = 16      90 deg rotation - cart. axis [1,0,0]        

 cryst.   s(16) = (     1          0          0      )
                  (     0          0          1      )
                  (     0         -1          0      )

 cart.    s(16) = (  1.0000000  0.0000000  0.0000000 )
                  (  0.0000000  0.0000000 -1.0000000 )
                  (  0.0000000  1.0000000  0.0000000 )


      isym = 17     120 deg rotation - cart. axis [-1,-1,-1]     

 cryst.   s(17) = (     0          0          1      )
                  (     1          0          0      )
                  (     0          1          0      )

 cart.    s(17) = (  0.0000000  1.0000000  0.0000000 )
                  (  0.0000000  0.0000000  1.0000000 )
                  (  1.0000000  0.0000000  0.0000000 )


      isym = 18     120 deg rotation - cart. axis [-1,1,1]       

 cryst.   s(18) = (     0          0         -1      )
                  (    -1          0          0      )
                  (     0          1          0      )

 cart.    s(18) = (  0.0000000 -1.0000000  0.0000000 )
                  (  0.0000000  0.0000000  1.0000000 )
                  ( -1.0000000  0.0000000  0.0000000 )


      isym = 19     120 deg rotation - cart. axis [1,1,-1]       

 cryst.   s(19) = (     0          0         -1      )
                  (     1          0          0      )
                  (     0         -1          0      )

 cart.    s(19) = (  0.0000000  1.0000000  0.0000000 )
                  (  0.0000000  0.0000000 -1.0000000 )
                  ( -1.0000000  0.0000000  0.0000000 )


      isym = 20     120 deg rotation - cart. axis [1,-1,1]       

 cryst.   s(20) = (     0          0          1      )
                  (    -1          0          0      )
                  (     0         -1          0      )

 cart.    s(20) = (  0.0000000 -1.0000000  0.0000000 )
                  (  0.0000000  0.0000000 -1.0000000 )
                  (  1.0000000  0.0000000  0.0000000 )


      isym = 21     120 deg rotation - cart. axis [1,1,1]        

 cryst.   s(21) = (     0          1          0      )
                  (     0          0          1      )
                  (     1          0          0      )

 cart.    s(21) = (  0.0000000  0.0000000  1.0000000 )
                  (  1.0000000  0.0000000  0.0000000 )
                  (  0.0000000  1.0000000  0.0000000 )


      isym = 22     120 deg rotation - cart. axis [-1,1,-1]      

 cryst.   s(22) = (     0         -1          0      )
                  (     0          0         -1      )
                  (     1          0          0      )

 cart.    s(22) = (  0.0000000  0.0000000  1.0000000 )
                  ( -1.0000000  0.0000000  0.0000000 )
                  (  0.0000000 -1.0000000  0.0000000 )


      isym = 23     120 deg rotation - cart. axis [1,-1,-1]      

 cryst.   s(23) = (     0         -1          0      )
                  (     0          0          1      )
                  (    -1          0          0      )

 cart.    s(23) = (  0.0000000  0.0000000 -1.0000000 )
                  ( -1.0000000  0.0000000  0.0000000 )
                  (  0.0000000  1.0000000  0.0000000 )


      isym = 24     120 deg rotation - cart. axis [-1,-1,1]      

 cryst.   s(24) = (     0          1          0      )
                  (     0          0         -1      )
                  (    -1          0          0      )

 cart.    s(24) = (  0.0000000  0.0000000 -1.0000000 )
                  (  1.0000000  0.0000000  0.0000000 )
                  (  0.0000000 -1.0000000  0.0000000 )


      isym = 25     inversion                                    

 cryst.   s(25) = (    -1          0          0      )
                  (     0         -1          0      )
                  (     0          0         -1      )

 cart.    s(25) = ( -1.0000000  0.0000000  0.0000000 )
                  (  0.0000000 -1.0000000  0.0000000 )
                  (  0.0000000  0.0000000 -1.0000000 )


      isym = 26     inv. 180 deg rotation - cart. axis [0,0,1]   

 cryst.   s(26) = (     1          0          0      )
                  (     0          1          0      )
                  (     0          0         -1      )

 cart.    s(26) = (  1.0000000  0.0000000  0.0000000 )
                  (  0.0000000  1.0000000  0.0000000 )
                  (  0.0000000  0.0000000 -1.0000000 )


      isym = 27     inv. 180 deg rotation - cart. axis [0,1,0]   

 cryst.   s(27) = (     1          0          0      )
                  (     0         -1          0      )
                  (     0          0          1      )

 cart.    s(27) = (  1.0000000  0.0000000  0.0000000 )
                  (  0.0000000 -1.0000000  0.0000000 )
                  (  0.0000000  0.0000000  1.0000000 )


      isym = 28     inv. 180 deg rotation - cart. axis [1,0,0]   

 cryst.   s(28) = (    -1          0          0      )
                  (     0          1          0      )
                  (     0          0          1      )

 cart.    s(28) = ( -1.0000000  0.0000000  0.0000000 )
                  (  0.0000000  1.0000000  0.0000000 )
                  (  0.0000000  0.0000000  1.0000000 )


      isym = 29     inv. 180 deg rotation - cart. axis [1,1,0]   

 cryst.   s(29) = (     0         -1          0      )
                  (    -1          0          0      )
                  (     0          0          1      )

 cart.    s(29) = (  0.0000000 -1.0000000  0.0000000 )
                  ( -1.0000000  0.0000000  0.0000000 )
                  (  0.0000000  0.0000000  1.0000000 )


      isym = 30     inv. 180 deg rotation - cart. axis [1,-1,0]  

 cryst.   s(30) = (     0          1          0      )
                  (     1          0          0      )
                  (     0          0          1      )

 cart.    s(30) = (  0.0000000  1.0000000  0.0000000 )
                  (  1.0000000  0.0000000  0.0000000 )
                  (  0.0000000  0.0000000  1.0000000 )


      isym = 31     inv.  90 deg rotation - cart. axis [0,0,-1]  

 cryst.   s(31) = (     0          1          0      )
                  (    -1          0          0      )
                  (     0          0         -1      )

 cart.    s(31) = (  0.0000000 -1.0000000  0.0000000 )
                  (  1.0000000  0.0000000  0.0000000 )
                  (  0.0000000  0.0000000 -1.0000000 )


      isym = 32     inv.  90 deg rotation - cart. axis [0,0,1]   

 cryst.   s(32) = (     0         -1          0      )
                  (     1          0          0      )
                  (     0          0         -1      )

 cart.    s(32) = (  0.0000000  1.0000000  0.0000000 )
                  ( -1.0000000  0.0000000  0.0000000 )
                  (  0.0000000  0.0000000 -1.0000000 )


      isym = 33     inv. 180 deg rotation - cart. axis [1,0,1]   

 cryst.   s(33) = (     0          0         -1      )
                  (     0          1          0      )
                  (    -1          0          0      )

 cart.    s(33) = (  0.0000000  0.0000000 -1.0000000 )
                  (  0.0000000  1.0000000  0.0000000 )
                  ( -1.0000000  0.0000000  0.0000000 )


      isym = 34     inv. 180 deg rotation - cart. axis [-1,0,1]  

 cryst.   s(34) = (     0          0          1      )
                  (     0          1          0      )
                  (     1          0          0      )

 cart.    s(34) = (  0.0000000  0.0000000  1.0000000 )
                  (  0.0000000  1.0000000  0.0000000 )
                  (  1.0000000  0.0000000  0.0000000 )


      isym = 35     inv.  90 deg rotation - cart. axis [0,1,0]   

 cryst.   s(35) = (     0          0          1      )
                  (     0         -1          0      )
                  (    -1          0          0      )

 cart.    s(35) = (  0.0000000  0.0000000 -1.0000000 )
                  (  0.0000000 -1.0000000  0.0000000 )
                  (  1.0000000  0.0000000  0.0000000 )


      isym = 36     inv.  90 deg rotation - cart. axis [0,-1,0]  

 cryst.   s(36) = (     0          0         -1      )
                  (     0         -1          0      )
                  (     1          0          0      )

 cart.    s(36) = (  0.0000000  0.0000000  1.0000000 )
                  (  0.0000000 -1.0000000  0.0000000 )
                  ( -1.0000000  0.0000000  0.0000000 )


      isym = 37     inv. 180 deg rotation - cart. axis [0,1,1]   

 cryst.   s(37) = (     1          0          0      )
                  (     0          0         -1      )
                  (     0         -1          0      )

 cart.    s(37) = (  1.0000000  0.0000000  0.0000000 )
                  (  0.0000000  0.0000000 -1.0000000 )
                  (  0.0000000 -1.0000000  0.0000000 )


      isym = 38     inv. 180 deg rotation - cart. axis [0,1,-1]  

 cryst.   s(38) = (     1          0          0      )
                  (     0          0          1      )
                  (     0          1          0      )

 cart.    s(38) = (  1.0000000  0.0000000  0.0000000 )
                  (  0.0000000  0.0000000  1.0000000 )
                  (  0.0000000  1.0000000  0.0000000 )


      isym = 39     inv.  90 deg rotation - cart. axis [-1,0,0]  

 cryst.   s(39) = (    -1          0          0      )
                  (     0          0          1      )
                  (     0         -1          0      )

 cart.    s(39) = ( -1.0000000  0.0000000  0.0000000 )
                  (  0.0000000  0.0000000 -1.0000000 )
                  (  0.0000000  1.0000000  0.0000000 )


      isym = 40     inv.  90 deg rotation - cart. axis [1,0,0]   

 cryst.   s(40) = (    -1          0          0      )
                  (     0          0         -1      )
                  (     0          1          0      )

 cart.    s(40) = ( -1.0000000  0.0000000  0.0000000 )
                  (  0.0000000  0.0000000  1.0000000 )
                  (  0.0000000 -1.0000000  0.0000000 )


      isym = 41     inv. 120 deg rotation - cart. axis [-1,-1,-1]

 cryst.   s(41) = (     0          0         -1      )
                  (    -1          0          0      )
                  (     0         -1          0      )

 cart.    s(41) = (  0.0000000 -1.0000000  0.0000000 )
                  (  0.0000000  0.0000000 -1.0000000 )
                  ( -1.0000000  0.0000000  0.0000000 )


      isym = 42     inv. 120 deg rotation - cart. axis [-1,1,1]  

 cryst.   s(42) = (     0          0          1      )
                  (     1          0          0      )
                  (     0         -1          0      )

 cart.    s(42) = (  0.0000000  1.0000000  0.0000000 )
                  (  0.0000000  0.0000000 -1.0000000 )
                  (  1.0000000  0.0000000  0.0000000 )


      isym = 43     inv. 120 deg rotation - cart. axis [1,1,-1]  

 cryst.   s(43) = (     0          0          1      )
                  (    -1          0          0      )
                  (     0          1          0      )

 cart.    s(43) = (  0.0000000 -1.0000000  0.0000000 )
                  (  0.0000000  0.0000000  1.0000000 )
                  (  1.0000000  0.0000000  0.0000000 )


      isym = 44     inv. 120 deg rotation - cart. axis [1,-1,1]  

 cryst.   s(44) = (     0          0         -1      )
                  (     1          0          0      )
                  (     0          1          0      )

 cart.    s(44) = (  0.0000000  1.0000000  0.0000000 )
                  (  0.0000000  0.0000000  1.0000000 )
                  ( -1.0000000  0.0000000  0.0000000 )


      isym = 45     inv. 120 deg rotation - cart. axis [1,1,1]   

 cryst.   s(45) = (     0         -1          0      )
                  (     0          0         -1      )
                  (    -1          0          0      )

 cart.    s(45) = (  0.0000000  0.0000000 -1.0000000 )
                  ( -1.0000000  0.0000000  0.0000000 )
                  (  0.0000000 -1.0000000  0.0000000 )


      isym = 46     inv. 120 deg rotation - cart. axis [-1,1,-1] 

 cryst.   s(46) = (     0          1          0      )
                  (     0          0          1      )
                  (    -1          0          0      )

 cart.    s(46) = (  0.0000000  0.0000000 -1.0000000 )
                  (  1.0000000  0.0000000  0.0000000 )
                  (  0.0000000  1.0000000  0.0000000 )


      isym = 47     inv. 120 deg rotation - cart. axis [1,-1,-1] 

 cryst.   s(47) = (     0          1          0      )
                  (     0          0         -1      )
                  (     1          0          0      )

 cart.    s(47) = (  0.0000000  0.0000000  1.0000000 )
                  (  1.0000000  0.0000000  0.0000000 )
                  (  0.0000000 -1.0000000  0.0000000 )


      isym = 48     inv. 120 deg rotation - cart. axis [-1,-1,1] 

 cryst.   s(48) = (     0         -1          0      )
                  (     0          0          1      )
                  (     1          0          0      )

 cart.    s(48) = (  0.0000000  0.0000000  1.0000000 )
                  ( -1.0000000  0.0000000  0.0000000 )
                  (  0.0000000  1.0000000  0.0000000 )


   Cartesian axes

     site n.     atom                  positions (alat units)
         1           Cs  tau(   1) = (   0.0000000   0.0000000   0.0000000  )
         2           I   tau(   2) = (   0.5000000   0.5000000   0.5000000  )

   Crystallographic axes

     site n.     atom                  positions (cryst. coord.)
         1           Cs  tau(   1) = (  0.0000000  0.0000000  0.0000000  )
         2           I   tau(   2) = (  0.5000000  0.5000000  0.5000000  )

     number of k points=     4
                       cart. coord. in units 2pi/alat
        k(    1) = (   0.0000000   0.0000000   0.0000000), wk =   0.2500000
        k(    2) = (   0.0000000   0.0000000  -0.5000000), wk =   0.7500000
        k(    3) = (   0.0000000  -0.5000000  -0.5000000), wk =   0.7500000
        k(    4) = (  -0.5000000  -0.5000000  -0.5000000), wk =   0.2500000

                       cryst. coord.
        k(    1) = (   0.0000000   0.0000000   0.0000000), wk =   0.2500000
        k(    2) = (   0.0000000   0.0000000  -0.5000000), wk =   0.7500000
        k(    3) = (   0.0000000  -0.5000000  -0.5000000), wk =   0.7500000
        k(    4) = (  -0.5000000  -0.5000000  -0.5000000), wk =   0.2500000

     Dense  grid:    78997 G-vectors     FFT dimensions: (  54,  54,  54)

     Dynamical RAM for                 wfc:       0.06 MB

     Dynamical RAM for     wfc (w. buffer):       0.32 MB

     Dynamical RAM for           str. fact:       0.13 MB

     Dynamical RAM for           local pot:       0.00 MB

     Dynamical RAM for          nlocal pot:       0.40 MB

     Dynamical RAM for                qrad:      18.27 MB

     Dynamical RAM for          rho,v,vnew:       0.39 MB

     Dynamical RAM for               rhoin:       0.13 MB

     Dynamical RAM for            rho*nmix:       1.02 MB

     Dynamical RAM for           G-vectors:       0.27 MB

     Dynamical RAM for          h,s,v(r/c):       0.01 MB

     Dynamical RAM for          <psi|beta>:       0.01 MB

     Dynamical RAM for                 psi:       0.13 MB

     Dynamical RAM for                hpsi:       0.13 MB

     Dynamical RAM for                spsi:       0.13 MB

     Dynamical RAM for      wfcinit/wfcrot:       0.14 MB

     Dynamical RAM for           addusdens:      37.39 MB

     Dynamical RAM for          addusforce:      37.43 MB

     Dynamical RAM for         addusstress:      39.04 MB

     Estimated static dynamical RAM per process >      21.45 MB

     Estimated max dynamical RAM per process >      60.49 MB

     Estimated total dynamical RAM >       1.12 GB

     Initial potential from superposition of free atoms

     starting charge   15.96031, renormalised to   16.00000
     Starting wfcs are    9 randomized atomic wfcs
     Checking if some PAW data can be deallocated... 
       PAW data deallocated on    9 nodes for type:  1
       PAW data deallocated on   10 nodes for type:  2

     total cpu time spent up to now is        3.1 secs

     Self-consistent Calculation

     iteration #  1     ecut=    90.00 Ry     beta= 0.50
     Davidson diagonalization with overlap
     ethr =  1.00E-02,  avg # of iterations =  1.0

     Threshold (ethr) on eigenvalues was too large:
     Diagonalizing with lowered threshold

     Davidson diagonalization with overlap
     ethr =  3.88E-04,  avg # of iterations =  3.8

     total cpu time spent up to now is        4.1 secs

     total energy              =    -794.86845037 Ry
     estimated scf accuracy    <       0.04919403 Ry

     iteration #  2     ecut=    90.00 Ry     beta= 0.50
     Davidson diagonalization with overlap
     ethr =  3.07E-04,  avg # of iterations =  4.2

     total cpu time spent up to now is        4.9 secs

     total energy              =    -794.88439793 Ry
     estimated scf accuracy    <       0.00246726 Ry

     iteration #  3     ecut=    90.00 Ry     beta= 0.50
     Davidson diagonalization with overlap
     ethr =  1.54E-05,  avg # of iterations =  4.5

     total cpu time spent up to now is        5.7 secs

     total energy              =    -794.88598011 Ry
     estimated scf accuracy    <       0.00069715 Ry

     iteration #  4     ecut=    90.00 Ry     beta= 0.50
     Davidson diagonalization with overlap
     ethr =  4.36E-06,  avg # of iterations =  4.0

     total cpu time spent up to now is        6.4 secs

     total energy              =    -794.88619974 Ry
     estimated scf accuracy    <       0.00002126 Ry

     iteration #  5     ecut=    90.00 Ry     beta= 0.50
     Davidson diagonalization with overlap
     ethr =  1.33E-07,  avg # of iterations =  9.5

     total cpu time spent up to now is        7.4 secs

     total energy              =    -794.88627472 Ry
     estimated scf accuracy    <       0.00001060 Ry

     iteration #  6     ecut=    90.00 Ry     beta= 0.50
     Davidson diagonalization with overlap
     ethr =  6.62E-08,  avg # of iterations =  5.5

     total cpu time spent up to now is        8.2 secs

     total energy              =    -794.88626961 Ry
     estimated scf accuracy    <       0.00003690 Ry

     iteration #  7     ecut=    90.00 Ry     beta= 0.50
     Davidson diagonalization with overlap
     ethr =  6.62E-08,  avg # of iterations =  4.2

     total cpu time spent up to now is        9.0 secs

     End of self-consistent calculation

          k = 0.0000 0.0000 0.0000 (  9843 PWs)   bands (ev):

   -17.8876  -7.8223  -4.5932  -4.5932  -4.5932   2.6130   2.6130   2.6130

     occupation numbers 
     1.0000   1.0000   1.0000   1.0000   1.0000   1.0000   1.0000   1.0000

          k = 0.0000 0.0000-0.5000 (  9890 PWs)   bands (ev):

   -17.8694  -7.8284  -4.7140  -4.5454  -4.5454   1.2877   2.5007   2.5007

     occupation numbers 
     1.0000   1.0000   1.0000   1.0000   1.0000   1.0000   1.0000   1.0000

          k = 0.0000-0.5000-0.5000 (  9844 PWs)   bands (ev):

   -17.8528  -7.6765  -4.8849  -4.8849  -4.5139   1.8917   1.8917   2.7106

     occupation numbers 
     1.0000   1.0000   1.0000   1.0000   1.0000   1.0000   1.0000   1.0000

          k =-0.5000-0.5000-0.5000 (  9952 PWs)   bands (ev):

   -17.8369  -7.5904  -4.8027  -4.8027  -4.8026   1.5460   1.5460   1.5460

     occupation numbers 
     1.0000   1.0000   1.0000   1.0000   1.0000   1.0000   1.0000   1.0000

     highest occupied level (ev):     2.7106

!    total energy              =    -794.88627754 Ry

     total all-electron energy =    -29807.052282 Ry
     estimated scf accuracy    <       0.00000008 Ry

     The total energy is the sum of the following terms:
     one-electron contribution =      -3.97550654 Ry
     hartree contribution      =       8.76291022 Ry
     xc contribution           =     -36.98416385 Ry
     ewald contribution        =     -53.30014111 Ry
     one-center paw contrib.   =    -709.38937626 Ry
      -> PAW hartree energy AE =      25.64496230 Ry
      -> PAW hartree energy PS =     -25.53540770 Ry
      -> PAW xc energy AE      =    -383.53169896 Ry
      -> PAW xc energy PS      =      20.51636358 Ry
      -> total E_H with PAW    =       8.87246482 Ry
      -> total E_XC with PAW   =    -399.99949923 Ry

     convergence has been achieved in   7 iterations

     Forces acting on atoms (cartesian axes, Ry/au):

     atom    1 type  1   force =     0.00000000    0.00000000    0.00000000
     atom    2 type  2   force =     0.00000000    0.00000000    0.00000000
     The non-local contrib.  to forces
     atom    1 type  1   force =     0.00000000    0.00000000    0.00000000
     atom    2 type  2   force =     0.00000000    0.00000000    0.00000000
     The ionic contribution  to forces
     atom    1 type  1   force =    -0.00000000   -0.00000000   -0.00000000
     atom    2 type  2   force =     0.00000000    0.00000000    0.00000000
     The local contribution  to forces
     atom    1 type  1   force =     0.00000000    0.00000000    0.00000000
     atom    2 type  2   force =     0.00000000    0.00000000    0.00000000
     The core correction contribution to forces
     atom    1 type  1   force =     0.00000000    0.00000000    0.00000000
     atom    2 type  2   force =     0.00000000    0.00000000    0.00000000
     The Hubbard contrib.    to forces
     atom    1 type  1   force =     0.00000000    0.00000000    0.00000000
     atom    2 type  2   force =     0.00000000    0.00000000    0.00000000
     The SCF correction term to forces
     atom    1 type  1   force =    -0.00000000   -0.00000000    0.00000000
     atom    2 type  2   force =    -0.00000000   -0.00000000    0.00000000

     Total force =     0.000000     Total SCF correction =     0.000000


     Computing stress (Cartesian axis) and pressure

          total   stress  (Ry/bohr**3)                   (kbar)     P=        7.16
   0.00004869   0.00000000   0.00000000            7.16        0.00        0.00
   0.00000000   0.00004869   0.00000000            0.00        7.16        0.00
   0.00000000   0.00000000   0.00004869            0.00        0.00        7.16

     kinetic stress (kbar)   3021.58      0.00      0.00
                                0.00   3021.58      0.00
                                0.00      0.00   3021.58

     local   stress (kbar)  -1091.15      0.00      0.00
                                0.00  -1091.15     -0.00
                                0.00     -0.00  -1091.15

     nonloc. stress (kbar)   2495.07      0.00      0.00
                                0.00   2495.07      0.00
                                0.00      0.00   2495.07

     hartree stress (kbar)    627.11     -0.00      0.00
                               -0.00    627.11      0.00
                                0.00      0.00    627.11

     exc-cor stress (kbar)   4362.37      0.00      0.00
                                0.00   4362.37      0.00
                                0.00      0.00   4362.37

     corecor stress (kbar)  -5593.43     -0.00      0.00
                               -0.00  -5593.43      0.00
                                0.00      0.00  -5593.43

     ewald   stress (kbar)  -3814.38     -0.00     -0.00
                               -0.00  -3814.38     -0.00
                               -0.00     -0.00  -3814.38

     hubbard stress (kbar)      0.00      0.00      0.00
                                0.00      0.00      0.00
                                0.00      0.00      0.00

     DFT-D   stress (kbar)      0.00      0.00      0.00
                                0.00      0.00      0.00
                                0.00      0.00      0.00

     XDM     stress (kbar)      0.00      0.00      0.00
                                0.00      0.00      0.00
                                0.00      0.00      0.00

     dft-nl  stress (kbar)      0.00      0.00      0.00
                                0.00      0.00      0.00
                                0.00      0.00      0.00

     TS-vdW  stress (kbar)      0.00      0.00      0.00
                                0.00      0.00      0.00
                                0.00      0.00      0.00



     BFGS Geometry Optimization
     Energy error            =      0.0E+00
     Gradient error          =      0.0E+00
     Cell gradient error     =      4.9E-05


     number of scf cycles    =   1
     number of bfgs steps    =   0

     enthalpy new            =    -794.8862775428 Ry

     new trust radius        =       0.0063719445 bohr
     new conv_thr            =       0.0000010000 Ry

     new unit-cell volume =    687.69452 a.u.^3 (   101.90581 Ang^3 )
     density =      4.23340 g/cm^3

CELL_PARAMETERS (angstrom)
   4.670890165   0.000000000   0.000000000
   0.000000000   4.670890165   0.000000000
   0.000000000   0.000000000   4.670890165

ATOMIC_POSITIONS (crystal)
Cs            0.0000000000        0.0000000000        0.0000000000
I             0.5000000000        0.5000000000        0.5000000000



     Writing output data file ./out/CsSnI3.save/
     NEW-OLD atomic charge density approx. for the potential
     extrapolated charge   16.05814, renormalised to   16.00000

     total cpu time spent up to now is       14.4 secs

     Self-consistent Calculation

     iteration #  1     ecut=    90.00 Ry     beta= 0.50
     Davidson diagonalization with overlap
     ethr =  1.00E-06,  avg # of iterations =  2.0

     total cpu time spent up to now is       15.2 secs

     total energy              =    -794.88630038 Ry
     estimated scf accuracy    <       0.00004808 Ry

     iteration #  2     ecut=    90.00 Ry     beta= 0.50
     Davidson diagonalization with overlap
     ethr =  3.01E-07,  avg # of iterations =  5.0

     total cpu time spent up to now is       16.0 secs

     total energy              =    -794.88639867 Ry
     estimated scf accuracy    <       0.00003408 Ry

     iteration #  3     ecut=    90.00 Ry     beta= 0.50
     Davidson diagonalization with overlap
     ethr =  2.13E-07,  avg # of iterations =  1.0

     total cpu time spent up to now is       16.7 secs

     total energy              =    -794.88639161 Ry
     estimated scf accuracy    <       0.00001547 Ry

     iteration #  4     ecut=    90.00 Ry     beta= 0.50
     Davidson diagonalization with overlap
     ethr =  9.67E-08,  avg # of iterations =  2.5

     total cpu time spent up to now is       17.5 secs

     total energy              =    -794.88639430 Ry
     estimated scf accuracy    <       0.00000127 Ry

     iteration #  5     ecut=    90.00 Ry     beta= 0.50
     Davidson diagonalization with overlap
     ethr =  7.96E-09,  avg # of iterations =  7.0

     total cpu time spent up to now is       18.3 secs

     End of self-consistent calculation

          k = 0.0000 0.0000 0.0000 (  9843 PWs)   bands (ev):

   -17.9265  -7.8436  -4.6312  -4.6312  -4.6312   2.5861   2.5861   2.5861

     occupation numbers 
     1.0000   1.0000   1.0000   1.0000   1.0000   1.0000   1.0000   1.0000

          k = 0.0000 0.0000-0.4994 (  9890 PWs)   bands (ev):

   -17.9086  -7.8492  -4.7513  -4.5842  -4.5842   1.2689   2.4758   2.4758

     occupation numbers 
     1.0000   1.0000   1.0000   1.0000   1.0000   1.0000   1.0000   1.0000

          k = 0.0000-0.4994-0.4994 (  9844 PWs)   bands (ev):

   -17.8923  -7.6991  -4.9192  -4.9192  -4.5532   1.8677   1.8677   2.6841

     occupation numbers 
     1.0000   1.0000   1.0000   1.0000   1.0000   1.0000   1.0000   1.0000

          k =-0.4994-0.4994-0.4994 (  9952 PWs)   bands (ev):

   -17.8767  -7.6140  -4.8384  -4.8384  -4.8384   1.5273   1.5273   1.5273

     occupation numbers 
     1.0000   1.0000   1.0000   1.0000   1.0000   1.0000   1.0000   1.0000

     highest occupied level (ev):     2.6841

!    total energy              =    -794.88639616 Ry

     total all-electron energy =    -29807.052400 Ry
     estimated scf accuracy    <       0.00000027 Ry

     The total energy is the sum of the following terms:
     one-electron contribution =      -4.07293541 Ry
     hartree contribution      =       8.79500489 Ry
     xc contribution           =     -36.98359979 Ry
     ewald contribution        =     -53.23534682 Ry
     one-center paw contrib.   =    -709.38951903 Ry
      -> PAW hartree energy AE =      25.65648522 Ry
      -> PAW hartree energy PS =     -25.54698611 Ry
      -> PAW xc energy AE      =    -383.53320853 Ry
      -> PAW xc energy PS      =      20.51790316 Ry
      -> total E_H with PAW    =       8.90450400 Ry
      -> total E_XC with PAW   =    -399.99890517 Ry

     convergence has been achieved in   5 iterations

     Forces acting on atoms (cartesian axes, Ry/au):

     atom    1 type  1   force =     0.00000000    0.00000000    0.00000000
     atom    2 type  2   force =     0.00000000    0.00000000    0.00000000
     The non-local contrib.  to forces
     atom    1 type  1   force =     0.00000000    0.00000000    0.00000000
     atom    2 type  2   force =     0.00000000    0.00000000    0.00000000
     The ionic contribution  to forces
     atom    1 type  1   force =    -0.00000000   -0.00000000   -0.00000000
     atom    2 type  2   force =     0.00000000    0.00000000    0.00000000
     The local contribution  to forces
     atom    1 type  1   force =     0.00000000    0.00000000    0.00000000
     atom    2 type  2   force =     0.00000000    0.00000000    0.00000000
     The core correction contribution to forces
     atom    1 type  1   force =     0.00000000    0.00000000    0.00000000
     atom    2 type  2   force =    -0.00000000   -0.00000000   -0.00000000
     The Hubbard contrib.    to forces
     atom    1 type  1   force =     0.00000000    0.00000000    0.00000000
     atom    2 type  2   force =     0.00000000    0.00000000    0.00000000
     The SCF correction term to forces
     atom    1 type  1   force =     0.00000000    0.00000000    0.00000000
     atom    2 type  2   force =    -0.00000000   -0.00000000   -0.00000000

     Total force =     0.000000     Total SCF correction =     0.000000


     Computing stress (Cartesian axis) and pressure

          total   stress  (Ry/bohr**3)                   (kbar)     P=        6.88
   0.00004677   0.00000000   0.00000000            6.88        0.00        0.00
   0.00000000   0.00004677   0.00000000            0.00        6.88        0.00
   0.00000000   0.00000000   0.00004677            0.00        0.00        6.88

     kinetic stress (kbar)   3010.20      0.00      0.00
                                0.00   3010.20      0.00
                                0.00      0.00   3010.20

     local   stress (kbar)  -1093.95      0.00     -0.00
                                0.00  -1093.95      0.00
                               -0.00      0.00  -1093.95

     nonloc. stress (kbar)   2485.92      0.00      0.00
                                0.00   2485.92      0.00
                                0.00      0.00   2485.92

     hartree stress (kbar)    627.11      0.00     -0.00
                                0.00    627.11     -0.00
                               -0.00     -0.00    627.11

     exc-cor stress (kbar)   4346.53      0.00      0.00
                                0.00   4346.53      0.00
                                0.00      0.00   4346.53

     corecor stress (kbar)  -5573.07     -0.00     -0.00
                               -0.00  -5573.07     -0.00
                               -0.00     -0.00  -5573.07

     ewald   stress (kbar)  -3795.87      0.00     -0.00
                                0.00  -3795.87     -0.00
                               -0.00     -0.00  -3795.87

     hubbard stress (kbar)      0.00      0.00      0.00
                                0.00      0.00      0.00
                                0.00      0.00      0.00

     DFT-D   stress (kbar)      0.00      0.00      0.00
                                0.00      0.00      0.00
                                0.00      0.00      0.00

     XDM     stress (kbar)      0.00      0.00      0.00
                                0.00      0.00      0.00
                                0.00      0.00      0.00

     dft-nl  stress (kbar)      0.00      0.00      0.00
                                0.00      0.00      0.00
                                0.00      0.00      0.00

     TS-vdW  stress (kbar)      0.00      0.00      0.00
                                0.00      0.00      0.00
                                0.00      0.00      0.00


     Energy error            =      1.2E-04
     Gradient error          =      0.0E+00
     Cell gradient error     =      4.7E-05


     number of scf cycles    =   2
     number of bfgs steps    =   1

     enthalpy old            =    -794.8862775428 Ry
     enthalpy new            =    -794.8863961630 Ry

     CASE: enthalpy_new < enthalpy_old


     WARNING: bfgs curvature condition failed, Theta= 0.831
     new trust radius        =       0.0070134031 bohr
     new conv_thr            =       0.0000000100 Ry

     new unit-cell volume =    690.45700 a.u.^3 (   102.31517 Ang^3 )
     density =      4.21646 g/cm^3

CELL_PARAMETERS (angstrom)
   4.677136146   0.000000000   0.000000000
   0.000000000   4.677136146   0.000000000
   0.000000000   0.000000000   4.677136146

ATOMIC_POSITIONS (crystal)
Cs            0.0000000000        0.0000000000        0.0000000000
I             0.5000000000        0.5000000000        0.5000000000



     Writing output data file ./out/CsSnI3.save/
     NEW-OLD atomic charge density approx. for the potential
     extrapolated charge   16.06386, renormalised to   16.00000

     total cpu time spent up to now is       23.7 secs

     Self-consistent Calculation

     iteration #  1     ecut=    90.00 Ry     beta= 0.50
     Davidson diagonalization with overlap
     ethr =  1.00E-06,  avg # of iterations =  2.0

     total cpu time spent up to now is       24.5 secs

     total energy              =    -794.88639700 Ry
     estimated scf accuracy    <       0.00006493 Ry

     iteration #  2     ecut=    90.00 Ry     beta= 0.50
     Davidson diagonalization with overlap
     ethr =  4.06E-07,  avg # of iterations =  4.8

     total cpu time spent up to now is       25.3 secs

     total energy              =    -794.88651998 Ry
     estimated scf accuracy    <       0.00003706 Ry

     iteration #  3     ecut=    90.00 Ry     beta= 0.50
     Davidson diagonalization with overlap
     ethr =  2.32E-07,  avg # of iterations =  1.5

     total cpu time spent up to now is       26.0 secs

     total energy              =    -794.88651316 Ry
     estimated scf accuracy    <       0.00001672 Ry

     iteration #  4     ecut=    90.00 Ry     beta= 0.50
     Davidson diagonalization with overlap
     ethr =  1.05E-07,  avg # of iterations =  2.8

     total cpu time spent up to now is       26.8 secs

     total energy              =    -794.88651573 Ry
     estimated scf accuracy    <       0.00000207 Ry

     iteration #  5     ecut=    90.00 Ry     beta= 0.50
     Davidson diagonalization with overlap
     ethr =  1.30E-08,  avg # of iterations =  6.0

     total cpu time spent up to now is       27.6 secs

     total energy              =    -794.88651891 Ry
     estimated scf accuracy    <       0.00000051 Ry

     iteration #  6     ecut=    90.00 Ry     beta= 0.50
     Davidson diagonalization with overlap
     ethr =  3.17E-09,  avg # of iterations =  4.2

     total cpu time spent up to now is       28.4 secs

     total energy              =    -794.88651761 Ry
     estimated scf accuracy    <       0.00000259 Ry

     iteration #  7     ecut=    90.00 Ry     beta= 0.50
     Davidson diagonalization with overlap
     ethr =  3.17E-09,  avg # of iterations =  6.0

     total cpu time spent up to now is       29.2 secs

     total energy              =    -794.88651783 Ry
     estimated scf accuracy    <       0.00000187 Ry

     iteration #  8     ecut=    90.00 Ry     beta= 0.50
     Davidson diagonalization with overlap
     ethr =  3.17E-09,  avg # of iterations =  4.5

     total cpu time spent up to now is       30.0 secs

     total energy              =    -794.88651829 Ry
     estimated scf accuracy    <       0.00000005 Ry

     iteration #  9     ecut=    90.00 Ry     beta= 0.50
     Davidson diagonalization with overlap
     ethr =  3.38E-10,  avg # of iterations =  4.5

     total cpu time spent up to now is       30.8 secs

     total energy              =    -794.88651852 Ry
     estimated scf accuracy    <       0.00000008 Ry

     iteration # 10     ecut=    90.00 Ry     beta= 0.50
     Davidson diagonalization with overlap
     ethr =  3.38E-10,  avg # of iterations =  5.2

     total cpu time spent up to now is       31.6 secs

     total energy              =    -794.88651822 Ry
     estimated scf accuracy    <       0.00000074 Ry

     iteration # 11     ecut=    90.00 Ry     beta= 0.50
     Davidson diagonalization with overlap
     ethr =  3.38E-10,  avg # of iterations =  4.8

     total cpu time spent up to now is       32.5 secs

     total energy              =    -794.88651830 Ry
     estimated scf accuracy    <       0.00000004 Ry

     iteration # 12     ecut=    90.00 Ry     beta= 0.50
     Davidson diagonalization with overlap
     ethr =  2.28E-10,  avg # of iterations =  1.5

     total cpu time spent up to now is       33.2 secs

     total energy              =    -794.88651829 Ry
     estimated scf accuracy    <       0.00000002 Ry

     iteration # 13     ecut=    90.00 Ry     beta= 0.50
     Davidson diagonalization with overlap
     ethr =  1.07E-10,  avg # of iterations =  2.8

     total cpu time spent up to now is       33.9 secs

     End of self-consistent calculation

          k = 0.0000 0.0000 0.0000 (  9843 PWs)   bands (ev):

   -17.9610  -7.8686  -4.6666  -4.6666  -4.6666   2.5553   2.5553   2.5553

     occupation numbers 
     1.0000   1.0000   1.0000   1.0000   1.0000   1.0000   1.0000   1.0000

          k = 0.0000 0.0000-0.4987 (  9890 PWs)   bands (ev):

   -17.9435  -7.8736  -4.7864  -4.6204  -4.6204   1.2474   2.4472   2.4472

     occupation numbers 
     1.0000   1.0000   1.0000   1.0000   1.0000   1.0000   1.0000   1.0000

          k = 0.0000-0.4987-0.4987 (  9844 PWs)   bands (ev):

   -17.9274  -7.7257  -4.9509  -4.9509  -4.5898   1.8406   1.8406   2.6536

     occupation numbers 
     1.0000   1.0000   1.0000   1.0000   1.0000   1.0000   1.0000   1.0000

          k =-0.4987-0.4987-0.4987 (  9952 PWs)   bands (ev):

   -17.9121  -7.6417  -4.8715  -4.8715  -4.8715   1.5056   1.5056   1.5056

     occupation numbers 
     1.0000   1.0000   1.0000   1.0000   1.0000   1.0000   1.0000   1.0000

     highest occupied level (ev):     2.6536

!    total energy              =    -794.88651830 Ry

     total all-electron energy =    -29807.052523 Ry
     estimated scf accuracy    <          5.8E-09 Ry

     The total energy is the sum of the following terms:
     one-electron contribution =      -4.17917734 Ry
     hartree contribution      =       8.82754706 Ry
     xc contribution           =     -36.98139529 Ry
     ewald contribution        =     -53.16425482 Ry
     one-center paw contrib.   =    -709.38923791 Ry
      -> PAW hartree energy AE =      25.64067876 Ry
      -> PAW hartree energy PS =     -25.53113906 Ry
      -> PAW xc energy AE      =    -383.53100275 Ry
      -> PAW xc energy PS      =      20.51574530 Ry
      -> total E_H with PAW    =       8.93708676 Ry
      -> total E_XC with PAW   =    -399.99665274 Ry

     convergence has been achieved in  13 iterations

     Forces acting on atoms (cartesian axes, Ry/au):

     atom    1 type  1   force =     0.00000000    0.00000000    0.00000000
     atom    2 type  2   force =     0.00000000    0.00000000    0.00000000
     The non-local contrib.  to forces
     atom    1 type  1   force =     0.00000000    0.00000000    0.00000000
     atom    2 type  2   force =     0.00000000    0.00000000    0.00000000
     The ionic contribution  to forces
     atom    1 type  1   force =    -0.00000000   -0.00000000   -0.00000000
     atom    2 type  2   force =    -0.00000000   -0.00000000   -0.00000000
     The local contribution  to forces
     atom    1 type  1   force =     0.00000000    0.00000000    0.00000000
     atom    2 type  2   force =     0.00000000    0.00000000    0.00000000
     The core correction contribution to forces
     atom    1 type  1   force =     0.00000000    0.00000000    0.00000000
     atom    2 type  2   force =     0.00000000    0.00000000    0.00000000
     The Hubbard contrib.    to forces
     atom    1 type  1   force =     0.00000000    0.00000000    0.00000000
     atom    2 type  2   force =     0.00000000    0.00000000    0.00000000
     The SCF correction term to forces
     atom    1 type  1   force =     0.00000000   -0.00000000   -0.00000000
     atom    2 type  2   force =     0.00000000   -0.00000000   -0.00000000

     Total force =     0.000000     Total SCF correction =     0.000000


     Computing stress (Cartesian axis) and pressure

          total   stress  (Ry/bohr**3)                   (kbar)     P=        6.31
   0.00004288   0.00000000   0.00000000            6.31        0.00        0.00
   0.00000000   0.00004288   0.00000000            0.00        6.31        0.00
   0.00000000   0.00000000   0.00004288            0.00        0.00        6.31

     kinetic stress (kbar)   2997.66      0.00      0.00
                                0.00   2997.66      0.00
                                0.00      0.00   2997.66

     local   stress (kbar)  -1096.90      0.00      0.00
                                0.00  -1096.90      0.00
                                0.00      0.00  -1096.90

     nonloc. stress (kbar)   2475.77      0.00      0.00
                                0.00   2475.77      0.00
                                0.00      0.00   2475.77

     hartree stress (kbar)    626.92     -0.00     -0.00
                               -0.00    626.92     -0.00
                               -0.00     -0.00    626.92

     exc-cor stress (kbar)   4329.23     -0.00      0.00
                               -0.00   4329.23      0.00
                                0.00      0.00   4329.23

     corecor stress (kbar)  -5550.73     -0.00      0.00
                               -0.00  -5550.73      0.00
                                0.00      0.00  -5550.73

     ewald   stress (kbar)  -3775.63     -0.00     -0.00
                               -0.00  -3775.63     -0.00
                               -0.00     -0.00  -3775.63

     hubbard stress (kbar)      0.00      0.00      0.00
                                0.00      0.00      0.00
                                0.00      0.00      0.00

     DFT-D   stress (kbar)      0.00      0.00      0.00
                                0.00      0.00      0.00
                                0.00      0.00      0.00

     XDM     stress (kbar)      0.00      0.00      0.00
                                0.00      0.00      0.00
                                0.00      0.00      0.00

     dft-nl  stress (kbar)      0.00      0.00      0.00
                                0.00      0.00      0.00
                                0.00      0.00      0.00

     TS-vdW  stress (kbar)      0.00      0.00      0.00
                                0.00      0.00      0.00
                                0.00      0.00      0.00


     Energy error            =      1.2E-04
     Gradient error          =      0.0E+00
     Cell gradient error     =      4.3E-05


     number of scf cycles    =   3
     number of bfgs steps    =   2

     enthalpy old            =    -794.8863961630 Ry
     enthalpy new            =    -794.8865182961 Ry

     CASE: enthalpy_new < enthalpy_old

     new trust radius        =       0.0105271361 bohr
     new conv_thr            =       0.0000000100 Ry

     new unit-cell volume =    694.61457 a.u.^3 (   102.93126 Ang^3 )
     density =      4.19122 g/cm^3

CELL_PARAMETERS (angstrom)
   4.686505118   0.000000000   0.000000000
   0.000000000   4.686505118   0.000000000
   0.000000000   0.000000000   4.686505118

ATOMIC_POSITIONS (crystal)
Cs            0.0000000000        0.0000000000        0.0000000000
I             0.5000000000        0.5000000000        0.5000000000



     Writing output data file ./out/CsSnI3.save/
     NEW-OLD atomic charge density approx. for the potential
     extrapolated charge   16.09553, renormalised to   16.00000

     total cpu time spent up to now is       39.3 secs

     Self-consistent Calculation

     iteration #  1     ecut=    90.00 Ry     beta= 0.50
     Davidson diagonalization with overlap
     ethr =  1.00E-06,  avg # of iterations =  2.5

     total cpu time spent up to now is       40.1 secs

     total energy              =    -794.88641557 Ry
     estimated scf accuracy    <       0.00013785 Ry

     iteration #  2     ecut=    90.00 Ry     beta= 0.50
     Davidson diagonalization with overlap
     ethr =  8.62E-07,  avg # of iterations =  5.5

     total cpu time spent up to now is       40.9 secs

     total energy              =    -794.88669262 Ry
     estimated scf accuracy    <       0.00009275 Ry

     iteration #  3     ecut=    90.00 Ry     beta= 0.50
     Davidson diagonalization with overlap
     ethr =  5.80E-07,  avg # of iterations =  1.2

     total cpu time spent up to now is       41.6 secs

     total energy              =    -794.88667388 Ry
     estimated scf accuracy    <       0.00004288 Ry

     iteration #  4     ecut=    90.00 Ry     beta= 0.50
     Davidson diagonalization with overlap
     ethr =  2.68E-07,  avg # of iterations =  2.0

     total cpu time spent up to now is       42.4 secs

     total energy              =    -794.88667882 Ry
     estimated scf accuracy    <       0.00000564 Ry

     iteration #  5     ecut=    90.00 Ry     beta= 0.50
     Davidson diagonalization with overlap
     ethr =  3.52E-08,  avg # of iterations =  5.8

     total cpu time spent up to now is       43.2 secs

     total energy              =    -794.88668678 Ry
     estimated scf accuracy    <       0.00000059 Ry

     iteration #  6     ecut=    90.00 Ry     beta= 0.50
     Davidson diagonalization with overlap
     ethr =  3.71E-09,  avg # of iterations =  6.2

     total cpu time spent up to now is       44.0 secs

     total energy              =    -794.88668624 Ry
     estimated scf accuracy    <       0.00000754 Ry

     iteration #  7     ecut=    90.00 Ry     beta= 0.50
     Davidson diagonalization with overlap
     ethr =  3.71E-09,  avg # of iterations =  2.2

     total cpu time spent up to now is       44.8 secs

     total energy              =    -794.88668380 Ry
     estimated scf accuracy    <       0.00000399 Ry

     iteration #  8     ecut=    90.00 Ry     beta= 0.50
     Davidson diagonalization with overlap
     ethr =  3.71E-09,  avg # of iterations =  5.5

     total cpu time spent up to now is       45.6 secs

     total energy              =    -794.88668501 Ry
     estimated scf accuracy    <       0.00000018 Ry

     iteration #  9     ecut=    90.00 Ry     beta= 0.50
     Davidson diagonalization with overlap
     ethr =  1.10E-09,  avg # of iterations =  4.5

     total cpu time spent up to now is       46.4 secs

     total energy              =    -794.88668504 Ry
     estimated scf accuracy    <       0.00000010 Ry

     iteration # 10     ecut=    90.00 Ry     beta= 0.50
     Davidson diagonalization with overlap
     ethr =  5.97E-10,  avg # of iterations =  3.2

     total cpu time spent up to now is       47.1 secs

     End of self-consistent calculation

          k = 0.0000 0.0000 0.0000 (  9843 PWs)   bands (ev):

   -18.0151  -7.9061  -4.7214  -4.7214  -4.7214   2.5095   2.5095   2.5095

     occupation numbers 
     1.0000   1.0000   1.0000   1.0000   1.0000   1.0000   1.0000   1.0000

          k = 0.0000 0.0000-0.4977 (  9890 PWs)   bands (ev):

   -17.9981  -7.9101  -4.8404  -4.6763  -4.6763   1.2152   2.4044   2.4044

     occupation numbers 
     1.0000   1.0000   1.0000   1.0000   1.0000   1.0000   1.0000   1.0000

          k = 0.0000-0.4977-0.4977 (  9844 PWs)   bands (ev):

   -17.9824  -7.7654  -5.0000  -5.0000  -4.6464   1.8000   1.8000   2.6081

     occupation numbers 
     1.0000   1.0000   1.0000   1.0000   1.0000   1.0000   1.0000   1.0000

          k =-0.4977-0.4977-0.4977 (  9952 PWs)   bands (ev):

   -17.9675  -7.6830  -4.9228  -4.9228  -4.9228   1.4732   1.4732   1.4732

     occupation numbers 
     1.0000   1.0000   1.0000   1.0000   1.0000   1.0000   1.0000   1.0000

     highest occupied level (ev):     2.6081

!    total energy              =    -794.88668507 Ry

     total all-electron energy =    -29807.052689 Ry
     estimated scf accuracy    <          2.7E-09 Ry

     The total energy is the sum of the following terms:
     one-electron contribution =      -4.33856245 Ry
     hartree contribution      =       8.87775398 Ry
     xc contribution           =     -36.97891881 Ry
     ewald contribution        =     -53.05797212 Ry
     one-center paw contrib.   =    -709.38898568 Ry
      -> PAW hartree energy AE =      25.63817525 Ry
      -> PAW hartree energy PS =     -25.52865984 Ry
      -> PAW xc energy AE      =    -383.53051238 Ry
      -> PAW xc energy PS      =      20.51536024 Ry
      -> total E_H with PAW    =       8.98726938 Ry
      -> total E_XC with PAW   =    -399.99407096 Ry

     convergence has been achieved in  10 iterations

     Forces acting on atoms (cartesian axes, Ry/au):

     atom    1 type  1   force =     0.00000000    0.00000000    0.00000000
     atom    2 type  2   force =     0.00000000    0.00000000    0.00000000
     The non-local contrib.  to forces
     atom    1 type  1   force =     0.00000000    0.00000000    0.00000000
     atom    2 type  2   force =     0.00000000    0.00000000    0.00000000
     The ionic contribution  to forces
     atom    1 type  1   force =    -0.00000000   -0.00000000   -0.00000000
     atom    2 type  2   force =    -0.00000000   -0.00000000   -0.00000000
     The local contribution  to forces
     atom    1 type  1   force =     0.00000000    0.00000000    0.00000000
     atom    2 type  2   force =     0.00000000    0.00000000    0.00000000
     The core correction contribution to forces
     atom    1 type  1   force =     0.00000000    0.00000000    0.00000000
     atom    2 type  2   force =     0.00000000    0.00000000    0.00000000
     The Hubbard contrib.    to forces
     atom    1 type  1   force =     0.00000000    0.00000000    0.00000000
     atom    2 type  2   force =     0.00000000    0.00000000    0.00000000
     The SCF correction term to forces
     atom    1 type  1   force =     0.00000000    0.00000000   -0.00000000
     atom    2 type  2   force =     0.00000000    0.00000000    0.00000000

     Total force =     0.000000     Total SCF correction =     0.000000


     Computing stress (Cartesian axis) and pressure

          total   stress  (Ry/bohr**3)                   (kbar)     P=        5.55
   0.00003776   0.00000000   0.00000000            5.55        0.00        0.00
   0.00000000   0.00003776   0.00000000            0.00        5.55        0.00
   0.00000000   0.00000000   0.00003776            0.00        0.00        5.55

     kinetic stress (kbar)   2978.95      0.00      0.00
                                0.00   2978.95      0.00
                                0.00      0.00   2978.95

     local   stress (kbar)  -1101.26     -0.00      0.00
                               -0.00  -1101.26      0.00
                                0.00      0.00  -1101.26

     nonloc. stress (kbar)   2460.71      0.00      0.00
                                0.00   2460.71      0.00
                                0.00      0.00   2460.71

     hartree stress (kbar)    626.71      0.00     -0.00
                                0.00    626.71      0.00
                               -0.00      0.00    626.71

     exc-cor stress (kbar)   4303.43     -0.00     -0.00
                               -0.00   4303.43     -0.00
                               -0.00     -0.00   4303.43

     corecor stress (kbar)  -5517.46      0.00      0.00
                                0.00  -5517.46     -0.00
                                0.00     -0.00  -5517.46

     ewald   stress (kbar)  -3745.53      0.00     -0.00
                                0.00  -3745.53     -0.00
                               -0.00     -0.00  -3745.53

     hubbard stress (kbar)      0.00      0.00      0.00
                                0.00      0.00      0.00
                                0.00      0.00      0.00

     DFT-D   stress (kbar)      0.00      0.00      0.00
                                0.00      0.00      0.00
                                0.00      0.00      0.00

     XDM     stress (kbar)      0.00      0.00      0.00
                                0.00      0.00      0.00
                                0.00      0.00      0.00

     dft-nl  stress (kbar)      0.00      0.00      0.00
                                0.00      0.00      0.00
                                0.00      0.00      0.00

     TS-vdW  stress (kbar)      0.00      0.00      0.00
                                0.00      0.00      0.00
                                0.00      0.00      0.00


     Energy error            =      1.7E-04
     Gradient error          =      0.0E+00
     Cell gradient error     =      3.8E-05


     number of scf cycles    =   4
     number of bfgs steps    =   3

     enthalpy old            =    -794.8865182961 Ry
     enthalpy new            =    -794.8866850692 Ry

     CASE: enthalpy_new < enthalpy_old

     new trust radius        =       0.0158065118 bohr
     new conv_thr            =       0.0000000100 Ry

     new unit-cell volume =    700.88216 a.u.^3 (   103.86002 Ang^3 )
     density =      4.15375 g/cm^3

CELL_PARAMETERS (angstrom)
   4.700558576   0.000000000   0.000000000
   0.000000000   4.700558576   0.000000000
   0.000000000   0.000000000   4.700558576

ATOMIC_POSITIONS (crystal)
Cs            0.0000000000        0.0000000000        0.0000000000
I             0.5000000000        0.5000000000        0.5000000000



     Writing output data file ./out/CsSnI3.save/
     NEW-OLD atomic charge density approx. for the potential
     extrapolated charge   16.14272, renormalised to   16.00000

     total cpu time spent up to now is       52.5 secs

     Self-consistent Calculation

     iteration #  1     ecut=    90.00 Ry     beta= 0.50
     Davidson diagonalization with overlap
     ethr =  1.00E-06,  avg # of iterations =  3.0

     total cpu time spent up to now is       53.4 secs

     total energy              =    -794.88629531 Ry
     estimated scf accuracy    <       0.00030579 Ry

     iteration #  2     ecut=    90.00 Ry     beta= 0.50
     Davidson diagonalization with overlap
     ethr =  1.91E-06,  avg # of iterations =  4.5

     total cpu time spent up to now is       54.2 secs

     total energy              =    -794.88691587 Ry
     estimated scf accuracy    <       0.00020468 Ry

     iteration #  3     ecut=    90.00 Ry     beta= 0.50
     Davidson diagonalization with overlap
     ethr =  1.28E-06,  avg # of iterations =  1.5

     total cpu time spent up to now is       54.9 secs

     total energy              =    -794.88686843 Ry
     estimated scf accuracy    <       0.00009779 Ry

     iteration #  4     ecut=    90.00 Ry     beta= 0.50
     Davidson diagonalization with overlap
     ethr =  6.11E-07,  avg # of iterations =  2.5

     total cpu time spent up to now is       55.7 secs

     total energy              =    -794.88688853 Ry
     estimated scf accuracy    <       0.00000640 Ry

     iteration #  5     ecut=    90.00 Ry     beta= 0.50
     Davidson diagonalization with overlap
     ethr =  4.00E-08,  avg # of iterations =  7.0

     total cpu time spent up to now is       69.4 secs

     total energy              =    -794.88689790 Ry
     estimated scf accuracy    <       0.00000215 Ry

     iteration #  6     ecut=    90.00 Ry     beta= 0.50
     Davidson diagonalization with overlap
     ethr =  1.35E-08,  avg # of iterations =  4.0

     total cpu time spent up to now is       80.1 secs

     total energy              =    -794.88690348 Ry
     estimated scf accuracy    <       0.00000527 Ry

     iteration #  7     ecut=    90.00 Ry     beta= 0.50
     Davidson diagonalization with overlap
     ethr =  1.35E-08,  avg # of iterations =  4.8

     total cpu time spent up to now is       90.4 secs

     total energy              =    -794.88690012 Ry
     estimated scf accuracy    <       0.00000899 Ry

     iteration #  8     ecut=    90.00 Ry     beta= 0.50
     Davidson diagonalization with overlap
     ethr =  1.35E-08,  avg # of iterations =  2.0

     total cpu time spent up to now is       91.2 secs

     total energy              =    -794.88689897 Ry
     estimated scf accuracy    <       0.00000219 Ry

     iteration #  9     ecut=    90.00 Ry     beta= 0.50
     Davidson diagonalization with overlap
     ethr =  1.35E-08,  avg # of iterations =  4.5

     total cpu time spent up to now is       92.0 secs

     total energy              =    -794.88690006 Ry
     estimated scf accuracy    <       0.00000034 Ry

     iteration # 10     ecut=    90.00 Ry     beta= 0.50
     Davidson diagonalization with overlap
     ethr =  2.14E-09,  avg # of iterations =  2.5

     total cpu time spent up to now is       92.7 secs

     total energy              =    -794.88690002 Ry
     estimated scf accuracy    <       0.00000037 Ry

     iteration # 11     ecut=    90.00 Ry     beta= 0.50
     Davidson diagonalization with overlap
     ethr =  2.14E-09,  avg # of iterations =  1.0

     total cpu time spent up to now is       93.4 secs

     total energy              =    -794.88689999 Ry
     estimated scf accuracy    <       0.00000021 Ry

     iteration # 12     ecut=    90.00 Ry     beta= 0.50
     Davidson diagonalization with overlap
     ethr =  1.28E-09,  avg # of iterations =  1.0

     total cpu time spent up to now is       94.2 secs

     total energy              =    -794.88689991 Ry
     estimated scf accuracy    <       0.00000014 Ry

     iteration # 13     ecut=    90.00 Ry     beta= 0.50
     Davidson diagonalization with overlap
     ethr =  8.74E-10,  avg # of iterations =  4.2

     total cpu time spent up to now is       95.0 secs

     total energy              =    -794.88689998 Ry
     estimated scf accuracy    <       0.00000001 Ry

     iteration # 14     ecut=    90.00 Ry     beta= 0.50
     Davidson diagonalization with overlap
     ethr =  9.33E-11,  avg # of iterations =  6.0

     total cpu time spent up to now is       95.8 secs

     total energy              =    -794.88689998 Ry
     estimated scf accuracy    <       0.00000010 Ry

     iteration # 15     ecut=    90.00 Ry     beta= 0.50
     Davidson diagonalization with overlap
     ethr =  9.33E-11,  avg # of iterations =  2.5

     total cpu time spent up to now is       96.6 secs

     total energy              =    -794.88690000 Ry
     estimated scf accuracy    <       0.00000006 Ry

     iteration # 16     ecut=    90.00 Ry     beta= 0.50
     Davidson diagonalization with overlap
     ethr =  9.33E-11,  avg # of iterations =  2.0

     total cpu time spent up to now is      107.1 secs

     total energy              =    -794.88690011 Ry
     estimated scf accuracy    <       0.00000007 Ry

     iteration # 17     ecut=    90.00 Ry     beta= 0.50
     Davidson diagonalization with overlap
     ethr =  9.33E-11,  avg # of iterations =  5.0

     total cpu time spent up to now is      116.8 secs

     total energy              =    -794.88690009 Ry
     estimated scf accuracy    <       0.00000050 Ry

     iteration # 18     ecut=    90.00 Ry     beta= 0.50
     Davidson diagonalization with overlap
     ethr =  9.33E-11,  avg # of iterations =  3.2

     total cpu time spent up to now is      117.6 secs

     total energy              =    -794.88690002 Ry
     estimated scf accuracy    <       0.00000033 Ry

     iteration # 19     ecut=    90.00 Ry     beta= 0.50
     Davidson diagonalization with overlap
     ethr =  9.33E-11,  avg # of iterations =  4.0

     total cpu time spent up to now is      118.4 secs

     total energy              =    -794.88689997 Ry
     estimated scf accuracy    <       0.00000015 Ry

     iteration # 20     ecut=    90.00 Ry     beta= 0.50
     Davidson diagonalization with overlap
     ethr =  9.33E-11,  avg # of iterations =  4.0

     total cpu time spent up to now is      119.2 secs

     total energy              =    -794.88689998 Ry
     estimated scf accuracy    <       0.00000002 Ry

     iteration # 21     ecut=    90.00 Ry     beta= 0.50
     Davidson diagonalization with overlap
     ethr =  9.33E-11,  avg # of iterations =  1.0

     total cpu time spent up to now is      120.0 secs

     total energy              =    -794.88689997 Ry
     estimated scf accuracy    <       0.00000002 Ry

     iteration # 22     ecut=    90.00 Ry     beta= 0.50
     Davidson diagonalization with overlap
     ethr =  9.33E-11,  avg # of iterations =  4.0

     total cpu time spent up to now is      120.7 secs

     End of self-consistent calculation

          k = 0.0000 0.0000 0.0000 (  9843 PWs)   bands (ev):

   -18.0956  -7.9622  -4.8028  -4.8028  -4.8028   2.4411   2.4411   2.4411

     occupation numbers 
     1.0000   1.0000   1.0000   1.0000   1.0000   1.0000   1.0000   1.0000

          k = 0.0000 0.0000-0.4962 (  9890 PWs)   bands (ev):

   -18.0792  -7.9649  -4.9207  -4.7594  -4.7594   1.1672   2.3407   2.3407

     occupation numbers 
     1.0000   1.0000   1.0000   1.0000   1.0000   1.0000   1.0000   1.0000

          k = 0.0000-0.4962-0.4962 (  9844 PWs)   bands (ev):

   -18.0642  -7.8249  -5.0732  -5.0732  -4.7304   1.7396   1.7396   2.5403

     occupation numbers 
     1.0000   1.0000   1.0000   1.0000   1.0000   1.0000   1.0000   1.0000

          k =-0.4962-0.4962-0.4962 (  9952 PWs)   bands (ev):

   -18.0499  -7.7450  -4.9991  -4.9991  -4.9991   1.4247   1.4247   1.4247

     occupation numbers 
     1.0000   1.0000   1.0000   1.0000   1.0000   1.0000   1.0000   1.0000

     highest occupied level (ev):     2.5403

!    total energy              =    -794.88689997 Ry

     total all-electron energy =    -29807.052904 Ry
     estimated scf accuracy    <          2.6E-09 Ry

     The total energy is the sum of the following terms:
     one-electron contribution =      -4.57673612 Ry
     hartree contribution      =       8.95314296 Ry
     xc contribution           =     -36.97530432 Ry
     ewald contribution        =     -52.89934246 Ry
     one-center paw contrib.   =    -709.38866002 Ry
      -> PAW hartree energy AE =      25.63145819 Ry
      -> PAW hartree energy PS =     -25.52195387 Ry
      -> PAW xc energy AE      =    -383.52943606 Ry
      -> PAW xc energy PS      =      20.51439378 Ry
      -> total E_H with PAW    =       9.06264728 Ry
      -> total E_XC with PAW   =    -399.99034660 Ry

     convergence has been achieved in  22 iterations

     Forces acting on atoms (cartesian axes, Ry/au):

     atom    1 type  1   force =     0.00000000    0.00000000    0.00000000
     atom    2 type  2   force =     0.00000000    0.00000000    0.00000000
     The non-local contrib.  to forces
     atom    1 type  1   force =     0.00000000    0.00000000    0.00000000
     atom    2 type  2   force =     0.00000000    0.00000000    0.00000000
     The ionic contribution  to forces
     atom    1 type  1   force =    -0.00000000   -0.00000000   -0.00000000
     atom    2 type  2   force =    -0.00000000   -0.00000000   -0.00000000
     The local contribution  to forces
     atom    1 type  1   force =     0.00000000    0.00000000    0.00000000
     atom    2 type  2   force =     0.00000000    0.00000000    0.00000000
     The core correction contribution to forces
     atom    1 type  1   force =     0.00000000    0.00000000    0.00000000
     atom    2 type  2   force =     0.00000000    0.00000000    0.00000000
     The Hubbard contrib.    to forces
     atom    1 type  1   force =     0.00000000    0.00000000    0.00000000
     atom    2 type  2   force =     0.00000000    0.00000000    0.00000000
     The SCF correction term to forces
     atom    1 type  1   force =    -0.00000000    0.00000000    0.00000000
     atom    2 type  2   force =    -0.00000000   -0.00000000   -0.00000000

     Total force =     0.000000     Total SCF correction =     0.000000


     Computing stress (Cartesian axis) and pressure

          total   stress  (Ry/bohr**3)                   (kbar)     P=        4.53
   0.00003076   0.00000000   0.00000000            4.53        0.00        0.00
   0.00000000   0.00003076   0.00000000            0.00        4.53        0.00
   0.00000000   0.00000000   0.00003076            0.00        0.00        4.53

     kinetic stress (kbar)   2951.27      0.00      0.00
                                0.00   2951.27      0.00
                                0.00      0.00   2951.27

     local   stress (kbar)  -1107.61      0.00     -0.00
                                0.00  -1107.61     -0.00
                               -0.00     -0.00  -1107.61

     nonloc. stress (kbar)   2438.37      0.00      0.00
                                0.00   2438.37      0.00
                                0.00      0.00   2438.37

     hartree stress (kbar)    626.38      0.00      0.00
                                0.00    626.38      0.00
                                0.00      0.00    626.38

     exc-cor stress (kbar)   4265.11      0.00      0.00
                                0.00   4265.11      0.00
                                0.00      0.00   4265.11

     corecor stress (kbar)  -5468.06      0.00     -0.00
                                0.00  -5468.06     -0.00
                               -0.00     -0.00  -5468.06

     ewald   stress (kbar)  -3700.94     -0.00     -0.00
                               -0.00  -3700.94     -0.00
                               -0.00     -0.00  -3700.94

     hubbard stress (kbar)      0.00      0.00      0.00
                                0.00      0.00      0.00
                                0.00      0.00      0.00

     DFT-D   stress (kbar)      0.00      0.00      0.00
                                0.00      0.00      0.00
                                0.00      0.00      0.00

     XDM     stress (kbar)      0.00      0.00      0.00
                                0.00      0.00      0.00
                                0.00      0.00      0.00

     dft-nl  stress (kbar)      0.00      0.00      0.00
                                0.00      0.00      0.00
                                0.00      0.00      0.00

     TS-vdW  stress (kbar)      0.00      0.00      0.00
                                0.00      0.00      0.00
                                0.00      0.00      0.00


     Energy error            =      2.1E-04
     Gradient error          =      0.0E+00
     Cell gradient error     =      3.1E-05


     number of scf cycles    =   5
     number of bfgs steps    =   4

     enthalpy old            =    -794.8866850692 Ry
     enthalpy new            =    -794.8868999727 Ry

     CASE: enthalpy_new < enthalpy_old

     new trust radius        =       0.0237452905 bohr
     new conv_thr            =       0.0000000100 Ry

     new unit-cell volume =    710.35407 a.u.^3 (   105.26361 Ang^3 )
     density =      4.09836 g/cm^3

CELL_PARAMETERS (angstrom)
   4.721638763   0.000000000   0.000000000
   0.000000000   4.721638763   0.000000000
   0.000000000   0.000000000   4.721638763

ATOMIC_POSITIONS (crystal)
Cs            0.0000000000        0.0000000000        0.0000000000
I             0.5000000000        0.5000000000        0.5000000000



     Writing output data file ./out/CsSnI3.save/
     NEW-OLD atomic charge density approx. for the potential
     extrapolated charge   16.21282, renormalised to   16.00000

     total cpu time spent up to now is      126.3 secs

     Self-consistent Calculation

     iteration #  1     ecut=    90.00 Ry     beta= 0.50
     Davidson diagonalization with overlap
     ethr =  1.00E-06,  avg # of iterations =  4.8

     total cpu time spent up to now is      127.1 secs

     total energy              =    -794.88578786 Ry
     estimated scf accuracy    <       0.00067865 Ry

     iteration #  2     ecut=    90.00 Ry     beta= 0.50
     Davidson diagonalization with overlap
     ethr =  4.24E-06,  avg # of iterations =  4.5

     total cpu time spent up to now is      127.9 secs

     total energy              =    -794.88718313 Ry
     estimated scf accuracy    <       0.00046860 Ry

     iteration #  3     ecut=    90.00 Ry     beta= 0.50
[...]


      isym = 39     inv.  90 deg rotation - cart. axis [-1,0,0]  

 cryst.   s(39) = (    -1          0          0      )
                  (     0          0          1      )
                  (     0         -1          0      )

 cart.    s(39) = ( -1.0000000  0.0000000  0.0000000 )
                  (  0.0000000  0.0000000 -1.0000000 )
                  (  0.0000000  1.0000000  0.0000000 )


      isym = 40     inv.  90 deg rotation - cart. axis [1,0,0]   

 cryst.   s(40) = (    -1          0          0      )
                  (     0          0         -1      )
                  (     0          1          0      )

 cart.    s(40) = ( -1.0000000  0.0000000  0.0000000 )
                  (  0.0000000  0.0000000  1.0000000 )
                  (  0.0000000 -1.0000000  0.0000000 )


      isym = 41     inv. 120 deg rotation - cart. axis [-1,-1,-1]

 cryst.   s(41) = (     0          0         -1      )
                  (    -1          0          0      )
                  (     0         -1          0      )

 cart.    s(41) = (  0.0000000 -1.0000000  0.0000000 )
                  (  0.0000000  0.0000000 -1.0000000 )
                  ( -1.0000000  0.0000000  0.0000000 )


      isym = 42     inv. 120 deg rotation - cart. axis [-1,1,1]  

 cryst.   s(42) = (     0          0          1      )
                  (     1          0          0      )
                  (     0         -1          0      )

 cart.    s(42) = (  0.0000000  1.0000000  0.0000000 )
                  (  0.0000000  0.0000000 -1.0000000 )
                  (  1.0000000  0.0000000  0.0000000 )


      isym = 43     inv. 120 deg rotation - cart. axis [1,1,-1]  

 cryst.   s(43) = (     0          0          1      )
                  (    -1          0          0      )
                  (     0          1          0      )

 cart.    s(43) = (  0.0000000 -1.0000000  0.0000000 )
                  (  0.0000000  0.0000000  1.0000000 )
                  (  1.0000000  0.0000000  0.0000000 )


      isym = 44     inv. 120 deg rotation - cart. axis [1,-1,1]  

 cryst.   s(44) = (     0          0         -1      )
                  (     1          0          0      )
                  (     0          1          0      )

 cart.    s(44) = (  0.0000000  1.0000000  0.0000000 )
                  (  0.0000000  0.0000000  1.0000000 )
                  ( -1.0000000  0.0000000  0.0000000 )


      isym = 45     inv. 120 deg rotation - cart. axis [1,1,1]   

 cryst.   s(45) = (     0         -1          0      )
                  (     0          0         -1      )
                  (    -1          0          0      )

 cart.    s(45) = (  0.0000000  0.0000000 -1.0000000 )
                  ( -1.0000000  0.0000000  0.0000000 )
                  (  0.0000000 -1.0000000  0.0000000 )


      isym = 46     inv. 120 deg rotation - cart. axis [-1,1,-1] 

 cryst.   s(46) = (     0          1          0      )
                  (     0          0          1      )
                  (    -1          0          0      )

 cart.    s(46) = (  0.0000000  0.0000000 -1.0000000 )
                  (  1.0000000  0.0000000  0.0000000 )
                  (  0.0000000  1.0000000  0.0000000 )


      isym = 47     inv. 120 deg rotation - cart. axis [1,-1,-1] 

 cryst.   s(47) = (     0          1          0      )
                  (     0          0         -1      )
                  (     1          0          0      )

 cart.    s(47) = (  0.0000000  0.0000000  1.0000000 )
                  (  1.0000000  0.0000000  0.0000000 )
                  (  0.0000000 -1.0000000  0.0000000 )


      isym = 48     inv. 120 deg rotation - cart. axis [-1,-1,1] 

 cryst.   s(48) = (     0         -1          0      )
                  (     0          0          1      )
                  (     1          0          0      )

 cart.    s(48) = (  0.0000000  0.0000000  1.0000000 )
                  ( -1.0000000  0.0000000  0.0000000 )
                  (  0.0000000  1.0000000  0.0000000 )


   Cartesian axes

     site n.     atom                  positions (alat units)
         1           Cs  tau(   1) = (   0.0000000   0.0000000   0.0000000  )
         2           I   tau(   2) = (   0.5111431   0.5111431   0.5111431  )

   Crystallographic axes

     site n.     atom                  positions (cryst. coord.)
         1           Cs  tau(   1) = (  0.0000000  0.0000000  0.0000000  )
         2           I   tau(   2) = (  0.5000000  0.5000000  0.5000000  )

     number of k points=     4
                       cart. coord. in units 2pi/alat
        k(    1) = (   0.0000000   0.0000000   0.0000000), wk =   0.2500000
        k(    2) = (   0.0000000   0.0000000  -0.4890998), wk =   0.7500000
        k(    3) = (   0.0000000  -0.4890998  -0.4890998), wk =   0.7500000
        k(    4) = (  -0.4890998  -0.4890998  -0.4890998), wk =   0.2500000

                       cryst. coord.
        k(    1) = (   0.0000000   0.0000000   0.0000000), wk =   0.2500000
        k(    2) = (   0.0000000   0.0000000  -0.5000000), wk =   0.7500000
        k(    3) = (   0.0000000  -0.5000000  -0.5000000), wk =   0.7500000
        k(    4) = (  -0.5000000  -0.5000000  -0.5000000), wk =   0.2500000

     Dense  grid:    84439 G-vectors     FFT dimensions: (  60,  60,  60)

     Dynamical RAM for                 wfc:       0.07 MB

     Dynamical RAM for     wfc (w. buffer):       0.34 MB

     Dynamical RAM for           str. fact:       0.14 MB

     Dynamical RAM for           local pot:       0.06 MB

     Dynamical RAM for          nlocal pot:       0.43 MB

     Dynamical RAM for                qrad:      18.27 MB

     Dynamical RAM for          rho,v,vnew:       0.53 MB

     Dynamical RAM for               rhoin:       0.18 MB

     Dynamical RAM for            rho*nmix:       1.08 MB

     Dynamical RAM for           G-vectors:       0.29 MB

     Dynamical RAM for          h,s,v(r/c):       0.01 MB

     Dynamical RAM for          <psi|beta>:       0.01 MB

     Dynamical RAM for                 psi:       0.14 MB

     Dynamical RAM for                hpsi:       0.14 MB

     Dynamical RAM for                spsi:       0.14 MB

     Dynamical RAM for      wfcinit/wfcrot:       0.15 MB

     Dynamical RAM for           addusdens:      39.94 MB

     Dynamical RAM for          addusforce:      39.99 MB

     Dynamical RAM for         addusstress:      41.70 MB

     Estimated static dynamical RAM per process >      22.08 MB

     Estimated max dynamical RAM per process >      63.78 MB

     Estimated total dynamical RAM >       1.18 GB

     Initial potential from superposition of free atoms

     starting charge   15.96031, renormalised to   16.00000
     Starting wfcs are    9 randomized atomic wfcs
     Checking if some PAW data can be deallocated... 
       PAW data deallocated on    9 nodes for type:  1
       PAW data deallocated on   10 nodes for type:  2

     total cpu time spent up to now is      182.4 secs

     Self-consistent Calculation

     iteration #  1     ecut=    90.00 Ry     beta= 0.50
     Davidson diagonalization with overlap
     ethr =  1.00E-06,  avg # of iterations = 18.0

     total cpu time spent up to now is      183.9 secs

     total energy              =    -794.87865131 Ry
     estimated scf accuracy    <       0.04395679 Ry

     iteration #  2     ecut=    90.00 Ry     beta= 0.50
     Davidson diagonalization with overlap
     ethr =  2.75E-04,  avg # of iterations =  2.0

     total cpu time spent up to now is      184.7 secs

     total energy              =    -794.88658256 Ry
     estimated scf accuracy    <       0.00258430 Ry

     iteration #  3     ecut=    90.00 Ry     beta= 0.50
     Davidson diagonalization with overlap
     ethr =  1.62E-05,  avg # of iterations =  3.2

     total cpu time spent up to now is      185.5 secs

     total energy              =    -794.88725174 Ry
     estimated scf accuracy    <       0.00045301 Ry

     iteration #  4     ecut=    90.00 Ry     beta= 0.50
     Davidson diagonalization with overlap
     ethr =  2.83E-06,  avg # of iterations =  2.8

     total cpu time spent up to now is      186.3 secs

     total energy              =    -794.88735168 Ry
     estimated scf accuracy    <       0.00001502 Ry

     iteration #  5     ecut=    90.00 Ry     beta= 0.50
     Davidson diagonalization with overlap
     ethr =  9.39E-08,  avg # of iterations =  8.0

     total cpu time spent up to now is      187.4 secs

     total energy              =    -794.88739136 Ry
     estimated scf accuracy    <       0.00000423 Ry

     iteration #  6     ecut=    90.00 Ry     beta= 0.50
     Davidson diagonalization with overlap
     ethr =  2.64E-08,  avg # of iterations =  5.2

     total cpu time spent up to now is      188.3 secs

     total energy              =    -794.88739017 Ry
     estimated scf accuracy    <       0.00001065 Ry

     iteration #  7     ecut=    90.00 Ry     beta= 0.50
     Davidson diagonalization with overlap
     ethr =  2.64E-08,  avg # of iterations =  3.8

     total cpu time spent up to now is      189.1 secs

     total energy              =    -794.88739335 Ry
     estimated scf accuracy    <       0.00000085 Ry

     iteration #  8     ecut=    90.00 Ry     beta= 0.50
     Davidson diagonalization with overlap
     ethr =  5.30E-09,  avg # of iterations =  3.0

     total cpu time spent up to now is      189.9 secs

     total energy              =    -794.88739363 Ry
     estimated scf accuracy    <       0.00000001 Ry

     iteration #  9     ecut=    90.00 Ry     beta= 0.50
     Davidson diagonalization with overlap
     ethr =  7.40E-11,  avg # of iterations = 12.5

     total cpu time spent up to now is      191.1 secs

     total energy              =    -794.88739372 Ry
     estimated scf accuracy    <       0.00000001 Ry

     iteration # 10     ecut=    90.00 Ry     beta= 0.50
     Davidson diagonalization with overlap
     ethr =  6.48E-11,  avg # of iterations =  1.5

     total cpu time spent up to now is      191.9 secs

     total energy              =    -794.88739372 Ry
     estimated scf accuracy    <       0.00000001 Ry

     iteration # 11     ecut=    90.00 Ry     beta= 0.50
     Davidson diagonalization with overlap
     ethr =  6.48E-11,  avg # of iterations =  3.2

     total cpu time spent up to now is      192.7 secs

     End of self-consistent calculation

          k = 0.0000 0.0000 0.0000 ( 10635 PWs)   bands (ev):

   -18.4793  -8.2256  -5.1907  -5.1907  -5.1907   2.1217   2.1217   2.1217

     occupation numbers 
     1.0000   1.0000   1.0000   1.0000   1.0000   1.0000   1.0000   1.0000

          k = 0.0000 0.0000-0.4891 ( 10516 PWs)   bands (ev):

   -18.4660  -8.2231  -5.3023  -5.1545  -5.1545   0.9423   2.0416   2.0416

     occupation numbers 
     1.0000   1.0000   1.0000   1.0000   1.0000   1.0000   1.0000   1.0000

          k = 0.0000-0.4891-0.4891 ( 10568 PWs)   bands (ev):

   -18.4537  -8.1040  -5.4243  -5.4243  -5.1297   1.4588   1.4588   2.2225

     occupation numbers 
     1.0000   1.0000   1.0000   1.0000   1.0000   1.0000   1.0000   1.0000

          k =-0.4891-0.4891-0.4891 ( 10552 PWs)   bands (ev):

   -18.4418  -8.0348  -5.3635  -5.3635  -5.3635   1.1967   1.1967   1.1967

     occupation numbers 
     1.0000   1.0000   1.0000   1.0000   1.0000   1.0000   1.0000   1.0000

     highest occupied level (ev):     2.2225

!    total energy              =    -794.88739372 Ry

     total all-electron energy =    -29807.053398 Ry
     estimated scf accuracy    <          1.4E-09 Ry

     The total energy is the sum of the following terms:
     one-electron contribution =      -5.72431110 Ry
     hartree contribution      =       9.32158717 Ry
     xc contribution           =     -36.95913023 Ry
     ewald contribution        =     -52.13817520 Ry
     one-center paw contrib.   =    -709.38736437 Ry
      -> PAW hartree energy AE =      25.60850778 Ry
      -> PAW hartree energy PS =     -25.49904705 Ry
      -> PAW xc energy AE      =    -383.52575749 Ry
      -> PAW xc energy PS      =      20.51108990 Ry
      -> total E_H with PAW    =       9.43104790 Ry
      -> total E_XC with PAW   =    -399.97379781 Ry

     convergence has been achieved in  11 iterations

     Forces acting on atoms (cartesian axes, Ry/au):

     atom    1 type  1   force =     0.00000000    0.00000000    0.00000000
     atom    2 type  2   force =     0.00000000    0.00000000    0.00000000
     The non-local contrib.  to forces
     atom    1 type  1   force =     0.00000000    0.00000000    0.00000000
     atom    2 type  2   force =     0.00000000    0.00000000    0.00000000
     The ionic contribution  to forces
     atom    1 type  1   force =    -0.00000000   -0.00000000   -0.00000000
     atom    2 type  2   force =     0.00000000    0.00000000    0.00000000
     The local contribution  to forces
     atom    1 type  1   force =     0.00000000    0.00000000    0.00000000
     atom    2 type  2   force =     0.00000000    0.00000000    0.00000000
     The core correction contribution to forces
     atom    1 type  1   force =     0.00000000    0.00000000    0.00000000
     atom    2 type  2   force =    -0.00000000   -0.00000000   -0.00000000
     The Hubbard contrib.    to forces
     atom    1 type  1   force =     0.00000000    0.00000000    0.00000000
     atom    2 type  2   force =     0.00000000    0.00000000    0.00000000
     The SCF correction term to forces
     atom    1 type  1   force =    -0.00000000    0.00000000   -0.00000000
     atom    2 type  2   force =     0.00000000   -0.00000000   -0.00000000

     Total force =     0.000000     Total SCF correction =     0.000000


     Computing stress (Cartesian axis) and pressure

          total   stress  (Ry/bohr**3)                   (kbar)     P=        0.25
   0.00000168   0.00000000   0.00000000            0.25        0.00        0.00
   0.00000000   0.00000168   0.00000000            0.00        0.25        0.00
   0.00000000   0.00000000   0.00000168            0.00        0.00        0.25

     kinetic stress (kbar)   2821.27      0.00      0.00
                                0.00   2821.27      0.00
                                0.00      0.00   2821.27

     local   stress (kbar)  -1135.38      0.00      0.00
                                0.00  -1135.38     -0.00
                                0.00     -0.00  -1135.38

     nonloc. stress (kbar)   2333.25      0.00      0.00
                                0.00   2333.25      0.00
                                0.00      0.00   2333.25

     hartree stress (kbar)    624.41     -0.00      0.00
                               -0.00    624.41     -0.00
                                0.00     -0.00    624.41

     exc-cor stress (kbar)   4084.34     -0.00      0.00
                               -0.00   4084.34     -0.00
                                0.00     -0.00   4084.34

     corecor stress (kbar)  -5235.16     -0.00     -0.00
                               -0.00  -5235.16      0.00
                               -0.00      0.00  -5235.16

     ewald   stress (kbar)  -3492.48      0.00     -0.00
                                0.00  -3492.48     -0.00
                               -0.00     -0.00  -3492.48

     hubbard stress (kbar)      0.00      0.00      0.00
                                0.00      0.00      0.00
                                0.00      0.00      0.00

     DFT-D   stress (kbar)      0.00      0.00      0.00
                                0.00      0.00      0.00
                                0.00      0.00      0.00

     XDM     stress (kbar)      0.00      0.00      0.00
                                0.00      0.00      0.00
                                0.00      0.00      0.00

     dft-nl  stress (kbar)      0.00      0.00      0.00
                                0.00      0.00      0.00
                                0.00      0.00      0.00

     TS-vdW  stress (kbar)      0.00      0.00      0.00
                                0.00      0.00      0.00
                                0.00      0.00      0.00



     Writing output data file ./out/CsSnI3.save/

     init_run     :      3.79s CPU      3.90s WALL (       2 calls)
     electrons    :    130.06s CPU    146.20s WALL (       9 calls)
     update_pot   :     10.87s CPU     10.93s WALL (       7 calls)
     forces       :      6.82s CPU      6.97s WALL (       9 calls)
     stress       :     23.33s CPU     23.64s WALL (       9 calls)

     Called by init_run:
     wfcinit      :      0.12s CPU      0.13s WALL (       2 calls)
     wfcinit:atom :      0.00s CPU      0.00s WALL (       8 calls)
     wfcinit:wfcr :      0.11s CPU      0.11s WALL (       8 calls)
     potinit      :      1.36s CPU      1.39s WALL (       2 calls)
     hinit0       :      1.89s CPU      1.90s WALL (       2 calls)

     Called by electrons:
     c_bands      :     52.15s CPU     61.43s WALL (     115 calls)
     sum_band     :     18.09s CPU     21.09s WALL (     115 calls)
     v_of_rho     :      3.39s CPU      3.85s WALL (     123 calls)
     v_h          :      0.42s CPU      0.51s WALL (     123 calls)
     v_xc         :      3.21s CPU      3.59s WALL (     141 calls)
     newd         :     11.74s CPU     13.37s WALL (     123 calls)
     PAW_pot      :     46.33s CPU     47.06s WALL (     130 calls)
     mix_rho      :      3.66s CPU      4.30s WALL (     115 calls)

     Called by c_bands:
     init_us_2    :      0.69s CPU      0.77s WALL (    1028 calls)
     cegterg      :     49.34s CPU     57.72s WALL (     460 calls)

     Called by sum_band:
     sum_band:wei :      0.00s CPU      0.00s WALL (     115 calls)
     sum_band:loo :      4.83s CPU      5.72s WALL (     115 calls)
     sum_band:buf :      0.01s CPU      0.01s WALL (     460 calls)
     sum_band:ini :      0.32s CPU      0.33s WALL (     460 calls)
     sum_band:cal :      0.91s CPU      1.10s WALL (     488 calls)
     sum_band:bec :      0.02s CPU      0.02s WALL (     488 calls)
     addusdens    :      9.58s CPU     11.14s WALL (     115 calls)
     addusd:skk   :      0.01s CPU      0.01s WALL (     230 calls)
     addusd:dgemm :      1.53s CPU      3.00s WALL (     230 calls)
     addusd:qvan2 :      6.60s CPU      6.63s WALL (     230 calls)

     Called by *egterg:
     cdiaghg      :      0.29s CPU      0.30s WALL (    2243 calls)
     cegterg:over :      6.67s CPU      8.38s WALL (    1815 calls)
     cegterg:upda :      0.27s CPU      0.27s WALL (    1815 calls)
     cegterg:last :      0.65s CPU      0.66s WALL (    1396 calls)
     h_psi        :     34.91s CPU     40.01s WALL (    2283 calls)
     s_psi        :      1.08s CPU      1.10s WALL (    2283 calls)
     g_psi        :      0.06s CPU      0.06s WALL (    1815 calls)

     Called by h_psi:
     h_psi:calbec :      4.55s CPU      5.27s WALL (    2283 calls)
     vloc_psi     :     29.22s CPU     33.59s WALL (    2283 calls)
     add_vuspsi   :      1.09s CPU      1.11s WALL (    2283 calls)

     General routines
     calbec       :      5.62s CPU      6.54s WALL (    2951 calls)
     fft          :      3.72s CPU      4.18s WALL (    1586 calls)
     ffts         :      0.25s CPU      0.35s WALL (     115 calls)
     fftw         :     32.16s CPU     37.19s WALL (   29846 calls)

     Parallel routines
     fft_scatt_xy :      0.96s CPU      0.97s WALL (   31547 calls)
     fft_scatt_yz :     25.91s CPU     31.26s WALL (   31547 calls)

     PAW routines
     PAW_pot      :     46.33s CPU     47.06s WALL (     130 calls)
     PAW_symme    :      1.19s CPU      1.24s WALL (     245 calls)

     PWSCF        :   2m59.26s CPU   3m16.52s WALL


   This run was terminated on:  13: 3:44  14Jan2021            

=------------------------------------------------------------------------------=
   JOB DONE.
=------------------------------------------------------------------------------=
