
     Program PWSCF v.6.0 (svn rev. 13079) starts on 31Jan2021 at 16: 9:55 

     This program is part of the open-source Quantum ESPRESSO suite
     for quantum simulation of materials; please cite
         "P. Giannozzi et al., J. Phys.:Condens. Matter 21 395502 (2009);
          URL http://www.quantum-espresso.org", 
     in publications or presentations arising from this work. More details at
     http://www.quantum-espresso.org/quote

     Parallel version (MPI & OpenMP), running on      96 processor cores
     Number of MPI processes:                48
     Threads/MPI process:                     2
     R & G space division:  proc/nbgrp/npool/nimage =      48
     Waiting for input...
     Reading input from standard input

     Current dimensions of program PWSCF are:
     Max number of different atomic species (ntypx) = 10
     Max number of k-points (npk) =  40000
     Max angular momentum in pseudopotentials (lmaxx) =  3
               file Cs.rel-pbesol-spn-rrkjus_psl.1.0.0.UPF: wavefunction(s)  5S 6S renormalized
               file Sn.rel-pbesol-dn-rrkjus_psl.1.0.0.UPF: wavefunction(s)  5S 4D 4D renormalized
               file I.rel-pbesol-n-rrkjus_psl.1.0.0.UPF: wavefunction(s)  5S renormalized

     Subspace diagonalization in iterative solution of the eigenvalue problem:
     a serial algorithm will be used


     Parallelization info
     --------------------
     sticks:   dense  smooth     PW     G-vecs:    dense   smooth      PW
     Min         206     164     42                22234    15902    2082
     Max         207     165     43                22239    15911    2089
     Sum        9911    7915   2049              1067339   763571  100085


     Title: 
     CsSnI3                                                                     


     bravais-lattice index     =            8
     lattice parameter (alat)  =      16.5033  a.u.
     unit-cell volume          =    6621.2472 (a.u.)^3
     number of atoms/cell      =           20
     number of atomic types    =            3
     number of electrons       =       176.00
     number of Kohn-Sham states=          176
     kinetic-energy cutoff     =      90.0000  Ry
     charge density cutoff     =     450.0000  Ry
     convergence threshold     =      1.0E-06
     mixing beta               =       0.3500
     number of iterations used =            8  plain     mixing
     Exchange-correlation      = PBESOL ( 1  4 10  8 0 0)
     Non magnetic calculation with spin-orbit


     celldm(1)=  16.503301  celldm(2)=   1.015921  celldm(3)=   1.449998
     celldm(4)=   0.000000  celldm(5)=   0.000000  celldm(6)=   0.000000

     crystal axes: (cart. coord. in units of alat)
               a(1) = (   1.000000   0.000000   0.000000 )  
               a(2) = (   0.000000   1.015921   0.000000 )  
               a(3) = (   0.000000   0.000000   1.449998 )  

     reciprocal axes: (cart. coord. in units 2 pi/alat)
               b(1) = (  1.000000  0.000000  0.000000 )  
               b(2) = (  0.000000  0.984329  0.000000 )  
               b(3) = (  0.000000  0.000000  0.689656 )  


     PseudoPot. # 1 for Cs read from file:
     /scratch/cmalosso/degironcoli/pseudo/pseudo-usp/Cs.rel-pbesol-spn-rrkjus_psl.1.0.0.UPF
     MD5 check sum: 846889b67fb1b19751b5b37931589d70
     Pseudo is Ultrasoft + core correction, Zval =  9.0
     Generated using "atomic" code by A. Dal Corso  v.6.4.1
     Using radial grid of 1251 points, 15 beta functions with: 
                l(1) =   0
                l(2) =   0
                l(3) =   0
                l(4) =   1
                l(5) =   1
                l(6) =   1
                l(7) =   1
                l(8) =   2
                l(9) =   2
               l(10) =   2
               l(11) =   2
               l(12) =   3
               l(13) =   3
               l(14) =   3
               l(15) =   3
     Q(r) pseudized with 0 coefficients 


     PseudoPot. # 2 for Sn read from file:
     /scratch/cmalosso/degironcoli/pseudo/pseudo-usp/Sn.rel-pbesol-dn-rrkjus_psl.1.0.0.UPF
     MD5 check sum: c1cf6ea56b96a3656bdf0d1db379e093
     Pseudo is Ultrasoft + core correction, Zval = 14.0
     Generated using "atomic" code by A. Dal Corso  v.6.3
     Using radial grid of 1243 points, 10 beta functions with: 
                l(1) =   0
                l(2) =   0
                l(3) =   1
                l(4) =   1
                l(5) =   1
                l(6) =   1
                l(7) =   2
                l(8) =   2
                l(9) =   2
               l(10) =   2
     Q(r) pseudized with 0 coefficients 


     PseudoPot. # 3 for  I read from file:
     /scratch/cmalosso/degironcoli/pseudo/pseudo-usp/I.rel-pbesol-n-rrkjus_psl.1.0.0.UPF
     MD5 check sum: 0f96c6bfb1b448f280658f96eb466b08
     Pseudo is Ultrasoft + core correction, Zval =  7.0
     Generated using "atomic" code by A. Dal Corso  v.6.3
     Using radial grid of 1247 points, 10 beta functions with: 
                l(1) =   0
                l(2) =   0
                l(3) =   1
                l(4) =   1
                l(5) =   1
                l(6) =   1
                l(7) =   2
                l(8) =   2
                l(9) =   2
               l(10) =   2
     Q(r) pseudized with 0 coefficients 


     atomic species   valence    mass     pseudopotential
        Cs             9.00   132.90000     Cs( 1.00)
        Sn            14.00   118.70000     Sn( 1.00)
        I              7.00   126.90000      I( 1.00)

      8 Sym. Ops., with inversion, found ( 6 have fractional translation)


                                    s                        frac. trans.

      isym =  1     identity                                     

 cryst.   s( 1) = (     1          0          0      )
                  (     0          1          0      )
                  (     0          0          1      )

 cart.    s( 1) = (  1.0000000  0.0000000  0.0000000 )
                  (  0.0000000  1.0000000  0.0000000 )
                  (  0.0000000  0.0000000  1.0000000 )


      isym =  2     180 deg rotation - cart. axis [0,0,1]        

 cryst.   s( 2) = (    -1          0          0      )    f =(  0.0000000 )
                  (     0         -1          0      )       (  0.0000000 )
                  (     0          0          1      )       ( -0.5000000 )

 cart.    s( 2) = ( -1.0000000  0.0000000  0.0000000 )    f =(  0.0000000 )
                  (  0.0000000 -1.0000000  0.0000000 )       (  0.0000000 )
                  (  0.0000000  0.0000000  1.0000000 )       ( -0.7249991 )


      isym =  3     180 deg rotation - cart. axis [0,1,0]        

 cryst.   s( 3) = (    -1          0          0      )    f =(  0.5000000 )
                  (     0          1          0      )       ( -0.5000000 )
                  (     0          0         -1      )       (  0.0000000 )

 cart.    s( 3) = ( -1.0000000  0.0000000  0.0000000 )    f =(  0.5000000 )
                  (  0.0000000  1.0000000  0.0000000 )       ( -0.5079604 )
                  (  0.0000000  0.0000000 -1.0000000 )       (  0.0000000 )


      isym =  4     180 deg rotation - cart. axis [1,0,0]        

 cryst.   s( 4) = (     1          0          0      )    f =( -0.5000000 )
                  (     0         -1          0      )       (  0.5000000 )
                  (     0          0         -1      )       ( -0.5000000 )

 cart.    s( 4) = (  1.0000000  0.0000000  0.0000000 )    f =( -0.5000000 )
                  (  0.0000000 -1.0000000  0.0000000 )       (  0.5079604 )
                  (  0.0000000  0.0000000 -1.0000000 )       ( -0.7249991 )


      isym =  5     inversion                                    

 cryst.   s( 5) = (    -1          0          0      )
                  (     0         -1          0      )
                  (     0          0         -1      )

 cart.    s( 5) = ( -1.0000000  0.0000000  0.0000000 )
                  (  0.0000000 -1.0000000  0.0000000 )
                  (  0.0000000  0.0000000 -1.0000000 )


      isym =  6     inv. 180 deg rotation - cart. axis [0,0,1]   

 cryst.   s( 6) = (     1          0          0      )    f =(  0.0000000 )
                  (     0          1          0      )       (  0.0000000 )
                  (     0          0         -1      )       ( -0.5000000 )

 cart.    s( 6) = (  1.0000000  0.0000000  0.0000000 )    f =(  0.0000000 )
                  (  0.0000000  1.0000000  0.0000000 )       (  0.0000000 )
                  (  0.0000000  0.0000000 -1.0000000 )       ( -0.7249991 )


      isym =  7     inv. 180 deg rotation - cart. axis [0,1,0]   

 cryst.   s( 7) = (     1          0          0      )    f =( -0.5000000 )
                  (     0         -1          0      )       (  0.5000000 )
                  (     0          0          1      )       (  0.0000000 )

 cart.    s( 7) = (  1.0000000  0.0000000  0.0000000 )    f =( -0.5000000 )
                  (  0.0000000 -1.0000000  0.0000000 )       (  0.5079604 )
                  (  0.0000000  0.0000000  1.0000000 )       (  0.0000000 )


      isym =  8     inv. 180 deg rotation - cart. axis [1,0,0]   

 cryst.   s( 8) = (    -1          0          0      )    f =(  0.5000000 )
                  (     0          1          0      )       ( -0.5000000 )
                  (     0          0          1      )       ( -0.5000000 )

 cart.    s( 8) = ( -1.0000000  0.0000000  0.0000000 )    f =(  0.5000000 )
                  (  0.0000000  1.0000000  0.0000000 )       ( -0.5079604 )
                  (  0.0000000  0.0000000  1.0000000 )       ( -0.7249991 )


     double point group D_2h (mmm) 
     there are 10 classes and  2 irreducible representations
     the character table:

       E     -E     C2    C2'  C2''  i     -i     s_v   s_v' s_v''
                   -C2   -C2'  -C2''             -s_v  -s_v' -s_v'
G_5+   2.00 -2.00  0.00  0.00  0.00  2.00 -2.00  0.00  0.00  0.00
G_5-   2.00 -2.00  0.00  0.00  0.00 -2.00  2.00  0.00  0.00  0.00

     the symmetry operations in each class and the name of the first element:

     E             1
          identity                                               
     -E           -1
          identity E                                             
      C2  -C2      2   -2
          180 deg rotation - cart. axis [0,0,1]                  
      C2' -C2'     3   -3
          180 deg rotation - cart. axis [0,1,0]                  
     C2'' -C2''    4   -4
          180 deg rotation - cart. axis [1,0,0]                  
     i             5
          inversion                                              
     -i           -5
          inversion E                                            
      s_v -s_v     6   -6
          inv. 180 deg rotation - cart. axis [0,0,1]             
      s_v'-s_v'    7   -7
          inv. 180 deg rotation - cart. axis [0,1,0]             
     s_v''-s_v'    8   -8
          inv. 180 deg rotation - cart. axis [1,0,0]             

   Cartesian axes

     site n.     atom                  positions (alat units)
         1           Cs  tau(   1) = (   0.0046830   0.0237045   1.0874986  )
         2           Cs  tau(   2) = (   0.5046830   0.4842559   1.0874986  )
         3           Cs  tau(   3) = (   0.9953170   0.9922163   0.3624995  )
         4           Cs  tau(   4) = (   0.4953170   0.5316649   0.3624995  )
         5           Sn  tau(   5) = (   0.5000000   0.0000000   0.0000000  )
         6           Sn  tau(   6) = (   0.0000000   0.5079604   0.7249991  )
         7           Sn  tau(   7) = (   0.0000000   0.5079604   0.0000000  )
         8           Sn  tau(   8) = (   0.5000000   0.0000000   0.7249991  )
         9           I   tau(   9) = (   0.7030980   0.7148750   1.4390304  )
        10           I   tau(  10) = (   0.2969020   0.3010458   0.7140313  )
        11           I   tau(  11) = (   0.7030980   0.7148750   0.7359669  )
        12           I   tau(  12) = (   0.2969020   0.3010458   0.0109678  )
        13           I   tau(  13) = (   0.5026480   0.9956207   0.3624995  )
        14           I   tau(  14) = (   0.2030980   0.8090062   0.7359669  )
        15           I   tau(  15) = (   0.9973520   0.4876603   1.0874986  )
        16           I   tau(  16) = (   0.7969020   0.2069146   0.7140313  )
        17           I   tau(  17) = (   0.7969020   0.2069146   0.0109678  )
        18           I   tau(  18) = (   0.4973520   0.0203001   1.0874986  )
        19           I   tau(  19) = (   0.0026480   0.5282605   0.3624995  )
        20           I   tau(  20) = (   0.2030980   0.8090062   1.4390304  )

   Crystallographic axes

     site n.     atom                  positions (cryst. coord.)
         1           Cs  tau(   1) = (  0.0046830  0.0233330  0.7500000  )
         2           Cs  tau(   2) = (  0.5046830  0.4766670  0.7500000  )
         3           Cs  tau(   3) = (  0.9953170  0.9766670  0.2500000  )
         4           Cs  tau(   4) = (  0.4953170  0.5233330  0.2500000  )
         5           Sn  tau(   5) = (  0.5000000  0.0000000  0.0000000  )
         6           Sn  tau(   6) = (  0.0000000  0.5000000  0.5000000  )
         7           Sn  tau(   7) = (  0.0000000  0.5000000  0.0000000  )
         8           Sn  tau(   8) = (  0.5000000  0.0000000  0.5000000  )
         9           I   tau(   9) = (  0.7030980  0.7036720  0.9924360  )
        10           I   tau(  10) = (  0.2969020  0.2963280  0.4924360  )
        11           I   tau(  11) = (  0.7030980  0.7036720  0.5075640  )
        12           I   tau(  12) = (  0.2969020  0.2963280  0.0075640  )
        13           I   tau(  13) = (  0.5026480  0.9800180  0.2500000  )
        14           I   tau(  14) = (  0.2030980  0.7963280  0.5075640  )
        15           I   tau(  15) = (  0.9973520  0.4800180  0.7500000  )
        16           I   tau(  16) = (  0.7969020  0.2036720  0.4924360  )
        17           I   tau(  17) = (  0.7969020  0.2036720  0.0075640  )
        18           I   tau(  18) = (  0.4973520  0.0199820  0.7500000  )
        19           I   tau(  19) = (  0.0026480  0.5199820  0.2500000  )
        20           I   tau(  20) = (  0.2030980  0.7963280  0.9924360  )

     number of k points=     1
                       cart. coord. in units 2pi/alat
        k(    1) = (   0.2500000   0.2460822   0.1724140), wk =   1.0000000

                       cryst. coord.
        k(    1) = (   0.2500000   0.2500000   0.2500000), wk =   1.0000000

     Dense  grid:  1067339 G-vectors     FFT dimensions: ( 120, 120, 162)

     Smooth grid:   763571 G-vectors     FFT dimensions: ( 100, 108, 150)

     Estimated max dynamical RAM per process >     180.09Mb

     Estimated total allocated dynamical RAM >    8644.20Mb

     Initial potential from superposition of free atoms

     starting charge  175.84164, renormalised to  176.00000
     Starting wfc are  208 randomized atomic wfcs

     total cpu time spent up to now is       18.8 secs

     per-process dynamical memory:   282.1 Mb

     Self-consistent Calculation

     iteration #  1     ecut=    90.00 Ry     beta=0.35
     Davidson diagonalization with overlap
     ethr =  1.00E-02,  avg # of iterations =  2.0

     Threshold (ethr) on eigenvalues was too large:
     Diagonalizing with lowered threshold

     Davidson diagonalization with overlap
     ethr =  2.57E-04,  avg # of iterations =  3.0

     total cpu time spent up to now is       46.0 secs

     total energy              =   -1268.10473041 Ry
     Harris-Foulkes estimate   =   -1268.25657259 Ry
     estimated scf accuracy    <       0.34170118 Ry

     iteration #  2     ecut=    90.00 Ry     beta=0.35
     Davidson diagonalization with overlap
     ethr =  1.94E-04,  avg # of iterations =  2.0

     total cpu time spent up to now is       60.7 secs

     total energy              =   -1268.14146997 Ry
     Harris-Foulkes estimate   =   -1268.14828805 Ry
     estimated scf accuracy    <       0.03145406 Ry

     iteration #  3     ecut=    90.00 Ry     beta=0.35
     Davidson diagonalization with overlap
     ethr =  1.79E-05,  avg # of iterations =  4.0

     total cpu time spent up to now is       76.0 secs

     total energy              =   -1268.14727395 Ry
     Harris-Foulkes estimate   =   -1268.14641511 Ry
     estimated scf accuracy    <       0.00531231 Ry

     iteration #  4     ecut=    90.00 Ry     beta=0.35
     Davidson diagonalization with overlap
     ethr =  3.02E-06,  avg # of iterations =  4.0

     total cpu time spent up to now is       91.5 secs

     total energy              =   -1268.14837411 Ry
     Harris-Foulkes estimate   =   -1268.14821018 Ry
     estimated scf accuracy    <       0.00041730 Ry

     iteration #  5     ecut=    90.00 Ry     beta=0.35
     Davidson diagonalization with overlap
     ethr =  2.37E-07,  avg # of iterations =  3.0

     total cpu time spent up to now is      107.2 secs

     total energy              =   -1268.14847177 Ry
     Harris-Foulkes estimate   =   -1268.14846526 Ry
     estimated scf accuracy    <       0.00006333 Ry

     iteration #  6     ecut=    90.00 Ry     beta=0.35
     Davidson diagonalization with overlap
     ethr =  3.60E-08,  avg # of iterations =  4.0

     total cpu time spent up to now is      124.3 secs

     total energy              =   -1268.14849187 Ry
     Harris-Foulkes estimate   =   -1268.14848947 Ry
     estimated scf accuracy    <       0.00000596 Ry

     iteration #  7     ecut=    90.00 Ry     beta=0.35
     Davidson diagonalization with overlap
     ethr =  3.39E-09,  avg # of iterations =  3.0

     total cpu time spent up to now is      141.1 secs

     End of self-consistent calculation

          k = 0.2500 0.2461 0.1724 ( 95448 PWs)   bands (ev):

   -18.8161 -18.8161 -18.8161 -18.8161 -18.8158 -18.8158 -18.8158 -18.8158
   -18.8102 -18.8102 -18.8101 -18.8101 -18.8100 -18.8100 -18.8099 -18.8099
   -18.2053 -18.2053 -18.2051 -18.2051 -18.2047 -18.2047 -18.2045 -18.2045
   -17.7789 -17.7789 -17.7789 -17.7789 -17.7783 -17.7783 -17.7783 -17.7783
   -17.7724 -17.7724 -17.7722 -17.7722 -17.7718 -17.7718 -17.7716 -17.7716
   -17.7664 -17.7664 -17.7663 -17.7663 -17.7663 -17.7663 -17.7663 -17.7663
    -9.1691  -9.1691  -9.0510  -9.0510  -9.0118  -9.0118  -8.9165  -8.9165
    -8.8290  -8.8290  -8.8172  -8.8172  -8.8122  -8.8122  -8.7835  -8.7835
    -8.7257  -8.7257  -8.7131  -8.7131  -8.6894  -8.6894  -8.6622  -8.6622
    -6.1469  -6.1469  -6.1435  -6.1435  -6.1412  -6.1412  -6.1383  -6.1383
    -4.5339  -4.5339  -4.5252  -4.5252  -4.5179  -4.5179  -4.5158  -4.5158
    -4.5135  -4.5135  -4.5085  -4.5085  -4.5040  -4.5040  -4.5015  -4.5015
    -4.1134  -4.1134  -3.7056  -3.7056  -3.5506  -3.5506  -3.1081  -3.1081
    -0.6518  -0.6518  -0.5530  -0.5530  -0.4370  -0.4370  -0.3905  -0.3905
     0.0614   0.0614   0.1150   0.1150   0.1420   0.1420   0.1951   0.1951
     0.3436   0.3436   0.5621   0.5621   0.5974   0.5974   0.8167   0.8167
     0.9368   0.9368   0.9704   0.9704   0.9843   0.9843   1.0430   1.0430
     1.2212   1.2212   1.2412   1.2412   1.2754   1.2754   1.2975   1.2975
     1.3707   1.3707   1.3996   1.3996   1.4738   1.4738   1.5208   1.5208
     1.7381   1.7381   1.7722   1.7722   1.8330   1.8330   1.8687   1.8687
     1.9178   1.9178   2.0077   2.0077   2.0329   2.0329   2.1037   2.1037
     2.1339   2.1339   2.3391   2.3391   2.4628   2.4628   2.7501   2.7501

     occupation numbers 
     1.0000   1.0000   1.0000   1.0000   1.0000   1.0000   1.0000   1.0000
     1.0000   1.0000   1.0000   1.0000   1.0000   1.0000   1.0000   1.0000
     1.0000   1.0000   1.0000   1.0000   1.0000   1.0000   1.0000   1.0000
     1.0000   1.0000   1.0000   1.0000   1.0000   1.0000   1.0000   1.0000
     1.0000   1.0000   1.0000   1.0000   1.0000   1.0000   1.0000   1.0000
     1.0000   1.0000   1.0000   1.0000   1.0000   1.0000   1.0000   1.0000
     1.0000   1.0000   1.0000   1.0000   1.0000   1.0000   1.0000   1.0000
     1.0000   1.0000   1.0000   1.0000   1.0000   1.0000   1.0000   1.0000
     1.0000   1.0000   1.0000   1.0000   1.0000   1.0000   1.0000   1.0000
     1.0000   1.0000   1.0000   1.0000   1.0000   1.0000   1.0000   1.0000
     1.0000   1.0000   1.0000   1.0000   1.0000   1.0000   1.0000   1.0000
     1.0000   1.0000   1.0000   1.0000   1.0000   1.0000   1.0000   1.0000
     1.0000   1.0000   1.0000   1.0000   1.0000   1.0000   1.0000   1.0000
     1.0000   1.0000   1.0000   1.0000   1.0000   1.0000   1.0000   1.0000
     1.0000   1.0000   1.0000   1.0000   1.0000   1.0000   1.0000   1.0000
     1.0000   1.0000   1.0000   1.0000   1.0000   1.0000   1.0000   1.0000
     1.0000   1.0000   1.0000   1.0000   1.0000   1.0000   1.0000   1.0000
     1.0000   1.0000   1.0000   1.0000   1.0000   1.0000   1.0000   1.0000
     1.0000   1.0000   1.0000   1.0000   1.0000   1.0000   1.0000   1.0000
     1.0000   1.0000   1.0000   1.0000   1.0000   1.0000   1.0000   1.0000
     1.0000   1.0000   1.0000   1.0000   1.0000   1.0000   1.0000   1.0000
     1.0000   1.0000   1.0000   1.0000   1.0000   1.0000   1.0000   1.0000

     highest occupied level (ev):     2.7501

!    total energy              =   -1268.14849405 Ry
     Harris-Foulkes estimate   =   -1268.14849326 Ry
     estimated scf accuracy    <       0.00000046 Ry

     The total energy is the sum of the following terms:

     one-electron contribution =    -489.56892812 Ry
     hartree contribution      =     314.86554992 Ry
     xc contribution           =    -462.81292604 Ry
     ewald contribution        =    -630.63218980 Ry

     convergence has been achieved in   7 iterations

     Forces acting on atoms (Ry/au):

     atom    1 type  1   force =     0.00021543   -0.00018904    0.00000000
     atom    2 type  1   force =     0.00021543    0.00018904   -0.00000000
     atom    3 type  1   force =    -0.00021543    0.00018904    0.00000000
     atom    4 type  1   force =    -0.00021543   -0.00018904   -0.00000000
     atom    5 type  2   force =     0.00000000   -0.00000000    0.00000000
     atom    6 type  2   force =    -0.00000000    0.00000000   -0.00000000
     atom    7 type  2   force =     0.00000000    0.00000000   -0.00000000
     atom    8 type  2   force =     0.00000000    0.00000000    0.00000000
     atom    9 type  3   force =    -0.00051184    0.00020426    0.00008884
     atom   10 type  3   force =     0.00051184   -0.00020426    0.00008884
     atom   11 type  3   force =    -0.00051184    0.00020426   -0.00008884
     atom   12 type  3   force =     0.00051184   -0.00020426   -0.00008884
     atom   13 type  3   force =    -0.00055942    0.00056443    0.00000000
     atom   14 type  3   force =    -0.00051184   -0.00020426   -0.00008884
     atom   15 type  3   force =     0.00055942    0.00056443   -0.00000000
     atom   16 type  3   force =     0.00051184    0.00020426    0.00008884
     atom   17 type  3   force =     0.00051184    0.00020426   -0.00008884
     atom   18 type  3   force =     0.00055942   -0.00056443    0.00000000
     atom   19 type  3   force =    -0.00055942   -0.00056443   -0.00000000
     atom   20 type  3   force =    -0.00051184   -0.00020426    0.00008884
     The non-local contrib.  to forces
     atom    1 type  1   force =    -0.00091980   -0.00469204    0.00000000
     atom    2 type  1   force =    -0.00091980    0.00469204    0.00000000
     atom    3 type  1   force =     0.00091980    0.00469204    0.00000000
     atom    4 type  1   force =     0.00091980   -0.00469204    0.00000000
     atom    5 type  2   force =    -0.00000000    0.00000000    0.00000000
     atom    6 type  2   force =    -0.00000000    0.00000000   -0.00000000
     atom    7 type  2   force =    -0.00000000    0.00000000   -0.00000000
     atom    8 type  2   force =     0.00000000    0.00000000    0.00000000
     atom    9 type  3   force =     0.01048614    0.00985244    0.00483806
     atom   10 type  3   force =    -0.01048614   -0.00985244    0.00483806
     atom   11 type  3   force =     0.01048614    0.00985244   -0.00483806
     atom   12 type  3   force =    -0.01048614   -0.00985244   -0.00483806
     atom   13 type  3   force =    -0.00117934   -0.00426036    0.00000000
     atom   14 type  3   force =     0.01048614   -0.00985244   -0.00483806
     atom   15 type  3   force =     0.00117934   -0.00426036    0.00000000
     atom   16 type  3   force =    -0.01048614    0.00985244    0.00483806
     atom   17 type  3   force =    -0.01048614    0.00985244   -0.00483806
     atom   18 type  3   force =     0.00117934    0.00426036    0.00000000
     atom   19 type  3   force =    -0.00117934    0.00426036    0.00000000
     atom   20 type  3   force =     0.01048614   -0.00985244    0.00483806
     The ionic contribution  to forces
     atom    1 type  1   force =    -0.15384217   -0.81101301   -0.00000000
     atom    2 type  1   force =    -0.15384217    0.81101301    0.00000000
     atom    3 type  1   force =     0.15384217    0.81101301    0.00000000
     atom    4 type  1   force =     0.15384217   -0.81101301    0.00000000
     atom    5 type  2   force =     0.00000000   -0.00000000   -0.00000000
     atom    6 type  2   force =    -0.00000000   -0.00000000    0.00000000
     atom    7 type  2   force =    -0.00000000    0.00000000   -0.00000000
     atom    8 type  2   force =    -0.00000000   -0.00000000    0.00000000
     atom    9 type  3   force =    -0.70474196   -0.63043970   -0.48733617
     atom   10 type  3   force =     0.70474196    0.63043970   -0.48733617
     atom   11 type  3   force =    -0.70474196   -0.63043970    0.48733617
     atom   12 type  3   force =     0.70474196    0.63043970    0.48733617
     atom   13 type  3   force =    -0.06288103    0.21897472    0.00000000
     atom   14 type  3   force =    -0.70474196    0.63043970    0.48733617
     atom   15 type  3   force =     0.06288103    0.21897472   -0.00000000
     atom   16 type  3   force =     0.70474196   -0.63043970   -0.48733617
     atom   17 type  3   force =     0.70474196   -0.63043970    0.48733617
     atom   18 type  3   force =     0.06288103   -0.21897472   -0.00000000
     atom   19 type  3   force =    -0.06288103   -0.21897472    0.00000000
     atom   20 type  3   force =    -0.70474196    0.63043970   -0.48733617
     The local contribution  to forces
     atom    1 type  1   force =     0.15498608    0.81547951   -0.00000000
     atom    2 type  1   force =     0.15498608   -0.81547951   -0.00000000
     atom    3 type  1   force =    -0.15498608   -0.81547951   -0.00000000
     atom    4 type  1   force =    -0.15498608    0.81547951   -0.00000000
     atom    5 type  2   force =    -0.00000000   -0.00000000   -0.00000000
     atom    6 type  2   force =    -0.00000000   -0.00000000   -0.00000000
     atom    7 type  2   force =    -0.00000000   -0.00000000   -0.00000000
     atom    8 type  2   force =    -0.00000000   -0.00000000   -0.00000000
     atom    9 type  3   force =     0.69508736    0.62214440    0.48305888
     atom   10 type  3   force =    -0.69508736   -0.62214440    0.48305888
     atom   11 type  3   force =     0.69508736    0.62214440   -0.48305888
     atom   12 type  3   force =    -0.69508736   -0.62214440   -0.48305888
     atom   13 type  3   force =     0.06333656   -0.21433350    0.00000000
     atom   14 type  3   force =     0.69508736   -0.62214440   -0.48305888
     atom   15 type  3   force =    -0.06333656   -0.21433350    0.00000000
     atom   16 type  3   force =    -0.69508736    0.62214440    0.48305888
     atom   17 type  3   force =    -0.69508736    0.62214440   -0.48305888
     atom   18 type  3   force =    -0.06333656    0.21433350    0.00000000
     atom   19 type  3   force =     0.06333656    0.21433350   -0.00000000
     atom   20 type  3   force =     0.69508736   -0.62214440    0.48305888
     The core correction contribution to forces
     atom    1 type  1   force =     0.00000336    0.00010379    0.00000000
     atom    2 type  1   force =     0.00000336   -0.00010379   -0.00000000
     atom    3 type  1   force =    -0.00000336   -0.00010379   -0.00000000
     atom    4 type  1   force =    -0.00000336    0.00010379   -0.00000000
     atom    5 type  2   force =    -0.00000000    0.00000000   -0.00000000
     atom    6 type  2   force =    -0.00000000    0.00000000   -0.00000000
     atom    7 type  2   force =    -0.00000000   -0.00000000   -0.00000000
     atom    8 type  2   force =    -0.00000000   -0.00000000   -0.00000000
     atom    9 type  3   force =    -0.00134250   -0.00135566   -0.00049010
     atom   10 type  3   force =     0.00134250    0.00135566   -0.00049010
     atom   11 type  3   force =    -0.00134250   -0.00135566    0.00049010
     atom   12 type  3   force =     0.00134250    0.00135566    0.00049010
     atom   13 type  3   force =     0.00017207    0.00020840    0.00000000
     atom   14 type  3   force =    -0.00134250    0.00135566    0.00049010
     atom   15 type  3   force =    -0.00017207    0.00020840    0.00000000
     atom   16 type  3   force =     0.00134250   -0.00135566   -0.00049010
     atom   17 type  3   force =     0.00134250   -0.00135566    0.00049010
     atom   18 type  3   force =    -0.00017207   -0.00020840    0.00000000
     atom   19 type  3   force =     0.00017207   -0.00020840   -0.00000000
     atom   20 type  3   force =    -0.00134250    0.00135566   -0.00049010
     The Hubbard contrib.    to forces
     atom    1 type  1   force =     0.00000000    0.00000000    0.00000000
     atom    2 type  1   force =     0.00000000    0.00000000    0.00000000
     atom    3 type  1   force =     0.00000000    0.00000000    0.00000000
     atom    4 type  1   force =     0.00000000    0.00000000    0.00000000
     atom    5 type  2   force =     0.00000000    0.00000000    0.00000000
     atom    6 type  2   force =     0.00000000    0.00000000    0.00000000
     atom    7 type  2   force =     0.00000000    0.00000000    0.00000000
     atom    8 type  2   force =     0.00000000    0.00000000    0.00000000
     atom    9 type  3   force =     0.00000000    0.00000000    0.00000000
     atom   10 type  3   force =     0.00000000    0.00000000    0.00000000
     atom   11 type  3   force =     0.00000000    0.00000000    0.00000000
     atom   12 type  3   force =     0.00000000    0.00000000    0.00000000
     atom   13 type  3   force =     0.00000000    0.00000000    0.00000000
     atom   14 type  3   force =     0.00000000    0.00000000    0.00000000
     atom   15 type  3   force =     0.00000000    0.00000000    0.00000000
     atom   16 type  3   force =     0.00000000    0.00000000    0.00000000
     atom   17 type  3   force =     0.00000000    0.00000000    0.00000000
     atom   18 type  3   force =     0.00000000    0.00000000    0.00000000
     atom   19 type  3   force =     0.00000000    0.00000000    0.00000000
     atom   20 type  3   force =     0.00000000    0.00000000    0.00000000
     The SCF correction term to forces
     atom    1 type  1   force =    -0.00001204   -0.00006728    0.00000000
     atom    2 type  1   force =    -0.00001204    0.00006728    0.00000000
     atom    3 type  1   force =     0.00001204    0.00006728   -0.00000000
     atom    4 type  1   force =     0.00001204   -0.00006728   -0.00000000
     atom    5 type  2   force =    -0.00000000    0.00000000    0.00000000
     atom    6 type  2   force =    -0.00000000    0.00000000    0.00000000
     atom    7 type  2   force =    -0.00000000   -0.00000000   -0.00000000
     atom    8 type  2   force =     0.00000000   -0.00000000    0.00000000
     atom    9 type  3   force =    -0.00000088    0.00000278    0.00001818
     atom   10 type  3   force =     0.00000088   -0.00000278    0.00001818
     atom   11 type  3   force =    -0.00000088    0.00000278   -0.00001818
     atom   12 type  3   force =     0.00000088   -0.00000278   -0.00001818
     atom   13 type  3   force =    -0.00000768   -0.00002483    0.00000000
     atom   14 type  3   force =    -0.00000088   -0.00000278   -0.00001818
     atom   15 type  3   force =     0.00000768   -0.00002483    0.00000000
     atom   16 type  3   force =     0.00000088    0.00000278    0.00001818
     atom   17 type  3   force =     0.00000088    0.00000278   -0.00001818
     atom   18 type  3   force =     0.00000768    0.00002483    0.00000000
     atom   19 type  3   force =    -0.00000768    0.00002483    0.00000000
     atom   20 type  3   force =    -0.00000088   -0.00000278    0.00001818

     Total force =     0.002312     Total SCF correction =     0.000155


     entering subroutine stress ...

     Message from routine stres:
     noncollinear stress + GGA not implemented

     Writing output data file CsSnI3.save

     init_run     :     17.84s CPU     14.74s WALL (       1 calls)
     electrons    :    191.58s CPU    122.99s WALL (       1 calls)
     forces       :     16.11s CPU     12.56s WALL (       1 calls)

     Called by init_run:
     wfcinit      :      4.12s CPU      2.73s WALL (       1 calls)
     wfcinit:atom :      0.02s CPU      0.13s WALL (       1 calls)
     wfcinit:wfcr :      3.98s CPU      2.31s WALL (       1 calls)
     potinit      :      1.69s CPU      2.37s WALL (       1 calls)

     Called by electrons:
     c_bands      :     83.05s CPU     48.10s WALL (       8 calls)
     sum_band     :     59.45s CPU     40.39s WALL (       8 calls)
     v_of_rho     :      1.40s CPU      1.75s WALL (       8 calls)
     v_h          :      0.12s CPU      0.08s WALL (       8 calls)
     v_xc         :      1.41s CPU      1.34s WALL (       9 calls)
     newd         :     50.63s CPU     34.20s WALL (       8 calls)
     mix_rho      :      0.88s CPU      0.72s WALL (       8 calls)

     Called by c_bands:
     init_us_2    :      0.42s CPU      0.39s WALL (      17 calls)
     cegterg      :     80.44s CPU     45.48s WALL (       8 calls)

     Called by sum_band:
     sum_band:bec :      1.07s CPU      0.74s WALL (       8 calls)
     addusdens    :     41.25s CPU     30.22s WALL (       8 calls)

     Called by *egterg:
     h_psi        :     58.65s CPU     31.06s WALL (      34 calls)
     s_psi        :      8.44s CPU      5.34s WALL (      34 calls)
     g_psi        :      0.15s CPU      0.10s WALL (      25 calls)
     cdiaghg      :      3.97s CPU      2.48s WALL (      32 calls)
     cegterg:over :      5.46s CPU      3.43s WALL (      25 calls)
     cegterg:upda :      3.28s CPU      1.76s WALL (      25 calls)
     cegterg:last :      1.50s CPU      0.80s WALL (       8 calls)

     Called by h_psi:
     h_psi:pot    :     58.26s CPU     30.72s WALL (      34 calls)
     h_psi:calbec :      7.86s CPU      4.19s WALL (      34 calls)
     vloc_psi     :     42.44s CPU     21.90s WALL (      34 calls)
     add_vuspsi   :      7.96s CPU      4.63s WALL (      34 calls)

     General routines
     calbec       :     11.85s CPU      6.40s WALL (      46 calls)
     fft          :      4.06s CPU      3.40s WALL (     253 calls)
     ffts         :      0.67s CPU      0.51s WALL (      64 calls)
     fftw         :     43.96s CPU     22.67s WALL (   18884 calls)
     interpolate  :      1.42s CPU      1.04s WALL (      64 calls)

     Parallel routines
     fft_scatter  :     35.71s CPU     19.88s WALL (   19201 calls)

     PWSCF        :  3m50.13s CPU     2m36.28s WALL


   This run was terminated on:  16:12:31  31Jan2021            

=------------------------------------------------------------------------------=
   JOB DONE.
=------------------------------------------------------------------------------=
