
     Program PWSCF v.6.7MaX starts on 15Jan2021 at 11:37:49 

     This program is part of the open-source Quantum ESPRESSO suite
     for quantum simulation of materials; please cite
         "P. Giannozzi et al., J. Phys.:Condens. Matter 21 395502 (2009);
         "P. Giannozzi et al., J. Phys.:Condens. Matter 29 465901 (2017);
          URL http://www.quantum-espresso.org", 
     in publications or presentations arising from this work. More details at
     http://www.quantum-espresso.org/quote

     Parallel version (MPI), running on    32 processors

     MPI processes distributed on     1 nodes
     R & G space division:  proc/nbgrp/npool/nimage =      32
     Waiting for input...
     Reading input from standard input

     Current dimensions of program PWSCF are:
     Max number of different atomic species (ntypx) = 10
     Max number of k-points (npk) =  40000
     Max angular momentum in pseudopotentials (lmaxx) =  3
     file Sn.pbe-dn-kjpaw_psl.1.0.0.UPF: wavefunction(s)  5S 5P 4D renormalized
     file I.pbe-n-kjpaw_psl.1.0.0.UPF: wavefunction(s)  5S renormalized
     file Cs.pbe-spn-kjpaw_psl.1.0.0.UPF: wavefunction(s)  5S 6S renormalized

     Subspace diagonalization in iterative solution of the eigenvalue problem:
     a serial algorithm will be used

     Message from routine setup:
     using ibrav=0 with symmetry is DISCOURAGED, use correct ibrav instead

     Parallelization info
     --------------------
     sticks:   dense  smooth     PW     G-vecs:    dense   smooth      PW
     Min         110     110     30                12494    12494    1804
     Max         111     111     31                12505    12505    1813
     Sum        3545    3545    975               400005   400005   57839


     Title: 
     CsSnI3                                                                     


     bravais-lattice index     =            0
     lattice parameter (alat)  =       9.1317  a.u.
     unit-cell volume          =    6370.5385 (a.u.)^3
     number of atoms/cell      =           20
     number of atomic types    =            3
     number of electrons       =       176.00
     number of Kohn-Sham states=           89
     kinetic-energy cutoff     =      60.0000  Ry
     charge density cutoff     =     240.0000  Ry
     scf convergence threshold =      1.0E-06
     mixing beta               =       0.7000
     number of iterations used =            8  plain     mixing
     Exchange-correlation= SLA  PW   PBX  PBC
                           (   1   4   3   4   0   0   0)

     celldm(1)=   9.131705  celldm(2)=   0.000000  celldm(3)=   0.000000
     celldm(4)=   0.000000  celldm(5)=   0.000000  celldm(6)=   0.000000

     crystal axes: (cart. coord. in units of alat)
               a(1) = (   1.000000   0.000000   0.000000 )  
               a(2) = (   0.000000   2.227728   0.000000 )  
               a(3) = (   0.000000   0.000000   3.755420 )  

     reciprocal axes: (cart. coord. in units 2 pi/alat)
               b(1) = (  1.000000  0.000000  0.000000 )  
               b(2) = (  0.000000  0.448888  0.000000 )  
               b(3) = (  0.000000  0.000000  0.266282 )  


     PseudoPot. # 1 for Sn read from file:
     ../../../pseudo/Sn.pbe-dn-kjpaw_psl.1.0.0.UPF
     MD5 check sum: 67f11dec737d427557dc41ea34975807
     Pseudo is Projector augmented-wave + core cor, Zval = 14.0
     Generated using &quot;atomic&quot; code by A. Dal Corso  v.6.3
     Shape of augmentation charge: PSQ
     Using radial grid of 1243 points,  6 beta functions with: 
                l(1) =   0
                l(2) =   0
                l(3) =   1
                l(4) =   1
                l(5) =   2
                l(6) =   2
     Q(r) pseudized with 0 coefficients 


     PseudoPot. # 2 for I  read from file:
     ../../../pseudo/I.pbe-n-kjpaw_psl.1.0.0.UPF
     MD5 check sum: cd3d296c3308a581e1559a0c8a554cb5
     Pseudo is Projector augmented-wave + core cor, Zval =  7.0
     Generated using &quot;atomic&quot; code by A. Dal Corso  v.6.3
     Shape of augmentation charge: PSQ
     Using radial grid of 1247 points,  6 beta functions with: 
                l(1) =   0
                l(2) =   0
                l(3) =   1
                l(4) =   1
                l(5) =   2
                l(6) =   2
     Q(r) pseudized with 0 coefficients 


     PseudoPot. # 3 for Cs read from file:
     ../../../pseudo/Cs.pbe-spn-kjpaw_psl.1.0.0.UPF
     MD5 check sum: b82c75cc2e1f4ff73b6412cffeb9c584
     Pseudo is Projector augmented-wave + core cor, Zval =  9.0
     Generated using &quot;atomic&quot; code by A. Dal Corso  v.6.4.1
     Shape of augmentation charge: PSQ
     Using radial grid of 1251 points,  9 beta functions with: 
                l(1) =   0
                l(2) =   0
                l(3) =   0
                l(4) =   1
                l(5) =   1
                l(6) =   2
                l(7) =   2
                l(8) =   3
                l(9) =   3
     Q(r) pseudized with 0 coefficients 


     atomic species   valence    mass     pseudopotential
        Sn            14.00   118.70000     Sn( 1.00)
        I              7.00   126.90000     I ( 1.00)
        Cs             9.00   132.90000     Cs( 1.00)

      8 Sym. Ops., with inversion, found ( 6 have fractional translation)


                                    s                        frac. trans.

      isym =  1     identity                                     

 cryst.   s( 1) = (     1          0          0      )
                  (     0          1          0      )
                  (     0          0          1      )

 cart.    s( 1) = (  1.0000000  0.0000000  0.0000000 )
                  (  0.0000000  1.0000000  0.0000000 )
                  (  0.0000000  0.0000000  1.0000000 )


      isym =  2     180 deg rotation - cart. axis [0,0,1]        

 cryst.   s( 2) = (    -1          0          0      )    f =(  0.0000000 )
                  (     0         -1          0      )       (  0.5000000 )
                  (     0          0          1      )       (  0.5000000 )

 cart.    s( 2) = ( -1.0000000  0.0000000  0.0000000 )    f =(  0.0000000 )
                  (  0.0000000 -1.0000000  0.0000000 )       (  1.1138638 )
                  (  0.0000000  0.0000000  1.0000000 )       (  1.8777098 )


      isym =  3     180 deg rotation - cart. axis [0,1,0]        

 cryst.   s( 3) = (    -1          0          0      )    f =(  0.5000000 )
                  (     0          1          0      )       ( -0.5000000 )
                  (     0          0         -1      )       ( -0.5000000 )

 cart.    s( 3) = ( -1.0000000  0.0000000  0.0000000 )    f =(  0.5000000 )
                  (  0.0000000  1.0000000  0.0000000 )       ( -1.1138638 )
                  (  0.0000000  0.0000000 -1.0000000 )       ( -1.8777098 )


      isym =  4     180 deg rotation - cart. axis [1,0,0]        

 cryst.   s( 4) = (     1          0          0      )    f =( -0.5000000 )
                  (     0         -1          0      )       (  0.0000000 )
                  (     0          0         -1      )       (  0.0000000 )

 cart.    s( 4) = (  1.0000000  0.0000000  0.0000000 )    f =( -0.5000000 )
                  (  0.0000000 -1.0000000  0.0000000 )       (  0.0000000 )
                  (  0.0000000  0.0000000 -1.0000000 )       (  0.0000000 )


      isym =  5     inversion                                    

 cryst.   s( 5) = (    -1          0          0      )
                  (     0         -1          0      )
                  (     0          0         -1      )

 cart.    s( 5) = ( -1.0000000  0.0000000  0.0000000 )
                  (  0.0000000 -1.0000000  0.0000000 )
                  (  0.0000000  0.0000000 -1.0000000 )


      isym =  6     inv. 180 deg rotation - cart. axis [0,0,1]   

 cryst.   s( 6) = (     1          0          0      )    f =(  0.0000000 )
                  (     0          1          0      )       ( -0.5000000 )
                  (     0          0         -1      )       ( -0.5000000 )

 cart.    s( 6) = (  1.0000000  0.0000000  0.0000000 )    f =(  0.0000000 )
                  (  0.0000000  1.0000000  0.0000000 )       ( -1.1138638 )
                  (  0.0000000  0.0000000 -1.0000000 )       ( -1.8777098 )


      isym =  7     inv. 180 deg rotation - cart. axis [0,1,0]   

 cryst.   s( 7) = (     1          0          0      )    f =( -0.5000000 )
                  (     0         -1          0      )       (  0.5000000 )
                  (     0          0          1      )       (  0.5000000 )

 cart.    s( 7) = (  1.0000000  0.0000000  0.0000000 )    f =( -0.5000000 )
                  (  0.0000000 -1.0000000  0.0000000 )       (  1.1138638 )
                  (  0.0000000  0.0000000  1.0000000 )       (  1.8777098 )


      isym =  8     inv. 180 deg rotation - cart. axis [1,0,0]   

 cryst.   s( 8) = (    -1          0          0      )    f =(  0.5000000 )
                  (     0          1          0      )       (  0.0000000 )
                  (     0          0          1      )       (  0.0000000 )

 cart.    s( 8) = ( -1.0000000  0.0000000  0.0000000 )    f =(  0.5000000 )
                  (  0.0000000  1.0000000  0.0000000 )       (  0.0000000 )
                  (  0.0000000  0.0000000  1.0000000 )       (  0.0000000 )


   Cartesian axes

     site n.     atom                  positions (alat units)
         1           Cs  tau(   1) = (   0.2500000   0.1859640   2.5168147  )
         2           Cs  tau(   2) = (   0.7500000   2.0417636   1.2386050  )
         3           Cs  tau(   3) = (   0.2500000   1.2998278   3.1163149  )
         4           Cs  tau(   4) = (   0.7500000   0.9278998   0.6391048  )
         5           Sn  tau(   5) = (   0.2500000   0.7615710   1.6485466  )
         6           Sn  tau(   6) = (   0.7500000   1.4661567   2.1068731  )
         7           Sn  tau(   7) = (   0.2500000   1.8754348   0.2291632  )
         8           Sn  tau(   8) = (   0.7500000   0.3522928   3.5262565  )
         9           I   tau(   9) = (   0.7500000   0.0581437   0.4202578  )
        10           I   tau(  10) = (   0.2500000   2.1695839   3.3351619  )
        11           I   tau(  11) = (   0.7500000   1.1720075   1.4574521  )
        12           I   tau(  12) = (   0.2500000   1.0557201   2.2979676  )
        13           I   tau(  13) = (   0.7500000   0.6531118   2.9738192  )
        14           I   tau(  14) = (   0.2500000   1.5746158   0.7816005  )
        15           I   tau(  15) = (   0.7500000   1.7669756   2.6593103  )
        16           I   tau(  16) = (   0.2500000   0.4607520   1.0961094  )
        17           I   tau(  17) = (   0.7500000   0.3753632   1.8734812  )
        18           I   tau(  18) = (   0.2500000   1.8523644   1.8819384  )
        19           I   tau(  19) = (   0.7500000   1.4892270   0.0042286  )
        20           I   tau(  20) = (   0.2500000   0.7385006   3.7511911  )

   Crystallographic axes

     site n.     atom                  positions (cryst. coord.)
         1           Cs  tau(   1) = (  0.2500000  0.0834770  0.6701820  )
         2           Cs  tau(   2) = (  0.7500000  0.9165230  0.3298180  )
         3           Cs  tau(   3) = (  0.2500000  0.5834770  0.8298180  )
         4           Cs  tau(   4) = (  0.7500000  0.4165230  0.1701820  )
         5           Sn  tau(   5) = (  0.2500000  0.3418600  0.4389780  )
         6           Sn  tau(   6) = (  0.7500000  0.6581400  0.5610220  )
         7           Sn  tau(   7) = (  0.2500000  0.8418600  0.0610220  )
         8           Sn  tau(   8) = (  0.7500000  0.1581400  0.9389780  )
         9           I   tau(   9) = (  0.7500000  0.0261000  0.1119070  )
        10           I   tau(  10) = (  0.2500000  0.9739000  0.8880930  )
        11           I   tau(  11) = (  0.7500000  0.5261000  0.3880930  )
        12           I   tau(  12) = (  0.2500000  0.4739000  0.6119070  )
        13           I   tau(  13) = (  0.7500000  0.2931740  0.7918740  )
        14           I   tau(  14) = (  0.2500000  0.7068260  0.2081260  )
        15           I   tau(  15) = (  0.7500000  0.7931740  0.7081260  )
        16           I   tau(  16) = (  0.2500000  0.2068260  0.2918740  )
        17           I   tau(  17) = (  0.7500000  0.1684960  0.4988740  )
        18           I   tau(  18) = (  0.2500000  0.8315040  0.5011260  )
        19           I   tau(  19) = (  0.7500000  0.6684960  0.0011260  )
        20           I   tau(  20) = (  0.2500000  0.3315040  0.9988740  )

     number of k points=     8
                       cart. coord. in units 2pi/alat
        k(    1) = (   0.0000000   0.0000000   0.0000000), wk =   0.2500000
        k(    2) = (   0.0000000   0.0000000  -0.1331409), wk =   0.2500000
        k(    3) = (   0.0000000  -0.2244440   0.0000000), wk =   0.2500000
        k(    4) = (   0.0000000  -0.2244440  -0.1331409), wk =   0.2500000
        k(    5) = (  -0.5000000   0.0000000   0.0000000), wk =   0.2500000
        k(    6) = (  -0.5000000   0.0000000  -0.1331409), wk =   0.2500000
        k(    7) = (  -0.5000000  -0.2244440   0.0000000), wk =   0.2500000
        k(    8) = (  -0.5000000  -0.2244440  -0.1331409), wk =   0.2500000

                       cryst. coord.
        k(    1) = (   0.0000000   0.0000000   0.0000000), wk =   0.2500000
        k(    2) = (   0.0000000   0.0000000  -0.5000000), wk =   0.2500000
        k(    3) = (   0.0000000  -0.5000000   0.0000000), wk =   0.2500000
        k(    4) = (   0.0000000  -0.5000000  -0.5000000), wk =   0.2500000
        k(    5) = (  -0.5000000   0.0000000   0.0000000), wk =   0.2500000
        k(    6) = (  -0.5000000   0.0000000  -0.5000000), wk =   0.2500000
        k(    7) = (  -0.5000000  -0.5000000   0.0000000), wk =   0.2500000
        k(    8) = (  -0.5000000  -0.5000000  -0.5000000), wk =   0.2500000

     Dense  grid:   400005 G-vectors     FFT dimensions: (  48, 108, 180)

     Dynamical RAM for                 wfc:       2.12 MB

     Dynamical RAM for     wfc (w. buffer):      19.09 MB

     Dynamical RAM for           str. fact:       0.57 MB

     Dynamical RAM for           local pot:       0.00 MB

     Dynamical RAM for          nlocal pot:      10.01 MB

     Dynamical RAM for                qrad:      11.20 MB

     Dynamical RAM for          rho,v,vnew:       1.28 MB

     Dynamical RAM for               rhoin:       0.43 MB

     Dynamical RAM for            rho*nmix:       3.05 MB

     Dynamical RAM for           G-vectors:       0.81 MB

     Dynamical RAM for          h,s,v(r/c):       1.45 MB

     Dynamical RAM for          <psi|beta>:       0.57 MB

     Dynamical RAM for                 psi:       4.24 MB

     Dynamical RAM for                hpsi:       4.24 MB

     Dynamical RAM for                spsi:       4.24 MB

     Dynamical RAM for      wfcinit/wfcrot:       5.21 MB

     Dynamical RAM for           addusdens:     114.43 MB

     Dynamical RAM for          addusforce:     118.88 MB

     Dynamical RAM for         addusstress:     117.29 MB

     Estimated static dynamical RAM per process >      48.39 MB

     Estimated max dynamical RAM per process >     167.27 MB

     Estimated total dynamical RAM >       5.23 GB

     Initial potential from superposition of free atoms

     starting charge  175.83511, renormalised to  176.00000
     Starting wfcs are  104 randomized atomic wfcs
     Checking if some PAW data can be deallocated... 
       PAW data deallocated on   24 nodes for type:  1
       PAW data deallocated on   16 nodes for type:  2
       PAW data deallocated on   24 nodes for type:  3

     total cpu time spent up to now is      145.9 secs

     Self-consistent Calculation

     iteration #  1     ecut=    60.00 Ry     beta= 0.70
     Davidson diagonalization with overlap
     ethr =  1.00E-02,  avg # of iterations =  2.0

     Threshold (ethr) on eigenvalues was too large:
     Diagonalizing with lowered threshold

     Davidson diagonalization with overlap
     ethr =  3.20E-04,  avg # of iterations =  4.0

     total cpu time spent up to now is      812.5 secs

     total energy              =   -7979.42125204 Ry
     estimated scf accuracy    <       0.45213500 Ry

     iteration #  2     ecut=    60.00 Ry     beta= 0.70
     Davidson diagonalization with overlap
     ethr =  2.57E-04,  avg # of iterations =  4.4

     total cpu time spent up to now is     1218.5 secs

     total energy              =   -7979.52022218 Ry
     estimated scf accuracy    <       0.55670450 Ry

     iteration #  3     ecut=    60.00 Ry     beta= 0.70
     Davidson diagonalization with overlap
     ethr =  2.57E-04,  avg # of iterations =  4.9

     total cpu time spent up to now is     1556.2 secs

     total energy              =   -7979.62454515 Ry
     estimated scf accuracy    <       0.01437904 Ry

     iteration #  4     ecut=    60.00 Ry     beta= 0.70
     Davidson diagonalization with overlap
     ethr =  8.17E-06,  avg # of iterations =  9.4

     total cpu time spent up to now is     2062.3 secs

     total energy              =   -7979.63760662 Ry
     estimated scf accuracy    <       0.00488010 Ry

     iteration #  5     ecut=    60.00 Ry     beta= 0.70
     Davidson diagonalization with overlap
     ethr =  2.77E-06,  avg # of iterations =  5.6

     total cpu time spent up to now is     2388.7 secs

     total energy              =   -7979.63803846 Ry
     estimated scf accuracy    <       0.00089696 Ry

     iteration #  6     ecut=    60.00 Ry     beta= 0.70
     Davidson diagonalization with overlap
     ethr =  5.10E-07,  avg # of iterations =  5.0

     total cpu time spent up to now is     2814.8 secs

     total energy              =   -7979.63843728 Ry
     estimated scf accuracy    <       0.00016111 Ry

     iteration #  7     ecut=    60.00 Ry     beta= 0.70
     Davidson diagonalization with overlap
     ethr =  9.15E-08,  avg # of iterations =  4.2

     total cpu time spent up to now is     3162.8 secs

     total energy              =   -7979.63848245 Ry
     estimated scf accuracy    <       0.00001728 Ry

     iteration #  8     ecut=    60.00 Ry     beta= 0.70
     Davidson diagonalization with overlap
     ethr =  9.82E-09,  avg # of iterations =  5.1

     total cpu time spent up to now is     3591.2 secs

     total energy              =   -7979.63848299 Ry
     estimated scf accuracy    <       0.00001463 Ry

     iteration #  9     ecut=    60.00 Ry     beta= 0.70
     Davidson diagonalization with overlap
     ethr =  8.31E-09,  avg # of iterations =  4.8

     total cpu time spent up to now is     3925.7 secs

     total energy              =   -7979.63848685 Ry
     estimated scf accuracy    <       0.00000171 Ry

     iteration # 10     ecut=    60.00 Ry     beta= 0.70
     Davidson diagonalization with overlap
     ethr =  9.70E-10,  avg # of iterations =  4.5

     total cpu time spent up to now is     4324.8 secs

     total energy              =   -7979.63848674 Ry
     estimated scf accuracy    <       0.00000145 Ry

     iteration # 11     ecut=    60.00 Ry     beta= 0.70
     Davidson diagonalization with overlap
     ethr =  8.23E-10,  avg # of iterations =  3.8

     total cpu time spent up to now is     4645.3 secs

     End of self-consistent calculation

          k = 0.0000 0.0000 0.0000 ( 49997 PWs)   bands (ev):

   -17.8796 -17.8795 -17.8794 -17.8793 -17.8715 -17.8715 -17.8712 -17.8711
   -17.8684 -17.8683 -17.8678 -17.8677 -17.8564 -17.8564 -17.8550 -17.8550
   -17.8490 -17.8488 -17.8477 -17.8476 -17.7877 -17.7874 -17.7868 -17.7865
    -8.8004  -8.7761  -8.5940  -8.5321  -8.4448  -8.4349  -8.4150  -8.4046
    -8.2779  -8.2545  -8.2366  -8.1938  -4.6165  -4.6156  -4.6130  -4.6064
    -4.5977  -4.5709  -4.5543  -4.5526  -4.5461  -4.5445  -4.5427  -4.5398
    -2.8864  -2.8614  -2.8234  -2.7427   0.1248   0.3263   0.7545   0.8911
     0.9057   0.9872   1.1133   1.1244   1.2146   1.2809   1.3253   1.3339
     1.3346   1.5560   1.6348   1.7324   1.7813   1.7979   1.8147   1.8208
     1.8256   1.8397   1.9805   2.0648   2.0705   2.1750   2.2077   2.2235
     2.2359   2.2381   2.3140   2.3181   2.3832   2.4792   2.6270   2.9257
     5.3030

     occupation numbers 
     1.0000   1.0000   1.0000   1.0000   1.0000   1.0000   1.0000   1.0000
     1.0000   1.0000   1.0000   1.0000   1.0000   1.0000   1.0000   1.0000
     1.0000   1.0000   1.0000   1.0000   1.0000   1.0000   1.0000   1.0000
     1.0000   1.0000   1.0000   1.0000   1.0000   1.0000   1.0000   1.0000
     1.0000   1.0000   1.0000   1.0000   1.0000   1.0000   1.0000   1.0000
     1.0000   1.0000   1.0000   1.0000   1.0000   1.0000   1.0000   1.0000
     1.0000   1.0000   1.0000   1.0000   1.0000   1.0000   1.0000   1.0000
     1.0000   1.0000   1.0000   1.0000   1.0000   1.0000   1.0000   1.0000
     1.0000   1.0000   1.0000   1.0000   1.0000   1.0000   1.0000   1.0000
     1.0000   1.0000   1.0000   1.0000   1.0000   1.0000   1.0000   1.0000
     1.0000   1.0000   1.0000   1.0000   1.0000   1.0000   1.0000   1.0000
     0.0000

          k = 0.0000 0.0000-0.1331 ( 49996 PWs)   bands (ev):

   -17.8795 -17.8795 -17.8793 -17.8793 -17.8715 -17.8715 -17.8711 -17.8711
   -17.8683 -17.8683 -17.8678 -17.8678 -17.8563 -17.8563 -17.8550 -17.8550
   -17.8489 -17.8489 -17.8476 -17.8476 -17.7876 -17.7876 -17.7866 -17.7866
    -8.7895  -8.7895  -8.5636  -8.5636  -8.4399  -8.4399  -8.4083  -8.4083
    -8.2710  -8.2710  -8.2101  -8.2101  -4.6218  -4.6218  -4.6051  -4.6051
    -4.5839  -4.5839  -4.5535  -4.5535  -4.5453  -4.5453  -4.5404  -4.5404
    -2.8789  -2.8789  -2.7783  -2.7783   0.2145   0.2145   0.8439   0.8439
     0.8981   0.8981   1.1440   1.1440   1.2849   1.2849   1.3072   1.3072
     1.5234   1.5234   1.5826   1.5826   1.7971   1.7971   1.8210   1.8210
     1.8300   1.8300   1.9860   1.9860   2.1211   2.1211   2.2182   2.2182
     2.2268   2.2268   2.3554   2.3554   2.4592   2.4592   2.7660   2.7660
     5.3309

     occupation numbers 
     1.0000   1.0000   1.0000   1.0000   1.0000   1.0000   1.0000   1.0000
     1.0000   1.0000   1.0000   1.0000   1.0000   1.0000   1.0000   1.0000
     1.0000   1.0000   1.0000   1.0000   1.0000   1.0000   1.0000   1.0000
     1.0000   1.0000   1.0000   1.0000   1.0000   1.0000   1.0000   1.0000
     1.0000   1.0000   1.0000   1.0000   1.0000   1.0000   1.0000   1.0000
     1.0000   1.0000   1.0000   1.0000   1.0000   1.0000   1.0000   1.0000
     1.0000   1.0000   1.0000   1.0000   1.0000   1.0000   1.0000   1.0000
     1.0000   1.0000   1.0000   1.0000   1.0000   1.0000   1.0000   1.0000
     1.0000   1.0000   1.0000   1.0000   1.0000   1.0000   1.0000   1.0000
     1.0000   1.0000   1.0000   1.0000   1.0000   1.0000   1.0000   1.0000
     1.0000   1.0000   1.0000   1.0000   1.0000   1.0000   1.0000   1.0000
     0.0000

          k = 0.0000-0.2244 0.0000 ( 50022 PWs)   bands (ev):

   -17.8796 -17.8796 -17.8794 -17.8794 -17.8714 -17.8714 -17.8712 -17.8712
   -17.8684 -17.8684 -17.8678 -17.8678 -17.8564 -17.8564 -17.8550 -17.8550
   -17.8489 -17.8489 -17.8476 -17.8476 -17.7872 -17.7872 -17.7870 -17.7870
    -8.7666  -8.7666  -8.6068  -8.6068  -8.4859  -8.4859  -8.3435  -8.3435
    -8.2534  -8.2534  -8.2237  -8.2237  -4.6236  -4.6236  -4.6030  -4.6030
    -4.5767  -4.5767  -4.5591  -4.5591  -4.5502  -4.5502  -4.5486  -4.5486
    -2.8963  -2.8963  -2.7499  -2.7499   0.2540   0.2540   0.8183   0.8183
     0.9511   0.9511   1.1874   1.1874   1.2018   1.2018   1.3161   1.3161
     1.4158   1.4158   1.5584   1.5584   1.7459   1.7459   1.7832   1.7832
     1.9701   1.9701   2.0119   2.0119   2.0707   2.0707   2.2355   2.2355
     2.2633   2.2633   2.3128   2.3128   2.3967   2.3967   2.9397   2.9397
     5.1362

     occupation numbers 
     1.0000   1.0000   1.0000   1.0000   1.0000   1.0000   1.0000   1.0000
     1.0000   1.0000   1.0000   1.0000   1.0000   1.0000   1.0000   1.0000
     1.0000   1.0000   1.0000   1.0000   1.0000   1.0000   1.0000   1.0000
     1.0000   1.0000   1.0000   1.0000   1.0000   1.0000   1.0000   1.0000
     1.0000   1.0000   1.0000   1.0000   1.0000   1.0000   1.0000   1.0000
     1.0000   1.0000   1.0000   1.0000   1.0000   1.0000   1.0000   1.0000
     1.0000   1.0000   1.0000   1.0000   1.0000   1.0000   1.0000   1.0000
     1.0000   1.0000   1.0000   1.0000   1.0000   1.0000   1.0000   1.0000
     1.0000   1.0000   1.0000   1.0000   1.0000   1.0000   1.0000   1.0000
     1.0000   1.0000   1.0000   1.0000   1.0000   1.0000   1.0000   1.0000
     1.0000   1.0000   1.0000   1.0000   1.0000   1.0000   1.0000   1.0000
     0.0000

          k = 0.0000-0.2244-0.1331 ( 49992 PWs)   bands (ev):

   -17.8795 -17.8795 -17.8793 -17.8793 -17.8713 -17.8713 -17.8712 -17.8712
   -17.8683 -17.8683 -17.8678 -17.8678 -17.8565 -17.8565 -17.8549 -17.8549
   -17.8489 -17.8489 -17.8477 -17.8477 -17.7872 -17.7872 -17.7870 -17.7870
    -8.7666  -8.7666  -8.6071  -8.6071  -8.4838  -8.4838  -8.3492  -8.3492
    -8.2384  -8.2384  -8.2348  -8.2348  -4.6205  -4.6205  -4.6100  -4.6100
    -4.5719  -4.5719  -4.5599  -4.5599  -4.5502  -4.5502  -4.5486  -4.5486
    -2.8950  -2.8950  -2.7514  -2.7514   0.2596   0.2596   0.8082   0.8082
     0.9510   0.9510   1.2018   1.2018   1.2126   1.2126   1.3155   1.3155
     1.3589   1.3589   1.5680   1.5680   1.7472   1.7472   1.8255   1.8255
     1.9658   1.9658   1.9980   1.9980   2.0844   2.0844   2.2213   2.2213
     2.2876   2.2876   2.2914   2.2914   2.4108   2.4108   2.9230   2.9230
     5.1350

     occupation numbers 
     1.0000   1.0000   1.0000   1.0000   1.0000   1.0000   1.0000   1.0000
     1.0000   1.0000   1.0000   1.0000   1.0000   1.0000   1.0000   1.0000
     1.0000   1.0000   1.0000   1.0000   1.0000   1.0000   1.0000   1.0000
     1.0000   1.0000   1.0000   1.0000   1.0000   1.0000   1.0000   1.0000
     1.0000   1.0000   1.0000   1.0000   1.0000   1.0000   1.0000   1.0000
     1.0000   1.0000   1.0000   1.0000   1.0000   1.0000   1.0000   1.0000
     1.0000   1.0000   1.0000   1.0000   1.0000   1.0000   1.0000   1.0000
     1.0000   1.0000   1.0000   1.0000   1.0000   1.0000   1.0000   1.0000
     1.0000   1.0000   1.0000   1.0000   1.0000   1.0000   1.0000   1.0000
     1.0000   1.0000   1.0000   1.0000   1.0000   1.0000   1.0000   1.0000
     1.0000   1.0000   1.0000   1.0000   1.0000   1.0000   1.0000   1.0000
     0.0000

          k =-0.5000 0.0000 0.0000 ( 49966 PWs)   bands (ev):

   -17.8788 -17.8788 -17.8787 -17.8787 -17.8746 -17.8746 -17.8746 -17.8746
   -17.8679 -17.8679 -17.8679 -17.8679 -17.8524 -17.8524 -17.8524 -17.8524
   -17.8489 -17.8489 -17.8489 -17.8489 -17.7761 -17.7761 -17.7755 -17.7755
    -8.4819  -8.4819  -8.4796  -8.4796  -8.3063  -8.3063  -8.2969  -8.2969
    -8.2854  -8.2854  -8.2657  -8.2657  -4.7921  -4.7921  -4.7244  -4.7244
    -4.6089  -4.6089  -4.5997  -4.5997  -4.5855  -4.5855  -4.5568  -4.5568
    -3.2025  -3.2025  -3.1656  -3.1656   0.0787   0.0787   0.0802   0.0802
     0.5672   0.5672   0.6252   0.6252   0.8928   0.8928   0.9124   0.9124
     1.2456   1.2456   1.6370   1.6370   1.6784   1.6784   1.7851   1.7851
     1.7959   1.7959   1.8567   1.8567   1.9085   1.9085   1.9341   1.9341
     2.0648   2.0648   2.1025   2.1025   2.5345   2.5345   2.9144   2.9144
     6.1096

     occupation numbers 
     1.0000   1.0000   1.0000   1.0000   1.0000   1.0000   1.0000   1.0000
     1.0000   1.0000   1.0000   1.0000   1.0000   1.0000   1.0000   1.0000
     1.0000   1.0000   1.0000   1.0000   1.0000   1.0000   1.0000   1.0000
     1.0000   1.0000   1.0000   1.0000   1.0000   1.0000   1.0000   1.0000
     1.0000   1.0000   1.0000   1.0000   1.0000   1.0000   1.0000   1.0000
     1.0000   1.0000   1.0000   1.0000   1.0000   1.0000   1.0000   1.0000
     1.0000   1.0000   1.0000   1.0000   1.0000   1.0000   1.0000   1.0000
     1.0000   1.0000   1.0000   1.0000   1.0000   1.0000   1.0000   1.0000
     1.0000   1.0000   1.0000   1.0000   1.0000   1.0000   1.0000   1.0000
     1.0000   1.0000   1.0000   1.0000   1.0000   1.0000   1.0000   1.0000
     1.0000   1.0000   1.0000   1.0000   1.0000   1.0000   1.0000   1.0000
     0.0000

          k =-0.5000 0.0000-0.1331 ( 49968 PWs)   bands (ev):

   -17.8788 -17.8788 -17.8787 -17.8787 -17.8746 -17.8746 -17.8746 -17.8746
   -17.8679 -17.8679 -17.8679 -17.8679 -17.8524 -17.8524 -17.8524 -17.8524
   -17.8489 -17.8489 -17.8489 -17.8489 -17.7761 -17.7761 -17.7755 -17.7755
    -8.4825  -8.4825  -8.4790  -8.4790  -8.3057  -8.3057  -8.2979  -8.2979
    -8.2850  -8.2850  -8.2657  -8.2657  -4.7920  -4.7920  -4.7245  -4.7245
    -4.6091  -4.6091  -4.5997  -4.5997  -4.5852  -4.5852  -4.5570  -4.5570
    -3.1960  -3.1960  -3.1723  -3.1723   0.0659   0.0659   0.0984   0.0984
     0.5852   0.5852   0.6328   0.6328   0.8411   0.8411   0.8794   0.8794
     1.3341   1.3341   1.6058   1.6058   1.6891   1.6891   1.8010   1.8010
     1.8034   1.8034   1.8294   1.8294   1.8374   1.8374   1.9644   1.9644
     2.0590   2.0590   2.1330   2.1330   2.5939   2.5939   2.8556   2.8556
     6.1063

     occupation numbers 
     1.0000   1.0000   1.0000   1.0000   1.0000   1.0000   1.0000   1.0000
     1.0000   1.0000   1.0000   1.0000   1.0000   1.0000   1.0000   1.0000
     1.0000   1.0000   1.0000   1.0000   1.0000   1.0000   1.0000   1.0000
     1.0000   1.0000   1.0000   1.0000   1.0000   1.0000   1.0000   1.0000
     1.0000   1.0000   1.0000   1.0000   1.0000   1.0000   1.0000   1.0000
     1.0000   1.0000   1.0000   1.0000   1.0000   1.0000   1.0000   1.0000
     1.0000   1.0000   1.0000   1.0000   1.0000   1.0000   1.0000   1.0000
     1.0000   1.0000   1.0000   1.0000   1.0000   1.0000   1.0000   1.0000
     1.0000   1.0000   1.0000   1.0000   1.0000   1.0000   1.0000   1.0000
     1.0000   1.0000   1.0000   1.0000   1.0000   1.0000   1.0000   1.0000
     1.0000   1.0000   1.0000   1.0000   1.0000   1.0000   1.0000   1.0000
     0.0000

          k =-0.5000-0.2244 0.0000 ( 50024 PWs)   bands (ev):

   -17.8788 -17.8788 -17.8788 -17.8788 -17.8746 -17.8746 -17.8746 -17.8746
   -17.8680 -17.8680 -17.8680 -17.8680 -17.8524 -17.8524 -17.8524 -17.8524
   -17.8490 -17.8490 -17.8490 -17.8490 -17.7758 -17.7758 -17.7758 -17.7758
    -8.4808  -8.4808  -8.4808  -8.4808  -8.3027  -8.3027  -8.3027  -8.3027
    -8.2745  -8.2745  -8.2745  -8.2745  -4.7583  -4.7583  -4.7583  -4.7583
    -4.6023  -4.6023  -4.6023  -4.6023  -4.5731  -4.5731  -4.5731  -4.5731
    -3.1847  -3.1847  -3.1847  -3.1847   0.2245   0.2245   0.2245   0.2245
     0.4397   0.4397   0.4397   0.4397   0.8448   0.8448   0.8448   0.8448
     1.4593   1.4593   1.4593   1.4593   1.6408   1.6408   1.6408   1.6408
     1.8007   1.8007   1.8007   1.8007   1.9273   1.9273   1.9273   1.9273
     2.1552   2.1552   2.1552   2.1552   2.8767   2.8767   2.8767   2.8767
     6.1289

     occupation numbers 
     1.0000   1.0000   1.0000   1.0000   1.0000   1.0000   1.0000   1.0000
     1.0000   1.0000   1.0000   1.0000   1.0000   1.0000   1.0000   1.0000
     1.0000   1.0000   1.0000   1.0000   1.0000   1.0000   1.0000   1.0000
     1.0000   1.0000   1.0000   1.0000   1.0000   1.0000   1.0000   1.0000
     1.0000   1.0000   1.0000   1.0000   1.0000   1.0000   1.0000   1.0000
     1.0000   1.0000   1.0000   1.0000   1.0000   1.0000   1.0000   1.0000
     1.0000   1.0000   1.0000   1.0000   1.0000   1.0000   1.0000   1.0000
     1.0000   1.0000   1.0000   1.0000   1.0000   1.0000   1.0000   1.0000
     1.0000   1.0000   1.0000   1.0000   1.0000   1.0000   1.0000   1.0000
     1.0000   1.0000   1.0000   1.0000   1.0000   1.0000   1.0000   1.0000
     1.0000   1.0000   1.0000   1.0000   1.0000   1.0000   1.0000   1.0000
     0.0000

          k =-0.5000-0.2244-0.1331 ( 50040 PWs)   bands (ev):

   -17.8788 -17.8788 -17.8788 -17.8788 -17.8746 -17.8746 -17.8746 -17.8746
   -17.8680 -17.8680 -17.8680 -17.8680 -17.8524 -17.8524 -17.8524 -17.8524
   -17.8490 -17.8490 -17.8490 -17.8490 -17.7758 -17.7758 -17.7758 -17.7758
    -8.4808  -8.4808  -8.4808  -8.4808  -8.3026  -8.3026  -8.3026  -8.3026
    -8.2746  -8.2746  -8.2746  -8.2746  -4.7583  -4.7583  -4.7583  -4.7583
    -4.6022  -4.6022  -4.6022  -4.6022  -4.5732  -4.5732  -4.5732  -4.5732
    -3.1847  -3.1847  -3.1847  -3.1847   0.2182   0.2182   0.2182   0.2182
     0.4429   0.4429   0.4429   0.4429   0.8705   0.8705   0.8705   0.8705
     1.3745   1.3745   1.3745   1.3745   1.7122   1.7122   1.7122   1.7122
     1.8030   1.8030   1.8030   1.8030   1.9478   1.9478   1.9478   1.9478
     2.1164   2.1164   2.1164   2.1164   2.8857   2.8857   2.8857   2.8857
     6.1194

     occupation numbers 
     1.0000   1.0000   1.0000   1.0000   1.0000   1.0000   1.0000   1.0000
     1.0000   1.0000   1.0000   1.0000   1.0000   1.0000   1.0000   1.0000
     1.0000   1.0000   1.0000   1.0000   1.0000   1.0000   1.0000   1.0000
     1.0000   1.0000   1.0000   1.0000   1.0000   1.0000   1.0000   1.0000
     1.0000   1.0000   1.0000   1.0000   1.0000   1.0000   1.0000   1.0000
     1.0000   1.0000   1.0000   1.0000   1.0000   1.0000   1.0000   1.0000
     1.0000   1.0000   1.0000   1.0000   1.0000   1.0000   1.0000   1.0000
     1.0000   1.0000   1.0000   1.0000   1.0000   1.0000   1.0000   1.0000
     1.0000   1.0000   1.0000   1.0000   1.0000   1.0000   1.0000   1.0000
     1.0000   1.0000   1.0000   1.0000   1.0000   1.0000   1.0000   1.0000
     1.0000   1.0000   1.0000   1.0000   1.0000   1.0000   1.0000   1.0000
     0.0000

     highest occupied, lowest unoccupied level (ev):     2.9397    5.1350

!    total energy              =   -7979.63848704 Ry

     total all-electron energy =   -282510.793200 Ry
     estimated scf accuracy    <       0.00000002 Ry

     The total energy is the sum of the following terms:
     one-electron contribution =    -463.64627428 Ry
     hartree contribution      =     316.60732656 Ry
     xc contribution           =    -465.90399790 Ry
     ewald contribution        =    -633.56960439 Ry
     one-center paw contrib.   =   -6733.12593703 Ry
      -> PAW hartree energy AE =      25.63656555 Ry
      -> PAW hartree energy PS =     -25.52702895 Ry
      -> PAW xc energy AE      =    -383.53047662 Ry
      -> PAW xc energy PS      =      20.51521389 Ry
      -> total E_H with PAW    =     316.71686316 Ry
      -> total E_XC with PAW   =    -828.91926064 Ry

     convergence has been achieved in  11 iterations

     Forces acting on atoms (cartesian axes, Ry/au):

     atom    1 type  3   force =     0.00000000   -0.00063585    0.00069576
     atom    2 type  3   force =     0.00000000    0.00063585   -0.00069576
     atom    3 type  3   force =     0.00000000   -0.00063585   -0.00069576
     atom    4 type  3   force =     0.00000000    0.00063585    0.00069576
     atom    5 type  1   force =     0.00000000   -0.00050992   -0.00021987
     atom    6 type  1   force =     0.00000000    0.00050992    0.00021987
     atom    7 type  1   force =     0.00000000   -0.00050992    0.00021987
     atom    8 type  1   force =     0.00000000    0.00050992   -0.00021987
     atom    9 type  2   force =     0.00000000   -0.00347284   -0.00187127
     atom   10 type  2   force =     0.00000000    0.00347284    0.00187127
     atom   11 type  2   force =     0.00000000   -0.00347284    0.00187127
     atom   12 type  2   force =    -0.00000000    0.00347284   -0.00187127
     atom   13 type  2   force =     0.00000000   -0.00061064    0.00041339
     atom   14 type  2   force =     0.00000000    0.00061064   -0.00041339
     atom   15 type  2   force =     0.00000000   -0.00061064   -0.00041339
     atom   16 type  2   force =     0.00000000    0.00061064    0.00041339
     atom   17 type  2   force =     0.00000000    0.00326338   -0.00179653
     atom   18 type  2   force =    -0.00000000   -0.00326338    0.00179653
     atom   19 type  2   force =     0.00000000    0.00326338    0.00179653
     atom   20 type  2   force =    -0.00000000   -0.00326338   -0.00179653
     The non-local contrib.  to forces
     atom    1 type  3   force =     0.00000000    0.00197046   -0.00096747
     atom    2 type  3   force =     0.00000000   -0.00197046    0.00096747
     atom    3 type  3   force =     0.00000000    0.00197046    0.00096747
     atom    4 type  3   force =     0.00000000   -0.00197046   -0.00096747
     atom    5 type  1   force =     0.00000000   -0.08820507   -0.13102149
     atom    6 type  1   force =     0.00000000    0.08820507    0.13102149
     atom    7 type  1   force =     0.00000000   -0.08820507    0.13102149
     atom    8 type  1   force =     0.00000000    0.08820507   -0.13102149
     atom    9 type  2   force =     0.00000000   -0.04815378   -0.04706133
     atom   10 type  2   force =     0.00000000    0.04815378    0.04706133
     atom   11 type  2   force =    -0.00000000   -0.04815378    0.04706133
     atom   12 type  2   force =     0.00000000    0.04815378   -0.04706133
     atom   13 type  2   force =     0.00000000   -0.03305014    0.05613841
     atom   14 type  2   force =     0.00000000    0.03305014   -0.05613841
     atom   15 type  2   force =     0.00000000   -0.03305014   -0.05613841
     atom   16 type  2   force =     0.00000000    0.03305014    0.05613841
     atom   17 type  2   force =     0.00000000    0.05604777   -0.01694568
     atom   18 type  2   force =     0.00000000   -0.05604777    0.01694568
     atom   19 type  2   force =     0.00000000    0.05604777    0.01694568
     atom   20 type  2   force =     0.00000000   -0.05604777   -0.01694568
     The ionic contribution  to forces
     atom    1 type  3   force =     0.00000000    0.02273773    0.42856976
     atom    2 type  3   force =    -0.00000000   -0.02273773   -0.42856976
     atom    3 type  3   force =     0.00000000    0.02273773   -0.42856976
     atom    4 type  3   force =    -0.00000000   -0.02273773    0.42856976
     atom    5 type  1   force =     0.00000000   -2.44382135   -1.60292983
     atom    6 type  1   force =     0.00000000    2.44382135    1.60292983
     atom    7 type  1   force =    -0.00000000   -2.44382135    1.60292983
     atom    8 type  1   force =     0.00000000    2.44382135   -1.60292983
     atom    9 type  2   force =    -0.00000000    3.00608891    5.13288893
     atom   10 type  2   force =     0.00000000   -3.00608891   -5.13288893
     atom   11 type  2   force =    -0.00000000    3.00608891   -5.13288893
     atom   12 type  2   force =    -0.00000000   -3.00608891    5.13288893
     atom   13 type  2   force =    -0.00000000    2.02422849   -3.75281499
     atom   14 type  2   force =     0.00000000   -2.02422849    3.75281499
     atom   15 type  2   force =    -0.00000000    2.02422849    3.75281499
     atom   16 type  2   force =     0.00000000   -2.02422849   -3.75281499
     atom   17 type  2   force =     0.00000000   -4.20564473    2.10270404
     atom   18 type  2   force =    -0.00000000    4.20564473   -2.10270404
     atom   19 type  2   force =     0.00000000   -4.20564473   -2.10270404
     atom   20 type  2   force =    -0.00000000    4.20564473    2.10270404
     The local contribution  to forces
     atom    1 type  3   force =     0.00000000   -0.02522341   -0.42698350
     atom    2 type  3   force =    -0.00000000    0.02522341    0.42698350
     atom    3 type  3   force =    -0.00000000   -0.02522341    0.42698350
     atom    4 type  3   force =     0.00000000    0.02522341   -0.42698350
     atom    5 type  1   force =    -0.00000000    2.53131150    1.73385580
     atom    6 type  1   force =    -0.00000000   -2.53131150   -1.73385580
     atom    7 type  1   force =    -0.00000000    2.53131150   -1.73385580
     atom    8 type  1   force =    -0.00000000   -2.53131150    1.73385580
     atom    9 type  2   force =    -0.00000000   -2.96785101   -5.09430171
     atom   10 type  2   force =     0.00000000    2.96785101    5.09430171
     atom   11 type  2   force =    -0.00000000   -2.96785101    5.09430171
     atom   12 type  2   force =     0.00000000    2.96785101   -5.09430171
     atom   13 type  2   force =    -0.00000000   -1.99616630    3.70463542
     atom   14 type  2   force =     0.00000000    1.99616630   -3.70463542
     atom   15 type  2   force =     0.00000000   -1.99616630   -3.70463542
     atom   16 type  2   force =     0.00000000    1.99616630    3.70463542
     atom   17 type  2   force =     0.00000000    4.16059102   -2.09010389
     atom   18 type  2   force =    -0.00000000   -4.16059102    2.09010389
     atom   19 type  2   force =     0.00000000    4.16059102    2.09010389
     atom   20 type  2   force =    -0.00000000   -4.16059102   -2.09010389
     The core correction contribution to forces
     atom    1 type  3   force =     0.00000000   -0.00014819    0.00003950
     atom    2 type  3   force =     0.00000000    0.00014819   -0.00003950
     atom    3 type  3   force =     0.00000000   -0.00014819   -0.00003950
     atom    4 type  3   force =     0.00000000    0.00014819    0.00003950
     atom    5 type  1   force =     0.00000000    0.00020416    0.00004555
     atom    6 type  1   force =    -0.00000000   -0.00020416   -0.00004555
     atom    7 type  1   force =     0.00000000    0.00020416   -0.00004555
     atom    8 type  1   force =    -0.00000000   -0.00020416    0.00004555
     atom    9 type  2   force =    -0.00000000    0.00640895    0.00649179
     atom   10 type  2   force =     0.00000000   -0.00640895   -0.00649179
     atom   11 type  2   force =    -0.00000000    0.00640895   -0.00649179
     atom   12 type  2   force =     0.00000000   -0.00640895    0.00649179
     atom   13 type  2   force =    -0.00000000    0.00436307   -0.00748665
     atom   14 type  2   force =     0.00000000   -0.00436307    0.00748665
     atom   15 type  2   force =     0.00000000    0.00436307    0.00748665
     atom   16 type  2   force =     0.00000000   -0.00436307   -0.00748665
     atom   17 type  2   force =     0.00000000   -0.00769638    0.00252975
     atom   18 type  2   force =     0.00000000    0.00769638   -0.00252975
     atom   19 type  2   force =    -0.00000000   -0.00769638   -0.00252975
     atom   20 type  2   force =     0.00000000    0.00769638    0.00252975
     The Hubbard contrib.    to forces
     atom    1 type  3   force =     0.00000000    0.00000000    0.00000000
     atom    2 type  3   force =     0.00000000    0.00000000    0.00000000
     atom    3 type  3   force =     0.00000000    0.00000000    0.00000000
     atom    4 type  3   force =     0.00000000    0.00000000    0.00000000
     atom    5 type  1   force =     0.00000000    0.00000000    0.00000000
     atom    6 type  1   force =     0.00000000    0.00000000    0.00000000
     atom    7 type  1   force =     0.00000000    0.00000000    0.00000000
     atom    8 type  1   force =     0.00000000    0.00000000    0.00000000
     atom    9 type  2   force =     0.00000000    0.00000000    0.00000000
     atom   10 type  2   force =     0.00000000    0.00000000    0.00000000
     atom   11 type  2   force =     0.00000000    0.00000000    0.00000000
     atom   12 type  2   force =     0.00000000    0.00000000    0.00000000
     atom   13 type  2   force =     0.00000000    0.00000000    0.00000000
     atom   14 type  2   force =     0.00000000    0.00000000    0.00000000
     atom   15 type  2   force =     0.00000000    0.00000000    0.00000000
     atom   16 type  2   force =     0.00000000    0.00000000    0.00000000
     atom   17 type  2   force =     0.00000000    0.00000000    0.00000000
     atom   18 type  2   force =     0.00000000    0.00000000    0.00000000
     atom   19 type  2   force =     0.00000000    0.00000000    0.00000000
     atom   20 type  2   force =     0.00000000    0.00000000    0.00000000
     The SCF correction term to forces
     atom    1 type  3   force =    -0.00000000    0.00002756    0.00003746
     atom    2 type  3   force =     0.00000000   -0.00002756   -0.00003746
     atom    3 type  3   force =    -0.00000000    0.00002756   -0.00003746
     atom    4 type  3   force =     0.00000000   -0.00002756    0.00003746
     atom    5 type  1   force =     0.00000000    0.00000084   -0.00016990
     atom    6 type  1   force =     0.00000000   -0.00000084    0.00016990
     atom    7 type  1   force =    -0.00000000    0.00000084    0.00016990
     atom    8 type  1   force =    -0.00000000   -0.00000084   -0.00016990
     atom    9 type  2   force =    -0.00000000    0.00003408    0.00011104
     atom   10 type  2   force =     0.00000000   -0.00003408   -0.00011104
     atom   11 type  2   force =     0.00000000    0.00003408   -0.00011104
     atom   12 type  2   force =     0.00000000   -0.00003408    0.00011104
     atom   13 type  2   force =    -0.00000000    0.00001424   -0.00005880
     atom   14 type  2   force =     0.00000000   -0.00001424    0.00005880
     atom   15 type  2   force =     0.00000000    0.00001424    0.00005880
     atom   16 type  2   force =    -0.00000000   -0.00001424   -0.00005880
     atom   17 type  2   force =    -0.00000000   -0.00003429    0.00001924
     atom   18 type  2   force =     0.00000000    0.00003429   -0.00001924
     atom   19 type  2   force =     0.00000000   -0.00003429   -0.00001924
     atom   20 type  2   force =     0.00000000    0.00003429    0.00001924

     Total force =     0.011168     Total SCF correction =     0.000446


     Computing stress (Cartesian axis) and pressure

          total   stress  (Ry/bohr**3)                   (kbar)     P=       -2.36
   0.00001064   0.00000000   0.00000000            1.56        0.00        0.00
   0.00000000  -0.00003395   0.00000000            0.00       -4.99        0.00
   0.00000000   0.00000000  -0.00002477            0.00        0.00       -3.64

     kinetic stress (kbar)   5531.51      0.00      0.00
                                0.00   5532.37      0.00
                                0.00      0.00   5528.29

     local   stress (kbar)  -4523.49      0.00     -0.00
                                0.00  -1881.56      0.00
                               -0.00      0.00   -989.71

     nonloc. stress (kbar)   1139.29      0.00      0.00
                                0.00   1134.86      0.00
                                0.00      0.00   1138.06

     hartree stress (kbar)   3404.88     -0.00      0.00
                               -0.00   2187.58      0.00
                                0.00      0.00   1718.46

     exc-cor stress (kbar)   5446.71     -0.00     -0.00
                               -0.00   5446.29     -0.00
                               -0.00     -0.00   5446.76

     corecor stress (kbar)  -7212.53     -0.00     -0.00
                               -0.00  -7212.39     -0.00
                               -0.00     -0.00  -7212.42

     ewald   stress (kbar)  -3784.80      0.00     -0.00
                                0.00  -5212.16      0.00
                               -0.00      0.00  -5633.09

     hubbard stress (kbar)      0.00      0.00      0.00
                                0.00      0.00      0.00
                                0.00      0.00      0.00

     DFT-D   stress (kbar)      0.00      0.00      0.00
                                0.00      0.00      0.00
                                0.00      0.00      0.00

     XDM     stress (kbar)      0.00      0.00      0.00
                                0.00      0.00      0.00
                                0.00      0.00      0.00

     dft-nl  stress (kbar)      0.00      0.00      0.00
                                0.00      0.00      0.00
                                0.00      0.00      0.00

     TS-vdW  stress (kbar)      0.00      0.00      0.00
                                0.00      0.00      0.00
                                0.00      0.00      0.00



     Writing output data file ./out/CsSnI3.save/

     init_run     :    132.76s CPU    139.73s WALL (       1 calls)
     electrons    :   4415.93s CPU   4499.96s WALL (       1 calls)
     forces       :    108.49s CPU    110.83s WALL (       1 calls)
     stress       :    166.85s CPU    169.97s WALL (       1 calls)

     Called by init_run:
     wfcinit      :    108.79s CPU    110.55s WALL (       1 calls)
     wfcinit:atom :      0.19s CPU      0.20s WALL (       8 calls)
     wfcinit:wfcr :    106.94s CPU    108.62s WALL (       8 calls)
     potinit      :      8.35s CPU      8.59s WALL (       1 calls)
     hinit0       :      8.29s CPU      8.39s WALL (       1 calls)

     Called by electrons:
     c_bands      :   3911.58s CPU   3976.70s WALL (      12 calls)
     sum_band     :    403.87s CPU    416.22s WALL (      12 calls)
     v_of_rho     :      4.14s CPU      4.25s WALL (      12 calls)
     v_h          :      0.35s CPU      0.36s WALL (      12 calls)
     v_xc         :      4.42s CPU      4.53s WALL (      14 calls)
     newd         :     61.45s CPU     66.76s WALL (      12 calls)
     PAW_pot      :     42.54s CPU     43.81s WALL (      12 calls)
     mix_rho      :      1.01s CPU      1.10s WALL (      12 calls)

     Called by c_bands:
     init_us_2    :     13.13s CPU     13.45s WALL (     216 calls)
     cegterg      :   3868.67s CPU   3932.74s WALL (      96 calls)

     Called by sum_band:
     sum_band:wei :      0.00s CPU      0.08s WALL (      12 calls)
     sum_band:loo :    343.21s CPU    349.17s WALL (      12 calls)
     sum_band:buf :      1.38s CPU      1.42s WALL (      96 calls)
     sum_band:ini :      5.79s CPU      5.91s WALL (      96 calls)
     sum_band:cal :    254.28s CPU    258.13s WALL (      96 calls)
     sum_band:bec :      1.28s CPU      1.32s WALL (      96 calls)
     addusdens    :     57.66s CPU     63.89s WALL (      12 calls)
     addusd:skk   :      0.17s CPU      0.20s WALL (      36 calls)
     addusd:dgemm :     30.08s CPU     35.63s WALL (      36 calls)
     addusd:qvan2 :     25.01s CPU     25.41s WALL (      36 calls)

     Called by *egterg:
     cdiaghg      :     99.33s CPU    100.50s WALL (     549 calls)
     cegterg:over :    287.86s CPU    292.21s WALL (     461 calls)
     cegterg:upda :    202.12s CPU    205.40s WALL (     461 calls)
     cegterg:last :    553.57s CPU    562.30s WALL (     244 calls)
     h_psi        :   1943.61s CPU   1977.07s WALL (     565 calls)
     s_psi        :    739.78s CPU    751.20s WALL (     565 calls)
     g_psi        :      1.54s CPU      1.58s WALL (     461 calls)

     Called by h_psi:
     h_psi:calbec :    761.07s CPU    772.81s WALL (     565 calls)
     vloc_psi     :    437.51s CPU    447.52s WALL (     565 calls)
     add_vuspsi   :    741.96s CPU    753.33s WALL (     565 calls)

     General routines
     calbec       :   1120.93s CPU   1138.40s WALL (     701 calls)
     fft          :      3.26s CPU      3.33s WALL (     158 calls)
     ffts         :      0.18s CPU      0.18s WALL (      12 calls)
     fftw         :    473.81s CPU    484.58s WALL (   59620 calls)

     Parallel routines
     fft_scatt_xy :     40.79s CPU     41.87s WALL (   59790 calls)
     fft_scatt_yz :     82.37s CPU     84.72s WALL (   59790 calls)

     PAW routines
     PAW_pot      :     42.54s CPU     43.81s WALL (      12 calls)
     PAW_symme    :      0.30s CPU      0.30s WALL (      24 calls)

     PWSCF        :      1h20m CPU      1h22m WALL


   This run was terminated on:  13: 0: 6  15Jan2021            

=------------------------------------------------------------------------------=
   JOB DONE.
=------------------------------------------------------------------------------=
