
     Program PWSCF v.6.7MaX starts on 15Jan2021 at 11:37:51 

     This program is part of the open-source Quantum ESPRESSO suite
     for quantum simulation of materials; please cite
         "P. Giannozzi et al., J. Phys.:Condens. Matter 21 395502 (2009);
         "P. Giannozzi et al., J. Phys.:Condens. Matter 29 465901 (2017);
          URL http://www.quantum-espresso.org", 
     in publications or presentations arising from this work. More details at
     http://www.quantum-espresso.org/quote

     Parallel version (MPI), running on    32 processors

     MPI processes distributed on     1 nodes
     R & G space division:  proc/nbgrp/npool/nimage =      32
     Waiting for input...
     Reading input from standard input

     Current dimensions of program PWSCF are:
     Max number of different atomic species (ntypx) = 10
     Max number of k-points (npk) =  40000
     Max angular momentum in pseudopotentials (lmaxx) =  3
     file Sn.pbe-dn-kjpaw_psl.1.0.0.UPF: wavefunction(s)  5S 5P 4D renormalized
     file I.pbe-n-kjpaw_psl.1.0.0.UPF: wavefunction(s)  5S renormalized
     file Cs.pbe-spn-kjpaw_psl.1.0.0.UPF: wavefunction(s)  5S 6S renormalized

     Subspace diagonalization in iterative solution of the eigenvalue problem:
     a serial algorithm will be used

     Message from routine setup:
     using ibrav=0 with symmetry is DISCOURAGED, use correct ibrav instead

     Parallelization info
     --------------------
     sticks:   dense  smooth     PW     G-vecs:    dense   smooth      PW
     Min          92      92     25                 9510     9510    1393
     Max          94      94     26                 9521     9521    1398
     Sum        2963    2963    825               304449   304449   44685


     Title: 
     CsSnI3                                                                     


     bravais-lattice index     =            0
     lattice parameter (alat)  =       9.1317  a.u.
     unit-cell volume          =    6370.5385 (a.u.)^3
     number of atoms/cell      =           20
     number of atomic types    =            3
     number of electrons       =       176.00
     number of Kohn-Sham states=           89
     kinetic-energy cutoff     =      50.0000  Ry
     charge density cutoff     =     200.0000  Ry
     scf convergence threshold =      1.0E-06
     mixing beta               =       0.7000
     number of iterations used =            8  plain     mixing
     Exchange-correlation= SLA  PW   PBX  PBC
                           (   1   4   3   4   0   0   0)

     celldm(1)=   9.131705  celldm(2)=   0.000000  celldm(3)=   0.000000
     celldm(4)=   0.000000  celldm(5)=   0.000000  celldm(6)=   0.000000

     crystal axes: (cart. coord. in units of alat)
               a(1) = (   1.000000   0.000000   0.000000 )  
               a(2) = (   0.000000   2.227728   0.000000 )  
               a(3) = (   0.000000   0.000000   3.755420 )  

     reciprocal axes: (cart. coord. in units 2 pi/alat)
               b(1) = (  1.000000  0.000000  0.000000 )  
               b(2) = (  0.000000  0.448888  0.000000 )  
               b(3) = (  0.000000  0.000000  0.266282 )  


     PseudoPot. # 1 for Sn read from file:
     ../../../pseudo/Sn.pbe-dn-kjpaw_psl.1.0.0.UPF
     MD5 check sum: 67f11dec737d427557dc41ea34975807
     Pseudo is Projector augmented-wave + core cor, Zval = 14.0
     Generated using &quot;atomic&quot; code by A. Dal Corso  v.6.3
     Shape of augmentation charge: PSQ
     Using radial grid of 1243 points,  6 beta functions with: 
                l(1) =   0
                l(2) =   0
                l(3) =   1
                l(4) =   1
                l(5) =   2
                l(6) =   2
     Q(r) pseudized with 0 coefficients 


     PseudoPot. # 2 for I  read from file:
     ../../../pseudo/I.pbe-n-kjpaw_psl.1.0.0.UPF
     MD5 check sum: cd3d296c3308a581e1559a0c8a554cb5
     Pseudo is Projector augmented-wave + core cor, Zval =  7.0
     Generated using &quot;atomic&quot; code by A. Dal Corso  v.6.3
     Shape of augmentation charge: PSQ
     Using radial grid of 1247 points,  6 beta functions with: 
                l(1) =   0
                l(2) =   0
                l(3) =   1
                l(4) =   1
                l(5) =   2
                l(6) =   2
     Q(r) pseudized with 0 coefficients 


     PseudoPot. # 3 for Cs read from file:
     ../../../pseudo/Cs.pbe-spn-kjpaw_psl.1.0.0.UPF
     MD5 check sum: b82c75cc2e1f4ff73b6412cffeb9c584
     Pseudo is Projector augmented-wave + core cor, Zval =  9.0
     Generated using &quot;atomic&quot; code by A. Dal Corso  v.6.4.1
     Shape of augmentation charge: PSQ
     Using radial grid of 1251 points,  9 beta functions with: 
                l(1) =   0
                l(2) =   0
                l(3) =   0
                l(4) =   1
                l(5) =   1
                l(6) =   2
                l(7) =   2
                l(8) =   3
                l(9) =   3
     Q(r) pseudized with 0 coefficients 


     atomic species   valence    mass     pseudopotential
        Sn            14.00   118.70000     Sn( 1.00)
        I              7.00   126.90000     I ( 1.00)
        Cs             9.00   132.90000     Cs( 1.00)

      8 Sym. Ops., with inversion, found ( 6 have fractional translation)


                                    s                        frac. trans.

      isym =  1     identity                                     

 cryst.   s( 1) = (     1          0          0      )
                  (     0          1          0      )
                  (     0          0          1      )

 cart.    s( 1) = (  1.0000000  0.0000000  0.0000000 )
                  (  0.0000000  1.0000000  0.0000000 )
                  (  0.0000000  0.0000000  1.0000000 )


      isym =  2     180 deg rotation - cart. axis [0,0,1]        

 cryst.   s( 2) = (    -1          0          0      )    f =(  0.0000000 )
                  (     0         -1          0      )       (  0.5000000 )
                  (     0          0          1      )       (  0.5000000 )

 cart.    s( 2) = ( -1.0000000  0.0000000  0.0000000 )    f =(  0.0000000 )
                  (  0.0000000 -1.0000000  0.0000000 )       (  1.1138638 )
                  (  0.0000000  0.0000000  1.0000000 )       (  1.8777098 )


      isym =  3     180 deg rotation - cart. axis [0,1,0]        

 cryst.   s( 3) = (    -1          0          0      )    f =(  0.5000000 )
                  (     0          1          0      )       ( -0.5000000 )
                  (     0          0         -1      )       ( -0.5000000 )

 cart.    s( 3) = ( -1.0000000  0.0000000  0.0000000 )    f =(  0.5000000 )
                  (  0.0000000  1.0000000  0.0000000 )       ( -1.1138638 )
                  (  0.0000000  0.0000000 -1.0000000 )       ( -1.8777098 )


      isym =  4     180 deg rotation - cart. axis [1,0,0]        

 cryst.   s( 4) = (     1          0          0      )    f =( -0.5000000 )
                  (     0         -1          0      )       (  0.0000000 )
                  (     0          0         -1      )       (  0.0000000 )

 cart.    s( 4) = (  1.0000000  0.0000000  0.0000000 )    f =( -0.5000000 )
                  (  0.0000000 -1.0000000  0.0000000 )       (  0.0000000 )
                  (  0.0000000  0.0000000 -1.0000000 )       (  0.0000000 )


      isym =  5     inversion                                    

 cryst.   s( 5) = (    -1          0          0      )
                  (     0         -1          0      )
                  (     0          0         -1      )

 cart.    s( 5) = ( -1.0000000  0.0000000  0.0000000 )
                  (  0.0000000 -1.0000000  0.0000000 )
                  (  0.0000000  0.0000000 -1.0000000 )


      isym =  6     inv. 180 deg rotation - cart. axis [0,0,1]   

 cryst.   s( 6) = (     1          0          0      )    f =(  0.0000000 )
                  (     0          1          0      )       ( -0.5000000 )
                  (     0          0         -1      )       ( -0.5000000 )

 cart.    s( 6) = (  1.0000000  0.0000000  0.0000000 )    f =(  0.0000000 )
                  (  0.0000000  1.0000000  0.0000000 )       ( -1.1138638 )
                  (  0.0000000  0.0000000 -1.0000000 )       ( -1.8777098 )


      isym =  7     inv. 180 deg rotation - cart. axis [0,1,0]   

 cryst.   s( 7) = (     1          0          0      )    f =( -0.5000000 )
                  (     0         -1          0      )       (  0.5000000 )
                  (     0          0          1      )       (  0.5000000 )

 cart.    s( 7) = (  1.0000000  0.0000000  0.0000000 )    f =( -0.5000000 )
                  (  0.0000000 -1.0000000  0.0000000 )       (  1.1138638 )
                  (  0.0000000  0.0000000  1.0000000 )       (  1.8777098 )


      isym =  8     inv. 180 deg rotation - cart. axis [1,0,0]   

 cryst.   s( 8) = (    -1          0          0      )    f =(  0.5000000 )
                  (     0          1          0      )       (  0.0000000 )
                  (     0          0          1      )       (  0.0000000 )

 cart.    s( 8) = ( -1.0000000  0.0000000  0.0000000 )    f =(  0.5000000 )
                  (  0.0000000  1.0000000  0.0000000 )       (  0.0000000 )
                  (  0.0000000  0.0000000  1.0000000 )       (  0.0000000 )


   Cartesian axes

     site n.     atom                  positions (alat units)
         1           Cs  tau(   1) = (   0.2500000   0.1859640   2.5168147  )
         2           Cs  tau(   2) = (   0.7500000   2.0417636   1.2386050  )
         3           Cs  tau(   3) = (   0.2500000   1.2998278   3.1163149  )
         4           Cs  tau(   4) = (   0.7500000   0.9278998   0.6391048  )
         5           Sn  tau(   5) = (   0.2500000   0.7615710   1.6485466  )
         6           Sn  tau(   6) = (   0.7500000   1.4661567   2.1068731  )
         7           Sn  tau(   7) = (   0.2500000   1.8754348   0.2291632  )
         8           Sn  tau(   8) = (   0.7500000   0.3522928   3.5262565  )
         9           I   tau(   9) = (   0.7500000   0.0581437   0.4202578  )
        10           I   tau(  10) = (   0.2500000   2.1695839   3.3351619  )
        11           I   tau(  11) = (   0.7500000   1.1720075   1.4574521  )
        12           I   tau(  12) = (   0.2500000   1.0557201   2.2979676  )
        13           I   tau(  13) = (   0.7500000   0.6531118   2.9738192  )
        14           I   tau(  14) = (   0.2500000   1.5746158   0.7816005  )
        15           I   tau(  15) = (   0.7500000   1.7669756   2.6593103  )
        16           I   tau(  16) = (   0.2500000   0.4607520   1.0961094  )
        17           I   tau(  17) = (   0.7500000   0.3753632   1.8734812  )
        18           I   tau(  18) = (   0.2500000   1.8523644   1.8819384  )
        19           I   tau(  19) = (   0.7500000   1.4892270   0.0042286  )
        20           I   tau(  20) = (   0.2500000   0.7385006   3.7511911  )

   Crystallographic axes

     site n.     atom                  positions (cryst. coord.)
         1           Cs  tau(   1) = (  0.2500000  0.0834770  0.6701820  )
         2           Cs  tau(   2) = (  0.7500000  0.9165230  0.3298180  )
         3           Cs  tau(   3) = (  0.2500000  0.5834770  0.8298180  )
         4           Cs  tau(   4) = (  0.7500000  0.4165230  0.1701820  )
         5           Sn  tau(   5) = (  0.2500000  0.3418600  0.4389780  )
         6           Sn  tau(   6) = (  0.7500000  0.6581400  0.5610220  )
         7           Sn  tau(   7) = (  0.2500000  0.8418600  0.0610220  )
         8           Sn  tau(   8) = (  0.7500000  0.1581400  0.9389780  )
         9           I   tau(   9) = (  0.7500000  0.0261000  0.1119070  )
        10           I   tau(  10) = (  0.2500000  0.9739000  0.8880930  )
        11           I   tau(  11) = (  0.7500000  0.5261000  0.3880930  )
        12           I   tau(  12) = (  0.2500000  0.4739000  0.6119070  )
        13           I   tau(  13) = (  0.7500000  0.2931740  0.7918740  )
        14           I   tau(  14) = (  0.2500000  0.7068260  0.2081260  )
        15           I   tau(  15) = (  0.7500000  0.7931740  0.7081260  )
        16           I   tau(  16) = (  0.2500000  0.2068260  0.2918740  )
        17           I   tau(  17) = (  0.7500000  0.1684960  0.4988740  )
        18           I   tau(  18) = (  0.2500000  0.8315040  0.5011260  )
        19           I   tau(  19) = (  0.7500000  0.6684960  0.0011260  )
        20           I   tau(  20) = (  0.2500000  0.3315040  0.9988740  )

     number of k points=     8
                       cart. coord. in units 2pi/alat
        k(    1) = (   0.0000000   0.0000000   0.0000000), wk =   0.2500000
        k(    2) = (   0.0000000   0.0000000  -0.1331409), wk =   0.2500000
        k(    3) = (   0.0000000  -0.2244440   0.0000000), wk =   0.2500000
        k(    4) = (   0.0000000  -0.2244440  -0.1331409), wk =   0.2500000
        k(    5) = (  -0.5000000   0.0000000   0.0000000), wk =   0.2500000
        k(    6) = (  -0.5000000   0.0000000  -0.1331409), wk =   0.2500000
        k(    7) = (  -0.5000000  -0.2244440   0.0000000), wk =   0.2500000
        k(    8) = (  -0.5000000  -0.2244440  -0.1331409), wk =   0.2500000

                       cryst. coord.
        k(    1) = (   0.0000000   0.0000000   0.0000000), wk =   0.2500000
        k(    2) = (   0.0000000   0.0000000  -0.5000000), wk =   0.2500000
        k(    3) = (   0.0000000  -0.5000000   0.0000000), wk =   0.2500000
        k(    4) = (   0.0000000  -0.5000000  -0.5000000), wk =   0.2500000
        k(    5) = (  -0.5000000   0.0000000   0.0000000), wk =   0.2500000
        k(    6) = (  -0.5000000   0.0000000  -0.5000000), wk =   0.2500000
        k(    7) = (  -0.5000000  -0.5000000   0.0000000), wk =   0.2500000
        k(    8) = (  -0.5000000  -0.5000000  -0.5000000), wk =   0.2500000

     Dense  grid:   304449 G-vectors     FFT dimensions: (  48,  96, 160)

     Dynamical RAM for                 wfc:       1.61 MB

     Dynamical RAM for     wfc (w. buffer):      14.52 MB

     Dynamical RAM for           str. fact:       0.44 MB

     Dynamical RAM for           local pot:       0.00 MB

     Dynamical RAM for          nlocal pot:       7.61 MB

     Dynamical RAM for                qrad:      10.22 MB

     Dynamical RAM for          rho,v,vnew:       0.96 MB

     Dynamical RAM for               rhoin:       0.32 MB

     Dynamical RAM for            rho*nmix:       2.32 MB

     Dynamical RAM for           G-vectors:       0.62 MB

     Dynamical RAM for          h,s,v(r/c):       1.45 MB

     Dynamical RAM for          <psi|beta>:       0.57 MB

     Dynamical RAM for                 psi:       3.23 MB

     Dynamical RAM for                hpsi:       3.23 MB

     Dynamical RAM for                spsi:       3.23 MB

     Dynamical RAM for      wfcinit/wfcrot:       4.02 MB

     Dynamical RAM for           addusdens:      87.08 MB

     Dynamical RAM for          addusforce:      90.50 MB

     Dynamical RAM for         addusstress:      89.26 MB

     Estimated static dynamical RAM per process >      38.47 MB

     Estimated max dynamical RAM per process >     128.98 MB

     Estimated total dynamical RAM >       4.03 GB

     Check: negative core charge=   -0.000002

     Initial potential from superposition of free atoms

     starting charge  175.83511, renormalised to  176.00000
     Starting wfcs are  104 randomized atomic wfcs
     Checking if some PAW data can be deallocated... 
       PAW data deallocated on   24 nodes for type:  1
       PAW data deallocated on   16 nodes for type:  2
       PAW data deallocated on   24 nodes for type:  3

     total cpu time spent up to now is      110.1 secs

     Self-consistent Calculation

     iteration #  1     ecut=    50.00 Ry     beta= 0.70
     Davidson diagonalization with overlap
     ethr =  1.00E-02,  avg # of iterations =  2.0

     Threshold (ethr) on eigenvalues was too large:
     Diagonalizing with lowered threshold

     Davidson diagonalization with overlap
     ethr =  3.19E-04,  avg # of iterations =  4.0

     total cpu time spent up to now is      583.7 secs

     total energy              =   -7979.40239236 Ry
     estimated scf accuracy    <       0.45060869 Ry

     iteration #  2     ecut=    50.00 Ry     beta= 0.70
     Davidson diagonalization with overlap
     ethr =  2.56E-04,  avg # of iterations =  4.4

     total cpu time spent up to now is      871.7 secs

     total energy              =   -7979.49949973 Ry
     estimated scf accuracy    <       0.55420663 Ry

     iteration #  3     ecut=    50.00 Ry     beta= 0.70
     Davidson diagonalization with overlap
     ethr =  2.56E-04,  avg # of iterations =  4.6

     total cpu time spent up to now is     1111.3 secs

     total energy              =   -7979.60248766 Ry
     estimated scf accuracy    <       0.01433111 Ry

     iteration #  4     ecut=    50.00 Ry     beta= 0.70
     Davidson diagonalization with overlap
     ethr =  8.14E-06,  avg # of iterations =  8.8

     total cpu time spent up to now is     1487.4 secs

     total energy              =   -7979.61692704 Ry
     estimated scf accuracy    <       0.00585460 Ry

     iteration #  5     ecut=    50.00 Ry     beta= 0.70
     Davidson diagonalization with overlap
     ethr =  3.33E-06,  avg # of iterations =  3.0

     total cpu time spent up to now is     1716.9 secs

     total energy              =   -7979.61733606 Ry
     estimated scf accuracy    <       0.00105494 Ry

     iteration #  6     ecut=    50.00 Ry     beta= 0.70
     Davidson diagonalization with overlap
     ethr =  5.99E-07,  avg # of iterations =  5.6

     total cpu time spent up to now is     2028.4 secs

     total energy              =   -7979.61783616 Ry
     estimated scf accuracy    <       0.00021776 Ry

     iteration #  7     ecut=    50.00 Ry     beta= 0.70
     Davidson diagonalization with overlap
     ethr =  1.24E-07,  avg # of iterations =  4.4

     total cpu time spent up to now is     2270.8 secs

     total energy              =   -7979.61788768 Ry
     estimated scf accuracy    <       0.00001820 Ry

     iteration #  8     ecut=    50.00 Ry     beta= 0.70
     Davidson diagonalization with overlap
     ethr =  1.03E-08,  avg # of iterations =  7.1

     total cpu time spent up to now is     2624.2 secs

     total energy              =   -7979.61788020 Ry
     estimated scf accuracy    <       0.00004957 Ry

     iteration #  9     ecut=    50.00 Ry     beta= 0.70
     Davidson diagonalization with overlap
     ethr =  1.03E-08,  avg # of iterations =  5.9

     total cpu time spent up to now is     2931.1 secs

     total energy              =   -7979.61789637 Ry
     estimated scf accuracy    <       0.00000927 Ry

     iteration # 10     ecut=    50.00 Ry     beta= 0.70
     Davidson diagonalization with overlap
     ethr =  5.27E-09,  avg # of iterations =  2.0

     total cpu time spent up to now is     3131.1 secs

     total energy              =   -7979.61789434 Ry
     estimated scf accuracy    <       0.00000533 Ry

     iteration # 11     ecut=    50.00 Ry     beta= 0.70
     Davidson diagonalization with overlap
     ethr =  3.03E-09,  avg # of iterations =  5.4

     total cpu time spent up to now is     3380.5 secs

     End of self-consistent calculation

          k = 0.0000 0.0000 0.0000 ( 37989 PWs)   bands (ev):

   -17.8780 -17.8780 -17.8778 -17.8777 -17.8700 -17.8700 -17.8697 -17.8697
   -17.8668 -17.8668 -17.8661 -17.8661 -17.8550 -17.8550 -17.8536 -17.8536
   -17.8475 -17.8475 -17.8461 -17.8461 -17.7875 -17.7873 -17.7866 -17.7864
    -8.8006  -8.7762  -8.5940  -8.5322  -8.4450  -8.4351  -8.4154  -8.4050
    -8.2779  -8.2544  -8.2368  -8.1938  -4.6164  -4.6154  -4.6129  -4.6063
    -4.5976  -4.5708  -4.5542  -4.5524  -4.5460  -4.5444  -4.5425  -4.5397
    -2.8865  -2.8616  -2.8235  -2.7428   0.1247   0.3262   0.7543   0.8910
     0.9056   0.9871   1.1132   1.1243   1.2144   1.2807   1.3251   1.3337
     1.3343   1.5558   1.6345   1.7324   1.7813   1.7978   1.8144   1.8206
     1.8255   1.8396   1.9804   2.0646   2.0704   2.1748   2.2079   2.2233
     2.2357   2.2382   2.3139   2.3183   2.3833   2.4788   2.6267   2.9256
     5.3027

     occupation numbers 
     1.0000   1.0000   1.0000   1.0000   1.0000   1.0000   1.0000   1.0000
     1.0000   1.0000   1.0000   1.0000   1.0000   1.0000   1.0000   1.0000
     1.0000   1.0000   1.0000   1.0000   1.0000   1.0000   1.0000   1.0000
     1.0000   1.0000   1.0000   1.0000   1.0000   1.0000   1.0000   1.0000
     1.0000   1.0000   1.0000   1.0000   1.0000   1.0000   1.0000   1.0000
     1.0000   1.0000   1.0000   1.0000   1.0000   1.0000   1.0000   1.0000
     1.0000   1.0000   1.0000   1.0000   1.0000   1.0000   1.0000   1.0000
     1.0000   1.0000   1.0000   1.0000   1.0000   1.0000   1.0000   1.0000
     1.0000   1.0000   1.0000   1.0000   1.0000   1.0000   1.0000   1.0000
     1.0000   1.0000   1.0000   1.0000   1.0000   1.0000   1.0000   1.0000
     1.0000   1.0000   1.0000   1.0000   1.0000   1.0000   1.0000   1.0000
     0.0000

          k = 0.0000 0.0000-0.1331 ( 38058 PWs)   bands (ev):

   -17.8780 -17.8780 -17.8778 -17.8778 -17.8700 -17.8700 -17.8697 -17.8697
   -17.8668 -17.8668 -17.8661 -17.8661 -17.8550 -17.8550 -17.8536 -17.8536
   -17.8475 -17.8475 -17.8461 -17.8461 -17.7874 -17.7874 -17.7865 -17.7865
    -8.7897  -8.7897  -8.5636  -8.5636  -8.4401  -8.4401  -8.4087  -8.4087
    -8.2710  -8.2710  -8.2101  -8.2101  -4.6217  -4.6217  -4.6050  -4.6050
    -4.5838  -4.5838  -4.5534  -4.5534  -4.5451  -4.5451  -4.5403  -4.5403
    -2.8790  -2.8790  -2.7784  -2.7784   0.2144   0.2144   0.8437   0.8437
     0.8979   0.8979   1.1438   1.1438   1.2848   1.2848   1.3070   1.3070
     1.5232   1.5232   1.5824   1.5824   1.7969   1.7969   1.8208   1.8208
     1.8299   1.8299   1.9859   1.9859   2.1209   2.1209   2.2183   2.2183
     2.2266   2.2266   2.3556   2.3556   2.4589   2.4589   2.7659   2.7659
     5.3306

     occupation numbers 
     1.0000   1.0000   1.0000   1.0000   1.0000   1.0000   1.0000   1.0000
     1.0000   1.0000   1.0000   1.0000   1.0000   1.0000   1.0000   1.0000
     1.0000   1.0000   1.0000   1.0000   1.0000   1.0000   1.0000   1.0000
     1.0000   1.0000   1.0000   1.0000   1.0000   1.0000   1.0000   1.0000
     1.0000   1.0000   1.0000   1.0000   1.0000   1.0000   1.0000   1.0000
     1.0000   1.0000   1.0000   1.0000   1.0000   1.0000   1.0000   1.0000
     1.0000   1.0000   1.0000   1.0000   1.0000   1.0000   1.0000   1.0000
     1.0000   1.0000   1.0000   1.0000   1.0000   1.0000   1.0000   1.0000
     1.0000   1.0000   1.0000   1.0000   1.0000   1.0000   1.0000   1.0000
     1.0000   1.0000   1.0000   1.0000   1.0000   1.0000   1.0000   1.0000
     1.0000   1.0000   1.0000   1.0000   1.0000   1.0000   1.0000   1.0000
     0.0000

          k = 0.0000-0.2244 0.0000 ( 38074 PWs)   bands (ev):

   -17.8780 -17.8780 -17.8778 -17.8778 -17.8700 -17.8700 -17.8697 -17.8697
   -17.8668 -17.8668 -17.8661 -17.8661 -17.8550 -17.8550 -17.8536 -17.8536
   -17.8475 -17.8475 -17.8461 -17.8461 -17.7871 -17.7871 -17.7868 -17.7868
    -8.7666  -8.7666  -8.6071  -8.6071  -8.4861  -8.4861  -8.3437  -8.3437
    -8.2534  -8.2534  -8.2237  -8.2237  -4.6234  -4.6234  -4.6029  -4.6029
    -4.5765  -4.5765  -4.5590  -4.5590  -4.5501  -4.5501  -4.5484  -4.5484
    -2.8964  -2.8964  -2.7501  -2.7501   0.2539   0.2539   0.8181   0.8181
     0.9510   0.9510   1.1873   1.1873   1.2015   1.2015   1.3160   1.3160
     1.4155   1.4155   1.5582   1.5582   1.7459   1.7459   1.7832   1.7832
     1.9698   1.9698   2.0117   2.0117   2.0705   2.0705   2.2353   2.2353
     2.2635   2.2635   2.3129   2.3129   2.3966   2.3966   2.9395   2.9395
     5.1358

     occupation numbers 
     1.0000   1.0000   1.0000   1.0000   1.0000   1.0000   1.0000   1.0000
     1.0000   1.0000   1.0000   1.0000   1.0000   1.0000   1.0000   1.0000
     1.0000   1.0000   1.0000   1.0000   1.0000   1.0000   1.0000   1.0000
     1.0000   1.0000   1.0000   1.0000   1.0000   1.0000   1.0000   1.0000
     1.0000   1.0000   1.0000   1.0000   1.0000   1.0000   1.0000   1.0000
     1.0000   1.0000   1.0000   1.0000   1.0000   1.0000   1.0000   1.0000
     1.0000   1.0000   1.0000   1.0000   1.0000   1.0000   1.0000   1.0000
     1.0000   1.0000   1.0000   1.0000   1.0000   1.0000   1.0000   1.0000
     1.0000   1.0000   1.0000   1.0000   1.0000   1.0000   1.0000   1.0000
     1.0000   1.0000   1.0000   1.0000   1.0000   1.0000   1.0000   1.0000
     1.0000   1.0000   1.0000   1.0000   1.0000   1.0000   1.0000   1.0000
     0.0000

          k = 0.0000-0.2244-0.1331 ( 38084 PWs)   bands (ev):

   -17.8780 -17.8780 -17.8778 -17.8778 -17.8700 -17.8700 -17.8697 -17.8697
   -17.8668 -17.8668 -17.8661 -17.8661 -17.8550 -17.8550 -17.8536 -17.8536
   -17.8475 -17.8475 -17.8461 -17.8461 -17.7871 -17.7871 -17.7868 -17.7868
    -8.7667  -8.7667  -8.6073  -8.6073  -8.4840  -8.4840  -8.3493  -8.3493
    -8.2383  -8.2383  -8.2349  -8.2349  -4.6204  -4.6204  -4.6099  -4.6099
    -4.5718  -4.5718  -4.5598  -4.5598  -4.5501  -4.5501  -4.5484  -4.5484
    -2.8951  -2.8951  -2.7516  -2.7516   0.2595   0.2595   0.8080   0.8080
     0.9509   0.9509   1.2016   1.2016   1.2125   1.2125   1.3153   1.3153
     1.3587   1.3587   1.5679   1.5679   1.7472   1.7472   1.8254   1.8254
     1.9656   1.9656   1.9978   1.9978   2.0842   2.0842   2.2211   2.2211
     2.2877   2.2877   2.2916   2.2916   2.4107   2.4107   2.9228   2.9228
     5.1346

     occupation numbers 
     1.0000   1.0000   1.0000   1.0000   1.0000   1.0000   1.0000   1.0000
     1.0000   1.0000   1.0000   1.0000   1.0000   1.0000   1.0000   1.0000
     1.0000   1.0000   1.0000   1.0000   1.0000   1.0000   1.0000   1.0000
     1.0000   1.0000   1.0000   1.0000   1.0000   1.0000   1.0000   1.0000
     1.0000   1.0000   1.0000   1.0000   1.0000   1.0000   1.0000   1.0000
     1.0000   1.0000   1.0000   1.0000   1.0000   1.0000   1.0000   1.0000
     1.0000   1.0000   1.0000   1.0000   1.0000   1.0000   1.0000   1.0000
     1.0000   1.0000   1.0000   1.0000   1.0000   1.0000   1.0000   1.0000
     1.0000   1.0000   1.0000   1.0000   1.0000   1.0000   1.0000   1.0000
     1.0000   1.0000   1.0000   1.0000   1.0000   1.0000   1.0000   1.0000
     1.0000   1.0000   1.0000   1.0000   1.0000   1.0000   1.0000   1.0000
     0.0000

          k =-0.5000 0.0000 0.0000 ( 38048 PWs)   bands (ev):

   -17.8772 -17.8772 -17.8772 -17.8772 -17.8732 -17.8732 -17.8732 -17.8732
   -17.8664 -17.8664 -17.8664 -17.8664 -17.8509 -17.8509 -17.8509 -17.8509
   -17.8474 -17.8474 -17.8474 -17.8474 -17.7759 -17.7759 -17.7753 -17.7753
    -8.4820  -8.4820  -8.4797  -8.4797  -8.3066  -8.3066  -8.2974  -8.2974
    -8.2855  -8.2855  -8.2655  -8.2655  -4.7920  -4.7920  -4.7243  -4.7243
    -4.6088  -4.6088  -4.5996  -4.5996  -4.5854  -4.5854  -4.5567  -4.5567
    -3.2026  -3.2026  -3.1658  -3.1658   0.0784   0.0784   0.0799   0.0799
     0.5670   0.5670   0.6251   0.6251   0.8928   0.8928   0.9124   0.9124
     1.2455   1.2455   1.6369   1.6369   1.6783   1.6783   1.7848   1.7848
     1.7960   1.7960   1.8567   1.8567   1.9085   1.9085   1.9337   1.9337
     2.0645   2.0645   2.1024   2.1024   2.5342   2.5342   2.9142   2.9142
     6.1091

     occupation numbers 
     1.0000   1.0000   1.0000   1.0000   1.0000   1.0000   1.0000   1.0000
     1.0000   1.0000   1.0000   1.0000   1.0000   1.0000   1.0000   1.0000
     1.0000   1.0000   1.0000   1.0000   1.0000   1.0000   1.0000   1.0000
     1.0000   1.0000   1.0000   1.0000   1.0000   1.0000   1.0000   1.0000
     1.0000   1.0000   1.0000   1.0000   1.0000   1.0000   1.0000   1.0000
     1.0000   1.0000   1.0000   1.0000   1.0000   1.0000   1.0000   1.0000
     1.0000   1.0000   1.0000   1.0000   1.0000   1.0000   1.0000   1.0000
     1.0000   1.0000   1.0000   1.0000   1.0000   1.0000   1.0000   1.0000
     1.0000   1.0000   1.0000   1.0000   1.0000   1.0000   1.0000   1.0000
     1.0000   1.0000   1.0000   1.0000   1.0000   1.0000   1.0000   1.0000
     1.0000   1.0000   1.0000   1.0000   1.0000   1.0000   1.0000   1.0000
     0.0000

          k =-0.5000 0.0000-0.1331 ( 38044 PWs)   bands (ev):

   -17.8772 -17.8772 -17.8772 -17.8772 -17.8732 -17.8732 -17.8732 -17.8732
   -17.8664 -17.8664 -17.8664 -17.8664 -17.8509 -17.8509 -17.8509 -17.8509
   -17.8474 -17.8474 -17.8474 -17.8474 -17.7759 -17.7759 -17.7753 -17.7753
    -8.4826  -8.4826  -8.4791  -8.4791  -8.3059  -8.3059  -8.2984  -8.2984
    -8.2852  -8.2852  -8.2656  -8.2656  -4.7919  -4.7919  -4.7243  -4.7243
    -4.6090  -4.6090  -4.5996  -4.5996  -4.5851  -4.5851  -4.5568  -4.5568
    -3.1961  -3.1961  -3.1724  -3.1724   0.0656   0.0656   0.0981   0.0981
     0.5850   0.5850   0.6326   0.6326   0.8411   0.8411   0.8794   0.8794
     1.3342   1.3342   1.6057   1.6057   1.6890   1.6890   1.8008   1.8008
     1.8033   1.8033   1.8294   1.8294   1.8373   1.8373   1.9640   1.9640
     2.0588   2.0588   2.1329   2.1329   2.5936   2.5936   2.8554   2.8554
     6.1064

     occupation numbers 
     1.0000   1.0000   1.0000   1.0000   1.0000   1.0000   1.0000   1.0000
     1.0000   1.0000   1.0000   1.0000   1.0000   1.0000   1.0000   1.0000
     1.0000   1.0000   1.0000   1.0000   1.0000   1.0000   1.0000   1.0000
     1.0000   1.0000   1.0000   1.0000   1.0000   1.0000   1.0000   1.0000
     1.0000   1.0000   1.0000   1.0000   1.0000   1.0000   1.0000   1.0000
     1.0000   1.0000   1.0000   1.0000   1.0000   1.0000   1.0000   1.0000
     1.0000   1.0000   1.0000   1.0000   1.0000   1.0000   1.0000   1.0000
     1.0000   1.0000   1.0000   1.0000   1.0000   1.0000   1.0000   1.0000
     1.0000   1.0000   1.0000   1.0000   1.0000   1.0000   1.0000   1.0000
     1.0000   1.0000   1.0000   1.0000   1.0000   1.0000   1.0000   1.0000
     1.0000   1.0000   1.0000   1.0000   1.0000   1.0000   1.0000   1.0000
     0.0000

          k =-0.5000-0.2244 0.0000 ( 38096 PWs)   bands (ev):

   -17.8772 -17.8772 -17.8772 -17.8772 -17.8732 -17.8732 -17.8732 -17.8732
   -17.8664 -17.8664 -17.8664 -17.8664 -17.8509 -17.8509 -17.8509 -17.8509
   -17.8474 -17.8474 -17.8474 -17.8474 -17.7756 -17.7756 -17.7756 -17.7756
    -8.4808  -8.4808  -8.4808  -8.4808  -8.3031  -8.3031  -8.3031  -8.3031
    -8.2745  -8.2745  -8.2745  -8.2745  -4.7582  -4.7582  -4.7582  -4.7582
    -4.6021  -4.6021  -4.6021  -4.6021  -4.5730  -4.5730  -4.5730  -4.5730
    -3.1848  -3.1848  -3.1848  -3.1848   0.2243   0.2243   0.2243   0.2243
     0.4395   0.4395   0.4395   0.4395   0.8448   0.8448   0.8448   0.8448
     1.4592   1.4592   1.4592   1.4592   1.6406   1.6406   1.6406   1.6406
     1.8007   1.8007   1.8007   1.8007   1.9271   1.9271   1.9271   1.9271
     2.1552   2.1552   2.1552   2.1552   2.8764   2.8764   2.8764   2.8764
     6.1287

     occupation numbers 
     1.0000   1.0000   1.0000   1.0000   1.0000   1.0000   1.0000   1.0000
     1.0000   1.0000   1.0000   1.0000   1.0000   1.0000   1.0000   1.0000
     1.0000   1.0000   1.0000   1.0000   1.0000   1.0000   1.0000   1.0000
     1.0000   1.0000   1.0000   1.0000   1.0000   1.0000   1.0000   1.0000
     1.0000   1.0000   1.0000   1.0000   1.0000   1.0000   1.0000   1.0000
     1.0000   1.0000   1.0000   1.0000   1.0000   1.0000   1.0000   1.0000
     1.0000   1.0000   1.0000   1.0000   1.0000   1.0000   1.0000   1.0000
     1.0000   1.0000   1.0000   1.0000   1.0000   1.0000   1.0000   1.0000
     1.0000   1.0000   1.0000   1.0000   1.0000   1.0000   1.0000   1.0000
     1.0000   1.0000   1.0000   1.0000   1.0000   1.0000   1.0000   1.0000
     1.0000   1.0000   1.0000   1.0000   1.0000   1.0000   1.0000   1.0000
     0.0000

          k =-0.5000-0.2244-0.1331 ( 38056 PWs)   bands (ev):

   -17.8772 -17.8772 -17.8772 -17.8772 -17.8732 -17.8732 -17.8732 -17.8732
   -17.8664 -17.8664 -17.8664 -17.8664 -17.8509 -17.8509 -17.8509 -17.8509
   -17.8474 -17.8474 -17.8474 -17.8474 -17.7756 -17.7756 -17.7756 -17.7756
    -8.4809  -8.4809  -8.4809  -8.4809  -8.3030  -8.3030  -8.3030  -8.3030
    -8.2746  -8.2746  -8.2746  -8.2746  -4.7582  -4.7582  -4.7582  -4.7582
    -4.6021  -4.6021  -4.6021  -4.6021  -4.5731  -4.5731  -4.5731  -4.5731
    -3.1848  -3.1848  -3.1848  -3.1848   0.2179   0.2179   0.2179   0.2179
     0.4427   0.4427   0.4427   0.4427   0.8705   0.8705   0.8705   0.8705
     1.3743   1.3743   1.3743   1.3743   1.7121   1.7121   1.7121   1.7121
     1.8030   1.8030   1.8030   1.8030   1.9476   1.9476   1.9476   1.9476
     2.1163   2.1163   2.1163   2.1163   2.8854   2.8854   2.8854   2.8854
     6.1194

     occupation numbers 
     1.0000   1.0000   1.0000   1.0000   1.0000   1.0000   1.0000   1.0000
     1.0000   1.0000   1.0000   1.0000   1.0000   1.0000   1.0000   1.0000
     1.0000   1.0000   1.0000   1.0000   1.0000   1.0000   1.0000   1.0000
     1.0000   1.0000   1.0000   1.0000   1.0000   1.0000   1.0000   1.0000
     1.0000   1.0000   1.0000   1.0000   1.0000   1.0000   1.0000   1.0000
     1.0000   1.0000   1.0000   1.0000   1.0000   1.0000   1.0000   1.0000
     1.0000   1.0000   1.0000   1.0000   1.0000   1.0000   1.0000   1.0000
     1.0000   1.0000   1.0000   1.0000   1.0000   1.0000   1.0000   1.0000
     1.0000   1.0000   1.0000   1.0000   1.0000   1.0000   1.0000   1.0000
     1.0000   1.0000   1.0000   1.0000   1.0000   1.0000   1.0000   1.0000
     1.0000   1.0000   1.0000   1.0000   1.0000   1.0000   1.0000   1.0000
     0.0000

     highest occupied, lowest unoccupied level (ev):     2.9395    5.1346

!    total energy              =   -7979.61789541 Ry

     total all-electron energy =   -282510.772608 Ry
     estimated scf accuracy    <       0.00000017 Ry

     The total energy is the sum of the following terms:
     one-electron contribution =    -463.61664286 Ry
     hartree contribution      =     316.58892448 Ry
     xc contribution           =    -465.89902568 Ry
     ewald contribution        =    -633.56960439 Ry
     one-center paw contrib.   =   -6733.12154695 Ry
      -> PAW hartree energy AE =      25.63708833 Ry
      -> PAW hartree energy PS =     -25.52755299 Ry
      -> PAW xc energy AE      =    -383.53055354 Ry
      -> PAW xc energy PS      =      20.51528742 Ry
      -> total E_H with PAW    =     316.69845982 Ry
      -> total E_XC with PAW   =    -828.91429180 Ry

     convergence has been achieved in  11 iterations

     Forces acting on atoms (cartesian axes, Ry/au):

     atom    1 type  3   force =     0.00000000   -0.00063023    0.00070594
     atom    2 type  3   force =     0.00000000    0.00063023   -0.00070594
     atom    3 type  3   force =     0.00000000   -0.00063023   -0.00070594
     atom    4 type  3   force =     0.00000000    0.00063023    0.00070594
     atom    5 type  1   force =     0.00000000   -0.00043316   -0.00026512
     atom    6 type  1   force =     0.00000000    0.00043316    0.00026512
     atom    7 type  1   force =     0.00000000   -0.00043316    0.00026512
     atom    8 type  1   force =     0.00000000    0.00043316   -0.00026512
     atom    9 type  2   force =     0.00000000   -0.00349356   -0.00191546
     atom   10 type  2   force =     0.00000000    0.00349356    0.00191546
     atom   11 type  2   force =     0.00000000   -0.00349356    0.00191546
     atom   12 type  2   force =    -0.00000000    0.00349356   -0.00191546
     atom   13 type  2   force =     0.00000000   -0.00063557    0.00045213
     atom   14 type  2   force =     0.00000000    0.00063557   -0.00045213
     atom   15 type  2   force =    -0.00000000   -0.00063557   -0.00045213
     atom   16 type  2   force =     0.00000000    0.00063557    0.00045213
     atom   17 type  2   force =     0.00000000    0.00328721   -0.00180841
     atom   18 type  2   force =     0.00000000   -0.00328721    0.00180841
     atom   19 type  2   force =    -0.00000000    0.00328721    0.00180841
     atom   20 type  2   force =     0.00000000   -0.00328721   -0.00180841
     The non-local contrib.  to forces
     atom    1 type  3   force =     0.00000000    0.00196364   -0.00102783
     atom    2 type  3   force =     0.00000000   -0.00196364    0.00102783
     atom    3 type  3   force =     0.00000000    0.00196364    0.00102783
     atom    4 type  3   force =    -0.00000000   -0.00196364   -0.00102783
     atom    5 type  1   force =    -0.00000000   -0.08821062   -0.13103046
     atom    6 type  1   force =     0.00000000    0.08821062    0.13103046
     atom    7 type  1   force =    -0.00000000   -0.08821062    0.13103046
     atom    8 type  1   force =    -0.00000000    0.08821062   -0.13103046
     atom    9 type  2   force =     0.00000000   -0.04813684   -0.04705915
     atom   10 type  2   force =     0.00000000    0.04813684    0.04705915
     atom   11 type  2   force =     0.00000000   -0.04813684    0.04705915
     atom   12 type  2   force =     0.00000000    0.04813684   -0.04705915
     atom   13 type  2   force =    -0.00000000   -0.03303836    0.05611021
     atom   14 type  2   force =     0.00000000    0.03303836   -0.05611021
     atom   15 type  2   force =     0.00000000   -0.03303836   -0.05611021
     atom   16 type  2   force =     0.00000000    0.03303836    0.05611021
     atom   17 type  2   force =     0.00000000    0.05605829   -0.01694081
     atom   18 type  2   force =     0.00000000   -0.05605829    0.01694081
     atom   19 type  2   force =    -0.00000000    0.05605829    0.01694081
     atom   20 type  2   force =    -0.00000000   -0.05605829   -0.01694081
     The ionic contribution  to forces
     atom    1 type  3   force =    -0.00000000    0.02273773    0.42856976
     atom    2 type  3   force =    -0.00000000   -0.02273773   -0.42856976
     atom    3 type  3   force =    -0.00000000    0.02273773   -0.42856976
     atom    4 type  3   force =    -0.00000000   -0.02273773    0.42856976
     atom    5 type  1   force =    -0.00000000   -2.44382135   -1.60292983
     atom    6 type  1   force =     0.00000000    2.44382135    1.60292983
     atom    7 type  1   force =    -0.00000000   -2.44382135    1.60292983
     atom    8 type  1   force =     0.00000000    2.44382135   -1.60292983
     atom    9 type  2   force =    -0.00000000    3.00608891    5.13288893
     atom   10 type  2   force =     0.00000000   -3.00608891   -5.13288893
     atom   11 type  2   force =    -0.00000000    3.00608891   -5.13288893
     atom   12 type  2   force =    -0.00000000   -3.00608891    5.13288893
     atom   13 type  2   force =     0.00000000    2.02422849   -3.75281499
     atom   14 type  2   force =     0.00000000   -2.02422849    3.75281499
     atom   15 type  2   force =    -0.00000000    2.02422849    3.75281499
     atom   16 type  2   force =    -0.00000000   -2.02422849   -3.75281499
     atom   17 type  2   force =    -0.00000000   -4.20564473    2.10270404
     atom   18 type  2   force =     0.00000000    4.20564473   -2.10270404
     atom   19 type  2   force =    -0.00000000   -4.20564473   -2.10270404
     atom   20 type  2   force =     0.00000000    4.20564473    2.10270404
     The local contribution  to forces
     atom    1 type  3   force =     0.00000000   -0.02523853   -0.42706038
     atom    2 type  3   force =    -0.00000000    0.02523853    0.42706038
     atom    3 type  3   force =     0.00000000   -0.02523853    0.42706038
     atom    4 type  3   force =    -0.00000000    0.02523853   -0.42706038
     atom    5 type  1   force =    -0.00000000    2.53138110    1.73408132
     atom    6 type  1   force =    -0.00000000   -2.53138110   -1.73408132
     atom    7 type  1   force =    -0.00000000    2.53138110   -1.73408132
     atom    8 type  1   force =    -0.00000000   -2.53138110    1.73408132
     atom    9 type  2   force =    -0.00000000   -2.96791168   -5.09453678
     atom   10 type  2   force =     0.00000000    2.96791168    5.09453678
     atom   11 type  2   force =    -0.00000000   -2.96791168    5.09453678
     atom   12 type  2   force =     0.00000000    2.96791168   -5.09453678
     atom   13 type  2   force =    -0.00000000   -1.99621123    3.70485118
     atom   14 type  2   force =     0.00000000    1.99621123   -3.70485118
     atom   15 type  2   force =    -0.00000000   -1.99621123   -3.70485118
     atom   16 type  2   force =     0.00000000    1.99621123    3.70485118
     atom   17 type  2   force =     0.00000000    4.16054846   -2.09013761
     atom   18 type  2   force =    -0.00000000   -4.16054846    2.09013761
     atom   19 type  2   force =     0.00000000    4.16054846    2.09013761
     atom   20 type  2   force =    -0.00000000   -4.16054846   -2.09013761
     The core correction contribution to forces
     atom    1 type  3   force =     0.00000000   -0.00015065    0.00003937
     atom    2 type  3   force =     0.00000000    0.00015065   -0.00003937
     atom    3 type  3   force =     0.00000000   -0.00015065   -0.00003937
     atom    4 type  3   force =     0.00000000    0.00015065    0.00003937
     atom    5 type  1   force =    -0.00000000    0.00021495    0.00003413
     atom    6 type  1   force =    -0.00000000   -0.00021495   -0.00003413
     atom    7 type  1   force =     0.00000000    0.00021495   -0.00003413
     atom    8 type  1   force =    -0.00000000   -0.00021495    0.00003413
     atom    9 type  2   force =     0.00000000    0.00640953    0.00648781
     atom   10 type  2   force =     0.00000000   -0.00640953   -0.00648781
     atom   11 type  2   force =     0.00000000    0.00640953   -0.00648781
     atom   12 type  2   force =     0.00000000   -0.00640953    0.00648781
     atom   13 type  2   force =    -0.00000000    0.00435963   -0.00747799
     atom   14 type  2   force =     0.00000000   -0.00435963    0.00747799
     atom   15 type  2   force =     0.00000000    0.00435963    0.00747799
     atom   16 type  2   force =     0.00000000   -0.00435963   -0.00747799
     atom   17 type  2   force =     0.00000000   -0.00769828    0.00252833
     atom   18 type  2   force =    -0.00000000    0.00769828   -0.00252833
     atom   19 type  2   force =     0.00000000   -0.00769828   -0.00252833
     atom   20 type  2   force =     0.00000000    0.00769828    0.00252833
     The Hubbard contrib.    to forces
     atom    1 type  3   force =     0.00000000    0.00000000    0.00000000
     atom    2 type  3   force =     0.00000000    0.00000000    0.00000000
     atom    3 type  3   force =     0.00000000    0.00000000    0.00000000
     atom    4 type  3   force =     0.00000000    0.00000000    0.00000000
     atom    5 type  1   force =     0.00000000    0.00000000    0.00000000
     atom    6 type  1   force =     0.00000000    0.00000000    0.00000000
     atom    7 type  1   force =     0.00000000    0.00000000    0.00000000
     atom    8 type  1   force =     0.00000000    0.00000000    0.00000000
     atom    9 type  2   force =     0.00000000    0.00000000    0.00000000
     atom   10 type  2   force =     0.00000000    0.00000000    0.00000000
     atom   11 type  2   force =     0.00000000    0.00000000    0.00000000
     atom   12 type  2   force =     0.00000000    0.00000000    0.00000000
     atom   13 type  2   force =     0.00000000    0.00000000    0.00000000
     atom   14 type  2   force =     0.00000000    0.00000000    0.00000000
     atom   15 type  2   force =     0.00000000    0.00000000    0.00000000
     atom   16 type  2   force =     0.00000000    0.00000000    0.00000000
     atom   17 type  2   force =     0.00000000    0.00000000    0.00000000
     atom   18 type  2   force =     0.00000000    0.00000000    0.00000000
     atom   19 type  2   force =     0.00000000    0.00000000    0.00000000
     atom   20 type  2   force =     0.00000000    0.00000000    0.00000000
     The SCF correction term to forces
     atom    1 type  3   force =    -0.00000000    0.00005758    0.00018501
     atom    2 type  3   force =    -0.00000000   -0.00005758   -0.00018501
     atom    3 type  3   force =     0.00000000    0.00005758   -0.00018501
     atom    4 type  3   force =     0.00000000   -0.00005758    0.00018501
     atom    5 type  1   force =     0.00000000    0.00000276   -0.00042028
     atom    6 type  1   force =    -0.00000000   -0.00000276    0.00042028
     atom    7 type  1   force =    -0.00000000    0.00000276    0.00042028
     atom    8 type  1   force =     0.00000000   -0.00000276   -0.00042028
     atom    9 type  2   force =    -0.00000000    0.00005652    0.00030372
     atom   10 type  2   force =    -0.00000000   -0.00005652   -0.00030372
     atom   11 type  2   force =     0.00000000    0.00005652   -0.00030372
     atom   12 type  2   force =     0.00000000   -0.00005652    0.00030372
     atom   13 type  2   force =    -0.00000000    0.00002590   -0.00021629
     atom   14 type  2   force =    -0.00000000   -0.00002590    0.00021629
     atom   15 type  2   force =    -0.00000000    0.00002590    0.00021629
     atom   16 type  2   force =     0.00000000   -0.00002590   -0.00021629
     atom   17 type  2   force =    -0.00000000    0.00002345    0.00003764
     atom   18 type  2   force =    -0.00000000   -0.00002345   -0.00003764
     atom   19 type  2   force =    -0.00000000    0.00002345   -0.00003764
     atom   20 type  2   force =     0.00000000   -0.00002345    0.00003764

     Total force =     0.011263     Total SCF correction =     0.001198
     SCF correction compared to forces is large: reduce conv_thr to get better values


     Computing stress (Cartesian axis) and pressure

          total   stress  (Ry/bohr**3)                   (kbar)     P=       -0.07
   0.00002600   0.00000000   0.00000000            3.82        0.00        0.00
   0.00000000  -0.00001832   0.00000000            0.00       -2.70        0.00
   0.00000000   0.00000000  -0.00000917            0.00        0.00       -1.35

     kinetic stress (kbar)   5531.02      0.00      0.00
                                0.00   5531.87      0.00
                                0.00      0.00   5527.80

     local   stress (kbar)  -4522.92      0.00     -0.00
                                0.00  -1880.99      0.00
                               -0.00      0.00   -989.07

     nonloc. stress (kbar)   1141.14      0.00      0.00
                                0.00   1136.74      0.00
                                0.00      0.00   1139.92

     hartree stress (kbar)   3404.76      0.00      0.00
                                0.00   2187.47     -0.00
                                0.00     -0.00   1718.28

     exc-cor stress (kbar)   5446.83     -0.00     -0.00
                               -0.00   5446.42      0.00
                               -0.00      0.00   5446.88

     corecor stress (kbar)  -7212.20      0.00     -0.00
                                0.00  -7212.04     -0.00
                               -0.00     -0.00  -7212.07

     ewald   stress (kbar)  -3784.80     -0.00     -0.00
                               -0.00  -5212.16      0.00
                               -0.00      0.00  -5633.09

     hubbard stress (kbar)      0.00      0.00      0.00
                                0.00      0.00      0.00
                                0.00      0.00      0.00

     DFT-D   stress (kbar)      0.00      0.00      0.00
                                0.00      0.00      0.00
                                0.00      0.00      0.00

     XDM     stress (kbar)      0.00      0.00      0.00
                                0.00      0.00      0.00
                                0.00      0.00      0.00

     dft-nl  stress (kbar)      0.00      0.00      0.00
                                0.00      0.00      0.00
                                0.00      0.00      0.00

     TS-vdW  stress (kbar)      0.00      0.00      0.00
                                0.00      0.00      0.00
                                0.00      0.00      0.00



     Writing output data file ./out/CsSnI3.save/

     init_run     :     97.76s CPU    103.77s WALL (       1 calls)
     electrons    :   3215.24s CPU   3270.89s WALL (       1 calls)
     forces       :     82.18s CPU     84.12s WALL (       1 calls)
     stress       :    125.19s CPU    127.18s WALL (       1 calls)

     Called by init_run:
     wfcinit      :     78.56s CPU     79.85s WALL (       1 calls)
     wfcinit:atom :      0.09s CPU      0.09s WALL (       8 calls)
     wfcinit:wfcr :     77.25s CPU     78.46s WALL (       8 calls)
     potinit      :      7.26s CPU      7.48s WALL (       1 calls)
     hinit0       :      6.81s CPU      6.91s WALL (       1 calls)

     Called by electrons:
     c_bands      :   2833.99s CPU   2878.87s WALL (      12 calls)
     sum_band     :    294.43s CPU    301.98s WALL (      12 calls)
     v_of_rho     :      3.05s CPU      3.11s WALL (      12 calls)
     v_h          :      0.19s CPU      0.20s WALL (      12 calls)
     v_xc         :      3.31s CPU      3.38s WALL (      14 calls)
     newd         :     46.05s CPU     48.78s WALL (      12 calls)
     PAW_pot      :     44.29s CPU     44.93s WALL (      12 calls)
     mix_rho      :      0.78s CPU      0.79s WALL (      12 calls)

     Called by c_bands:
     init_us_2    :     10.41s CPU     10.71s WALL (     216 calls)
     cegterg      :   2801.75s CPU   2845.74s WALL (      96 calls)

     Called by sum_band:
     sum_band:wei :      0.00s CPU      0.00s WALL (      12 calls)
     sum_band:loo :    251.93s CPU    256.38s WALL (      12 calls)
     sum_band:buf :      1.10s CPU      1.13s WALL (      96 calls)
     sum_band:ini :      4.59s CPU      4.67s WALL (      96 calls)
     sum_band:cal :    188.93s CPU    191.82s WALL (      96 calls)
     sum_band:bec :      1.30s CPU      1.33s WALL (      96 calls)
     addusdens    :     39.24s CPU     42.28s WALL (      12 calls)
     addusd:skk   :      0.14s CPU      0.14s WALL (      36 calls)
     addusd:dgemm :     18.21s CPU     20.87s WALL (      36 calls)
     addusd:qvan2 :     18.99s CPU     19.28s WALL (      36 calls)

     Called by *egterg:
     cdiaghg      :     99.15s CPU    100.28s WALL (     545 calls)
     cegterg:over :    161.07s CPU    163.29s WALL (     457 calls)
     cegterg:upda :    118.47s CPU    120.14s WALL (     457 calls)
     cegterg:last :    415.09s CPU    421.23s WALL (     244 calls)
     h_psi        :   1442.43s CPU   1467.15s WALL (     561 calls)
     s_psi        :    565.02s CPU    573.27s WALL (     561 calls)
     g_psi        :      1.00s CPU      1.03s WALL (     457 calls)

     Called by h_psi:
     h_psi:calbec :    567.81s CPU    576.41s WALL (     561 calls)
     vloc_psi     :    303.23s CPU    310.84s WALL (     561 calls)
     add_vuspsi   :    568.80s CPU    577.25s WALL (     561 calls)

     General routines
     calbec       :    834.76s CPU    847.36s WALL (     697 calls)
     fft          :      2.10s CPU      2.15s WALL (     158 calls)
     ffts         :      0.12s CPU      0.12s WALL (      12 calls)
     fftw         :    329.91s CPU    338.16s WALL (   59956 calls)

     Parallel routines
     fft_scatt_xy :     24.23s CPU     24.83s WALL (   60126 calls)
     fft_scatt_yz :     60.62s CPU     62.39s WALL (   60126 calls)

     PAW routines
     PAW_pot      :     44.29s CPU     44.93s WALL (      12 calls)
     PAW_symme    :      0.17s CPU      0.18s WALL (      24 calls)

     PWSCF        :  58m51.22s CPU      1h 0m WALL


   This run was terminated on:  12:37:53  15Jan2021            

=------------------------------------------------------------------------------=
   JOB DONE.
=------------------------------------------------------------------------------=
