
     Program PWSCF v.6.6 starts on 31Jan2021 at 12:13:46 

     This program is part of the open-source Quantum ESPRESSO suite
     for quantum simulation of materials; please cite
         "P. Giannozzi et al., J. Phys.:Condens. Matter 21 395502 (2009);
         "P. Giannozzi et al., J. Phys.:Condens. Matter 29 465901 (2017);
          URL http://www.quantum-espresso.org", 
     in publications or presentations arising from this work. More details at
     http://www.quantum-espresso.org/quote

     Parallel version (MPI), running on    32 processors

     MPI processes distributed on     1 nodes
     R & G space division:  proc/nbgrp/npool/nimage =      32
     Fft bands division:     nmany     =       1
     Waiting for input...
     Reading input from standard input

     Current dimensions of program PWSCF are:
     Max number of different atomic species (ntypx) = 10
     Max number of k-points (npk) =  40000
     Max angular momentum in pseudopotentials (lmaxx) =  3
     file Sn.rel-pbe-dn-rrkjus_psl.1.0.0.UPF: wavefunction(s)  5S 4D 4D renormalized

     Subspace diagonalization in iterative solution of the eigenvalue problem:
     a serial algorithm will be used

 
     Parallelization info
     --------------------
     sticks:   dense  smooth     PW     G-vecs:    dense   smooth      PW
     Min         165     165     46                 5571     5571     814
     Max         166     166     47                 5573     5573     816
     Sum        5297    5297   1473               178307   178307   26059
 

     Title: 
     CsIsalt                                                                    


     bravais-lattice index     =            6
     lattice parameter (alat)  =      14.4199  a.u.
     unit-cell volume          =    1845.1511 (a.u.)^3
     number of atoms/cell      =            6
     number of atomic types    =            2
     number of electrons       =        56.00
     number of Kohn-Sham states=           56
     kinetic-energy cutoff     =      80.0000  Ry
     charge density cutoff     =     320.0000  Ry
     convergence threshold     =      1.0E-06
     mixing beta               =       0.6000
     number of iterations used =            8  plain     mixing
     Exchange-correlation= PBE
                           (   1   4   3   4   0   0   0)
     Non magnetic calculation with spin-orbit


     celldm(1)=  14.419944  celldm(2)=   0.000000  celldm(3)=   0.615377
     celldm(4)=   0.000000  celldm(5)=   0.000000  celldm(6)=   0.000000

     crystal axes: (cart. coord. in units of alat)
               a(1) = (   1.000000   0.000000   0.000000 )  
               a(2) = (   0.000000   1.000000   0.000000 )  
               a(3) = (   0.000000   0.000000   0.615377 )  

     reciprocal axes: (cart. coord. in units 2 pi/alat)
               b(1) = (  1.000000  0.000000  0.000000 )  
               b(2) = (  0.000000  1.000000  0.000000 )  
               b(3) = (  0.000000  0.000000  1.625020 )  


     PseudoPot. # 1 for Sn read from file:
     /scratch/afiorent/degironcoli/pseudo/pseudo-usp/Sn.rel-pbe-dn-rrkjus_psl.1.0.0.UPF
     MD5 check sum: e9415cc9ba1036dfb73502962f03961a
     Pseudo is Ultrasoft + core correction, Zval = 14.0
     Generated using "atomic" code by A. Dal Corso v.6.3
     Using radial grid of 1243 points, 10 beta functions with: 
                l(1) =   0
                l(2) =   0
                l(3) =   1
                l(4) =   1
                l(5) =   1
                l(6) =   1
                l(7) =   2
                l(8) =   2
                l(9) =   2
               l(10) =   2
     Q(r) pseudized with 0 coefficients 


     PseudoPot. # 2 for I  read from file:
     /scratch/afiorent/degironcoli/pseudo/pseudo-usp/I.rel-pbe-n-rrkjus_psl.0.2.2.UPF
     MD5 check sum: b9024a078df971004264c9bcc9ff756e
     Pseudo is Ultrasoft + core correction, Zval =  7.0
     Generated using "atomic" code by A. Dal Corso v.5.0.2 svn rev. 9415
     Using radial grid of 1247 points,  6 beta functions with: 
                l(1) =   0
                l(2) =   0
                l(3) =   1
                l(4) =   1
                l(5) =   1
                l(6) =   1
     Q(r) pseudized with 0 coefficients 


     atomic species   valence    mass     pseudopotential
        Sn            14.00   118.70000     Sn( 1.00)
        I              7.00   126.90000     I ( 1.00)

     16 Sym. Ops., with inversion, found ( 8 have fractional translation)


                                    s                        frac. trans.

      isym =  1     identity                                     

 cryst.   s( 1) = (     1          0          0      )
                  (     0          1          0      )
                  (     0          0          1      )

 cart.    s( 1) = (  1.0000000  0.0000000  0.0000000 )
                  (  0.0000000  1.0000000  0.0000000 )
                  (  0.0000000  0.0000000  1.0000000 )


      isym =  2     180 deg rotation - cart. axis [0,0,1]        

 cryst.   s( 2) = (    -1          0          0      )
                  (     0         -1          0      )
                  (     0          0          1      )

 cart.    s( 2) = ( -1.0000000  0.0000000  0.0000000 )
                  (  0.0000000 -1.0000000  0.0000000 )
                  (  0.0000000  0.0000000  1.0000000 )


      isym =  3     180 deg rotation - cart. axis [0,1,0]        

 cryst.   s( 3) = (    -1          0          0      )    f =(  0.5000000 )
                  (     0          1          0      )       ( -0.5000000 )
                  (     0          0         -1      )       (  0.5000000 )

 cart.    s( 3) = ( -1.0000000  0.0000000  0.0000000 )    f =(  0.5000000 )
                  (  0.0000000  1.0000000  0.0000000 )       ( -0.5000000 )
                  (  0.0000000  0.0000000 -1.0000000 )       (  0.3076884 )


      isym =  4     180 deg rotation - cart. axis [1,0,0]        

 cryst.   s( 4) = (     1          0          0      )    f =( -0.5000000 )
                  (     0         -1          0      )       (  0.5000000 )
                  (     0          0         -1      )       (  0.5000000 )

 cart.    s( 4) = (  1.0000000  0.0000000  0.0000000 )    f =( -0.5000000 )
                  (  0.0000000 -1.0000000  0.0000000 )       (  0.5000000 )
                  (  0.0000000  0.0000000 -1.0000000 )       (  0.3076884 )


      isym =  5     180 deg rotation - cart. axis [1,1,0]        

 cryst.   s( 5) = (     0          1          0      )
                  (     1          0          0      )
                  (     0          0         -1      )

 cart.    s( 5) = (  0.0000000  1.0000000  0.0000000 )
                  (  1.0000000  0.0000000  0.0000000 )
                  (  0.0000000  0.0000000 -1.0000000 )


      isym =  6     180 deg rotation - cart. axis [1,-1,0]       

 cryst.   s( 6) = (     0         -1          0      )
                  (    -1          0          0      )
                  (     0          0         -1      )

 cart.    s( 6) = (  0.0000000 -1.0000000  0.0000000 )
                  ( -1.0000000  0.0000000  0.0000000 )
                  (  0.0000000  0.0000000 -1.0000000 )


      isym =  7      90 deg rotation - cart. axis [0,0,-1]       

 cryst.   s( 7) = (     0         -1          0      )    f =( -0.5000000 )
                  (     1          0          0      )       (  0.5000000 )
                  (     0          0          1      )       ( -0.5000000 )

 cart.    s( 7) = (  0.0000000  1.0000000  0.0000000 )    f =( -0.5000000 )
                  ( -1.0000000  0.0000000  0.0000000 )       (  0.5000000 )
                  (  0.0000000  0.0000000  1.0000000 )       ( -0.3076884 )


      isym =  8      90 deg rotation - cart. axis [0,0,1]        

 cryst.   s( 8) = (     0          1          0      )    f =(  0.5000000 )
                  (    -1          0          0      )       ( -0.5000000 )
                  (     0          0          1      )       ( -0.5000000 )

 cart.    s( 8) = (  0.0000000 -1.0000000  0.0000000 )    f =(  0.5000000 )
                  (  1.0000000  0.0000000  0.0000000 )       ( -0.5000000 )
                  (  0.0000000  0.0000000  1.0000000 )       ( -0.3076884 )


      isym =  9     inversion                                    

 cryst.   s( 9) = (    -1          0          0      )
                  (     0         -1          0      )
                  (     0          0         -1      )

 cart.    s( 9) = ( -1.0000000  0.0000000  0.0000000 )
                  (  0.0000000 -1.0000000  0.0000000 )
                  (  0.0000000  0.0000000 -1.0000000 )


      isym = 10     inv. 180 deg rotation - cart. axis [0,0,1]   

 cryst.   s(10) = (     1          0          0      )
                  (     0          1          0      )
                  (     0          0         -1      )

 cart.    s(10) = (  1.0000000  0.0000000  0.0000000 )
                  (  0.0000000  1.0000000  0.0000000 )
                  (  0.0000000  0.0000000 -1.0000000 )


      isym = 11     inv. 180 deg rotation - cart. axis [0,1,0]   

 cryst.   s(11) = (     1          0          0      )    f =( -0.5000000 )
                  (     0         -1          0      )       (  0.5000000 )
                  (     0          0          1      )       ( -0.5000000 )

 cart.    s(11) = (  1.0000000  0.0000000  0.0000000 )    f =( -0.5000000 )
                  (  0.0000000 -1.0000000  0.0000000 )       (  0.5000000 )
                  (  0.0000000  0.0000000  1.0000000 )       ( -0.3076884 )


      isym = 12     inv. 180 deg rotation - cart. axis [1,0,0]   

 cryst.   s(12) = (    -1          0          0      )    f =(  0.5000000 )
                  (     0          1          0      )       ( -0.5000000 )
                  (     0          0          1      )       ( -0.5000000 )

 cart.    s(12) = ( -1.0000000  0.0000000  0.0000000 )    f =(  0.5000000 )
                  (  0.0000000  1.0000000  0.0000000 )       ( -0.5000000 )
                  (  0.0000000  0.0000000  1.0000000 )       ( -0.3076884 )


      isym = 13     inv. 180 deg rotation - cart. axis [1,1,0]   

 cryst.   s(13) = (     0         -1          0      )
                  (    -1          0          0      )
                  (     0          0          1      )

 cart.    s(13) = (  0.0000000 -1.0000000  0.0000000 )
                  ( -1.0000000  0.0000000  0.0000000 )
                  (  0.0000000  0.0000000  1.0000000 )


      isym = 14     inv. 180 deg rotation - cart. axis [1,-1,0]  

 cryst.   s(14) = (     0          1          0      )
                  (     1          0          0      )
                  (     0          0          1      )

 cart.    s(14) = (  0.0000000  1.0000000  0.0000000 )
                  (  1.0000000  0.0000000  0.0000000 )
                  (  0.0000000  0.0000000  1.0000000 )


      isym = 15     inv.  90 deg rotation - cart. axis [0,0,-1]  

 cryst.   s(15) = (     0          1          0      )    f =(  0.5000000 )
                  (    -1          0          0      )       ( -0.5000000 )
                  (     0          0         -1      )       (  0.5000000 )

 cart.    s(15) = (  0.0000000 -1.0000000  0.0000000 )    f =(  0.5000000 )
                  (  1.0000000  0.0000000  0.0000000 )       ( -0.5000000 )
                  (  0.0000000  0.0000000 -1.0000000 )       (  0.3076884 )


      isym = 16     inv.  90 deg rotation - cart. axis [0,0,1]   

 cryst.   s(16) = (     0         -1          0      )    f =( -0.5000000 )
                  (     1          0          0      )       (  0.5000000 )
                  (     0          0         -1      )       (  0.5000000 )

 cart.    s(16) = (  0.0000000  1.0000000  0.0000000 )    f =( -0.5000000 )
                  ( -1.0000000  0.0000000  0.0000000 )       (  0.5000000 )
                  (  0.0000000  0.0000000 -1.0000000 )       (  0.3076884 )


     double point group D_4h(4/mmm)
     there are 14 classes and  4 irreducible representations
     the character table:

       E     -E    2C4   -2C4   C2    2C2' 2C2'' i     -i    2S4   -2S4   s_h 
                               -C2   -2C2' -2C2'                         -s_h 
G_6+   2.00 -2.00  1.41 -1.41  0.00  0.00  0.00  2.00 -2.00  1.41 -1.41  0.00
G_7+   2.00 -2.00 -1.41  1.41  0.00  0.00  0.00  2.00 -2.00 -1.41  1.41  0.00
G_6-   2.00 -2.00  1.41 -1.41  0.00  0.00  0.00 -2.00  2.00 -1.41  1.41  0.00
G_7-   2.00 -2.00 -1.41  1.41  0.00  0.00  0.00 -2.00  2.00  1.41 -1.41  0.00

        2s_v  2s_d
       -2s_v -2s_d
G_6+   0.00  0.00
G_7+   0.00  0.00
G_6-   0.00  0.00
G_7-   0.00  0.00

     the symmetry operations in each class and the name of the first element:

     E             1
          identity                                               
     -E           -1
          identity E                                             
     2C4           7    8
           90 deg rotation - cart. axis [0,0,-1]                 
     -2C4         -7   -8
           90 deg rotation - cart. axis [0,0,-1] E               
      C2  -C2      2   -2
          180 deg rotation - cart. axis [0,0,1]                  
      2C2'-2C2'    3   -3    4   -4
          180 deg rotation - cart. axis [0,1,0]                  
     2C2''-2C2'    5   -5   -6    6
          180 deg rotation - cart. axis [1,1,0]                  
     i             9
          inversion                                              
     -i           -9
          inversion E                                            
     2S4          15   16
          inv.  90 deg rotation - cart. axis [0,0,-1]            
     -2S4        -15  -16
          inv.  90 deg rotation - cart. axis [0,0,-1] E          
      s_h -s_h    10  -10
          inv. 180 deg rotation - cart. axis [0,0,1]             
      2s_v-2s_v   11  -11   12  -12
          inv. 180 deg rotation - cart. axis [0,1,0]             
      2s_d-2s_d   13  -13  -14   14
          inv. 180 deg rotation - cart. axis [1,1,0]             

   Cartesian axes

     site n.     atom                  positions (alat units)
         1           Sn  tau(   1) = (   0.0000000   0.0000000   0.0000000  )
         2           Sn  tau(   2) = (   0.5000000   0.5000000   0.3076884  )
         3           I   tau(   3) = (   0.2985210   0.2985210   0.0000000  )
         4           I   tau(   4) = (   0.7014790   0.7014790   0.0000000  )
         5           I   tau(   5) = (   0.7985210   0.2014790   0.3076884  )
         6           I   tau(   6) = (   0.2014790   0.7985210   0.3076884  )

   Crystallographic axes

     site n.     atom                  positions (cryst. coord.)
         1           Sn  tau(   1) = (  0.0000000  0.0000000  0.0000000  )
         2           Sn  tau(   2) = (  0.5000000  0.5000000  0.5000000  )
         3           I   tau(   3) = (  0.2985210  0.2985210  0.0000000  )
         4           I   tau(   4) = (  0.7014790  0.7014790  0.0000000  )
         5           I   tau(   5) = (  0.7985210  0.2014790  0.5000000  )
         6           I   tau(   6) = (  0.2014790  0.7985210  0.5000000  )

     number of k points=     6
                       cart. coord. in units 2pi/alat
        k(    1) = (   0.1666667   0.1666667   0.2708367), wk =   0.2962963
        k(    2) = (   0.1666667   0.1666667  -0.8125102), wk =   0.1481481
        k(    3) = (   0.1666667  -0.5000000   0.2708367), wk =   0.2962963
        k(    4) = (   0.1666667  -0.5000000  -0.8125102), wk =   0.1481481
        k(    5) = (  -0.5000000  -0.5000000   0.2708367), wk =   0.0740741
        k(    6) = (  -0.5000000  -0.5000000  -0.8125102), wk =   0.0370370

                       cryst. coord.
        k(    1) = (   0.1666667   0.1666667   0.1666667), wk =   0.2962963
        k(    2) = (   0.1666667   0.1666667  -0.5000000), wk =   0.1481481
        k(    3) = (   0.1666667  -0.5000000   0.1666667), wk =   0.2962963
        k(    4) = (   0.1666667  -0.5000000  -0.5000000), wk =   0.1481481
        k(    5) = (  -0.5000000  -0.5000000   0.1666667), wk =   0.0740741
        k(    6) = (  -0.5000000  -0.5000000  -0.5000000), wk =   0.0370370

     Dense  grid:   178307 G-vectors     FFT dimensions: (  90,  90,  54)

     Dynamical RAM for                 wfc:       1.19 MB

     Dynamical RAM for     wfc (w. buffer):       8.33 MB

     Dynamical RAM for           str. fact:       0.17 MB

     Dynamical RAM for           local pot:       0.00 MB

     Dynamical RAM for          nlocal pot:       1.32 MB

     Dynamical RAM for                qrad:       7.52 MB

     Dynamical RAM for          rho,v,vnew:       2.50 MB

     Dynamical RAM for               rhoin:       0.83 MB

     Dynamical RAM for            rho*nmix:       5.44 MB

     Dynamical RAM for           G-vectors:       0.36 MB

     Dynamical RAM for          h,s,v(r/c):       0.57 MB

     Dynamical RAM for          <psi|beta>:       0.21 MB

     Dynamical RAM for                 psi:       2.38 MB

     Dynamical RAM for                hpsi:       2.38 MB

     Dynamical RAM for                spsi:       2.38 MB

     Dynamical RAM for      wfcinit/wfcrot:       2.27 MB

     Dynamical RAM for           addusdens:      52.21 MB

     Dynamical RAM for          addusforce:      52.82 MB

     Dynamical RAM for         addusstress:      53.40 MB

     Estimated static dynamical RAM per process >      27.72 MB

     Estimated max dynamical RAM per process >      81.12 MB

     Estimated total dynamical RAM >       2.54 GB

     Initial potential from superposition of free atoms

     starting charge   55.99750, renormalised to   56.00000
     Starting wfcs are   68 randomized atomic wfcs

     total cpu time spent up to now is       10.1 secs

     Self-consistent Calculation

     iteration #  1     ecut=    80.00 Ry     beta= 0.60
     Davidson diagonalization with overlap
     ethr =  1.00E-02,  avg # of iterations =  1.0

     Threshold (ethr) on eigenvalues was too large:
     Diagonalizing with lowered threshold

     Davidson diagonalization with overlap
     ethr =  2.74E-04,  avg # of iterations =  2.7

     total cpu time spent up to now is       21.1 secs

     total energy              =    -561.61479255 Ry
     estimated scf accuracy    <       0.13908598 Ry

     iteration #  2     ecut=    80.00 Ry     beta= 0.60
     Davidson diagonalization with overlap
     ethr =  2.48E-04,  avg # of iterations =  3.5

     total cpu time spent up to now is       26.2 secs

     total energy              =    -561.66111422 Ry
     estimated scf accuracy    <       0.02726048 Ry

     iteration #  3     ecut=    80.00 Ry     beta= 0.60
     Davidson diagonalization with overlap
     ethr =  4.87E-05,  avg # of iterations =  2.0

     total cpu time spent up to now is       30.9 secs

     total energy              =    -561.66478065 Ry
     estimated scf accuracy    <       0.00157108 Ry

     iteration #  4     ecut=    80.00 Ry     beta= 0.60
     Davidson diagonalization with overlap
     ethr =  2.81E-06,  avg # of iterations =  5.0

     total cpu time spent up to now is       37.1 secs

     total energy              =    -561.66547216 Ry
     estimated scf accuracy    <       0.00091460 Ry

     iteration #  5     ecut=    80.00 Ry     beta= 0.60
     Davidson diagonalization with overlap
     ethr =  1.63E-06,  avg # of iterations =  2.0

     total cpu time spent up to now is       42.0 secs

     total energy              =    -561.66566343 Ry
     estimated scf accuracy    <       0.00000433 Ry

     iteration #  6     ecut=    80.00 Ry     beta= 0.60
     Davidson diagonalization with overlap
     ethr =  7.73E-09,  avg # of iterations =  8.3

     total cpu time spent up to now is       51.3 secs

     total energy              =    -561.66567615 Ry
     estimated scf accuracy    <       0.00001002 Ry

     iteration #  7     ecut=    80.00 Ry     beta= 0.60
     Davidson diagonalization with overlap
     ethr =  7.73E-09,  avg # of iterations =  2.0

     total cpu time spent up to now is       56.2 secs

     total energy              =    -561.66567596 Ry
     estimated scf accuracy    <       0.00000162 Ry

     iteration #  8     ecut=    80.00 Ry     beta= 0.60
     Davidson diagonalization with overlap
     ethr =  2.89E-09,  avg # of iterations =  4.2

     total cpu time spent up to now is       61.8 secs

     End of self-consistent calculation

          k = 0.1667 0.1667 0.2708 ( 22322 PWs)   bands (ev):

   -18.8503 -18.8503 -18.8497 -18.8497 -18.8462 -18.8462 -18.8461 -18.8461
   -17.8142 -17.8142 -17.8129 -17.8129 -17.8081 -17.8081 -17.8079 -17.8079
   -17.8063 -17.8063 -17.8062 -17.8062  -9.2111  -9.2111  -8.8612  -8.8612
    -8.7949  -8.7949  -8.6900  -8.6900  -3.9119  -3.9119  -2.7520  -2.7520
    -0.3026  -0.3026  -0.0311  -0.0311   0.2326   0.2326   0.5854   0.5854
     0.7914   0.7914   1.2059   1.2059   1.2633   1.2633   1.4866   1.4866
     2.0497   2.0497   2.1902   2.1902   2.2431   2.2431   2.9445   2.9445

     occupation numbers 
     1.0000   1.0000   1.0000   1.0000   1.0000   1.0000   1.0000   1.0000
     1.0000   1.0000   1.0000   1.0000   1.0000   1.0000   1.0000   1.0000
     1.0000   1.0000   1.0000   1.0000   1.0000   1.0000   1.0000   1.0000
     1.0000   1.0000   1.0000   1.0000   1.0000   1.0000   1.0000   1.0000
     1.0000   1.0000   1.0000   1.0000   1.0000   1.0000   1.0000   1.0000
     1.0000   1.0000   1.0000   1.0000   1.0000   1.0000   1.0000   1.0000
     1.0000   1.0000   1.0000   1.0000   1.0000   1.0000   1.0000   1.0000

          k = 0.1667 0.1667-0.8125 ( 22312 PWs)   bands (ev):

   -18.8497 -18.8497 -18.8496 -18.8496 -18.8464 -18.8464 -18.8463 -18.8463
   -17.8127 -17.8127 -17.8125 -17.8125 -17.8100 -17.8100 -17.8097 -17.8097
   -17.8052 -17.8052 -17.8052 -17.8052  -8.8675  -8.8675  -8.8581  -8.8581
    -8.7121  -8.7121  -8.7012  -8.7012  -3.6600  -3.6600  -3.6090  -3.6090
    -0.6383  -0.6383  -0.3255  -0.3255  -0.1279  -0.1279   0.2760   0.2760
     0.3707   0.3707   0.9490   0.9490   1.5341   1.5341   1.5844   1.5844
     1.6938   1.6938   1.7654   1.7654   2.3672   2.3672   2.7207   2.7207

     occupation numbers 
     1.0000   1.0000   1.0000   1.0000   1.0000   1.0000   1.0000   1.0000
     1.0000   1.0000   1.0000   1.0000   1.0000   1.0000   1.0000   1.0000
     1.0000   1.0000   1.0000   1.0000   1.0000   1.0000   1.0000   1.0000
     1.0000   1.0000   1.0000   1.0000   1.0000   1.0000   1.0000   1.0000
     1.0000   1.0000   1.0000   1.0000   1.0000   1.0000   1.0000   1.0000
     1.0000   1.0000   1.0000   1.0000   1.0000   1.0000   1.0000   1.0000
     1.0000   1.0000   1.0000   1.0000   1.0000   1.0000   1.0000   1.0000

          k = 0.1667-0.5000 0.2708 ( 22308 PWs)   bands (ev):

   -18.8500 -18.8500 -18.8500 -18.8500 -18.8461 -18.8461 -18.8461 -18.8461
   -17.8137 -17.8137 -17.8135 -17.8135 -17.8080 -17.8080 -17.8080 -17.8080
   -17.8063 -17.8063 -17.8062 -17.8062  -9.0499  -9.0499  -9.0496  -9.0496
    -8.7389  -8.7389  -8.7379  -8.7379  -3.4031  -3.4031  -3.3747  -3.3747
    -0.2458  -0.2458  -0.1789  -0.1789   0.5659   0.5659   0.6044   0.6044
     0.9696   0.9696   1.0966   1.0966   1.4657   1.4657   1.5312   1.5312
     1.9847   1.9847   1.9913   1.9913   2.4096   2.4096   2.4263   2.4263

     occupation numbers 
     1.0000   1.0000   1.0000   1.0000   1.0000   1.0000   1.0000   1.0000
     1.0000   1.0000   1.0000   1.0000   1.0000   1.0000   1.0000   1.0000
     1.0000   1.0000   1.0000   1.0000   1.0000   1.0000   1.0000   1.0000
     1.0000   1.0000   1.0000   1.0000   1.0000   1.0000   1.0000   1.0000
     1.0000   1.0000   1.0000   1.0000   1.0000   1.0000   1.0000   1.0000
     1.0000   1.0000   1.0000   1.0000   1.0000   1.0000   1.0000   1.0000
     1.0000   1.0000   1.0000   1.0000   1.0000   1.0000   1.0000   1.0000

          k = 0.1667-0.5000-0.8125 ( 22276 PWs)   bands (ev):

   -18.8497 -18.8497 -18.8496 -18.8496 -18.8464 -18.8464 -18.8463 -18.8463
   -17.8128 -17.8128 -17.8127 -17.8127 -17.8099 -17.8099 -17.8096 -17.8096
   -17.8052 -17.8052 -17.8051 -17.8051  -8.8533  -8.8533  -8.8507  -8.8507
    -8.7169  -8.7169  -8.7169  -8.7169  -3.6625  -3.6625  -3.6184  -3.6184
    -0.6783  -0.6783  -0.5767  -0.5767  -0.1661  -0.1661   0.0767   0.0767
     0.7750   0.7750   1.2632   1.2632   1.5407   1.5407   1.6927   1.6927
     1.7986   1.7986   1.9325   1.9325   2.3474   2.3474   2.6750   2.6750

     occupation numbers 
     1.0000   1.0000   1.0000   1.0000   1.0000   1.0000   1.0000   1.0000
     1.0000   1.0000   1.0000   1.0000   1.0000   1.0000   1.0000   1.0000
     1.0000   1.0000   1.0000   1.0000   1.0000   1.0000   1.0000   1.0000
     1.0000   1.0000   1.0000   1.0000   1.0000   1.0000   1.0000   1.0000
     1.0000   1.0000   1.0000   1.0000   1.0000   1.0000   1.0000   1.0000
     1.0000   1.0000   1.0000   1.0000   1.0000   1.0000   1.0000   1.0000
     1.0000   1.0000   1.0000   1.0000   1.0000   1.0000   1.0000   1.0000

          k =-0.5000-0.5000 0.2708 ( 22288 PWs)   bands (ev):

   -18.8500 -18.8500 -18.8500 -18.8500 -18.8461 -18.8461 -18.8461 -18.8461
   -17.8136 -17.8136 -17.8136 -17.8136 -17.8080 -17.8080 -17.8080 -17.8080
   -17.8062 -17.8062 -17.8062 -17.8062  -8.9926  -8.9926  -8.9926  -8.9926
    -8.8042  -8.8042  -8.8042  -8.8042  -3.3552  -3.3552  -3.3552  -3.3552
    -0.0275  -0.0275  -0.0275  -0.0275   0.4413   0.4413   0.4413   0.4413
     0.7406   0.7406   0.7406   0.7406   1.5850   1.5850   1.5850   1.5850
     1.9715   1.9715   1.9715   1.9715   2.4989   2.4989   2.4989   2.4989

     occupation numbers 
     1.0000   1.0000   1.0000   1.0000   1.0000   1.0000   1.0000   1.0000
     1.0000   1.0000   1.0000   1.0000   1.0000   1.0000   1.0000   1.0000
     1.0000   1.0000   1.0000   1.0000   1.0000   1.0000   1.0000   1.0000
     1.0000   1.0000   1.0000   1.0000   1.0000   1.0000   1.0000   1.0000
     1.0000   1.0000   1.0000   1.0000   1.0000   1.0000   1.0000   1.0000
     1.0000   1.0000   1.0000   1.0000   1.0000   1.0000   1.0000   1.0000
     1.0000   1.0000   1.0000   1.0000   1.0000   1.0000   1.0000   1.0000

          k =-0.5000-0.5000-0.8125 ( 22248 PWs)   bands (ev):

   -18.8496 -18.8496 -18.8496 -18.8496 -18.8464 -18.8464 -18.8464 -18.8464
   -17.8125 -17.8125 -17.8125 -17.8125 -17.8099 -17.8099 -17.8099 -17.8099
   -17.8052 -17.8052 -17.8052 -17.8052  -8.8567  -8.8567  -8.8567  -8.8567
    -8.7091  -8.7091  -8.7091  -8.7091  -3.7030  -3.7030  -3.7030  -3.7030
    -0.3736  -0.3736  -0.3736  -0.3736   0.2734   0.2734   0.2734   0.2734
     0.4319   0.4319   0.4319   0.4319   1.6888   1.6888   1.6888   1.6888
     1.8807   1.8807   1.8807   1.8807   2.2015   2.2015   2.2015   2.2015

     occupation numbers 
     1.0000   1.0000   1.0000   1.0000   1.0000   1.0000   1.0000   1.0000
     1.0000   1.0000   1.0000   1.0000   1.0000   1.0000   1.0000   1.0000
     1.0000   1.0000   1.0000   1.0000   1.0000   1.0000   1.0000   1.0000
     1.0000   1.0000   1.0000   1.0000   1.0000   1.0000   1.0000   1.0000
     1.0000   1.0000   1.0000   1.0000   1.0000   1.0000   1.0000   1.0000
     1.0000   1.0000   1.0000   1.0000   1.0000   1.0000   1.0000   1.0000
     1.0000   1.0000   1.0000   1.0000   1.0000   1.0000   1.0000   1.0000

     highest occupied level (ev):     2.9445

!    total energy              =    -561.66567655 Ry
     estimated scf accuracy    <       0.00000020 Ry

     The total energy is the sum of the following terms:
     one-electron contribution =    -209.70867167 Ry
     hartree contribution      =     130.15585301 Ry
     xc contribution           =    -262.57010951 Ry
     ewald contribution        =    -219.54274838 Ry

     convergence has been achieved in   8 iterations

     Forces acting on atoms (cartesian axes, Ry/au):

     atom    1 type  1   force =     0.00000000    0.00000000    0.00000000
     atom    2 type  1   force =     0.00000000    0.00000000   -0.00000000
     atom    3 type  2   force =    -0.00043511   -0.00043511   -0.00000000
     atom    4 type  2   force =     0.00043511    0.00043511   -0.00000000
     atom    5 type  2   force =    -0.00043511    0.00043511    0.00000000
     atom    6 type  2   force =     0.00043511   -0.00043511    0.00000000
     The non-local contrib.  to forces
     atom    1 type  1   force =     0.00000000    0.00000000    0.00000000
     atom    2 type  1   force =     0.00000000    0.00000000    0.00000000
     atom    3 type  2   force =     0.01400937    0.01400937    0.00000000
     atom    4 type  2   force =    -0.01400937   -0.01400937    0.00000000
     atom    5 type  2   force =     0.01400937   -0.01400937    0.00000000
     atom    6 type  2   force =    -0.01400937    0.01400937    0.00000000
     The ionic contribution  to forces
     atom    1 type  1   force =    -0.00000000   -0.00000000    0.00000000
     atom    2 type  1   force =     0.00000000    0.00000000   -0.00000000
     atom    3 type  2   force =    -0.90990984   -0.90990984    0.00000000
     atom    4 type  2   force =     0.90990984    0.90990984   -0.00000000
     atom    5 type  2   force =    -0.90990984    0.90990984   -0.00000000
     atom    6 type  2   force =     0.90990984   -0.90990984   -0.00000000
     The local contribution  to forces
     atom    1 type  1   force =    -0.00000000   -0.00000000   -0.00000000
     atom    2 type  1   force =     0.00000000    0.00000000    0.00000000
     atom    3 type  2   force =     0.89687750    0.89687750    0.00000000
     atom    4 type  2   force =    -0.89687750   -0.89687750   -0.00000000
     atom    5 type  2   force =     0.89687750   -0.89687750    0.00000000
     atom    6 type  2   force =    -0.89687750    0.89687750    0.00000000
     The core correction contribution to forces
     atom    1 type  1   force =     0.00000000    0.00000000   -0.00000000
     atom    2 type  1   force =     0.00000000    0.00000000    0.00000000
     atom    3 type  2   force =    -0.00146120   -0.00146120   -0.00000000
     atom    4 type  2   force =     0.00146120    0.00146120    0.00000000
     atom    5 type  2   force =    -0.00146120    0.00146120    0.00000000
     atom    6 type  2   force =     0.00146120   -0.00146120    0.00000000
     The Hubbard contrib.    to forces
     atom    1 type  1   force =     0.00000000    0.00000000    0.00000000
     atom    2 type  1   force =     0.00000000    0.00000000    0.00000000
     atom    3 type  2   force =     0.00000000    0.00000000    0.00000000
     atom    4 type  2   force =     0.00000000    0.00000000    0.00000000
     atom    5 type  2   force =     0.00000000    0.00000000    0.00000000
     atom    6 type  2   force =     0.00000000    0.00000000    0.00000000
     The SCF correction term to forces
     atom    1 type  1   force =    -0.00000000   -0.00000000   -0.00000000
     atom    2 type  1   force =    -0.00000000   -0.00000000    0.00000000
     atom    3 type  2   force =     0.00004906    0.00004906   -0.00000000
     atom    4 type  2   force =    -0.00004906   -0.00004906   -0.00000000
     atom    5 type  2   force =     0.00004906   -0.00004906   -0.00000000
     atom    6 type  2   force =    -0.00004906    0.00004906   -0.00000000

     Total force =     0.001231     Total SCF correction =     0.000139
     SCF correction compared to forces is large: reduce conv_thr to get better values


     Computing stress (Cartesian axis) and pressure

          total   stress  (Ry/bohr**3)                   (kbar)     P=       -0.03
  -0.00000046   0.00000000   0.00000000           -0.07        0.00        0.00
   0.00000000  -0.00000046   0.00000000            0.00       -0.07        0.00
   0.00000000   0.00000000   0.00000039            0.00        0.00        0.06

     kinetic stress (kbar)   7259.96      0.00      0.00
                                0.00   7259.96      0.00
                                0.00      0.00   7232.83

     local   stress (kbar)    823.24     -0.00     -0.00
                               -0.00    823.24      0.00
                               -0.00      0.00  -3587.76

     nonloc. stress (kbar)  -2040.97      0.00      0.00
                                0.00  -2040.97      0.00
                                0.00      0.00  -2033.62

     hartree stress (kbar)   2829.19      0.00      0.00
                                0.00   2829.19     -0.00
                                0.00     -0.00   4718.32

     exc-cor stress (kbar)  14203.62     -0.00      0.00
                               -0.00  14203.62      0.00
                                0.00      0.00  14204.50

     corecor stress (kbar) -16394.34     -0.00     -0.00
                               -0.00 -16394.34     -0.00
                               -0.00     -0.00 -16392.65

     ewald   stress (kbar)  -6680.77      0.00     -0.00
                                0.00  -6680.77     -0.00
                               -0.00     -0.00  -4141.56

     hubbard stress (kbar)      0.00      0.00      0.00
                                0.00      0.00      0.00
                                0.00      0.00      0.00

     DFT-D   stress (kbar)      0.00      0.00      0.00
                                0.00      0.00      0.00
                                0.00      0.00      0.00

     XDM     stress (kbar)      0.00      0.00      0.00
                                0.00      0.00      0.00
                                0.00      0.00      0.00

     dft-nl  stress (kbar)      0.00      0.00      0.00
                                0.00      0.00      0.00
                                0.00      0.00      0.00

     TS-vdW  stress (kbar)      0.00      0.00      0.00
                                0.00      0.00      0.00
                                0.00      0.00      0.00



     Writing output data file ./out/CsIsalt.save/
 
     init_run     :      2.65s CPU      2.92s WALL (       1 calls)
     electrons    :     45.86s CPU     52.28s WALL (       1 calls)
     forces       :      1.12s CPU      1.17s WALL (       1 calls)
     stress       :      3.85s CPU      3.94s WALL (       1 calls)

     Called by init_run:
     wfcinit      :      1.74s CPU      1.82s WALL (       1 calls)
     wfcinit:atom :      0.02s CPU      0.02s WALL (       6 calls)
     wfcinit:wfcr :      1.67s CPU      1.72s WALL (       6 calls)
     potinit      :      0.13s CPU      0.22s WALL (       1 calls)
     hinit0       :      0.41s CPU      0.46s WALL (       1 calls)

     Called by electrons:
     c_bands      :     33.43s CPU     37.54s WALL (       9 calls)
     sum_band     :      8.37s CPU      8.87s WALL (       9 calls)
     v_of_rho     :      0.24s CPU      0.25s WALL (       9 calls)
     v_h          :      0.02s CPU      0.02s WALL (       9 calls)
     v_xc         :      0.26s CPU      0.27s WALL (      11 calls)
     newd         :      2.14s CPU      2.52s WALL (       9 calls)
     mix_rho      :      0.22s CPU      0.23s WALL (       9 calls)

     Called by c_bands:
     init_us_2    :      0.23s CPU      0.24s WALL (     126 calls)
     cegterg      :     31.14s CPU     31.73s WALL (      54 calls)

     Called by sum_band:
     sum_band:wei :      0.00s CPU      0.00s WALL (       9 calls)
     sum_band:loo :      6.31s CPU      6.43s WALL (       9 calls)
     sum_band:buf :      0.16s CPU      0.16s WALL (      54 calls)
     sum_band:ini :      0.10s CPU      0.11s WALL (      54 calls)
     sum_band:cal :      0.44s CPU      0.44s WALL (      54 calls)
     sum_band:bec :      0.34s CPU      0.35s WALL (      54 calls)
     addusdens    :      1.94s CPU      2.32s WALL (       9 calls)
     addusd:skk   :      0.00s CPU      0.00s WALL (      18 calls)
     addusd:dgemm :      1.03s CPU      1.40s WALL (      18 calls)
     addusd:qvan2 :      0.87s CPU      0.87s WALL (      18 calls)

     Called by *egterg:
     cdiaghg      :      1.11s CPU      1.13s WALL (     232 calls)
     cegterg:over :      1.64s CPU      1.65s WALL (     184 calls)
     cegterg:upda :      1.03s CPU      1.03s WALL (     184 calls)
     cegterg:last :      1.99s CPU      2.00s WALL (     131 calls)
     h_psi        :     24.27s CPU     24.84s WALL (     244 calls)
     s_psi        :      1.59s CPU      1.59s WALL (     244 calls)
     g_psi        :      0.09s CPU      0.09s WALL (     184 calls)

     Called by h_psi:
     h_psi:calbec :      1.46s CPU      1.48s WALL (     244 calls)
     vloc_psi     :     20.76s CPU     21.29s WALL (     244 calls)
     add_vuspsi   :      1.69s CPU      1.70s WALL (     244 calls)

     General routines
     calbec       :      2.11s CPU      2.13s WALL (     328 calls)
     fft          :      0.41s CPU      0.45s WALL (     152 calls)
     ffts         :      0.04s CPU      0.04s WALL (      36 calls)
     fftw         :     22.18s CPU     22.74s WALL (   44228 calls)
 
     Parallel routines
     fft_scatt_xy :      2.77s CPU      2.85s WALL (   44416 calls)
     fft_scatt_yz :      8.90s CPU      9.12s WALL (   44416 calls)
 
     PWSCF        :     57.93s CPU   1m17.52s WALL

 
   This run was terminated on:  12:15: 3  31Jan2021            

=------------------------------------------------------------------------------=
   JOB DONE.
=------------------------------------------------------------------------------=
