
     Program PWSCF v.6.4.1 starts on 24Jan2021 at 18:53:15 

     This program is part of the open-source Quantum ESPRESSO suite
     for quantum simulation of materials; please cite
         "P. Giannozzi et al., J. Phys.:Condens. Matter 21 395502 (2009);
         "P. Giannozzi et al., J. Phys.:Condens. Matter 29 465901 (2017);
          URL http://www.quantum-espresso.org", 
     in publications or presentations arising from this work. More details at
     http://www.quantum-espresso.org/quote

     Parallel version (MPI & OpenMP), running on      48 processor cores
     Number of MPI processes:                24
     Threads/MPI process:                     2

     MPI processes distributed on     1 nodes
     R & G space division:  proc/nbgrp/npool/nimage =      24
     Waiting for input...
     Reading input from standard input

     Current dimensions of program PWSCF are:
     Max number of different atomic species (ntypx) = 10
     Max number of k-points (npk) =  40000
     Max angular momentum in pseudopotentials (lmaxx) =  3
               file Sn.rel-pbesol-dn-kjpaw_psl.1.0.0.UPF: wavefunction(s)  5S 5P 5P 4D 4D renormalized
               file I.rel-pbesol-n-kjpaw_psl.1.0.0.UPF: wavefunction(s)  5S renormalized

     Subspace diagonalization in iterative solution of the eigenvalue problem:
     one sub-group per band group will be used
     scalapack distributed-memory algorithm (size of sub-group:  3*  3 procs)

 
     Parallelization info
     --------------------
     sticks:   dense  smooth     PW     G-vecs:    dense   smooth      PW
     Min         127      84     23                 5273     2868     421
     Max         129      85     24                 5275     2873     424
     Sum        3061    2025    569               126563    68891   10131
 

     Title: 
     SnI2                                                                       


     bravais-lattice index     =            1
     lattice parameter (alat)  =      12.6355  a.u.
     unit-cell volume          =    2017.3401 (a.u.)^3
     number of atoms/cell      =            5
     number of atomic types    =            2
     number of electrons       =        42.00
     number of Kohn-Sham states=           42
     kinetic-energy cutoff     =      40.0000  Ry
     charge density cutoff     =     240.0000  Ry
     convergence threshold     =      1.0E-06
     mixing beta               =       0.3500
     number of iterations used =            8  plain     mixing
     Exchange-correlation      = SLA PW PSX PSC ( 1  4 10  8 0 0)
     Non magnetic calculation with spin-orbit


     celldm(1)=  12.635518  celldm(2)=   0.000000  celldm(3)=   0.000000
     celldm(4)=   0.000000  celldm(5)=   0.000000  celldm(6)=   0.000000

     crystal axes: (cart. coord. in units of alat)
               a(1) = (   1.000000   0.000000   0.000000 )  
               a(2) = (   0.000000   1.000000   0.000000 )  
               a(3) = (   0.000000   0.000000   1.000000 )  

     reciprocal axes: (cart. coord. in units 2 pi/alat)
               b(1) = (  1.000000  0.000000  0.000000 )  
               b(2) = (  0.000000  1.000000  0.000000 )  
               b(3) = (  0.000000  0.000000  1.000000 )  


     PseudoPot. # 1 for Sn read from file:
     /marconi_scratch/userexternal/cmalosso/degironcoli/pseudo/Sn.rel-pbesol-dn-kjpaw_psl.1.0.0.UPF
     MD5 check sum: e69eff64f15ae39ad43ef58bacbfdf88
     Pseudo is Projector augmented-wave + core cor, Zval = 14.0
     Generated using "atomic" code by A. Dal Corso v.6.3
     Shape of augmentation charge: PSQ
     Using radial grid of 1243 points, 10 beta functions with: 
                l(1) =   0
                l(2) =   0
                l(3) =   1
                l(4) =   1
                l(5) =   1
                l(6) =   1
                l(7) =   2
                l(8) =   2
                l(9) =   2
               l(10) =   2
     Q(r) pseudized with 0 coefficients 


     PseudoPot. # 2 for I  read from file:
     /marconi_scratch/userexternal/cmalosso/degironcoli/pseudo/I.rel-pbesol-n-kjpaw_psl.1.0.0.UPF
     MD5 check sum: 4478c427bd443f303eca1937a163b991
     Pseudo is Projector augmented-wave + core cor, Zval =  7.0
     Generated using "atomic" code by A. Dal Corso v.6.3
     Shape of augmentation charge: PSQ
     Using radial grid of 1247 points, 10 beta functions with: 
                l(1) =   0
                l(2) =   0
                l(3) =   1
                l(4) =   1
                l(5) =   1
                l(6) =   1
                l(7) =   2
                l(8) =   2
                l(9) =   2
               l(10) =   2
     Q(r) pseudized with 0 coefficients 


     atomic species   valence    mass     pseudopotential
        Sn            14.00   118.70000     Sn( 1.00)
        I              7.00   126.90000     I ( 1.00)

     24 Sym. Ops. (no inversion) found


                                    s                        frac. trans.

      isym =  1     identity                                     

 cryst.   s( 1) = (     1          0          0      )
                  (     0          1          0      )
                  (     0          0          1      )

 cart.    s( 1) = (  1.0000000  0.0000000  0.0000000 )
                  (  0.0000000  1.0000000  0.0000000 )
                  (  0.0000000  0.0000000  1.0000000 )


      isym =  2     180 deg rotation - cart. axis [0,0,1]        

 cryst.   s( 2) = (    -1          0          0      )
                  (     0         -1          0      )
                  (     0          0          1      )

 cart.    s( 2) = ( -1.0000000  0.0000000  0.0000000 )
                  (  0.0000000 -1.0000000  0.0000000 )
                  (  0.0000000  0.0000000  1.0000000 )


      isym =  3     180 deg rotation - cart. axis [0,1,0]        

 cryst.   s( 3) = (    -1          0          0      )
                  (     0          1          0      )
                  (     0          0         -1      )

 cart.    s( 3) = ( -1.0000000  0.0000000  0.0000000 )
                  (  0.0000000  1.0000000  0.0000000 )
                  (  0.0000000  0.0000000 -1.0000000 )


      isym =  4     180 deg rotation - cart. axis [1,0,0]        

 cryst.   s( 4) = (     1          0          0      )
                  (     0         -1          0      )
                  (     0          0         -1      )

 cart.    s( 4) = (  1.0000000  0.0000000  0.0000000 )
                  (  0.0000000 -1.0000000  0.0000000 )
                  (  0.0000000  0.0000000 -1.0000000 )


      isym =  5     120 deg rotation - cart. axis [-1,-1,-1]     

 cryst.   s( 5) = (     0          0          1      )
                  (     1          0          0      )
                  (     0          1          0      )

 cart.    s( 5) = (  0.0000000  1.0000000  0.0000000 )
                  (  0.0000000  0.0000000  1.0000000 )
                  (  1.0000000  0.0000000  0.0000000 )


      isym =  6     120 deg rotation - cart. axis [-1,1,1]       

 cryst.   s( 6) = (     0          0         -1      )
                  (    -1          0          0      )
                  (     0          1          0      )

 cart.    s( 6) = (  0.0000000 -1.0000000  0.0000000 )
                  (  0.0000000  0.0000000  1.0000000 )
                  ( -1.0000000  0.0000000  0.0000000 )


      isym =  7     120 deg rotation - cart. axis [1,1,-1]       

 cryst.   s( 7) = (     0          0         -1      )
                  (     1          0          0      )
                  (     0         -1          0      )

 cart.    s( 7) = (  0.0000000  1.0000000  0.0000000 )
                  (  0.0000000  0.0000000 -1.0000000 )
                  ( -1.0000000  0.0000000  0.0000000 )


      isym =  8     120 deg rotation - cart. axis [1,-1,1]       

 cryst.   s( 8) = (     0          0          1      )
                  (    -1          0          0      )
                  (     0         -1          0      )

 cart.    s( 8) = (  0.0000000 -1.0000000  0.0000000 )
                  (  0.0000000  0.0000000 -1.0000000 )
                  (  1.0000000  0.0000000  0.0000000 )


      isym =  9     120 deg rotation - cart. axis [1,1,1]        

 cryst.   s( 9) = (     0          1          0      )
                  (     0          0          1      )
                  (     1          0          0      )

 cart.    s( 9) = (  0.0000000  0.0000000  1.0000000 )
                  (  1.0000000  0.0000000  0.0000000 )
                  (  0.0000000  1.0000000  0.0000000 )


      isym = 10     120 deg rotation - cart. axis [-1,1,-1]      

 cryst.   s(10) = (     0         -1          0      )
                  (     0          0         -1      )
                  (     1          0          0      )

 cart.    s(10) = (  0.0000000  0.0000000  1.0000000 )
                  ( -1.0000000  0.0000000  0.0000000 )
                  (  0.0000000 -1.0000000  0.0000000 )


      isym = 11     120 deg rotation - cart. axis [1,-1,-1]      

 cryst.   s(11) = (     0         -1          0      )
                  (     0          0          1      )
                  (    -1          0          0      )

 cart.    s(11) = (  0.0000000  0.0000000 -1.0000000 )
                  ( -1.0000000  0.0000000  0.0000000 )
                  (  0.0000000  1.0000000  0.0000000 )


      isym = 12     120 deg rotation - cart. axis [-1,-1,1]      

 cryst.   s(12) = (     0          1          0      )
                  (     0          0         -1      )
                  (    -1          0          0      )

 cart.    s(12) = (  0.0000000  0.0000000 -1.0000000 )
                  (  1.0000000  0.0000000  0.0000000 )
                  (  0.0000000 -1.0000000  0.0000000 )


      isym = 13     inv. 180 deg rotation - cart. axis [1,1,0]   

 cryst.   s(13) = (     0         -1          0      )
                  (    -1          0          0      )
                  (     0          0          1      )

 cart.    s(13) = (  0.0000000 -1.0000000  0.0000000 )
                  ( -1.0000000  0.0000000  0.0000000 )
                  (  0.0000000  0.0000000  1.0000000 )


      isym = 14     inv. 180 deg rotation - cart. axis [1,-1,0]  

 cryst.   s(14) = (     0          1          0      )
                  (     1          0          0      )
                  (     0          0          1      )

 cart.    s(14) = (  0.0000000  1.0000000  0.0000000 )
                  (  1.0000000  0.0000000  0.0000000 )
                  (  0.0000000  0.0000000  1.0000000 )


      isym = 15     inv.  90 deg rotation - cart. axis [0,0,-1]  

 cryst.   s(15) = (     0          1          0      )
                  (    -1          0          0      )
                  (     0          0         -1      )

 cart.    s(15) = (  0.0000000 -1.0000000  0.0000000 )
                  (  1.0000000  0.0000000  0.0000000 )
                  (  0.0000000  0.0000000 -1.0000000 )


      isym = 16     inv.  90 deg rotation - cart. axis [0,0,1]   

 cryst.   s(16) = (     0         -1          0      )
                  (     1          0          0      )
                  (     0          0         -1      )

 cart.    s(16) = (  0.0000000  1.0000000  0.0000000 )
                  ( -1.0000000  0.0000000  0.0000000 )
                  (  0.0000000  0.0000000 -1.0000000 )


      isym = 17     inv. 180 deg rotation - cart. axis [1,0,1]   

 cryst.   s(17) = (     0          0         -1      )
                  (     0          1          0      )
                  (    -1          0          0      )

 cart.    s(17) = (  0.0000000  0.0000000 -1.0000000 )
                  (  0.0000000  1.0000000  0.0000000 )
                  ( -1.0000000  0.0000000  0.0000000 )


      isym = 18     inv. 180 deg rotation - cart. axis [-1,0,1]  

 cryst.   s(18) = (     0          0          1      )
                  (     0          1          0      )
                  (     1          0          0      )

 cart.    s(18) = (  0.0000000  0.0000000  1.0000000 )
                  (  0.0000000  1.0000000  0.0000000 )
                  (  1.0000000  0.0000000  0.0000000 )


      isym = 19     inv.  90 deg rotation - cart. axis [0,1,0]   

 cryst.   s(19) = (     0          0          1      )
                  (     0         -1          0      )
                  (    -1          0          0      )

 cart.    s(19) = (  0.0000000  0.0000000 -1.0000000 )
                  (  0.0000000 -1.0000000  0.0000000 )
                  (  1.0000000  0.0000000  0.0000000 )


      isym = 20     inv.  90 deg rotation - cart. axis [0,-1,0]  

 cryst.   s(20) = (     0          0         -1      )
                  (     0         -1          0      )
                  (     1          0          0      )

 cart.    s(20) = (  0.0000000  0.0000000  1.0000000 )
                  (  0.0000000 -1.0000000  0.0000000 )
                  ( -1.0000000  0.0000000  0.0000000 )


      isym = 21     inv. 180 deg rotation - cart. axis [0,1,1]   

 cryst.   s(21) = (     1          0          0      )
                  (     0          0         -1      )
                  (     0         -1          0      )

 cart.    s(21) = (  1.0000000  0.0000000  0.0000000 )
                  (  0.0000000  0.0000000 -1.0000000 )
                  (  0.0000000 -1.0000000  0.0000000 )


      isym = 22     inv. 180 deg rotation - cart. axis [0,1,-1]  

 cryst.   s(22) = (     1          0          0      )
                  (     0          0          1      )
                  (     0          1          0      )

 cart.    s(22) = (  1.0000000  0.0000000  0.0000000 )
                  (  0.0000000  0.0000000  1.0000000 )
                  (  0.0000000  1.0000000  0.0000000 )


      isym = 23     inv.  90 deg rotation - cart. axis [-1,0,0]  

 cryst.   s(23) = (    -1          0          0      )
                  (     0          0          1      )
                  (     0         -1          0      )

 cart.    s(23) = ( -1.0000000  0.0000000  0.0000000 )
                  (  0.0000000  0.0000000 -1.0000000 )
                  (  0.0000000  1.0000000  0.0000000 )


      isym = 24     inv.  90 deg rotation - cart. axis [1,0,0]   

 cryst.   s(24) = (    -1          0          0      )
                  (     0          0         -1      )
                  (     0          1          0      )

 cart.    s(24) = ( -1.0000000  0.0000000  0.0000000 )
                  (  0.0000000  0.0000000  1.0000000 )
                  (  0.0000000 -1.0000000  0.0000000 )


     double point group T_d (-43m) 
     there are  8 classes and  3 irreducible representations
     the character table:

       E     -E    8C3   -8C3   3C2  6S4   -6S4  6s_d 
                               -3C2              -6s_d
G_6    2.00 -2.00  1.00 -1.00  0.00  1.41 -1.41  0.00
G_7    2.00 -2.00  1.00 -1.00  0.00 -1.41  1.41  0.00
G_8    4.00 -4.00 -1.00  1.00  0.00  0.00  0.00  0.00

     the symmetry operations in each class and the name of the first element:

     E             1
          identity                                               
     -E           -1
          identity E                                             
     8C3           5    7    8    6   12    9   10   11
          120 deg rotation - cart. axis [-1,-1,-1]               
     -8C3         -5   -7   -8   -6  -12   -9  -10  -11
          120 deg rotation - cart. axis [-1,-1,-1] E             
      3C2 -3C2     2   -2    3   -3    4   -4
          180 deg rotation - cart. axis [0,0,1]                  
     6S4          15   16   20   19   23   24
          inv.  90 deg rotation - cart. axis [0,0,-1]            
     -6S4        -15  -16  -20  -19  -23  -24
          inv.  90 deg rotation - cart. axis [0,0,-1] E          
     6s_d -6s_d   13  -13  -14   14   17  -17  -18   18   21  -21   22  -22
          inv. 180 deg rotation - cart. axis [1,1,0]             

   Cartesian axes

     site n.     atom                  positions (alat units)
         1           Sn  tau(   1) = (   0.0000000   0.0000000   0.0000000  )
         2           I   tau(   2) = (   0.2339030   0.7660970   0.7660970  )
         3           I   tau(   3) = (   0.7660970   0.2339030   0.7660970  )
         4           I   tau(   4) = (   0.7660970   0.7660970   0.2339030  )
         5           I   tau(   5) = (   0.2339030   0.2339030   0.2339030  )

   Crystallographic axes

     site n.     atom                  positions (cryst. coord.)
         1           Sn  tau(   1) = (  0.0000000  0.0000000  0.0000000  )
         2           I   tau(   2) = (  0.2339030  0.7660970  0.7660970  )
         3           I   tau(   3) = (  0.7660970  0.2339030  0.7660970  )
         4           I   tau(   4) = (  0.7660970  0.7660970  0.2339030  )
         5           I   tau(   5) = (  0.2339030  0.2339030  0.2339030  )

     number of k points=    10
                       cart. coord. in units 2pi/alat
        k(    1) = (   0.0833333   0.0833333   0.0833333), wk =   0.0370370
        k(    2) = (   0.0833333   0.0833333   0.2500000), wk =   0.1111111
        k(    3) = (   0.0833333   0.0833333   0.4166667), wk =   0.1111111
        k(    4) = (   0.0833333   0.2500000   0.2500000), wk =   0.1111111
        k(    5) = (   0.0833333   0.2500000   0.4166667), wk =   0.2222222
        k(    6) = (   0.0833333   0.4166667   0.4166667), wk =   0.1111111
        k(    7) = (   0.2500000   0.2500000   0.2500000), wk =   0.0370370
        k(    8) = (   0.2500000   0.2500000   0.4166667), wk =   0.1111111
        k(    9) = (   0.2500000   0.4166667   0.4166667), wk =   0.1111111
        k(   10) = (   0.4166667   0.4166667   0.4166667), wk =   0.0370370

                       cryst. coord.
        k(    1) = (   0.0833333   0.0833333   0.0833333), wk =   0.0370370
        k(    2) = (   0.0833333   0.0833333   0.2500000), wk =   0.1111111
        k(    3) = (   0.0833333   0.0833333   0.4166667), wk =   0.1111111
        k(    4) = (   0.0833333   0.2500000   0.2500000), wk =   0.1111111
        k(    5) = (   0.0833333   0.2500000   0.4166667), wk =   0.2222222
        k(    6) = (   0.0833333   0.4166667   0.4166667), wk =   0.1111111
        k(    7) = (   0.2500000   0.2500000   0.2500000), wk =   0.0370370
        k(    8) = (   0.2500000   0.2500000   0.4166667), wk =   0.1111111
        k(    9) = (   0.2500000   0.4166667   0.4166667), wk =   0.1111111
        k(   10) = (   0.4166667   0.4166667   0.4166667), wk =   0.0370370

     Dense  grid:   126563 G-vectors     FFT dimensions: (  64,  64,  64)

     Smooth grid:    68891 G-vectors     FFT dimensions: (  54,  54,  54)

     Dynamical RAM for                 wfc:       0.46 MB

     Dynamical RAM for     wfc (w. buffer):       5.06 MB

     Dynamical RAM for           str. fact:       0.16 MB

     Dynamical RAM for           local pot:       0.00 MB

     Dynamical RAM for          nlocal pot:       0.93 MB

     Dynamical RAM for                qrad:      13.09 MB

     Dynamical RAM for          rho,v,vnew:       2.09 MB

     Dynamical RAM for               rhoin:       0.70 MB

     Dynamical RAM for            rho*nmix:       5.15 MB

     Dynamical RAM for           G-vectors:       0.32 MB

     Dynamical RAM for          h,s,v(r/c):       0.14 MB

     Dynamical RAM for          <psi|beta>:       0.22 MB

     Dynamical RAM for                 psi:       1.84 MB

     Dynamical RAM for                hpsi:       1.84 MB

     Dynamical RAM for                spsi:       1.84 MB

     Dynamical RAM for      wfcinit/wfcrot:       0.88 MB

     Dynamical RAM for           addusdens:      49.42 MB

     Dynamical RAM for          addusforce:      50.25 MB

     Dynamical RAM for         addusstress:      50.55 MB

     Estimated static dynamical RAM per process >      28.50 MB

     Estimated max dynamical RAM per process >      79.04 MB

     Estimated total dynamical RAM >       1.85 GB

     Initial potential from superposition of free atoms

     starting charge   41.99871, renormalised to   42.00000
     Starting wfcs are   50 randomized atomic wfcs
     Checking if some PAW data can be deallocated... 
       PAW data deallocated on   19 nodes for type:  1
       PAW data deallocated on    5 nodes for type:  2

     total cpu time spent up to now is       12.5 secs

     Self-consistent Calculation

     iteration #  1     ecut=    40.00 Ry     beta= 0.35
     Davidson diagonalization with overlap
     ethr =  1.00E-02,  avg # of iterations =  1.3

     Threshold (ethr) on eigenvalues was too large:
     Diagonalizing with lowered threshold

     Davidson diagonalization with overlap
     ethr =  3.83E-04,  avg # of iterations =  2.0

     total cpu time spent up to now is       36.0 secs

     total energy              =   -1933.70237825 Ry
     Harris-Foulkes estimate   =   -1933.75916573 Ry
     estimated scf accuracy    <       0.12768758 Ry

     iteration #  2     ecut=    40.00 Ry     beta= 0.35
     Davidson diagonalization with overlap
     ethr =  3.04E-04,  avg # of iterations =  2.1

     total cpu time spent up to now is       48.2 secs

     total energy              =   -1933.71866550 Ry
     Harris-Foulkes estimate   =   -1933.72502009 Ry
     estimated scf accuracy    <       0.02233655 Ry

     iteration #  3     ecut=    40.00 Ry     beta= 0.35
     Davidson diagonalization with overlap
     ethr =  5.32E-05,  avg # of iterations =  2.0

     total cpu time spent up to now is       63.3 secs

     total energy              =   -1933.71882024 Ry
     Harris-Foulkes estimate   =   -1933.72032208 Ry
     estimated scf accuracy    <       0.00534438 Ry

     iteration #  4     ecut=    40.00 Ry     beta= 0.35
     Davidson diagonalization with overlap
     ethr =  1.27E-05,  avg # of iterations =  2.6

     total cpu time spent up to now is       81.3 secs

     total energy              =   -1933.71916616 Ry
     Harris-Foulkes estimate   =   -1933.71949168 Ry
     estimated scf accuracy    <       0.00075554 Ry

     iteration #  5     ecut=    40.00 Ry     beta= 0.35
     Davidson diagonalization with overlap
     ethr =  1.80E-06,  avg # of iterations =  3.0

     total cpu time spent up to now is       97.5 secs

     total energy              =   -1933.71931630 Ry
     Harris-Foulkes estimate   =   -1933.71951319 Ry
     estimated scf accuracy    <       0.00048206 Ry

     iteration #  6     ecut=    40.00 Ry     beta= 0.35
     Davidson diagonalization with overlap
     ethr =  1.15E-06,  avg # of iterations =  2.0

     total cpu time spent up to now is      111.6 secs

     total energy              =   -1933.71938953 Ry
     Harris-Foulkes estimate   =   -1933.71939179 Ry
     estimated scf accuracy    <       0.00000955 Ry

     iteration #  7     ecut=    40.00 Ry     beta= 0.35
     Davidson diagonalization with overlap
     ethr =  2.27E-08,  avg # of iterations =  4.0

     total cpu time spent up to now is      129.5 secs

     total energy              =   -1933.71939397 Ry
     Harris-Foulkes estimate   =   -1933.71939492 Ry
     estimated scf accuracy    <       0.00000242 Ry

     iteration #  8     ecut=    40.00 Ry     beta= 0.35
     Davidson diagonalization with overlap
     ethr =  5.75E-09,  avg # of iterations =  2.0

     total cpu time spent up to now is      143.7 secs

     total energy              =   -1933.71939385 Ry
     Harris-Foulkes estimate   =   -1933.71939446 Ry
     estimated scf accuracy    <       0.00000124 Ry

     iteration #  9     ecut=    40.00 Ry     beta= 0.35
     Davidson diagonalization with overlap
     ethr =  2.95E-09,  avg # of iterations =  3.0

     total cpu time spent up to now is      159.4 secs

     End of self-consistent calculation

          k = 0.0833 0.0833 0.0833 (  8601 PWs)   bands (ev):

   -21.7852 -21.7852 -21.7846 -21.7846 -20.7718 -20.7718 -20.7354 -20.7354
   -20.7353 -20.7353 -11.9204 -11.9204 -11.2110 -11.2110 -11.2030 -11.2030
   -11.2010 -11.2009  -6.3613  -6.3613  -2.6967  -2.6967  -2.6899  -2.6841
    -2.5071  -2.5071  -1.4170  -1.4170  -1.3828  -1.3489  -1.0402  -1.0402
    -0.9345  -0.9345  -0.4002  -0.3832  -0.3415  -0.3415  -0.0955  -0.0955
    -0.0167   0.0028

     occupation numbers 
     1.0000   1.0000   1.0000   1.0000   1.0000   1.0000   1.0000   1.0000
     1.0000   1.0000   1.0000   1.0000   1.0000   1.0000   1.0000   1.0000
     1.0000   1.0000   1.0000   1.0000   1.0000   1.0000   1.0000   1.0000
     1.0000   1.0000   1.0000   1.0000   1.0000   1.0000   1.0000   1.0000
     1.0000   1.0000   1.0000   1.0000   1.0000   1.0000   1.0000   1.0000
     1.0000   1.0000

          k = 0.0833 0.0833 0.2500 (  8617 PWs)   bands (ev):

   -21.7860 -21.7860 -21.7850 -21.7850 -20.7730 -20.7730 -20.7361 -20.7361
   -20.7349 -20.7349 -11.8981 -11.8981 -11.2372 -11.2358 -11.2071 -11.2056
   -11.2011 -11.2008  -6.3393  -6.3387  -2.7555  -2.7322  -2.6922  -2.6892
    -2.5480  -2.5137  -1.4284  -1.4132  -1.3046  -1.2624  -1.0817  -1.0237
    -0.9503  -0.9058  -0.4727  -0.4485  -0.3468  -0.3286  -0.2302  -0.2115
    -0.0530  -0.0286

     occupation numbers 
     1.0000   1.0000   1.0000   1.0000   1.0000   1.0000   1.0000   1.0000
     1.0000   1.0000   1.0000   1.0000   1.0000   1.0000   1.0000   1.0000
     1.0000   1.0000   1.0000   1.0000   1.0000   1.0000   1.0000   1.0000
     1.0000   1.0000   1.0000   1.0000   1.0000   1.0000   1.0000   1.0000
     1.0000   1.0000   1.0000   1.0000   1.0000   1.0000   1.0000   1.0000
     1.0000   1.0000

          k = 0.0833 0.0833 0.4167 (  8633 PWs)   bands (ev):

   -21.7862 -21.7861 -21.7857 -21.7857 -20.7736 -20.7736 -20.7363 -20.7363
   -20.7353 -20.7353 -11.8737 -11.8737 -11.2692 -11.2679 -11.2067 -11.2052
   -11.2004 -11.2001  -6.3170  -6.3158  -2.8123  -2.7721  -2.6998  -2.6827
    -2.5884  -2.5218  -1.4322  -1.4088  -1.1916  -1.1774  -1.0671  -1.0160
    -0.9889  -0.9156  -0.5491  -0.5267  -0.4546  -0.3572  -0.2450  -0.2100
    -0.1298  -0.1024

     occupation numbers 
     1.0000   1.0000   1.0000   1.0000   1.0000   1.0000   1.0000   1.0000
     1.0000   1.0000   1.0000   1.0000   1.0000   1.0000   1.0000   1.0000
     1.0000   1.0000   1.0000   1.0000   1.0000   1.0000   1.0000   1.0000
     1.0000   1.0000   1.0000   1.0000   1.0000   1.0000   1.0000   1.0000
     1.0000   1.0000   1.0000   1.0000   1.0000   1.0000   1.0000   1.0000
     1.0000   1.0000

          k = 0.0833 0.2500 0.2500 (  8612 PWs)   bands (ev):

   -21.7858 -21.7858 -21.7846 -21.7846 -20.7727 -20.7727 -20.7358 -20.7358
   -20.7348 -20.7347 -11.8782 -11.8781 -11.2395 -11.2366 -11.2256 -11.2247
   -11.2065 -11.2042  -6.3273  -6.3262  -2.8035  -2.7642  -2.7168  -2.6991
    -2.5684  -2.5155  -1.5011  -1.4767  -1.2176  -1.1476  -1.0642  -1.0058
    -0.9093  -0.8700  -0.5304  -0.4868  -0.3949  -0.3557  -0.2574  -0.2393
    -0.0593  -0.0177

     occupation numbers 
     1.0000   1.0000   1.0000   1.0000   1.0000   1.0000   1.0000   1.0000
     1.0000   1.0000   1.0000   1.0000   1.0000   1.0000   1.0000   1.0000
     1.0000   1.0000   1.0000   1.0000   1.0000   1.0000   1.0000   1.0000
     1.0000   1.0000   1.0000   1.0000   1.0000   1.0000   1.0000   1.0000
     1.0000   1.0000   1.0000   1.0000   1.0000   1.0000   1.0000   1.0000
     1.0000   1.0000

          k = 0.0833 0.2500 0.4167 (  8626 PWs)   bands (ev):

   -21.7860 -21.7859 -21.7852 -21.7852 -20.7733 -20.7732 -20.7357 -20.7356
   -20.7352 -20.7352 -11.8565 -11.8564 -11.2622 -11.2596 -11.2264 -11.2245
   -11.2097 -11.2075  -6.3153  -6.3136  -2.8546  -2.8070  -2.7264  -2.6989
    -2.5934  -2.5189  -1.5376  -1.5265  -1.1269  -1.0802  -1.0243  -1.0034
    -0.8499  -0.8360  -0.5746  -0.5608  -0.5034  -0.3922  -0.2226  -0.1845
    -0.1137  -0.0532

     occupation numbers 
     1.0000   1.0000   1.0000   1.0000   1.0000   1.0000   1.0000   1.0000
     1.0000   1.0000   1.0000   1.0000   1.0000   1.0000   1.0000   1.0000
     1.0000   1.0000   1.0000   1.0000   1.0000   1.0000   1.0000   1.0000
     1.0000   1.0000   1.0000   1.0000   1.0000   1.0000   1.0000   1.0000
     1.0000   1.0000   1.0000   1.0000   1.0000   1.0000   1.0000   1.0000
     1.0000   1.0000

          k = 0.0833 0.4167 0.4167 (  8617 PWs)   bands (ev):

   -21.7856 -21.7856 -21.7847 -21.7847 -20.7726 -20.7726 -20.7357 -20.7357
   -20.7348 -20.7348 -11.8380 -11.8379 -11.2542 -11.2513 -11.2460 -11.2453
   -11.2192 -11.2169  -6.3129  -6.3118  -2.8880  -2.8649  -2.7328  -2.7159
    -2.5762  -2.5380  -1.6011  -1.6004  -1.0812  -1.0761  -0.9781  -0.9749
    -0.7314  -0.6940  -0.6003  -0.5852  -0.5228  -0.5134  -0.1883  -0.1510
    -0.0816  -0.0304

     occupation numbers 
     1.0000   1.0000   1.0000   1.0000   1.0000   1.0000   1.0000   1.0000
     1.0000   1.0000   1.0000   1.0000   1.0000   1.0000   1.0000   1.0000
     1.0000   1.0000   1.0000   1.0000   1.0000   1.0000   1.0000   1.0000
     1.0000   1.0000   1.0000   1.0000   1.0000   1.0000   1.0000   1.0000
     1.0000   1.0000   1.0000   1.0000   1.0000   1.0000   1.0000   1.0000
     1.0000   1.0000

          k = 0.2500 0.2500 0.2500 (  8622 PWs)   bands (ev):

   -21.7856 -21.7856 -21.7854 -21.7853 -20.7733 -20.7733 -20.7359 -20.7359
   -20.7347 -20.7347 -11.8606 -11.8606 -11.2409 -11.2409 -11.2263 -11.2263
   -11.2219 -11.2217  -6.3251  -6.3251  -2.7952  -2.7952  -2.7557  -2.7497
    -2.5569  -2.5569  -1.5740  -1.5740  -1.0989  -1.0277  -0.9771  -0.9771
    -0.8657  -0.8657  -0.5505  -0.5191  -0.4305  -0.4305  -0.2017  -0.2017
    -0.0420   0.0021

     occupation numbers 
     1.0000   1.0000   1.0000   1.0000   1.0000   1.0000   1.0000   1.0000
     1.0000   1.0000   1.0000   1.0000   1.0000   1.0000   1.0000   1.0000
     1.0000   1.0000   1.0000   1.0000   1.0000   1.0000   1.0000   1.0000
     1.0000   1.0000   1.0000   1.0000   1.0000   1.0000   1.0000   1.0000
     1.0000   1.0000   1.0000   1.0000   1.0000   1.0000   1.0000   1.0000
     1.0000   1.0000

          k = 0.2500 0.2500 0.4167 (  8612 PWs)   bands (ev):

   -21.7854 -21.7854 -21.7847 -21.7847 -20.7730 -20.7730 -20.7355 -20.7354
   -20.7342 -20.7342 -11.8417 -11.8417 -11.2580 -11.2544 -11.2338 -11.2297
   -11.2231 -11.2224  -6.3240  -6.3229  -2.8470  -2.8169  -2.7722  -2.7625
    -2.5962  -2.5501  -1.6271  -1.6223  -1.0180  -0.9445  -0.9376  -0.8985
    -0.8406  -0.8264  -0.5655  -0.5634  -0.5050  -0.4446  -0.1451  -0.1362
    -0.0711  -0.0162

     occupation numbers 
     1.0000   1.0000   1.0000   1.0000   1.0000   1.0000   1.0000   1.0000
     1.0000   1.0000   1.0000   1.0000   1.0000   1.0000   1.0000   1.0000
     1.0000   1.0000   1.0000   1.0000   1.0000   1.0000   1.0000   1.0000
     1.0000   1.0000   1.0000   1.0000   1.0000   1.0000   1.0000   1.0000
     1.0000   1.0000   1.0000   1.0000   1.0000   1.0000   1.0000   1.0000
     1.0000   1.0000

          k = 0.2500 0.4167 0.4167 (  8618 PWs)   bands (ev):

   -21.7856 -21.7856 -21.7848 -21.7848 -20.7730 -20.7730 -20.7354 -20.7354
   -20.7347 -20.7347 -11.8261 -11.8261 -11.2532 -11.2509 -11.2450 -11.2444
   -11.2315 -11.2297  -6.3326  -6.3321  -2.8666  -2.8533  -2.7973  -2.7913
    -2.5966  -2.5795  -1.6795  -1.6744  -0.9428  -0.9214  -0.8729  -0.8529
    -0.7790  -0.7038  -0.5524  -0.5474  -0.5139  -0.5125  -0.0898  -0.0721
    -0.0365   0.0078

     occupation numbers 
     1.0000   1.0000   1.0000   1.0000   1.0000   1.0000   1.0000   1.0000
     1.0000   1.0000   1.0000   1.0000   1.0000   1.0000   1.0000   1.0000
     1.0000   1.0000   1.0000   1.0000   1.0000   1.0000   1.0000   1.0000
     1.0000   1.0000   1.0000   1.0000   1.0000   1.0000   1.0000   1.0000
     1.0000   1.0000   1.0000   1.0000   1.0000   1.0000   1.0000   1.0000
     1.0000   1.0000

          k = 0.4167 0.4167 0.4167 (  8597 PWs)   bands (ev):

   -21.7846 -21.7846 -21.7842 -21.7841 -20.7721 -20.7721 -20.7347 -20.7346
   -20.7339 -20.7339 -11.8136 -11.8136 -11.2523 -11.2523 -11.2444 -11.2444
   -11.2421 -11.2420  -6.3518  -6.3518  -2.8589  -2.8589  -2.8530  -2.8519
    -2.6136  -2.6136  -1.7112  -1.7112  -0.8276  -0.8276  -0.8000  -0.7880
    -0.7052  -0.7052  -0.5293  -0.5113  -0.5113  -0.5084   0.0084   0.0084
     0.0116   0.0456

     occupation numbers 
     1.0000   1.0000   1.0000   1.0000   1.0000   1.0000   1.0000   1.0000
     1.0000   1.0000   1.0000   1.0000   1.0000   1.0000   1.0000   1.0000
     1.0000   1.0000   1.0000   1.0000   1.0000   1.0000   1.0000   1.0000
     1.0000   1.0000   1.0000   1.0000   1.0000   1.0000   1.0000   1.0000
     1.0000   1.0000   1.0000   1.0000   1.0000   1.0000   1.0000   1.0000
     1.0000   1.0000

     highest occupied level (ev):     0.0456

!    total energy              =   -1933.71939411 Ry
     Harris-Foulkes estimate   =   -1933.71939426 Ry
     estimated scf accuracy    <       0.00000019 Ry

     total all-electron energy =    -69281.836658 Ry

     The total energy is the sum of the following terms:

     one-electron contribution =    -155.31421878 Ry
     hartree contribution      =      94.81221791 Ry
     xc contribution           =    -110.24735959 Ry
     ewald contribution        =    -119.43299746 Ry
     one-center paw contrib.   =   -1643.53703620 Ry
      -> PAW hartree energy AE =     110.36240067 Ry
      -> PAW hartree energy PS =    -109.60918518 Ry
      -> PAW xc energy AE      =    -324.43994957 Ry
      -> PAW xc energy PS      =      46.81286325 Ry
      -> total E_H with PAW    =      95.56543340 Ry
      -> total E_XC with PAW   =    -387.87444592 Ry

     convergence has been achieved in   9 iterations

     Forces acting on atoms (cartesian axes, Ry/au):

     atom    1 type  1   force =     0.00000000    0.00000000    0.00000000
     atom    2 type  2   force =    -0.00385368    0.00385368    0.00385368
     atom    3 type  2   force =     0.00385368   -0.00385368    0.00385368
     atom    4 type  2   force =     0.00385368    0.00385368   -0.00385368
     atom    5 type  2   force =    -0.00385368   -0.00385368   -0.00385368
     The non-local contrib.  to forces
     atom    1 type  1   force =     0.00000000   -0.00000000    0.00000000
     atom    2 type  2   force =    -0.08598815    0.08598815    0.08598815
     atom    3 type  2   force =     0.08598815   -0.08598815    0.08598815
     atom    4 type  2   force =     0.08598815    0.08598815   -0.08598815
     atom    5 type  2   force =    -0.08598815   -0.08598815   -0.08598815
     The ionic contribution  to forces
     atom    1 type  1   force =     0.00000000    0.00000000   -0.00000000
     atom    2 type  2   force =     3.79412126   -3.79412126   -3.79412126
     atom    3 type  2   force =    -3.79412126    3.79412126   -3.79412126
     atom    4 type  2   force =    -3.79412126   -3.79412126    3.79412126
     atom    5 type  2   force =     3.79412126    3.79412126    3.79412126
     The local contribution  to forces
     atom    1 type  1   force =    -0.00000000   -0.00000000    0.00000000
     atom    2 type  2   force =    -3.71978344    3.71978344    3.71978344
     atom    3 type  2   force =     3.71978344   -3.71978344    3.71978344
     atom    4 type  2   force =     3.71978344    3.71978344   -3.71978344
     atom    5 type  2   force =    -3.71978344   -3.71978344   -3.71978344
     The core correction contribution to forces
     atom    1 type  1   force =     0.00000000    0.00000000   -0.00000000
     atom    2 type  2   force =     0.00751676   -0.00751676   -0.00751676
     atom    3 type  2   force =    -0.00751676    0.00751676   -0.00751676
     atom    4 type  2   force =    -0.00751676   -0.00751676    0.00751676
     atom    5 type  2   force =     0.00751676    0.00751676    0.00751676
     The Hubbard contrib.    to forces
     atom    1 type  1   force =     0.00000000    0.00000000    0.00000000
     atom    2 type  2   force =     0.00000000    0.00000000    0.00000000
     atom    3 type  2   force =     0.00000000    0.00000000    0.00000000
     atom    4 type  2   force =     0.00000000    0.00000000    0.00000000
     atom    5 type  2   force =     0.00000000    0.00000000    0.00000000
     The SCF correction term to forces
     atom    1 type  1   force =    -0.00000000   -0.00000000    0.00000000
     atom    2 type  2   force =     0.00027989   -0.00027989   -0.00027989
     atom    3 type  2   force =    -0.00027989    0.00027989   -0.00027989
     atom    4 type  2   force =    -0.00027989   -0.00027989    0.00027989
     atom    5 type  2   force =     0.00027989    0.00027989    0.00027989

     Total force =     0.013350     Total SCF correction =     0.000970


     Computing stress (Cartesian axis) and pressure

     Message from routine stres:
     noncollinear stress + GGA not implemented

     Writing output data file SnI2.save/
 
     init_run     :      3.95s CPU      6.46s WALL (       1 calls)
     electrons    :     92.92s CPU    146.86s WALL (       1 calls)
     forces       :      1.50s CPU      2.42s WALL (       1 calls)

     Called by init_run:
     wfcinit      :      2.67s CPU      4.36s WALL (       1 calls)
     wfcinit:atom :      0.03s CPU      0.03s WALL (      10 calls)
     wfcinit:wfcr :      2.60s CPU      4.29s WALL (      10 calls)
     potinit      :      0.33s CPU      0.61s WALL (       1 calls)
     hinit0       :      0.40s CPU      0.73s WALL (       1 calls)

     Called by electrons:
     c_bands      :     69.75s CPU    111.04s WALL (      10 calls)
     sum_band     :     14.40s CPU     22.53s WALL (      10 calls)
     v_of_rho     :      0.41s CPU      0.63s WALL (      10 calls)
     v_h          :      0.01s CPU      0.01s WALL (      10 calls)
     v_xc         :      0.41s CPU      0.62s WALL (      11 calls)
     newd         :      3.39s CPU      4.64s WALL (      10 calls)
     PAW_pot      :      2.46s CPU      3.65s WALL (      10 calls)
     mix_rho      :      0.51s CPU      0.93s WALL (      10 calls)

     Called by c_bands:
     init_us_2    :      0.28s CPU      0.48s WALL (     220 calls)
     cegterg      :     67.01s CPU    107.58s WALL (     100 calls)

     Called by sum_band:
     sum_band:bec :      1.14s CPU      1.46s WALL (     100 calls)
     addusdens    :      1.49s CPU      2.04s WALL (      10 calls)

     Called by *egterg:
     h_psi        :     44.89s CPU     72.06s WALL (     350 calls)
     s_psi        :      0.77s CPU      1.04s WALL (     350 calls)
     g_psi        :      0.03s CPU      0.04s WALL (     240 calls)
     cdiaghg      :      6.57s CPU     11.38s WALL (     330 calls)
     cegterg:over :      6.56s CPU      9.18s WALL (     240 calls)
     cegterg:upda :      6.00s CPU      9.89s WALL (     240 calls)
     cegterg:last :      1.44s CPU      2.45s WALL (     100 calls)
     cdiaghg:chol :      0.28s CPU      0.42s WALL (     330 calls)
     cdiaghg:inve :      0.19s CPU      0.31s WALL (     330 calls)
     cdiaghg:para :      2.01s CPU      3.42s WALL (     660 calls)

     Called by h_psi:
     h_psi:pot    :     44.70s CPU     71.85s WALL (     350 calls)
     h_psi:calbec :      0.87s CPU      1.16s WALL (     350 calls)
     vloc_psi     :     42.92s CPU     69.49s WALL (     350 calls)
     add_vuspsi   :      0.91s CPU      1.20s WALL (     350 calls)

     General routines
     calbec       :      1.85s CPU      2.76s WALL (     490 calls)
     fft          :      2.23s CPU      3.85s WALL (     221 calls)
     ffts         :      0.94s CPU      1.59s WALL (      80 calls)
     fftw         :     51.69s CPU     84.26s WALL (   54168 calls)
     interpolate  :      1.81s CPU      3.26s WALL (      40 calls)
 
     Parallel routines
     fft_scatt_xy :      1.20s CPU      1.72s WALL (   54469 calls)
     fft_scatt_yz :     47.59s CPU     80.12s WALL (   54469 calls)

     PAW routines
     PAW_pot      :      2.46s CPU      3.65s WALL (      10 calls)
     PAW_symme    :      0.07s CPU      0.12s WALL (      20 calls)
 
     PWSCF        :   1m43.88s CPU   2m43.35s WALL

 
   This run was terminated on:  18:55:58  24Jan2021            

=------------------------------------------------------------------------------=
   JOB DONE.
=------------------------------------------------------------------------------=
