
     Program PWSCF v.6.7MaX starts on 14Jan2021 at 15:33:26 

     This program is part of the open-source Quantum ESPRESSO suite
     for quantum simulation of materials; please cite
         "P. Giannozzi et al., J. Phys.:Condens. Matter 21 395502 (2009);
         "P. Giannozzi et al., J. Phys.:Condens. Matter 29 465901 (2017);
          URL http://www.quantum-espresso.org", 
     in publications or presentations arising from this work. More details at
     http://www.quantum-espresso.org/quote

     Parallel version (MPI), running on    19 processors

     MPI processes distributed on     1 nodes
     R & G space division:  proc/nbgrp/npool/nimage =      19
     Waiting for input...
     Reading input from standard input

     Current dimensions of program PWSCF are:
     Max number of different atomic species (ntypx) = 10
     Max number of k-points (npk) =  40000
     Max angular momentum in pseudopotentials (lmaxx) =  3
     file Sn.pbe-dn-kjpaw_psl.1.0.0.UPF: wavefunction(s)  5S 5P 4D renormalized
     file I.pbe-n-kjpaw_psl.1.0.0.UPF: wavefunction(s)  5S renormalized

     Subspace diagonalization in iterative solution of the eigenvalue problem:
     a serial algorithm will be used

     Message from routine setup:
     using ibrav=0 with symmetry is DISCOURAGED, use correct ibrav instead

     Parallelization info
     --------------------
     sticks:   dense  smooth     PW     G-vecs:    dense   smooth      PW
     Min         220     220     59                10744    10744    1508
     Max         221     221     60                10749    10749    1510
     Sum        4197    4197   1129               204205   204205   28671


     Title: 
     SnI4un                                                                     


     bravais-lattice index     =            0
     lattice parameter (alat)  =      13.7130  a.u.
     unit-cell volume          =    2578.6558 (a.u.)^3
     number of atoms/cell      =            5
     number of atomic types    =            2
     number of electrons       =        42.00
     number of Kohn-Sham states=           21
     kinetic-energy cutoff     =      70.0000  Ry
     charge density cutoff     =     280.0000  Ry
     scf convergence threshold =      1.0E-06
     mixing beta               =       0.7000
     number of iterations used =            8  plain     mixing
     Exchange-correlation= SLA  PW   PBX  PBC
                           (   1   4   3   4   0   0   0)

     celldm(1)=  13.712957  celldm(2)=   0.000000  celldm(3)=   0.000000
     celldm(4)=   0.000000  celldm(5)=   0.000000  celldm(6)=   0.000000

     crystal axes: (cart. coord. in units of alat)
               a(1) = (   1.000000   0.000000   0.000000 )  
               a(2) = (   0.000000   1.000000   0.000000 )  
               a(3) = (   0.000000   0.000000   1.000000 )  

     reciprocal axes: (cart. coord. in units 2 pi/alat)
               b(1) = (  1.000000  0.000000  0.000000 )  
               b(2) = (  0.000000  1.000000  0.000000 )  
               b(3) = (  0.000000  0.000000  1.000000 )  


     PseudoPot. # 1 for Sn read from file:
     ../../../pseudo/Sn.pbe-dn-kjpaw_psl.1.0.0.UPF
     MD5 check sum: 67f11dec737d427557dc41ea34975807
     Pseudo is Projector augmented-wave + core cor, Zval = 14.0
     Generated using &quot;atomic&quot; code by A. Dal Corso  v.6.3
     Shape of augmentation charge: PSQ
     Using radial grid of 1243 points,  6 beta functions with: 
                l(1) =   0
                l(2) =   0
                l(3) =   1
                l(4) =   1
                l(5) =   2
                l(6) =   2
     Q(r) pseudized with 0 coefficients 


     PseudoPot. # 2 for I  read from file:
     ../../../pseudo/I.pbe-n-kjpaw_psl.1.0.0.UPF
     MD5 check sum: cd3d296c3308a581e1559a0c8a554cb5
     Pseudo is Projector augmented-wave + core cor, Zval =  7.0
     Generated using &quot;atomic&quot; code by A. Dal Corso  v.6.3
     Shape of augmentation charge: PSQ
     Using radial grid of 1247 points,  6 beta functions with: 
                l(1) =   0
                l(2) =   0
                l(3) =   1
                l(4) =   1
                l(5) =   2
                l(6) =   2
     Q(r) pseudized with 0 coefficients 


     atomic species   valence    mass     pseudopotential
        Sn            14.00   118.70000     Sn( 1.00)
        I              7.00   126.90000     I ( 1.00)

     24 Sym. Ops. (no inversion) found


                                    s                        frac. trans.

      isym =  1     identity                                     

 cryst.   s( 1) = (     1          0          0      )
                  (     0          1          0      )
                  (     0          0          1      )

 cart.    s( 1) = (  1.0000000  0.0000000  0.0000000 )
                  (  0.0000000  1.0000000  0.0000000 )
                  (  0.0000000  0.0000000  1.0000000 )


      isym =  2     180 deg rotation - cart. axis [0,0,1]        

 cryst.   s( 2) = (    -1          0          0      )
                  (     0         -1          0      )
                  (     0          0          1      )

 cart.    s( 2) = ( -1.0000000  0.0000000  0.0000000 )
                  (  0.0000000 -1.0000000  0.0000000 )
                  (  0.0000000  0.0000000  1.0000000 )


      isym =  3     180 deg rotation - cart. axis [0,1,0]        

 cryst.   s( 3) = (    -1          0          0      )
                  (     0          1          0      )
                  (     0          0         -1      )

 cart.    s( 3) = ( -1.0000000  0.0000000  0.0000000 )
                  (  0.0000000  1.0000000  0.0000000 )
                  (  0.0000000  0.0000000 -1.0000000 )


      isym =  4     180 deg rotation - cart. axis [1,0,0]        

 cryst.   s( 4) = (     1          0          0      )
                  (     0         -1          0      )
                  (     0          0         -1      )

 cart.    s( 4) = (  1.0000000  0.0000000  0.0000000 )
                  (  0.0000000 -1.0000000  0.0000000 )
                  (  0.0000000  0.0000000 -1.0000000 )


      isym =  5     120 deg rotation - cart. axis [-1,-1,-1]     

 cryst.   s( 5) = (     0          0          1      )
                  (     1          0          0      )
                  (     0          1          0      )

 cart.    s( 5) = (  0.0000000  1.0000000  0.0000000 )
                  (  0.0000000  0.0000000  1.0000000 )
                  (  1.0000000  0.0000000  0.0000000 )


      isym =  6     120 deg rotation - cart. axis [-1,1,1]       

 cryst.   s( 6) = (     0          0         -1      )
                  (    -1          0          0      )
                  (     0          1          0      )

 cart.    s( 6) = (  0.0000000 -1.0000000  0.0000000 )
                  (  0.0000000  0.0000000  1.0000000 )
                  ( -1.0000000  0.0000000  0.0000000 )


      isym =  7     120 deg rotation - cart. axis [1,1,-1]       

 cryst.   s( 7) = (     0          0         -1      )
                  (     1          0          0      )
                  (     0         -1          0      )

 cart.    s( 7) = (  0.0000000  1.0000000  0.0000000 )
                  (  0.0000000  0.0000000 -1.0000000 )
                  ( -1.0000000  0.0000000  0.0000000 )


      isym =  8     120 deg rotation - cart. axis [1,-1,1]       

 cryst.   s( 8) = (     0          0          1      )
                  (    -1          0          0      )
                  (     0         -1          0      )

 cart.    s( 8) = (  0.0000000 -1.0000000  0.0000000 )
                  (  0.0000000  0.0000000 -1.0000000 )
                  (  1.0000000  0.0000000  0.0000000 )


      isym =  9     120 deg rotation - cart. axis [1,1,1]        

 cryst.   s( 9) = (     0          1          0      )
                  (     0          0          1      )
                  (     1          0          0      )

 cart.    s( 9) = (  0.0000000  0.0000000  1.0000000 )
                  (  1.0000000  0.0000000  0.0000000 )
                  (  0.0000000  1.0000000  0.0000000 )


      isym = 10     120 deg rotation - cart. axis [-1,1,-1]      

 cryst.   s(10) = (     0         -1          0      )
                  (     0          0         -1      )
                  (     1          0          0      )

 cart.    s(10) = (  0.0000000  0.0000000  1.0000000 )
                  ( -1.0000000  0.0000000  0.0000000 )
                  (  0.0000000 -1.0000000  0.0000000 )


      isym = 11     120 deg rotation - cart. axis [1,-1,-1]      

 cryst.   s(11) = (     0         -1          0      )
                  (     0          0          1      )
                  (    -1          0          0      )

 cart.    s(11) = (  0.0000000  0.0000000 -1.0000000 )
                  ( -1.0000000  0.0000000  0.0000000 )
                  (  0.0000000  1.0000000  0.0000000 )


      isym = 12     120 deg rotation - cart. axis [-1,-1,1]      

 cryst.   s(12) = (     0          1          0      )
                  (     0          0         -1      )
                  (    -1          0          0      )

 cart.    s(12) = (  0.0000000  0.0000000 -1.0000000 )
                  (  1.0000000  0.0000000  0.0000000 )
                  (  0.0000000 -1.0000000  0.0000000 )


      isym = 13     inv. 180 deg rotation - cart. axis [1,1,0]   

 cryst.   s(13) = (     0         -1          0      )
                  (    -1          0          0      )
                  (     0          0          1      )

 cart.    s(13) = (  0.0000000 -1.0000000  0.0000000 )
                  ( -1.0000000  0.0000000  0.0000000 )
                  (  0.0000000  0.0000000  1.0000000 )


      isym = 14     inv. 180 deg rotation - cart. axis [1,-1,0]  

 cryst.   s(14) = (     0          1          0      )
                  (     1          0          0      )
                  (     0          0          1      )

 cart.    s(14) = (  0.0000000  1.0000000  0.0000000 )
                  (  1.0000000  0.0000000  0.0000000 )
                  (  0.0000000  0.0000000  1.0000000 )


      isym = 15     inv.  90 deg rotation - cart. axis [0,0,-1]  

 cryst.   s(15) = (     0          1          0      )
                  (    -1          0          0      )
                  (     0          0         -1      )

 cart.    s(15) = (  0.0000000 -1.0000000  0.0000000 )
                  (  1.0000000  0.0000000  0.0000000 )
                  (  0.0000000  0.0000000 -1.0000000 )


      isym = 16     inv.  90 deg rotation - cart. axis [0,0,1]   

 cryst.   s(16) = (     0         -1          0      )
                  (     1          0          0      )
                  (     0          0         -1      )

 cart.    s(16) = (  0.0000000  1.0000000  0.0000000 )
                  ( -1.0000000  0.0000000  0.0000000 )
                  (  0.0000000  0.0000000 -1.0000000 )


      isym = 17     inv. 180 deg rotation - cart. axis [1,0,1]   

 cryst.   s(17) = (     0          0         -1      )
                  (     0          1          0      )
                  (    -1          0          0      )

 cart.    s(17) = (  0.0000000  0.0000000 -1.0000000 )
                  (  0.0000000  1.0000000  0.0000000 )
                  ( -1.0000000  0.0000000  0.0000000 )


      isym = 18     inv. 180 deg rotation - cart. axis [-1,0,1]  

 cryst.   s(18) = (     0          0          1      )
                  (     0          1          0      )
                  (     1          0          0      )

 cart.    s(18) = (  0.0000000  0.0000000  1.0000000 )
                  (  0.0000000  1.0000000  0.0000000 )
                  (  1.0000000  0.0000000  0.0000000 )


      isym = 19     inv.  90 deg rotation - cart. axis [0,1,0]   

 cryst.   s(19) = (     0          0          1      )
                  (     0         -1          0      )
                  (    -1          0          0      )

 cart.    s(19) = (  0.0000000  0.0000000 -1.0000000 )
                  (  0.0000000 -1.0000000  0.0000000 )
                  (  1.0000000  0.0000000  0.0000000 )


      isym = 20     inv.  90 deg rotation - cart. axis [0,-1,0]  

 cryst.   s(20) = (     0          0         -1      )
                  (     0         -1          0      )
                  (     1          0          0      )

 cart.    s(20) = (  0.0000000  0.0000000  1.0000000 )
                  (  0.0000000 -1.0000000  0.0000000 )
                  ( -1.0000000  0.0000000  0.0000000 )


      isym = 21     inv. 180 deg rotation - cart. axis [0,1,1]   

 cryst.   s(21) = (     1          0          0      )
                  (     0          0         -1      )
                  (     0         -1          0      )

 cart.    s(21) = (  1.0000000  0.0000000  0.0000000 )
                  (  0.0000000  0.0000000 -1.0000000 )
                  (  0.0000000 -1.0000000  0.0000000 )


      isym = 22     inv. 180 deg rotation - cart. axis [0,1,-1]  

 cryst.   s(22) = (     1          0          0      )
                  (     0          0          1      )
                  (     0          1          0      )

 cart.    s(22) = (  1.0000000  0.0000000  0.0000000 )
                  (  0.0000000  0.0000000  1.0000000 )
                  (  0.0000000  1.0000000  0.0000000 )


      isym = 23     inv.  90 deg rotation - cart. axis [-1,0,0]  

 cryst.   s(23) = (    -1          0          0      )
                  (     0          0          1      )
                  (     0         -1          0      )

 cart.    s(23) = ( -1.0000000  0.0000000  0.0000000 )
                  (  0.0000000  0.0000000 -1.0000000 )
                  (  0.0000000  1.0000000  0.0000000 )


      isym = 24     inv.  90 deg rotation - cart. axis [1,0,0]   

 cryst.   s(24) = (    -1          0          0      )
                  (     0          0         -1      )
                  (     0          1          0      )

 cart.    s(24) = ( -1.0000000  0.0000000  0.0000000 )
                  (  0.0000000  0.0000000  1.0000000 )
                  (  0.0000000 -1.0000000  0.0000000 )


   Cartesian axes

     site n.     atom                  positions (alat units)
         1           Sn  tau(   1) = (   0.0000000   0.0000000   0.0000000  )
         2           I   tau(   2) = (   0.2339030   0.7660970   0.7660970  )
         3           I   tau(   3) = (   0.7660970   0.2339030   0.7660970  )
         4           I   tau(   4) = (   0.7660970   0.7660970   0.2339030  )
         5           I   tau(   5) = (   0.2339030   0.2339030   0.2339030  )

   Crystallographic axes

     site n.     atom                  positions (cryst. coord.)
         1           Sn  tau(   1) = (  0.0000000  0.0000000  0.0000000  )
         2           I   tau(   2) = (  0.2339030  0.7660970  0.7660970  )
         3           I   tau(   3) = (  0.7660970  0.2339030  0.7660970  )
         4           I   tau(   4) = (  0.7660970  0.7660970  0.2339030  )
         5           I   tau(   5) = (  0.2339030  0.2339030  0.2339030  )

     number of k points=    20
                       cart. coord. in units 2pi/alat
        k(    1) = (   0.0000000   0.0000000   0.0000000), wk =   0.0058309
        k(    2) = (   0.0000000   0.0000000   0.1428571), wk =   0.0349854
        k(    3) = (   0.0000000   0.0000000   0.2857143), wk =   0.0349854
        k(    4) = (   0.0000000   0.0000000   0.4285714), wk =   0.0349854
        k(    5) = (   0.0000000   0.1428571   0.1428571), wk =   0.0699708
        k(    6) = (   0.0000000   0.1428571   0.2857143), wk =   0.1399417
        k(    7) = (   0.0000000   0.1428571   0.4285714), wk =   0.1399417
        k(    8) = (   0.0000000   0.2857143   0.2857143), wk =   0.0699708
        k(    9) = (   0.0000000   0.2857143   0.4285714), wk =   0.1399417
        k(   10) = (   0.0000000   0.4285714   0.4285714), wk =   0.0699708
        k(   11) = (   0.1428571   0.1428571   0.1428571), wk =   0.0466472
        k(   12) = (   0.1428571   0.1428571   0.2857143), wk =   0.1399417
        k(   13) = (   0.1428571   0.1428571   0.4285714), wk =   0.1399417
        k(   14) = (   0.1428571   0.2857143   0.2857143), wk =   0.1399417
        k(   15) = (   0.1428571   0.2857143   0.4285714), wk =   0.2798834
        k(   16) = (   0.1428571   0.4285714   0.4285714), wk =   0.1399417
        k(   17) = (   0.2857143   0.2857143   0.2857143), wk =   0.0466472
        k(   18) = (   0.2857143   0.2857143   0.4285714), wk =   0.1399417
        k(   19) = (   0.2857143   0.4285714   0.4285714), wk =   0.1399417
        k(   20) = (   0.4285714   0.4285714   0.4285714), wk =   0.0466472

                       cryst. coord.
        k(    1) = (   0.0000000   0.0000000   0.0000000), wk =   0.0058309
        k(    2) = (   0.0000000   0.0000000   0.1428571), wk =   0.0349854
        k(    3) = (   0.0000000   0.0000000   0.2857143), wk =   0.0349854
        k(    4) = (   0.0000000   0.0000000   0.4285714), wk =   0.0349854
        k(    5) = (   0.0000000   0.1428571   0.1428571), wk =   0.0699708
        k(    6) = (   0.0000000   0.1428571   0.2857143), wk =   0.1399417
        k(    7) = (   0.0000000   0.1428571   0.4285714), wk =   0.1399417
        k(    8) = (   0.0000000   0.2857143   0.2857143), wk =   0.0699708
        k(    9) = (   0.0000000   0.2857143   0.4285714), wk =   0.1399417
        k(   10) = (   0.0000000   0.4285714   0.4285714), wk =   0.0699708
        k(   11) = (   0.1428571   0.1428571   0.1428571), wk =   0.0466472
        k(   12) = (   0.1428571   0.1428571   0.2857143), wk =   0.1399417
        k(   13) = (   0.1428571   0.1428571   0.4285714), wk =   0.1399417
        k(   14) = (   0.1428571   0.2857143   0.2857143), wk =   0.1399417
        k(   15) = (   0.1428571   0.2857143   0.4285714), wk =   0.2798834
        k(   16) = (   0.1428571   0.4285714   0.4285714), wk =   0.1399417
        k(   17) = (   0.2857143   0.2857143   0.2857143), wk =   0.0466472
        k(   18) = (   0.2857143   0.2857143   0.4285714), wk =   0.1399417
        k(   19) = (   0.2857143   0.4285714   0.4285714), wk =   0.1399417
        k(   20) = (   0.4285714   0.4285714   0.4285714), wk =   0.0466472

     Dense  grid:   204205 G-vectors     FFT dimensions: (  75,  75,  75)

     Dynamical RAM for                 wfc:       0.43 MB

     Dynamical RAM for     wfc (w. buffer):       9.03 MB

     Dynamical RAM for           str. fact:       0.33 MB

     Dynamical RAM for           local pot:       0.00 MB

     Dynamical RAM for          nlocal pot:       1.84 MB

     Dynamical RAM for                qrad:       2.69 MB

     Dynamical RAM for          rho,v,vnew:       1.01 MB

     Dynamical RAM for               rhoin:       0.34 MB

     Dynamical RAM for            rho*nmix:       2.62 MB

     Dynamical RAM for           G-vectors:       0.70 MB

     Dynamical RAM for          h,s,v(r/c):       0.08 MB

     Dynamical RAM for          <psi|beta>:       0.03 MB

     Dynamical RAM for                 psi:       0.86 MB

     Dynamical RAM for                hpsi:       0.86 MB

     Dynamical RAM for                spsi:       0.86 MB

     Dynamical RAM for      wfcinit/wfcrot:       1.04 MB

     Dynamical RAM for           addusdens:      31.16 MB

     Dynamical RAM for          addusforce:      32.24 MB

     Dynamical RAM for         addusstress:      32.97 MB

     Estimated static dynamical RAM per process >      19.90 MB

     Estimated max dynamical RAM per process >      52.87 MB

     Estimated total dynamical RAM >    1004.53 MB

     Initial potential from superposition of free atoms

     starting charge   41.99831, renormalised to   42.00000
     Starting wfcs are   25 randomized atomic wfcs
     Checking if some PAW data can be deallocated... 
       PAW data deallocated on   15 nodes for type:  1
       PAW data deallocated on    4 nodes for type:  2

     total cpu time spent up to now is       18.6 secs

     Self-consistent Calculation

     iteration #  1     ecut=    70.00 Ry     beta= 0.70
     Davidson diagonalization with overlap
     ethr =  1.00E-02,  avg # of iterations =  1.0

     Threshold (ethr) on eigenvalues was too large:
     Diagonalizing with lowered threshold

     Davidson diagonalization with overlap
     ethr =  5.04E-04,  avg # of iterations =  2.0

     total cpu time spent up to now is       31.7 secs

     total energy              =   -1957.70924365 Ry
     estimated scf accuracy    <       0.18673360 Ry

     iteration #  2     ecut=    70.00 Ry     beta= 0.70
     Davidson diagonalization with overlap
     ethr =  4.45E-04,  avg # of iterations =  3.8

     total cpu time spent up to now is       39.5 secs

     total energy              =   -1957.74146169 Ry
     estimated scf accuracy    <       0.25168334 Ry

     iteration #  3     ecut=    70.00 Ry     beta= 0.70
     Davidson diagonalization with overlap
     ethr =  4.45E-04,  avg # of iterations =  4.0

     total cpu time spent up to now is       46.5 secs

     total energy              =   -1957.78882263 Ry
     estimated scf accuracy    <       0.00179270 Ry

     iteration #  4     ecut=    70.00 Ry     beta= 0.70
     Davidson diagonalization with overlap
     ethr =  4.27E-06,  avg # of iterations =  5.6

     total cpu time spent up to now is       54.6 secs

     total energy              =   -1957.78978276 Ry
     estimated scf accuracy    <       0.00082173 Ry

     iteration #  5     ecut=    70.00 Ry     beta= 0.70
     Davidson diagonalization with overlap
     ethr =  1.96E-06,  avg # of iterations =  2.1

     total cpu time spent up to now is       60.1 secs

     total energy              =   -1957.78983497 Ry
     estimated scf accuracy    <       0.00009194 Ry

     iteration #  6     ecut=    70.00 Ry     beta= 0.70
     Davidson diagonalization with overlap
     ethr =  2.19E-07,  avg # of iterations =  5.0

     total cpu time spent up to now is       68.2 secs

     total energy              =   -1957.78988459 Ry
     estimated scf accuracy    <       0.00003184 Ry

     iteration #  7     ecut=    70.00 Ry     beta= 0.70
     Davidson diagonalization with overlap
     ethr =  7.58E-08,  avg # of iterations =  1.9

     total cpu time spent up to now is       73.9 secs

     total energy              =   -1957.78988077 Ry
     estimated scf accuracy    <       0.00000944 Ry

     iteration #  8     ecut=    70.00 Ry     beta= 0.70
     Davidson diagonalization with overlap
     ethr =  2.25E-08,  avg # of iterations =  5.0

     total cpu time spent up to now is       81.9 secs

     total energy              =   -1957.78988557 Ry
     estimated scf accuracy    <       0.00000505 Ry

     iteration #  9     ecut=    70.00 Ry     beta= 0.70
     Davidson diagonalization with overlap
     ethr =  1.20E-08,  avg # of iterations =  2.0

     total cpu time spent up to now is       87.6 secs

     total energy              =   -1957.78988524 Ry
     estimated scf accuracy    <       0.00000170 Ry

     iteration # 10     ecut=    70.00 Ry     beta= 0.70
     Davidson diagonalization with overlap
     ethr =  4.05E-09,  avg # of iterations =  4.4

     total cpu time spent up to now is       94.5 secs

     End of self-consistent calculation

          k = 0.0000 0.0000 0.0000 ( 25533 PWs)   bands (ev):

   -22.8868 -22.8868 -22.8868 -22.8681 -22.8681 -12.7139 -12.3720 -12.3720
   -12.3720  -7.5665  -3.4774  -3.4774  -3.4774  -2.3456  -2.3456  -1.8104
    -1.8104  -1.8104  -1.7262  -1.7262  -1.7262

     occupation numbers 
     1.0000   1.0000   1.0000   1.0000   1.0000   1.0000   1.0000   1.0000
     1.0000   1.0000   1.0000   1.0000   1.0000   1.0000   1.0000   1.0000
     1.0000   1.0000   1.0000   1.0000   1.0000

          k = 0.0000 0.0000 0.1429 ( 25469 PWs)   bands (ev):

   -22.8868 -22.8868 -22.8868 -22.8681 -22.8680 -12.7093 -12.3775 -12.3720
   -12.3720  -7.5637  -3.4940  -3.4796  -3.4796  -2.3263  -2.3214  -1.8357
    -1.8212  -1.8212  -1.7732  -1.7201  -1.7201

     occupation numbers 
     1.0000   1.0000   1.0000   1.0000   1.0000   1.0000   1.0000   1.0000
     1.0000   1.0000   1.0000   1.0000   1.0000   1.0000   1.0000   1.0000
     1.0000   1.0000   1.0000   1.0000   1.0000

          k = 0.0000 0.0000 0.2857 ( 25500 PWs)   bands (ev):

   -22.8868 -22.8868 -22.8868 -22.8681 -22.8681 -12.6982 -12.3904 -12.3718
   -12.3718  -7.5573  -3.5303  -3.4847  -3.4847  -2.2741  -2.2536  -1.9015
    -1.8855  -1.8394  -1.8394  -1.7124  -1.7124

     occupation numbers 
     1.0000   1.0000   1.0000   1.0000   1.0000   1.0000   1.0000   1.0000
     1.0000   1.0000   1.0000   1.0000   1.0000   1.0000   1.0000   1.0000
     1.0000   1.0000   1.0000   1.0000   1.0000

          k = 0.0000 0.0000 0.4286 ( 25504 PWs)   bands (ev):

   -22.8868 -22.8868 -22.8868 -22.8681 -22.8681 -12.6886 -12.4014 -12.3716
   -12.3716  -7.5522  -3.5583  -3.4888  -3.4888  -2.2136  -2.1535  -2.0168
    -1.9727  -1.8503  -1.8503  -1.7099  -1.7099

     occupation numbers 
     1.0000   1.0000   1.0000   1.0000   1.0000   1.0000   1.0000   1.0000
     1.0000   1.0000   1.0000   1.0000   1.0000   1.0000   1.0000   1.0000
     1.0000   1.0000   1.0000   1.0000   1.0000

          k = 0.0000 0.1429 0.1429 ( 25496 PWs)   bands (ev):

   -22.8868 -22.8868 -22.8868 -22.8681 -22.8681 -12.7048 -12.3784 -12.3759
   -12.3721  -7.5614  -3.5114  -3.4818  -3.4797  -2.3044  -2.3038  -1.8735
    -1.8247  -1.8246  -1.8067  -1.7254  -1.7011

     occupation numbers 
     1.0000   1.0000   1.0000   1.0000   1.0000   1.0000   1.0000   1.0000
     1.0000   1.0000   1.0000   1.0000   1.0000   1.0000   1.0000   1.0000
     1.0000   1.0000   1.0000   1.0000   1.0000

          k = 0.0000 0.1429 0.2857 ( 25518 PWs)   bands (ev):

   -22.8868 -22.8868 -22.8868 -22.8681 -22.8681 -12.6943 -12.3897 -12.3761
   -12.3724  -7.5563  -3.5455  -3.4865  -3.4840  -2.2566  -2.2436  -1.9467
    -1.9076  -1.8302  -1.8172  -1.7267  -1.6901

     occupation numbers 
     1.0000   1.0000   1.0000   1.0000   1.0000   1.0000   1.0000   1.0000
     1.0000   1.0000   1.0000   1.0000   1.0000   1.0000   1.0000   1.0000
     1.0000   1.0000   1.0000   1.0000   1.0000

          k = 0.0000 0.1429 0.4286 ( 25491 PWs)   bands (ev):

   -22.8868 -22.8868 -22.8868 -22.8681 -22.8681 -12.6852 -12.4001 -12.3755
   -12.3728  -7.5522  -3.5713  -3.4898  -3.4885  -2.2006  -2.1596  -2.0468
    -1.9746  -1.8339  -1.8324  -1.7233  -1.6897

     occupation numbers 
     1.0000   1.0000   1.0000   1.0000   1.0000   1.0000   1.0000   1.0000
     1.0000   1.0000   1.0000   1.0000   1.0000   1.0000   1.0000   1.0000
     1.0000   1.0000   1.0000   1.0000   1.0000

          k = 0.0000 0.2857 0.2857 ( 25472 PWs)   bands (ev):

   -22.8868 -22.8868 -22.8868 -22.8681 -22.8680 -12.6850 -12.3897 -12.3846
   -12.3741  -7.5540  -3.5759  -3.4899  -3.4858  -2.2293  -2.1981  -2.0312
    -1.9378  -1.8155  -1.7942  -1.7549  -1.6601

     occupation numbers 
     1.0000   1.0000   1.0000   1.0000   1.0000   1.0000   1.0000   1.0000
     1.0000   1.0000   1.0000   1.0000   1.0000   1.0000   1.0000   1.0000
     1.0000   1.0000   1.0000   1.0000   1.0000

          k = 0.0000 0.2857 0.4286 ( 25508 PWs)   bands (ev):

   -22.8868 -22.8868 -22.8868 -22.8681 -22.8681 -12.6771 -12.3966 -12.3844
   -12.3760  -7.5522  -3.5983  -3.4915  -3.4894  -2.1929  -2.1577  -2.0911
    -1.9725  -1.8079  -1.8012  -1.7543  -1.6473

     occupation numbers 
     1.0000   1.0000   1.0000   1.0000   1.0000   1.0000   1.0000   1.0000
     1.0000   1.0000   1.0000   1.0000   1.0000   1.0000   1.0000   1.0000
     1.0000   1.0000   1.0000   1.0000   1.0000

          k = 0.0000 0.4286 0.4286 ( 25528 PWs)   bands (ev):

   -22.8868 -22.8868 -22.8868 -22.8681 -22.8681 -12.6703 -12.3930 -12.3916
   -12.3797  -7.5522  -3.6186  -3.4923  -3.4913  -2.1941  -2.1769  -2.0829
    -1.9774  -1.7880  -1.7814  -1.7773  -1.6179

     occupation numbers 
     1.0000   1.0000   1.0000   1.0000   1.0000   1.0000   1.0000   1.0000
     1.0000   1.0000   1.0000   1.0000   1.0000   1.0000   1.0000   1.0000
     1.0000   1.0000   1.0000   1.0000   1.0000

          k = 0.1429 0.1429 0.1429 ( 25506 PWs)   bands (ev):

   -22.8868 -22.8868 -22.8868 -22.8681 -22.8681 -12.7006 -12.3795 -12.3758
   -12.3758  -7.5597  -3.5233  -3.4841  -3.4841  -2.2866  -2.2866  -1.8770
    -1.8666  -1.8666  -1.7792  -1.7074  -1.7074

     occupation numbers 
     1.0000   1.0000   1.0000   1.0000   1.0000   1.0000   1.0000   1.0000
     1.0000   1.0000   1.0000   1.0000   1.0000   1.0000   1.0000   1.0000
     1.0000   1.0000   1.0000   1.0000   1.0000

          k = 0.1429 0.1429 0.2857 ( 25512 PWs)   bands (ev):

   -22.8868 -22.8868 -22.8868 -22.8681 -22.8681 -12.6906 -12.3893 -12.3773
   -12.3757  -7.5559  -3.5521  -3.4938  -3.4862  -2.2416  -2.2378  -1.9722
    -1.9195  -1.8520  -1.7806  -1.7062  -1.6984

     occupation numbers 
     1.0000   1.0000   1.0000   1.0000   1.0000   1.0000   1.0000   1.0000
     1.0000   1.0000   1.0000   1.0000   1.0000   1.0000   1.0000   1.0000
     1.0000   1.0000   1.0000   1.0000   1.0000

          k = 0.1429 0.1429 0.4286 ( 25510 PWs)   bands (ev):

   -22.8868 -22.8868 -22.8868 -22.8681 -22.8681 -12.6820 -12.3989 -12.3773
   -12.3755  -7.5528  -3.5751  -3.5015  -3.4868  -2.1933  -2.1686  -2.0683
    -1.9656  -1.8384  -1.7978  -1.7041  -1.6979

     occupation numbers 
     1.0000   1.0000   1.0000   1.0000   1.0000   1.0000   1.0000   1.0000
     1.0000   1.0000   1.0000   1.0000   1.0000   1.0000   1.0000   1.0000
     1.0000   1.0000   1.0000   1.0000   1.0000

          k = 0.1429 0.2857 0.2857 ( 25495 PWs)   bands (ev):

   -22.8868 -22.8868 -22.8868 -22.8681 -22.8681 -12.6819 -12.3897 -12.3845
   -12.3774  -7.5549  -3.5721  -3.4999  -3.4949  -2.2213  -2.2031  -2.0491
    -1.9224  -1.8431  -1.7528  -1.7267  -1.6695

     occupation numbers 
     1.0000   1.0000   1.0000   1.0000   1.0000   1.0000   1.0000   1.0000
     1.0000   1.0000   1.0000   1.0000   1.0000   1.0000   1.0000   1.0000
     1.0000   1.0000   1.0000   1.0000   1.0000

          k = 0.1429 0.2857 0.4286 ( 25510 PWs)   bands (ev):

   -22.8868 -22.8868 -22.8868 -22.8681 -22.8681 -12.6745 -12.3959 -12.3850
   -12.3787  -7.5541  -3.5906  -3.5074  -3.4957  -2.1921  -2.1726  -2.1123
    -1.9353  -1.8162  -1.7638  -1.7278  -1.6549

     occupation numbers 
     1.0000   1.0000   1.0000   1.0000   1.0000   1.0000   1.0000   1.0000
     1.0000   1.0000   1.0000   1.0000   1.0000   1.0000   1.0000   1.0000
     1.0000   1.0000   1.0000   1.0000   1.0000

          k = 0.1429 0.4286 0.4286 ( 25529 PWs)   bands (ev):

   -22.8868 -22.8868 -22.8868 -22.8681 -22.8681 -12.6681 -12.3929 -12.3914
   -12.3818  -7.5552  -3.6069  -3.5056  -3.5043  -2.1949  -2.1825  -2.1292
    -1.9127  -1.7843  -1.7519  -1.7501  -1.6230

     occupation numbers 
     1.0000   1.0000   1.0000   1.0000   1.0000   1.0000   1.0000   1.0000
     1.0000   1.0000   1.0000   1.0000   1.0000   1.0000   1.0000   1.0000
     1.0000   1.0000   1.0000   1.0000   1.0000

          k = 0.2857 0.2857 0.2857 ( 25524 PWs)   bands (ev):

   -22.8868 -22.8868 -22.8868 -22.8681 -22.8681 -12.6745 -12.3906 -12.3843
   -12.3843  -7.5569  -3.5700  -3.5148  -3.5148  -2.2034  -2.2034  -2.1050
    -1.8598  -1.8598  -1.7069  -1.6893  -1.6893

     occupation numbers 
     1.0000   1.0000   1.0000   1.0000   1.0000   1.0000   1.0000   1.0000
     1.0000   1.0000   1.0000   1.0000   1.0000   1.0000   1.0000   1.0000
     1.0000   1.0000   1.0000   1.0000   1.0000

          k = 0.2857 0.2857 0.4286 ( 25484 PWs)   bands (ev):

   -22.8868 -22.8868 -22.8868 -22.8681 -22.8680 -12.6683 -12.3943 -12.3872
   -12.3841  -7.5584  -3.5781  -3.5304  -3.5160  -2.1917  -2.1888  -2.1522
    -1.8622  -1.8037  -1.7168  -1.6782  -1.6702

     occupation numbers 
     1.0000   1.0000   1.0000   1.0000   1.0000   1.0000   1.0000   1.0000
     1.0000   1.0000   1.0000   1.0000   1.0000   1.0000   1.0000   1.0000
     1.0000   1.0000   1.0000   1.0000   1.0000

          k = 0.2857 0.4286 0.4286 ( 25476 PWs)   bands (ev):

   -22.8868 -22.8868 -22.8868 -22.8681 -22.8681 -12.6631 -12.3927 -12.3912
   -12.3868  -7.5618  -3.5814  -3.5343  -3.5323  -2.1958  -2.1914  -2.1756
    -1.8199  -1.7720  -1.6928  -1.6925  -1.6360

     occupation numbers 
     1.0000   1.0000   1.0000   1.0000   1.0000   1.0000   1.0000   1.0000
     1.0000   1.0000   1.0000   1.0000   1.0000   1.0000   1.0000   1.0000
     1.0000   1.0000   1.0000   1.0000   1.0000

          k = 0.4286 0.4286 0.4286 ( 25500 PWs)   bands (ev):

   -22.8868 -22.8868 -22.8868 -22.8681 -22.8681 -12.6590 -12.3924 -12.3910
   -12.3910  -7.5671  -3.5637  -3.5539  -3.5539  -2.1959  -2.1959  -2.1936
    -1.7599  -1.7599  -1.6501  -1.6501  -1.6467

     occupation numbers 
     1.0000   1.0000   1.0000   1.0000   1.0000   1.0000   1.0000   1.0000
     1.0000   1.0000   1.0000   1.0000   1.0000   1.0000   1.0000   1.0000
     1.0000   1.0000   1.0000   1.0000   1.0000

     highest occupied level (ev):    -1.6179

!    total energy              =   -1957.78988546 Ry

     total all-electron energy =    -69286.407447 Ry
     estimated scf accuracy    <       0.00000006 Ry

     The total energy is the sum of the following terms:
     one-electron contribution =    -170.17890118 Ry
     hartree contribution      =      99.93884601 Ry
     xc contribution           =    -110.66938944 Ry
     ewald contribution        =    -110.04903772 Ry
     one-center paw contrib.   =   -1666.83140314 Ry
      -> PAW hartree energy AE =     107.49838695 Ry
      -> PAW hartree energy PS =    -106.73605941 Ry
      -> PAW xc energy AE      =    -328.88625599 Ry
      -> PAW xc energy PS      =      47.18909517 Ry
      -> total E_H with PAW    =     100.70117356 Ry
      -> total E_XC with PAW   =    -392.36655026 Ry

     convergence has been achieved in  10 iterations

     Forces acting on atoms (cartesian axes, Ry/au):

     atom    1 type  1   force =     0.00000000    0.00000000    0.00000000
     atom    2 type  2   force =    -0.02921692    0.02921692    0.02921692
     atom    3 type  2   force =     0.02921692   -0.02921692    0.02921692
     atom    4 type  2   force =     0.02921692    0.02921692   -0.02921692
     atom    5 type  2   force =    -0.02921692   -0.02921692   -0.02921692
     The non-local contrib.  to forces
     atom    1 type  1   force =     0.00000000    0.00000000    0.00000000
     atom    2 type  2   force =    -0.09377468    0.09377468    0.09377468
     atom    3 type  2   force =     0.09377468   -0.09377468    0.09377468
     atom    4 type  2   force =     0.09377468    0.09377468   -0.09377468
     atom    5 type  2   force =    -0.09377468   -0.09377468   -0.09377468
     The ionic contribution  to forces
     atom    1 type  1   force =    -0.00000000   -0.00000000   -0.00000000
     atom    2 type  2   force =     3.22132870   -3.22132870   -3.22132870
     atom    3 type  2   force =    -3.22132870    3.22132870   -3.22132870
     atom    4 type  2   force =    -3.22132870   -3.22132870    3.22132870
     atom    5 type  2   force =     3.22132870    3.22132870    3.22132870
     The local contribution  to forces
     atom    1 type  1   force =     0.00000000    0.00000000    0.00000000
     atom    2 type  2   force =    -3.16921459    3.16921459    3.16921459
     atom    3 type  2   force =     3.16921459   -3.16921459    3.16921459
     atom    4 type  2   force =     3.16921459    3.16921459   -3.16921459
     atom    5 type  2   force =    -3.16921459   -3.16921459   -3.16921459
     The core correction contribution to forces
     atom    1 type  1   force =     0.00000000    0.00000000    0.00000000
     atom    2 type  2   force =     0.01256467   -0.01256467   -0.01256467
     atom    3 type  2   force =    -0.01256467    0.01256467   -0.01256467
     atom    4 type  2   force =    -0.01256467   -0.01256467    0.01256467
     atom    5 type  2   force =     0.01256467    0.01256467    0.01256467
     The Hubbard contrib.    to forces
     atom    1 type  1   force =     0.00000000    0.00000000    0.00000000
     atom    2 type  2   force =     0.00000000    0.00000000    0.00000000
     atom    3 type  2   force =     0.00000000    0.00000000    0.00000000
     atom    4 type  2   force =     0.00000000    0.00000000    0.00000000
     atom    5 type  2   force =     0.00000000    0.00000000    0.00000000
     The SCF correction term to forces
     atom    1 type  1   force =     0.00000000    0.00000000   -0.00000000
     atom    2 type  2   force =    -0.00012103    0.00012103    0.00012103
     atom    3 type  2   force =     0.00012103   -0.00012103    0.00012103
     atom    4 type  2   force =     0.00012103    0.00012103   -0.00012103
     atom    5 type  2   force =    -0.00012103   -0.00012103   -0.00012103

     Total force =     0.101210     Total SCF correction =     0.000419


     Computing stress (Cartesian axis) and pressure

          total   stress  (Ry/bohr**3)                   (kbar)     P=      -22.12
  -0.00015035   0.00000000   0.00000000          -22.12        0.00        0.00
   0.00000000  -0.00015035   0.00000000            0.00      -22.12        0.00
   0.00000000   0.00000000  -0.00015035            0.00        0.00      -22.12

     kinetic stress (kbar)   3113.46      0.00      0.00
                                0.00   3113.46      0.00
                                0.00      0.00   3113.46

     local   stress (kbar)  -2527.92     -0.00     -0.00
                               -0.00  -2527.92     -0.00
                               -0.00     -0.00  -2527.92

     nonloc. stress (kbar)    610.75      0.00      0.00
                                0.00    610.75      0.00
                                0.00      0.00    610.75

     hartree stress (kbar)   1900.41      0.00     -0.00
                                0.00   1900.41      0.00
                               -0.00      0.00   1900.41

     exc-cor stress (kbar)   3211.78      0.00      0.00
                                0.00   3211.78      0.00
                                0.00      0.00   3211.78

     corecor stress (kbar)  -4237.93     -0.00     -0.00
                               -0.00  -4237.93     -0.00
                               -0.00     -0.00  -4237.93

     ewald   stress (kbar)  -2092.66      0.00     -0.00
                                0.00  -2092.66     -0.00
                               -0.00     -0.00  -2092.66

     hubbard stress (kbar)      0.00      0.00      0.00
                                0.00      0.00      0.00
                                0.00      0.00      0.00

     DFT-D   stress (kbar)      0.00      0.00      0.00
                                0.00      0.00      0.00
                                0.00      0.00      0.00

     XDM     stress (kbar)      0.00      0.00      0.00
                                0.00      0.00      0.00
                                0.00      0.00      0.00

     dft-nl  stress (kbar)      0.00      0.00      0.00
                                0.00      0.00      0.00
                                0.00      0.00      0.00

     TS-vdW  stress (kbar)      0.00      0.00      0.00
                                0.00      0.00      0.00
                                0.00      0.00      0.00



     Writing output data file ./out/SnI4un.save/

     init_run     :      3.49s CPU      8.87s WALL (       1 calls)
     electrons    :     69.87s CPU     76.93s WALL (       1 calls)
     forces       :      1.35s CPU      2.17s WALL (       1 calls)
     stress       :      2.92s CPU      3.97s WALL (       1 calls)

     Called by init_run:
     wfcinit      :      2.22s CPU      4.03s WALL (       1 calls)
     wfcinit:atom :      0.02s CPU      0.02s WALL (      20 calls)
     wfcinit:wfcr :      2.07s CPU      3.25s WALL (      20 calls)
     potinit      :      0.41s CPU      1.90s WALL (       1 calls)
     hinit0       :      0.32s CPU      0.73s WALL (       1 calls)

     Called by electrons:
     c_bands      :     56.16s CPU     60.47s WALL (      11 calls)
     sum_band     :      9.91s CPU     10.07s WALL (      11 calls)
     v_of_rho     :      0.50s CPU      1.28s WALL (      11 calls)
     v_h          :      0.04s CPU      0.04s WALL (      11 calls)
     v_xc         :      0.54s CPU      1.05s WALL (      13 calls)
     newd         :      1.57s CPU      1.81s WALL (      11 calls)
     PAW_pot      :      1.64s CPU      2.14s WALL (      11 calls)
     mix_rho      :      0.09s CPU      0.36s WALL (      11 calls)

     Called by c_bands:
     init_us_2    :      0.85s CPU      0.90s WALL (     500 calls)
     cegterg      :     53.53s CPU     54.25s WALL (     220 calls)

     Called by sum_band:
     sum_band:wei :      0.00s CPU      0.02s WALL (      11 calls)
     sum_band:loo :      8.28s CPU      8.37s WALL (      11 calls)
     sum_band:buf :      0.06s CPU      0.07s WALL (     220 calls)
     sum_band:ini :      0.37s CPU      0.38s WALL (     220 calls)
     sum_band:cal :      2.04s CPU      2.04s WALL (     220 calls)
     sum_band:bec :      0.02s CPU      0.02s WALL (     220 calls)
     addusdens    :      1.51s CPU      1.54s WALL (      11 calls)
     addusd:skk   :      0.01s CPU      0.01s WALL (      22 calls)
     addusd:dgemm :      0.56s CPU      0.57s WALL (      22 calls)
     addusd:qvan2 :      0.76s CPU      0.77s WALL (      22 calls)

     Called by *egterg:
     cdiaghg      :      0.78s CPU      0.78s WALL (     934 calls)
     cegterg:over :      2.90s CPU      2.91s WALL (     734 calls)
     cegterg:upda :      1.41s CPU      1.48s WALL (     734 calls)
     cegterg:last :      3.65s CPU      3.67s WALL (     496 calls)
     h_psi        :     40.20s CPU     41.22s WALL (     974 calls)
     s_psi        :      4.86s CPU      4.93s WALL (     974 calls)
     g_psi        :      0.13s CPU      0.13s WALL (     734 calls)

     Called by h_psi:
     h_psi:calbec :      6.06s CPU      6.34s WALL (     974 calls)
     vloc_psi     :     29.21s CPU     29.59s WALL (     974 calls)
     add_vuspsi   :      4.79s CPU      4.91s WALL (     974 calls)

     General routines
     calbec       :      9.06s CPU      9.09s WALL (    1294 calls)
     fft          :      0.38s CPU      0.42s WALL (     147 calls)
     ffts         :      0.02s CPU      0.02s WALL (      11 calls)
     fftw         :     32.94s CPU     33.36s WALL (   30004 calls)

     Parallel routines
     fft_scatt_xy :      2.77s CPU      2.81s WALL (   30162 calls)
     fft_scatt_yz :      5.48s CPU      5.59s WALL (   30162 calls)

     PAW routines
     PAW_pot      :      1.64s CPU      2.14s WALL (      11 calls)
     PAW_symme    :      0.04s CPU      0.04s WALL (      22 calls)

     PWSCF        :   1m18.66s CPU   1m45.78s WALL


   This run was terminated on:  15:35:12  14Jan2021            

=------------------------------------------------------------------------------=
   JOB DONE.
=------------------------------------------------------------------------------=
