
     Program PWSCF v.6.4.1 starts on 23Jan2021 at 10:34:20 

     This program is part of the open-source Quantum ESPRESSO suite
     for quantum simulation of materials; please cite
         "P. Giannozzi et al., J. Phys.:Condens. Matter 21 395502 (2009);
         "P. Giannozzi et al., J. Phys.:Condens. Matter 29 465901 (2017);
          URL http://www.quantum-espresso.org", 
     in publications or presentations arising from this work. More details at
     http://www.quantum-espresso.org/quote

     Parallel version (MPI & OpenMP), running on      48 processor cores
     Number of MPI processes:                24
     Threads/MPI process:                     2

     MPI processes distributed on     1 nodes
     R & G space division:  proc/nbgrp/npool/nimage =      24
     Waiting for input...
     Reading input from standard input

     Current dimensions of program PWSCF are:
     Max number of different atomic species (ntypx) = 10
     Max number of k-points (npk) =  40000
     Max angular momentum in pseudopotentials (lmaxx) =  3
               file Cs.rel-pbesol-spn-kjpaw_psl.1.0.0.UPF: wavefunction(s)  5S 6S renormalized
               file Sn.rel-pbesol-dn-kjpaw_psl.1.0.0.UPF: wavefunction(s)  5S 5P 5P 4D 4D renormalized
               file I.rel-pbesol-n-kjpaw_psl.1.0.0.UPF: wavefunction(s)  5S renormalized

     Subspace diagonalization in iterative solution of the eigenvalue problem:
     one sub-group per band group will be used
     scalapack distributed-memory algorithm (size of sub-group:  3*  3 procs)

 
     Parallelization info
     --------------------
     sticks:   dense  smooth     PW     G-vecs:    dense   smooth      PW
     Min         554     369     95               121038    65885    8621
     Max         555     370     96               121043    65892    8628
     Sum       13309    8865   2285              2904967  1581291  206935
 

     Title: 
     CsSnI3                                                                     


     bravais-lattice index     =            8
     lattice parameter (alat)  =       9.1317  a.u.
     unit-cell volume          =    6370.5385 (a.u.)^3
     number of atoms/cell      =           20
     number of atomic types    =            3
     number of electrons       =       176.00
     number of Kohn-Sham states=          176
     kinetic-energy cutoff     =     150.0000  Ry
     charge density cutoff     =     900.0000  Ry
     convergence threshold     =      1.0E-06
     mixing beta               =       0.3500
     number of iterations used =            8  plain     mixing
     Exchange-correlation      = SLA PW PSX PSC ( 1  4 10  8 0 0)
     Non magnetic calculation with spin-orbit


     celldm(1)=   9.131705  celldm(2)=   2.227728  celldm(3)=   3.755420
     celldm(4)=   0.000000  celldm(5)=   0.000000  celldm(6)=   0.000000

     crystal axes: (cart. coord. in units of alat)
               a(1) = (   1.000000   0.000000   0.000000 )  
               a(2) = (   0.000000   2.227728   0.000000 )  
               a(3) = (   0.000000   0.000000   3.755420 )  

     reciprocal axes: (cart. coord. in units 2 pi/alat)
               b(1) = (  1.000000  0.000000  0.000000 )  
               b(2) = (  0.000000  0.448888  0.000000 )  
               b(3) = (  0.000000  0.000000  0.266282 )  


     PseudoPot. # 1 for Cs read from file:
     /marconi_scratch/userexternal/cmalosso/degironcoli/pseudo/Cs.rel-pbesol-spn-kjpaw_psl.1.0.0.UPF
     MD5 check sum: 2adfb289dd462649b099d7edbec69378
     Pseudo is Projector augmented-wave + core cor, Zval =  9.0
     Generated using "atomic" code by A. Dal Corso v.6.4.1
     Shape of augmentation charge: PSQ
     Using radial grid of 1251 points, 15 beta functions with: 
                l(1) =   0
                l(2) =   0
                l(3) =   0
                l(4) =   1
                l(5) =   1
                l(6) =   1
                l(7) =   1
                l(8) =   2
                l(9) =   2
               l(10) =   2
               l(11) =   2
               l(12) =   3
               l(13) =   3
               l(14) =   3
               l(15) =   3
     Q(r) pseudized with 0 coefficients 


     PseudoPot. # 2 for Sn read from file:
     /marconi_scratch/userexternal/cmalosso/degironcoli/pseudo/Sn.rel-pbesol-dn-kjpaw_psl.1.0.0.UPF
     MD5 check sum: e69eff64f15ae39ad43ef58bacbfdf88
     Pseudo is Projector augmented-wave + core cor, Zval = 14.0
     Generated using "atomic" code by A. Dal Corso v.6.3
     Shape of augmentation charge: PSQ
     Using radial grid of 1243 points, 10 beta functions with: 
                l(1) =   0
                l(2) =   0
                l(3) =   1
                l(4) =   1
                l(5) =   1
                l(6) =   1
                l(7) =   2
                l(8) =   2
                l(9) =   2
               l(10) =   2
     Q(r) pseudized with 0 coefficients 


     PseudoPot. # 3 for I  read from file:
     /marconi_scratch/userexternal/cmalosso/degironcoli/pseudo/I.rel-pbesol-n-kjpaw_psl.1.0.0.UPF
     MD5 check sum: 4478c427bd443f303eca1937a163b991
     Pseudo is Projector augmented-wave + core cor, Zval =  7.0
     Generated using "atomic" code by A. Dal Corso v.6.3
     Shape of augmentation charge: PSQ
     Using radial grid of 1247 points, 10 beta functions with: 
                l(1) =   0
                l(2) =   0
                l(3) =   1
                l(4) =   1
                l(5) =   1
                l(6) =   1
                l(7) =   2
                l(8) =   2
                l(9) =   2
               l(10) =   2
     Q(r) pseudized with 0 coefficients 


     atomic species   valence    mass     pseudopotential
        Cs             9.00   132.90000     Cs( 1.00)
        Sn            14.00   118.70000     Sn( 1.00)
        I              7.00   126.90000     I ( 1.00)

      8 Sym. Ops., with inversion, found ( 6 have fractional translation)


                                    s                        frac. trans.

      isym =  1     identity                                     

 cryst.   s( 1) = (     1          0          0      )
                  (     0          1          0      )
                  (     0          0          1      )

 cart.    s( 1) = (  1.0000000  0.0000000  0.0000000 )
                  (  0.0000000  1.0000000  0.0000000 )
                  (  0.0000000  0.0000000  1.0000000 )


      isym =  2     180 deg rotation - cart. axis [0,0,1]        

 cryst.   s( 2) = (    -1          0          0      )    f =(  0.0000000 )
                  (     0         -1          0      )       (  0.5000000 )
                  (     0          0          1      )       (  0.5000000 )

 cart.    s( 2) = ( -1.0000000  0.0000000  0.0000000 )    f =(  0.0000000 )
                  (  0.0000000 -1.0000000  0.0000000 )       (  1.1138638 )
                  (  0.0000000  0.0000000  1.0000000 )       (  1.8777098 )


      isym =  3     180 deg rotation - cart. axis [0,1,0]        

 cryst.   s( 3) = (    -1          0          0      )    f =(  0.5000000 )
                  (     0          1          0      )       ( -0.5000000 )
                  (     0          0         -1      )       ( -0.5000000 )

 cart.    s( 3) = ( -1.0000000  0.0000000  0.0000000 )    f =(  0.5000000 )
                  (  0.0000000  1.0000000  0.0000000 )       ( -1.1138638 )
                  (  0.0000000  0.0000000 -1.0000000 )       ( -1.8777098 )


      isym =  4     180 deg rotation - cart. axis [1,0,0]        

 cryst.   s( 4) = (     1          0          0      )    f =( -0.5000000 )
                  (     0         -1          0      )       (  0.0000000 )
                  (     0          0         -1      )       (  0.0000000 )

 cart.    s( 4) = (  1.0000000  0.0000000  0.0000000 )    f =( -0.5000000 )
                  (  0.0000000 -1.0000000  0.0000000 )       (  0.0000000 )
                  (  0.0000000  0.0000000 -1.0000000 )       (  0.0000000 )


      isym =  5     inversion                                    

 cryst.   s( 5) = (    -1          0          0      )
                  (     0         -1          0      )
                  (     0          0         -1      )

 cart.    s( 5) = ( -1.0000000  0.0000000  0.0000000 )
                  (  0.0000000 -1.0000000  0.0000000 )
                  (  0.0000000  0.0000000 -1.0000000 )


      isym =  6     inv. 180 deg rotation - cart. axis [0,0,1]   

 cryst.   s( 6) = (     1          0          0      )    f =(  0.0000000 )
                  (     0          1          0      )       ( -0.5000000 )
                  (     0          0         -1      )       ( -0.5000000 )

 cart.    s( 6) = (  1.0000000  0.0000000  0.0000000 )    f =(  0.0000000 )
                  (  0.0000000  1.0000000  0.0000000 )       ( -1.1138638 )
                  (  0.0000000  0.0000000 -1.0000000 )       ( -1.8777098 )


      isym =  7     inv. 180 deg rotation - cart. axis [0,1,0]   

 cryst.   s( 7) = (     1          0          0      )    f =( -0.5000000 )
                  (     0         -1          0      )       (  0.5000000 )
                  (     0          0          1      )       (  0.5000000 )

 cart.    s( 7) = (  1.0000000  0.0000000  0.0000000 )    f =( -0.5000000 )
                  (  0.0000000 -1.0000000  0.0000000 )       (  1.1138638 )
                  (  0.0000000  0.0000000  1.0000000 )       (  1.8777098 )


      isym =  8     inv. 180 deg rotation - cart. axis [1,0,0]   

 cryst.   s( 8) = (    -1          0          0      )    f =(  0.5000000 )
                  (     0          1          0      )       (  0.0000000 )
                  (     0          0          1      )       (  0.0000000 )

 cart.    s( 8) = ( -1.0000000  0.0000000  0.0000000 )    f =(  0.5000000 )
                  (  0.0000000  1.0000000  0.0000000 )       (  0.0000000 )
                  (  0.0000000  0.0000000  1.0000000 )       (  0.0000000 )


     double point group D_2h (mmm) 
     there are 10 classes and  2 irreducible representations
     the character table:

       E     -E     C2    C2'  C2''  i     -i     s_v   s_v' s_v''
                   -C2   -C2'  -C2''             -s_v  -s_v' -s_v'
G_5+   2.00 -2.00  0.00  0.00  0.00  2.00 -2.00  0.00  0.00  0.00
G_5-   2.00 -2.00  0.00  0.00  0.00 -2.00  2.00  0.00  0.00  0.00

     the symmetry operations in each class and the name of the first element:

     E             1
          identity                                               
     -E           -1
          identity E                                             
      C2  -C2      2   -2
          180 deg rotation - cart. axis [0,0,1]                  
      C2' -C2'     4   -4
          180 deg rotation - cart. axis [1,0,0]                  
     C2'' -C2''    3   -3
          180 deg rotation - cart. axis [0,1,0]                  
     i             5
          inversion                                              
     -i           -5
          inversion E                                            
      s_v -s_v     6   -6
          inv. 180 deg rotation - cart. axis [0,0,1]             
      s_v'-s_v'    8   -8
          inv. 180 deg rotation - cart. axis [1,0,0]             
     s_v''-s_v'    7   -7
          inv. 180 deg rotation - cart. axis [0,1,0]             

   Cartesian axes

     site n.     atom                  positions (alat units)
         1           Cs  tau(   1) = (   0.2500000   0.1859640   2.5168147  )
         2           Cs  tau(   2) = (   0.7500000   2.0417636   1.2386050  )
         3           Cs  tau(   3) = (   0.2500000   1.2998278   3.1163149  )
         4           Cs  tau(   4) = (   0.7500000   0.9278998   0.6391048  )
         5           Sn  tau(   5) = (   0.2500000   0.7615710   1.6485466  )
         6           Sn  tau(   6) = (   0.7500000   1.4661567   2.1068731  )
         7           Sn  tau(   7) = (   0.2500000   1.8754348   0.2291632  )
         8           Sn  tau(   8) = (   0.7500000   0.3522928   3.5262565  )
         9           I   tau(   9) = (   0.7500000   0.0581437   0.4202578  )
        10           I   tau(  10) = (   0.2500000   2.1695839   3.3351619  )
        11           I   tau(  11) = (   0.7500000   1.1720075   1.4574521  )
        12           I   tau(  12) = (   0.2500000   1.0557201   2.2979676  )
        13           I   tau(  13) = (   0.7500000   0.6531118   2.9738192  )
        14           I   tau(  14) = (   0.2500000   1.5746158   0.7816005  )
        15           I   tau(  15) = (   0.7500000   1.7669756   2.6593103  )
        16           I   tau(  16) = (   0.2500000   0.4607520   1.0961094  )
        17           I   tau(  17) = (   0.7500000   0.3753632   1.8734812  )
        18           I   tau(  18) = (   0.2500000   1.8523644   1.8819384  )
        19           I   tau(  19) = (   0.7500000   1.4892270   0.0042286  )
        20           I   tau(  20) = (   0.2500000   0.7385006   3.7511911  )

   Crystallographic axes

     site n.     atom                  positions (cryst. coord.)
         1           Cs  tau(   1) = (  0.2500000  0.0834770  0.6701820  )
         2           Cs  tau(   2) = (  0.7500000  0.9165230  0.3298180  )
         3           Cs  tau(   3) = (  0.2500000  0.5834770  0.8298180  )
         4           Cs  tau(   4) = (  0.7500000  0.4165230  0.1701820  )
         5           Sn  tau(   5) = (  0.2500000  0.3418600  0.4389780  )
         6           Sn  tau(   6) = (  0.7500000  0.6581400  0.5610220  )
         7           Sn  tau(   7) = (  0.2500000  0.8418600  0.0610220  )
         8           Sn  tau(   8) = (  0.7500000  0.1581400  0.9389780  )
         9           I   tau(   9) = (  0.7500000  0.0261000  0.1119070  )
        10           I   tau(  10) = (  0.2500000  0.9739000  0.8880930  )
        11           I   tau(  11) = (  0.7500000  0.5261000  0.3880930  )
        12           I   tau(  12) = (  0.2500000  0.4739000  0.6119070  )
        13           I   tau(  13) = (  0.7500000  0.2931740  0.7918740  )
        14           I   tau(  14) = (  0.2500000  0.7068260  0.2081260  )
        15           I   tau(  15) = (  0.7500000  0.7931740  0.7081260  )
        16           I   tau(  16) = (  0.2500000  0.2068260  0.2918740  )
        17           I   tau(  17) = (  0.7500000  0.1684960  0.4988740  )
        18           I   tau(  18) = (  0.2500000  0.8315040  0.5011260  )
        19           I   tau(  19) = (  0.7500000  0.6684960  0.0011260  )
        20           I   tau(  20) = (  0.2500000  0.3315040  0.9988740  )

     number of k points=     1
                       cart. coord. in units 2pi/alat
        k(    1) = (   0.2500000   0.1122220   0.0665705), wk =   1.0000000

                       cryst. coord.
        k(    1) = (   0.2500000   0.2500000   0.2500000), wk =   1.0000000

     Dense  grid:  2904967 G-vectors     FFT dimensions: (  90, 200, 360)

     Smooth grid:  1581291 G-vectors     FFT dimensions: (  72, 160, 270)

     Dynamical RAM for                 wfc:      44.23 MB

     Dynamical RAM for     wfc (w. buffer):      44.23 MB

     Dynamical RAM for           str. fact:       5.54 MB

     Dynamical RAM for           local pot:       0.00 MB

     Dynamical RAM for          nlocal pot:     100.01 MB

     Dynamical RAM for                qrad:      83.90 MB

     Dynamical RAM for          rho,v,vnew:      46.88 MB

     Dynamical RAM for               rhoin:      15.63 MB

     Dynamical RAM for            rho*nmix:     118.21 MB

     Dynamical RAM for           G-vectors:       7.43 MB

     Dynamical RAM for          h,s,v(r/c):       2.51 MB

     Dynamical RAM for          <psi|beta>:       4.28 MB

     Dynamical RAM for                 psi:     176.90 MB

     Dynamical RAM for                hpsi:     176.90 MB

     Dynamical RAM for                spsi:     176.90 MB

     Dynamical RAM for      wfcinit/wfcrot:      79.39 MB

     Dynamical RAM for           addusdens:    3795.52 MB

     Dynamical RAM for          addusforce:    3882.33 MB

     Dynamical RAM for         addusstress:    3828.77 MB

     Estimated static dynamical RAM per process >     445.69 MB

     Estimated max dynamical RAM per process >       4.23 GB

     Estimated total dynamical RAM >     101.44 GB

     Initial potential from superposition of free atoms

     starting charge  175.84163, renormalised to  176.00000
     Starting wfcs are  208 randomized atomic wfcs
     Checking if some PAW data can be deallocated... 
       PAW data deallocated on   16 nodes for type:  1
       PAW data deallocated on   20 nodes for type:  2
       PAW data deallocated on   12 nodes for type:  3

     total cpu time spent up to now is       67.9 secs

     Self-consistent Calculation

     iteration #  1     ecut=   150.00 Ry     beta= 0.35
     Davidson diagonalization with overlap
     ethr =  1.00E-02,  avg # of iterations =  1.0

     Threshold (ethr) on eigenvalues was too large:
     Diagonalizing with lowered threshold

     Davidson diagonalization with overlap
     ethr =  3.20E-04,  avg # of iterations = 13.0

     negative rho (up, down):  1.888E+03 0.000E+00

     total cpu time spent up to now is      329.6 secs

     total energy              =  -11202.07128770 Ry
     Harris-Foulkes estimate   =   -7900.77307393 Ry
     estimated scf accuracy    < 6205482.84697626 Ry

     iteration #  2     ecut=   150.00 Ry     beta= 0.35
     Davidson diagonalization with overlap
     ethr =  1.00E-02,  avg # of iterations = 32.0

     negative rho (up, down):  2.325E+03 0.000E+00

     total cpu time spent up to now is      805.8 secs

     total energy              =  -98821.90732365 Ry
     Harris-Foulkes estimate   =  -79928.81462311 Ry
     estimated scf accuracy    <  280086.08887186 Ry

     iteration #  3     ecut=   150.00 Ry     beta= 0.35
     Davidson diagonalization with overlap
     ethr =  1.00E-02,  avg # of iterations = 19.0

     negative rho (up, down):  5.601E+03 0.000E+00

     total cpu time spent up to now is     1039.5 secs

     total energy              = -257867.05346819 Ry
     Harris-Foulkes estimate   = -158542.94771821 Ry
     estimated scf accuracy    < 3272212.60385337 Ry

     iteration #  4     ecut=   150.00 Ry     beta= 0.35
     Davidson diagonalization with overlap
     ethr =  1.00E-02,  avg # of iterations = 22.0

     negative rho (up, down):  5.468E+03 0.000E+00

     total cpu time spent up to now is     1297.6 secs

     total energy              = -252359.62320455 Ry
     Harris-Foulkes estimate   = -258488.64968110 Ry
     estimated scf accuracy    <  106430.65584311 Ry

     iteration #  5     ecut=   150.00 Ry     beta= 0.35
     Davidson diagonalization with overlap
     ethr =  1.00E-02,  avg # of iterations =  5.0

     negative rho (up, down):  7.009E+03 0.000E+00

     total cpu time spent up to now is     1434.2 secs

     total energy              = -240825.26593657 Ry
     Harris-Foulkes estimate   = -252385.96626300 Ry
     estimated scf accuracy    <  135214.02682989 Ry

     iteration #  6     ecut=   150.00 Ry     beta= 0.35
     Davidson diagonalization with overlap
     ethr =  1.00E-02,  avg # of iterations =  5.0

     negative rho (up, down):  5.663E+03 0.000E+00

     total cpu time spent up to now is     1595.6 secs

     total energy              = -242615.16681932 Ry
     Harris-Foulkes estimate   = -241235.65864131 Ry
     estimated scf accuracy    <  134696.36627251 Ry

     iteration #  7     ecut=   150.00 Ry     beta= 0.35
     Davidson diagonalization with overlap
     ethr =  1.00E-02,  avg # of iterations =  4.0

     negative rho (up, down):  5.890E+03 0.000E+00

     total cpu time spent up to now is     1736.2 secs

     total energy              = -242559.60202484 Ry
     Harris-Foulkes estimate   = -242685.77879494 Ry
     estimated scf accuracy    <   65364.40652229 Ry

     iteration #  8     ecut=   150.00 Ry     beta= 0.35
     Davidson diagonalization with overlap
     ethr =  1.00E-02,  avg # of iterations =  3.0

     negative rho (up, down):  5.931E+03 0.000E+00

     total cpu time spent up to now is     1841.2 secs

     total energy              = -242518.39207928 Ry
     Harris-Foulkes estimate   = -242562.71868704 Ry
     estimated scf accuracy    <   22587.42098891 Ry

     iteration #  9     ecut=   150.00 Ry     beta= 0.35
     Davidson diagonalization with overlap
     ethr =  1.00E-02,  avg # of iterations =  1.0

     negative rho (up, down):  6.100E+03 0.000E+00

     total cpu time spent up to now is     1939.8 secs

     total energy              = -242479.44957969 Ry
     Harris-Foulkes estimate   = -242518.70812950 Ry
     estimated scf accuracy    <   17177.00239669 Ry

     iteration # 10     ecut=   150.00 Ry     beta= 0.35
     Davidson diagonalization with overlap
     ethr =  1.00E-02,  avg # of iterations =  3.0

     negative rho (up, down):  6.095E+03 0.000E+00

     total cpu time spent up to now is     2045.2 secs

     total energy              = -242485.81850529 Ry
     Harris-Foulkes estimate   = -242482.25525936 Ry
     estimated scf accuracy    <    2686.41857306 Ry

     iteration # 11     ecut=   150.00 Ry     beta= 0.35
     Davidson diagonalization with overlap
     ethr =  1.00E-02,  avg # of iterations =  1.0

     negative rho (up, down):  6.211E+03 0.000E+00

     total cpu time spent up to now is     2141.8 secs

     total energy              = -242476.78988507 Ry
     Harris-Foulkes estimate   = -242485.98032386 Ry
     estimated scf accuracy    <    2933.18662793 Ry

     iteration # 12     ecut=   150.00 Ry     beta= 0.35
     Davidson diagonalization with overlap
     ethr =  1.00E-02,  avg # of iterations =  2.0

     negative rho (up, down):  6.211E+03 0.000E+00

     total cpu time spent up to now is     2241.9 secs

     total energy              = -242477.64203405 Ry
     Harris-Foulkes estimate   = -242477.88611491 Ry
     estimated scf accuracy    <       3.99202369 Ry

     iteration # 13     ecut=   150.00 Ry     beta= 0.35
     Davidson diagonalization with overlap
     ethr =  2.27E-03,  avg # of iterations =  4.0

     negative rho (up, down):  6.211E+03 0.000E+00

     total cpu time spent up to now is     2342.8 secs

     total energy              = -242477.99252168 Ry
     Harris-Foulkes estimate   = -242478.01328217 Ry
     estimated scf accuracy    <       5.76573827 Ry

     iteration # 14     ecut=   150.00 Ry     beta= 0.35
     Davidson diagonalization with overlap
     ethr =  2.27E-03,  avg # of iterations =  1.0

     negative rho (up, down):  6.211E+03 0.000E+00

     total cpu time spent up to now is     2441.0 secs

     total energy              = -242478.06429365 Ry
     Harris-Foulkes estimate   = -242478.05096519 Ry
     estimated scf accuracy    <       3.49528261 Ry

     iteration # 15     ecut=   150.00 Ry     beta= 0.35
     Davidson diagonalization with overlap
     ethr =  1.99E-03,  avg # of iterations =  1.0

     negative rho (up, down):  6.211E+03 0.000E+00

     total cpu time spent up to now is     2537.3 secs

     total energy              = -242478.09900359 Ry
     Harris-Foulkes estimate   = -242478.09945263 Ry
     estimated scf accuracy    <       3.61072560 Ry

     iteration # 16     ecut=   150.00 Ry     beta= 0.35
     Davidson diagonalization with overlap
     ethr =  1.99E-03,  avg # of iterations =  3.0

     negative rho (up, down):  6.211E+03 0.000E+00

     total cpu time spent up to now is     2638.1 secs

     total energy              = -242478.22033553 Ry
     Harris-Foulkes estimate   = -242478.24777556 Ry
     estimated scf accuracy    <       0.04476078 Ry

     iteration # 17     ecut=   150.00 Ry     beta= 0.35
     Davidson diagonalization with overlap
     ethr =  2.54E-05,  avg # of iterations = 42.0

     negative rho (up, down):  6.211E+03 0.000E+00

     total cpu time spent up to now is     2936.3 secs

     total energy              = -242478.71962490 Ry
     Harris-Foulkes estimate   = -242478.80127552 Ry
     estimated scf accuracy    <       1.20009786 Ry

     iteration # 18     ecut=   150.00 Ry     beta= 0.35
     Davidson diagonalization with overlap
     ethr =  2.54E-05,  avg # of iterations = 20.0

     negative rho (up, down):  6.211E+03 0.000E+00

     total cpu time spent up to now is     3079.6 secs

     total energy              = -242478.96088905 Ry
     Harris-Foulkes estimate   = -242478.89201557 Ry
     estimated scf accuracy    <       2.29643225 Ry

     iteration # 19     ecut=   150.00 Ry     beta= 0.35
     Davidson diagonalization with overlap
     ethr =  2.54E-05,  avg # of iterations =  4.0

     negative rho (up, down):  6.211E+03 0.000E+00

     total cpu time spent up to now is     3191.9 secs

     total energy              = -242479.07886542 Ry
     Harris-Foulkes estimate   = -242478.97777468 Ry
     estimated scf accuracy    <       1.55479484 Ry

     iteration # 20     ecut=   150.00 Ry     beta= 0.35
     Davidson diagonalization with overlap
     ethr =  2.54E-05,  avg # of iterations =  5.0

     negative rho (up, down):  6.211E+03 0.000E+00

     total cpu time spent up to now is     3330.3 secs

     total energy              = -242479.29824147 Ry
     Harris-Foulkes estimate   = -242479.23918693 Ry
     estimated scf accuracy    <       0.10168101 Ry

     iteration # 21     ecut=   150.00 Ry     beta= 0.35
     Davidson diagonalization with overlap
     ethr =  2.54E-05,  avg # of iterations =  4.0

     negative rho (up, down):  6.211E+03 0.000E+00

     total cpu time spent up to now is     3452.8 secs

     total energy              = -242479.18645771 Ry
     Harris-Foulkes estimate   = -242479.31974286 Ry
     estimated scf accuracy    <       0.33033420 Ry

     iteration # 22     ecut=   150.00 Ry     beta= 0.35
     Davidson diagonalization with overlap
     ethr =  2.54E-05,  avg # of iterations =  4.0

     negative rho (up, down):  6.211E+03 0.000E+00

     total cpu time spent up to now is     3576.9 secs

     total energy              = -242479.22664822 Ry
     Harris-Foulkes estimate   = -242479.21680239 Ry
     estimated scf accuracy    <       0.00970114 Ry

     iteration # 23     ecut=   150.00 Ry     beta= 0.35
     Davidson diagonalization with overlap
     ethr =  5.51E-06,  avg # of iterations =  2.0

     negative rho (up, down):  6.211E+03 0.000E+00

     total cpu time spent up to now is     3677.8 secs

     total energy              = -242478.81852607 Ry
     Harris-Foulkes estimate   = -242479.22731054 Ry
     estimated scf accuracy    <       0.01376073 Ry

     iteration # 24     ecut=   150.00 Ry     beta= 0.35
     Davidson diagonalization with overlap
     ethr =  5.51E-06,  avg # of iterations =  6.0

     negative rho (up, down):  6.211E+03 0.000E+00

     total cpu time spent up to now is     3838.8 secs

     total energy              = -242477.60676719 Ry
     Harris-Foulkes estimate   = -242478.98943663 Ry
     estimated scf accuracy    <       0.00730853 Ry

     iteration # 25     ecut=   150.00 Ry     beta= 0.35
     Davidson diagonalization with overlap
     ethr =  4.15E-06,  avg # of iterations = 22.0

     negative rho (up, down):  6.211E+03 0.000E+00

     total cpu time spent up to now is     4100.0 secs

     total energy              = -242477.18715965 Ry
     Harris-Foulkes estimate   = -242478.34441599 Ry
     estimated scf accuracy    <       0.05450523 Ry

     iteration # 26     ecut=   150.00 Ry     beta= 0.35
     Davidson diagonalization with overlap
     c_bands:  2 eigenvalues not converged
     ethr =  4.15E-06,  avg # of iterations = 20.0

     negative rho (up, down):  6.211E+03 0.000E+00

     total cpu time spent up to now is     4327.3 secs

     total energy              = -242479.30218615 Ry
     Harris-Foulkes estimate   = -242479.27868300 Ry
     estimated scf accuracy    <       1.10804953 Ry

     iteration # 27     ecut=   150.00 Ry     beta= 0.35
     Davidson diagonalization with overlap
     ethr =  4.15E-06,  avg # of iterations =  6.0

     negative rho (up, down):  6.211E+03 0.000E+00

     total cpu time spent up to now is     4447.4 secs

     total energy              = -242478.34792403 Ry
     Harris-Foulkes estimate   = -242479.30569961 Ry
     estimated scf accuracy    <       1.60412176 Ry

     iteration # 28     ecut=   150.00 Ry     beta= 0.35
     Davidson diagonalization with overlap
     ethr =  4.15E-06,  avg # of iterations = 12.0

     negative rho (up, down):  6.211E+03 0.000E+00

     total cpu time spent up to now is     4657.4 secs

     total energy              = -242479.63337572 Ry
     Harris-Foulkes estimate   = -242479.63299528 Ry
     estimated scf accuracy    <       0.07661112 Ry

     iteration # 29     ecut=   150.00 Ry     beta= 0.35
     Davidson diagonalization with overlap
     ethr =  4.15E-06,  avg # of iterations =  2.0

     negative rho (up, down):  6.211E+03 0.000E+00

     total cpu time spent up to now is     4757.9 secs

     total energy              = -242479.63190400 Ry
     Harris-Foulkes estimate   = -242479.63349722 Ry
     estimated scf accuracy    <       0.04024101 Ry

     iteration # 30     ecut=   150.00 Ry     beta= 0.35
     Davidson diagonalization with overlap
     ethr =  4.15E-06,  avg # of iterations =  4.0

     negative rho (up, down):  6.211E+03 0.000E+00

     total cpu time spent up to now is     4889.4 secs

     total energy              = -242479.63726653 Ry
     Harris-Foulkes estimate   = -242479.63723934 Ry
     estimated scf accuracy    <       0.04845938 Ry

     iteration # 31     ecut=   150.00 Ry     beta= 0.35
     Davidson diagonalization with overlap
     ethr =  4.15E-06,  avg # of iterations =  4.0

     negative rho (up, down):  6.211E+03 0.000E+00

     total cpu time spent up to now is     5007.3 secs

     total energy              = -242479.63773214 Ry
     Harris-Foulkes estimate   = -242479.63898552 Ry
     estimated scf accuracy    <       0.04092640 Ry

     iteration # 32     ecut=   150.00 Ry     beta= 0.35
     Davidson diagonalization with overlap
     ethr =  4.15E-06,  avg # of iterations =  2.0

     negative rho (up, down):  6.211E+03 0.000E+00

     total cpu time spent up to now is     5116.6 secs

     total energy              = -242479.63264226 Ry
     Harris-Foulkes estimate   = -242479.63800312 Ry
     estimated scf accuracy    <       0.05917120 Ry

     iteration # 33     ecut=   150.00 Ry     beta= 0.35
     Davidson diagonalization with overlap
     ethr =  4.15E-06,  avg # of iterations = 11.0

     negative rho (up, down):  6.211E+03 0.000E+00

     total cpu time spent up to now is     5281.2 secs

     total energy              = -242479.47013772 Ry
     Harris-Foulkes estimate   = -242479.64215462 Ry
     estimated scf accuracy    <       0.00901337 Ry

     iteration # 34     ecut=   150.00 Ry     beta= 0.35
     Davidson diagonalization with overlap
     ethr =  4.15E-06,  avg # of iterations =  6.0

     negative rho (up, down):  6.211E+03 0.000E+00

     total cpu time spent up to now is     5461.2 secs

     total energy              = -242479.53333504 Ry
     Harris-Foulkes estimate   = -242479.60600653 Ry
     estimated scf accuracy    <       0.13341952 Ry

     iteration # 35     ecut=   150.00 Ry     beta= 0.35
     Davidson diagonalization with overlap
     ethr =  4.15E-06,  avg # of iterations =  6.0

     negative rho (up, down):  6.211E+03 0.000E+00

     total cpu time spent up to now is     5635.1 secs

     total energy              = -242479.62752189 Ry
     Harris-Foulkes estimate   = -242479.64018711 Ry
     estimated scf accuracy    <       0.01360828 Ry

     iteration # 36     ecut=   150.00 Ry     beta= 0.35
     Davidson diagonalization with overlap
     ethr =  4.15E-06,  avg # of iterations =  5.0

     negative rho (up, down):  6.211E+03 0.000E+00

     total cpu time spent up to now is     5789.3 secs

     total energy              = -242479.64422288 Ry
     Harris-Foulkes estimate   = -242479.64329451 Ry
     estimated scf accuracy    <       0.00098528 Ry

     iteration # 37     ecut=   150.00 Ry     beta= 0.35
     Davidson diagonalization with overlap
     ethr =  5.60E-07,  avg # of iterations =  3.0

     negative rho (up, down):  6.211E+03 0.000E+00

     total cpu time spent up to now is     5894.3 secs

     total energy              = -242479.63551043 Ry
     Harris-Foulkes estimate   = -242479.64429229 Ry
     estimated scf accuracy    <       0.00359474 Ry

     iteration # 38     ecut=   150.00 Ry     beta= 0.35
     Davidson diagonalization with overlap
     ethr =  5.60E-07,  avg # of iterations =  5.0

     negative rho (up, down):  6.211E+03 0.000E+00

     total cpu time spent up to now is     6052.3 secs

     total energy              = -242479.64335013 Ry
     Harris-Foulkes estimate   = -242479.64320623 Ry
     estimated scf accuracy    <       0.00002728 Ry

     iteration # 39     ecut=   150.00 Ry     beta= 0.35
     Davidson diagonalization with overlap
     ethr =  1.55E-08,  avg # of iterations =  5.0

     negative rho (up, down):  6.211E+03 0.000E+00

     total cpu time spent up to now is     6202.9 secs

     total energy              = -242479.64362619 Ry
     Harris-Foulkes estimate   = -242479.64344509 Ry
     estimated scf accuracy    <       0.00025272 Ry

     iteration # 40     ecut=   150.00 Ry     beta= 0.35
     Davidson diagonalization with overlap
