
     Program PWSCF v.6.7MaX starts on 31Jan2021 at 10:53:50 

     This program is part of the open-source Quantum ESPRESSO suite
     for quantum simulation of materials; please cite
         "P. Giannozzi et al., J. Phys.:Condens. Matter 21 395502 (2009);
         "P. Giannozzi et al., J. Phys.:Condens. Matter 29 465901 (2017);
          URL http://www.quantum-espresso.org", 
     in publications or presentations arising from this work. More details at
     http://www.quantum-espresso.org/quote

     Parallel version (MPI & OpenMP), running on      96 processor cores
     Number of MPI processes:                48
     Threads/MPI process:                     2

     MPI processes distributed on     2 nodes
     R & G space division:  proc/nbgrp/npool/nimage =      48
     Waiting for input...
     Reading input from standard input

     Current dimensions of program PWSCF are:
     Max number of different atomic species (ntypx) = 10
     Max number of k-points (npk) =  40000
     Max angular momentum in pseudopotentials (lmaxx) =  3
     file Sn.rel-pbesol-dn-rrkjus_psl.1.0.0.UPF: wavefunction(s)  5S 4D 4D renormalized
     file I.rel-pbesol-n-rrkjus_psl.1.0.0.UPF: wavefunction(s)  5S renormalized

     Subspace diagonalization in iterative solution of the eigenvalue problem:
     a serial algorithm will be used


     Parallelization info
     --------------------
     sticks:   dense  smooth     PW     G-vecs:    dense   smooth      PW
     Min         120      96     26                 6900     4938     704
     Max         121      97     27                 6907     4943     708
     Sum        5761    4637   1265               331237   237129   33833


     Title: 
     SnI2                                                                       


     bravais-lattice index     =            1
     lattice parameter (alat)  =      14.4199  a.u.
     unit-cell volume          =    2998.4083 (a.u.)^3
     number of atoms/cell      =            6
     number of atomic types    =            2
     number of electrons       =        56.00
     number of Kohn-Sham states=           56
     kinetic-energy cutoff     =      70.0000  Ry
     charge density cutoff     =     350.0000  Ry
     scf convergence threshold =      1.0E-06
     mixing beta               =       0.3500
     number of iterations used =            8  plain     mixing
     Exchange-correlation= PBESOL
                           (   1   4  10   8   0   0   0)
     Non magnetic calculation with spin-orbit


     celldm(1)=  14.419944  celldm(2)=   0.000000  celldm(3)=   0.000000
     celldm(4)=   0.000000  celldm(5)=   0.000000  celldm(6)=   0.000000

     crystal axes: (cart. coord. in units of alat)
               a(1) = (   1.000000   0.000000   0.000000 )  
               a(2) = (   0.000000   1.000000   0.000000 )  
               a(3) = (   0.000000   0.000000   1.000000 )  

     reciprocal axes: (cart. coord. in units 2 pi/alat)
               b(1) = (  1.000000  0.000000  0.000000 )  
               b(2) = (  0.000000  1.000000  0.000000 )  
               b(3) = (  0.000000  0.000000  1.000000 )  


     PseudoPot. # 1 for Sn read from file:
     /scratch/cmalosso/degironcoli/pseudo/pseudo-usp/Sn.rel-pbesol-dn-rrkjus_psl.1.0.0.UPF
     MD5 check sum: c1cf6ea56b96a3656bdf0d1db379e093
     Pseudo is Ultrasoft + core correction, Zval = 14.0
     Generated using &quot;atomic&quot; code by A. Dal Corso  v.6.3
     Using radial grid of 1243 points, 10 beta functions with: 
                l(1) =   0
                l(2) =   0
                l(3) =   1
                l(4) =   1
                l(5) =   1
                l(6) =   1
                l(7) =   2
                l(8) =   2
                l(9) =   2
               l(10) =   2
     Q(r) pseudized with 0 coefficients 


     PseudoPot. # 2 for I  read from file:
     /scratch/cmalosso/degironcoli/pseudo/pseudo-usp/I.rel-pbesol-n-rrkjus_psl.1.0.0.UPF
     MD5 check sum: 0f96c6bfb1b448f280658f96eb466b08
     Pseudo is Ultrasoft + core correction, Zval =  7.0
     Generated using &quot;atomic&quot; code by A. Dal Corso  v.6.3
     Using radial grid of 1247 points, 10 beta functions with: 
                l(1) =   0
                l(2) =   0
                l(3) =   1
                l(4) =   1
                l(5) =   1
                l(6) =   1
                l(7) =   2
                l(8) =   2
                l(9) =   2
               l(10) =   2
     Q(r) pseudized with 0 coefficients 


     atomic species   valence    mass     pseudopotential
        Sn            14.00   118.70000     Sn( 1.00)
        I              7.00   126.90000     I ( 1.00)

     16 Sym. Ops., with inversion, found ( 8 have fractional translation)


                                    s                        frac. trans.

      isym =  1     identity                                     

 cryst.   s( 1) = (     1          0          0      )
                  (     0          1          0      )
                  (     0          0          1      )

 cart.    s( 1) = (  1.0000000  0.0000000  0.0000000 )
                  (  0.0000000  1.0000000  0.0000000 )
                  (  0.0000000  0.0000000  1.0000000 )


      isym =  2     180 deg rotation - cart. axis [0,0,1]        

 cryst.   s( 2) = (    -1          0          0      )
                  (     0         -1          0      )
                  (     0          0          1      )

 cart.    s( 2) = ( -1.0000000  0.0000000  0.0000000 )
                  (  0.0000000 -1.0000000  0.0000000 )
                  (  0.0000000  0.0000000  1.0000000 )


      isym =  3     180 deg rotation - cart. axis [0,1,0]        

 cryst.   s( 3) = (    -1          0          0      )    f =(  0.5000000 )
                  (     0          1          0      )       ( -0.5000000 )
                  (     0          0         -1      )       (  0.5000000 )

 cart.    s( 3) = ( -1.0000000  0.0000000  0.0000000 )    f =(  0.5000000 )
                  (  0.0000000  1.0000000  0.0000000 )       ( -0.5000000 )
                  (  0.0000000  0.0000000 -1.0000000 )       (  0.5000000 )


      isym =  4     180 deg rotation - cart. axis [1,0,0]        

 cryst.   s( 4) = (     1          0          0      )    f =( -0.5000000 )
                  (     0         -1          0      )       (  0.5000000 )
                  (     0          0         -1      )       (  0.5000000 )

 cart.    s( 4) = (  1.0000000  0.0000000  0.0000000 )    f =( -0.5000000 )
                  (  0.0000000 -1.0000000  0.0000000 )       (  0.5000000 )
                  (  0.0000000  0.0000000 -1.0000000 )       (  0.5000000 )


      isym =  5     180 deg rotation - cart. axis [1,1,0]        

 cryst.   s( 5) = (     0          1          0      )
                  (     1          0          0      )
                  (     0          0         -1      )

 cart.    s( 5) = (  0.0000000  1.0000000  0.0000000 )
                  (  1.0000000  0.0000000  0.0000000 )
                  (  0.0000000  0.0000000 -1.0000000 )


      isym =  6     180 deg rotation - cart. axis [1,-1,0]       

 cryst.   s( 6) = (     0         -1          0      )
                  (    -1          0          0      )
                  (     0          0         -1      )

 cart.    s( 6) = (  0.0000000 -1.0000000  0.0000000 )
                  ( -1.0000000  0.0000000  0.0000000 )
                  (  0.0000000  0.0000000 -1.0000000 )


      isym =  7      90 deg rotation - cart. axis [0,0,-1]       

 cryst.   s( 7) = (     0         -1          0      )    f =( -0.5000000 )
                  (     1          0          0      )       (  0.5000000 )
                  (     0          0          1      )       ( -0.5000000 )

 cart.    s( 7) = (  0.0000000  1.0000000  0.0000000 )    f =( -0.5000000 )
                  ( -1.0000000  0.0000000  0.0000000 )       (  0.5000000 )
                  (  0.0000000  0.0000000  1.0000000 )       ( -0.5000000 )


      isym =  8      90 deg rotation - cart. axis [0,0,1]        

 cryst.   s( 8) = (     0          1          0      )    f =(  0.5000000 )
                  (    -1          0          0      )       ( -0.5000000 )
                  (     0          0          1      )       ( -0.5000000 )

 cart.    s( 8) = (  0.0000000 -1.0000000  0.0000000 )    f =(  0.5000000 )
                  (  1.0000000  0.0000000  0.0000000 )       ( -0.5000000 )
                  (  0.0000000  0.0000000  1.0000000 )       ( -0.5000000 )


      isym =  9     inversion                                    

 cryst.   s( 9) = (    -1          0          0      )
                  (     0         -1          0      )
                  (     0          0         -1      )

 cart.    s( 9) = ( -1.0000000  0.0000000  0.0000000 )
                  (  0.0000000 -1.0000000  0.0000000 )
                  (  0.0000000  0.0000000 -1.0000000 )


      isym = 10     inv. 180 deg rotation - cart. axis [0,0,1]   

 cryst.   s(10) = (     1          0          0      )
                  (     0          1          0      )
                  (     0          0         -1      )

 cart.    s(10) = (  1.0000000  0.0000000  0.0000000 )
                  (  0.0000000  1.0000000  0.0000000 )
                  (  0.0000000  0.0000000 -1.0000000 )


      isym = 11     inv. 180 deg rotation - cart. axis [0,1,0]   

 cryst.   s(11) = (     1          0          0      )    f =( -0.5000000 )
                  (     0         -1          0      )       (  0.5000000 )
                  (     0          0          1      )       ( -0.5000000 )

 cart.    s(11) = (  1.0000000  0.0000000  0.0000000 )    f =( -0.5000000 )
                  (  0.0000000 -1.0000000  0.0000000 )       (  0.5000000 )
                  (  0.0000000  0.0000000  1.0000000 )       ( -0.5000000 )


      isym = 12     inv. 180 deg rotation - cart. axis [1,0,0]   

 cryst.   s(12) = (    -1          0          0      )    f =(  0.5000000 )
                  (     0          1          0      )       ( -0.5000000 )
                  (     0          0          1      )       ( -0.5000000 )

 cart.    s(12) = ( -1.0000000  0.0000000  0.0000000 )    f =(  0.5000000 )
                  (  0.0000000  1.0000000  0.0000000 )       ( -0.5000000 )
                  (  0.0000000  0.0000000  1.0000000 )       ( -0.5000000 )


      isym = 13     inv. 180 deg rotation - cart. axis [1,1,0]   

 cryst.   s(13) = (     0         -1          0      )
                  (    -1          0          0      )
                  (     0          0          1      )

 cart.    s(13) = (  0.0000000 -1.0000000  0.0000000 )
                  ( -1.0000000  0.0000000  0.0000000 )
                  (  0.0000000  0.0000000  1.0000000 )


      isym = 14     inv. 180 deg rotation - cart. axis [1,-1,0]  

 cryst.   s(14) = (     0          1          0      )
                  (     1          0          0      )
                  (     0          0          1      )

 cart.    s(14) = (  0.0000000  1.0000000  0.0000000 )
                  (  1.0000000  0.0000000  0.0000000 )
                  (  0.0000000  0.0000000  1.0000000 )


      isym = 15     inv.  90 deg rotation - cart. axis [0,0,-1]  

 cryst.   s(15) = (     0          1          0      )    f =(  0.5000000 )
                  (    -1          0          0      )       ( -0.5000000 )
                  (     0          0         -1      )       (  0.5000000 )

 cart.    s(15) = (  0.0000000 -1.0000000  0.0000000 )    f =(  0.5000000 )
                  (  1.0000000  0.0000000  0.0000000 )       ( -0.5000000 )
                  (  0.0000000  0.0000000 -1.0000000 )       (  0.5000000 )


      isym = 16     inv.  90 deg rotation - cart. axis [0,0,1]   

 cryst.   s(16) = (     0         -1          0      )    f =( -0.5000000 )
                  (     1          0          0      )       (  0.5000000 )
                  (     0          0         -1      )       (  0.5000000 )

 cart.    s(16) = (  0.0000000  1.0000000  0.0000000 )    f =( -0.5000000 )
                  ( -1.0000000  0.0000000  0.0000000 )       (  0.5000000 )
                  (  0.0000000  0.0000000 -1.0000000 )       (  0.5000000 )


     double point group D_4h(4/mmm)
     there are 14 classes and  4 irreducible representations
     the character table:

       E     -E    2C4   -2C4   C2    2C2' 2C2'' i     -i    2S4   -2S4   s_h 
                               -C2   -2C2' -2C2'                         -s_h 
G_6+   2.00 -2.00  1.41 -1.41  0.00  0.00  0.00  2.00 -2.00  1.41 -1.41  0.00
G_7+   2.00 -2.00 -1.41  1.41  0.00  0.00  0.00  2.00 -2.00 -1.41  1.41  0.00
G_6-   2.00 -2.00  1.41 -1.41  0.00  0.00  0.00 -2.00  2.00 -1.41  1.41  0.00
G_7-   2.00 -2.00 -1.41  1.41  0.00  0.00  0.00 -2.00  2.00  1.41 -1.41  0.00

        2s_v  2s_d
       -2s_v -2s_d
G_6+   0.00  0.00
G_7+   0.00  0.00
G_6-   0.00  0.00
G_7-   0.00  0.00

     the symmetry operations in each class and the name of the first element:

     E             1
          identity                                               
     -E           -1
          identity E                                             
     2C4           7    8
           90 deg rotation - cart. axis [0,0,-1]                 
     -2C4         -7   -8
           90 deg rotation - cart. axis [0,0,-1] E               
      C2  -C2      2   -2
          180 deg rotation - cart. axis [0,0,1]                  
      2C2'-2C2'    3   -3    4   -4
          180 deg rotation - cart. axis [0,1,0]                  
     2C2''-2C2'    5   -5   -6    6
          180 deg rotation - cart. axis [1,1,0]                  
     i             9
          inversion                                              
     -i           -9
          inversion E                                            
     2S4          15   16
          inv.  90 deg rotation - cart. axis [0,0,-1]            
     -2S4        -15  -16
          inv.  90 deg rotation - cart. axis [0,0,-1] E          
      s_h -s_h    10  -10
          inv. 180 deg rotation - cart. axis [0,0,1]             
      2s_v-2s_v   11  -11   12  -12
          inv. 180 deg rotation - cart. axis [0,1,0]             
      2s_d-2s_d   13  -13  -14   14
          inv. 180 deg rotation - cart. axis [1,1,0]             

   Cartesian axes

     site n.     atom                  positions (alat units)
         1           Sn  tau(   1) = (   0.0000000   0.0000000   0.0000000  )
         2           Sn  tau(   2) = (   0.5000000   0.5000000   0.5000000  )
         3           I   tau(   3) = (   0.2985210   0.2985210   0.0000000  )
         4           I   tau(   4) = (   0.7014790   0.7014790   0.0000000  )
         5           I   tau(   5) = (   0.7985210   0.2014790   0.5000000  )
         6           I   tau(   6) = (   0.2014790   0.7985210   0.5000000  )

   Crystallographic axes

     site n.     atom                  positions (cryst. coord.)
         1           Sn  tau(   1) = (  0.0000000  0.0000000  0.0000000  )
         2           Sn  tau(   2) = (  0.5000000  0.5000000  0.5000000  )
         3           I   tau(   3) = (  0.2985210  0.2985210  0.0000000  )
         4           I   tau(   4) = (  0.7014790  0.7014790  0.0000000  )
         5           I   tau(   5) = (  0.7985210  0.2014790  0.5000000  )
         6           I   tau(   6) = (  0.2014790  0.7985210  0.5000000  )

     number of k points=     1
                       cart. coord. in units 2pi/alat
        k(    1) = (  -0.5000000  -0.5000000  -0.5000000), wk =   1.0000000

                       cryst. coord.
        k(    1) = (  -0.5000000  -0.5000000  -0.5000000), wk =   1.0000000

     Dense  grid:   331237 G-vectors     FFT dimensions: (  90,  90,  90)

     Smooth grid:   237129 G-vectors     FFT dimensions: (  80,  80,  80)

     Dynamical RAM for                 wfc:       1.05 MB

     Dynamical RAM for     wfc (w. buffer):       1.05 MB

     Dynamical RAM for           str. fact:       0.21 MB

     Dynamical RAM for           local pot:       0.00 MB

     Dynamical RAM for          nlocal pot:       1.92 MB

     Dynamical RAM for                qrad:       7.86 MB

     Dynamical RAM for          rho,v,vnew:       2.75 MB

     Dynamical RAM for               rhoin:       0.92 MB

     Dynamical RAM for            rho*nmix:       6.74 MB

     Dynamical RAM for           G-vectors:       0.43 MB

     Dynamical RAM for          h,s,v(r/c):       0.57 MB

     Dynamical RAM for          <psi|beta>:       0.35 MB

     Dynamical RAM for                 psi:       2.11 MB

     Dynamical RAM for                hpsi:       2.11 MB

     Dynamical RAM for                spsi:       2.11 MB

     Dynamical RAM for      wfcinit/wfcrot:       2.03 MB

     Dynamical RAM for           addusdens:      64.66 MB

     Dynamical RAM for          addusforce:      65.40 MB

     Dynamical RAM for         addusstress:      66.14 MB

     Estimated static dynamical RAM per process >      23.19 MB

     Estimated max dynamical RAM per process >      89.33 MB

     Estimated total dynamical RAM >       4.19 GB

     Initial potential from superposition of free atoms

     starting charge   55.99772, renormalised to   56.00000
     Starting wfcs are   68 randomized atomic wfcs

     total cpu time spent up to now is        2.5 secs

     Self-consistent Calculation

     iteration #  1     ecut=    70.00 Ry     beta= 0.35
     Davidson diagonalization with overlap
     ethr =  1.00E-02,  avg # of iterations =  1.0

     Threshold (ethr) on eigenvalues was too large:
     Diagonalizing with lowered threshold

     Davidson diagonalization with overlap
     ethr =  9.88E-04,  avg # of iterations =  1.0

     total cpu time spent up to now is        4.7 secs

     total energy              =    -458.35589054 Ry
     estimated scf accuracy    <       0.54190465 Ry

     iteration #  2     ecut=    70.00 Ry     beta= 0.35
     Davidson diagonalization with overlap
     ethr =  9.68E-04,  avg # of iterations =  2.0

     total cpu time spent up to now is        6.2 secs

     total energy              =    -458.42314022 Ry
     estimated scf accuracy    <       0.05319445 Ry

     iteration #  3     ecut=    70.00 Ry     beta= 0.35
     Davidson diagonalization with overlap
     ethr =  9.50E-05,  avg # of iterations =  5.0

     total cpu time spent up to now is        8.0 secs

     total energy              =    -458.43460409 Ry
     estimated scf accuracy    <       0.02071476 Ry

     iteration #  4     ecut=    70.00 Ry     beta= 0.35
     Davidson diagonalization with overlap
     ethr =  3.70E-05,  avg # of iterations =  5.0

     total cpu time spent up to now is        9.6 secs

     total energy              =    -458.43918738 Ry
     estimated scf accuracy    <       0.01153008 Ry

     iteration #  5     ecut=    70.00 Ry     beta= 0.35
     Davidson diagonalization with overlap
     ethr =  2.06E-05,  avg # of iterations =  2.0

     total cpu time spent up to now is       11.2 secs

     total energy              =    -458.43986194 Ry
     estimated scf accuracy    <       0.00090236 Ry

     iteration #  6     ecut=    70.00 Ry     beta= 0.35
     Davidson diagonalization with overlap
     ethr =  1.61E-06,  avg # of iterations = 11.0

     total cpu time spent up to now is       13.1 secs

     total energy              =    -458.44032379 Ry
     estimated scf accuracy    <       0.00535197 Ry

     iteration #  7     ecut=    70.00 Ry     beta= 0.35
     Davidson diagonalization with overlap
     ethr =  1.61E-06,  avg # of iterations =  5.0

     total cpu time spent up to now is       14.9 secs

     total energy              =    -458.44091825 Ry
     estimated scf accuracy    <       0.00029954 Ry

     iteration #  8     ecut=    70.00 Ry     beta= 0.35
     Davidson diagonalization with overlap
     ethr =  5.35E-07,  avg # of iterations =  2.0

     total cpu time spent up to now is       16.3 secs

     total energy              =    -458.44085954 Ry
     estimated scf accuracy    <       0.00017675 Ry

     iteration #  9     ecut=    70.00 Ry     beta= 0.35
     Davidson diagonalization with overlap
     ethr =  3.16E-07,  avg # of iterations =  5.0

     total cpu time spent up to now is       17.9 secs

     total energy              =    -458.44096323 Ry
     estimated scf accuracy    <       0.00003624 Ry

     iteration # 10     ecut=    70.00 Ry     beta= 0.35
     Davidson diagonalization with overlap
     ethr =  6.47E-08,  avg # of iterations =  2.0

     total cpu time spent up to now is       19.4 secs

     total energy              =    -458.44095975 Ry
     estimated scf accuracy    <       0.00002092 Ry

     iteration # 11     ecut=    70.00 Ry     beta= 0.35
     Davidson diagonalization with overlap
     ethr =  3.74E-08,  avg # of iterations =  2.0

     total cpu time spent up to now is       20.8 secs

     total energy              =    -458.44095928 Ry
     estimated scf accuracy    <       0.00000842 Ry

     iteration # 12     ecut=    70.00 Ry     beta= 0.35
     Davidson diagonalization with overlap
     ethr =  1.50E-08,  avg # of iterations =  4.0

     total cpu time spent up to now is       22.3 secs

     total energy              =    -458.44096025 Ry
     estimated scf accuracy    <       0.00000259 Ry

     iteration # 13     ecut=    70.00 Ry     beta= 0.35
     Davidson diagonalization with overlap
     ethr =  4.63E-09,  avg # of iterations =  2.0

     total cpu time spent up to now is       23.7 secs

     total energy              =    -458.44096016 Ry
     estimated scf accuracy    <       0.00000260 Ry

     iteration # 14     ecut=    70.00 Ry     beta= 0.35
     Davidson diagonalization with overlap
     ethr =  4.63E-09,  avg # of iterations =  1.0

     total cpu time spent up to now is       25.0 secs

     total energy              =    -458.44095921 Ry
     estimated scf accuracy    <       0.00000203 Ry

     iteration # 15     ecut=    70.00 Ry     beta= 0.35
     Davidson diagonalization with overlap
     ethr =  3.62E-09,  avg # of iterations =  6.0

     total cpu time spent up to now is       26.5 secs

     End of self-consistent calculation

          k =-0.5000-0.5000-0.5000 ( 29464 PWs)   bands (ev):

   -23.2389 -23.2389 -23.2389 -23.2389 -23.0975 -23.0975 -23.0975 -23.0975
   -22.2213 -22.2213 -22.2213 -22.2213 -22.0983 -22.0983 -22.0983 -22.0983
   -22.0406 -22.0406 -22.0406 -22.0406 -11.5830 -11.5830 -11.5830 -11.5830
   -11.5044 -11.5044 -11.5044 -11.5044  -6.9897  -6.9897  -6.9897  -6.9897
    -2.5436  -2.5436  -2.5436  -2.5436  -2.0908  -2.0908  -2.0908  -2.0908
    -1.7938  -1.7938  -1.7938  -1.7938  -1.3089  -1.3089  -1.3089  -1.3089
    -1.1012  -1.1012  -1.1012  -1.1012  -0.7894  -0.7894  -0.7894  -0.7894

     occupation numbers 
     1.0000   1.0000   1.0000   1.0000   1.0000   1.0000   1.0000   1.0000
     1.0000   1.0000   1.0000   1.0000   1.0000   1.0000   1.0000   1.0000
     1.0000   1.0000   1.0000   1.0000   1.0000   1.0000   1.0000   1.0000
     1.0000   1.0000   1.0000   1.0000   1.0000   1.0000   1.0000   1.0000
     1.0000   1.0000   1.0000   1.0000   1.0000   1.0000   1.0000   1.0000
     1.0000   1.0000   1.0000   1.0000   1.0000   1.0000   1.0000   1.0000
     1.0000   1.0000   1.0000   1.0000   1.0000   1.0000   1.0000   1.0000

     highest occupied level (ev):    -0.7894

!    total energy              =    -458.44095983 Ry
     estimated scf accuracy    <       0.00000028 Ry

     The total energy is the sum of the following terms:
     one-electron contribution =    -256.55215034 Ry
     hartree contribution      =     145.43387975 Ry
     xc contribution           =    -157.07092890 Ry
     ewald contribution        =    -190.25176033 Ry

     convergence has been achieved in  15 iterations

     Forces acting on atoms (cartesian axes, Ry/au):

     atom    1 type  1   force =     0.00000000    0.00000000    0.00000000
     atom    2 type  1   force =     0.00000000    0.00000000    0.00000000
     atom    3 type  2   force =    -0.01765087   -0.01765087   -0.00000000
     atom    4 type  2   force =     0.01765087    0.01765087    0.00000000
     atom    5 type  2   force =    -0.01765087    0.01765087    0.00000000
     atom    6 type  2   force =     0.01765087   -0.01765087    0.00000000
     The non-local contrib.  to forces
     atom    1 type  1   force =     0.00000000    0.00000000   -0.00000000
     atom    2 type  1   force =     0.00000000    0.00000000    0.00000000
     atom    3 type  2   force =    -0.02771652   -0.02771652    0.00000000
     atom    4 type  2   force =     0.02771652    0.02771652   -0.00000000
     atom    5 type  2   force =    -0.02771652    0.02771652    0.00000000
     atom    6 type  2   force =     0.02771652   -0.02771652   -0.00000000
     The ionic contribution  to forces
     atom    1 type  1   force =    -0.00000000   -0.00000000    0.00000000
     atom    2 type  1   force =    -0.00000000   -0.00000000    0.00000000
     atom    3 type  2   force =     1.38633658    1.38633658    0.00000000
     atom    4 type  2   force =    -1.38633658   -1.38633658   -0.00000000
     atom    5 type  2   force =     1.38633658   -1.38633658    0.00000000
     atom    6 type  2   force =    -1.38633658    1.38633658    0.00000000
     The local contribution  to forces
     atom    1 type  1   force =    -0.00000000   -0.00000000   -0.00000000
     atom    2 type  1   force =     0.00000000    0.00000000    0.00000000
     atom    3 type  2   force =    -1.37839542   -1.37839542   -0.00000000
     atom    4 type  2   force =     1.37839542    1.37839542   -0.00000000
     atom    5 type  2   force =    -1.37839542    1.37839542    0.00000000
     atom    6 type  2   force =     1.37839542   -1.37839542    0.00000000
     The core correction contribution to forces
     atom    1 type  1   force =     0.00000000    0.00000000    0.00000000
     atom    2 type  1   force =     0.00000000    0.00000000    0.00000000
     atom    3 type  2   force =     0.00203103    0.00203103    0.00000000
     atom    4 type  2   force =    -0.00203103   -0.00203103    0.00000000
     atom    5 type  2   force =     0.00203103   -0.00203103   -0.00000000
     atom    6 type  2   force =    -0.00203103    0.00203103   -0.00000000
     The Hubbard contrib.    to forces
     atom    1 type  1   force =     0.00000000    0.00000000    0.00000000
     atom    2 type  1   force =     0.00000000    0.00000000    0.00000000
     atom    3 type  2   force =     0.00000000    0.00000000    0.00000000
     atom    4 type  2   force =     0.00000000    0.00000000    0.00000000
     atom    5 type  2   force =     0.00000000    0.00000000    0.00000000
     atom    6 type  2   force =     0.00000000    0.00000000    0.00000000
     The SCF correction term to forces
     atom    1 type  1   force =    -0.00000000    0.00000000    0.00000000
     atom    2 type  1   force =     0.00000000    0.00000000   -0.00000000
     atom    3 type  2   force =     0.00009346    0.00009346   -0.00000000
     atom    4 type  2   force =    -0.00009346   -0.00009346    0.00000000
     atom    5 type  2   force =     0.00009346   -0.00009346   -0.00000000
     atom    6 type  2   force =    -0.00009346    0.00009346   -0.00000000

     Total force =     0.049924     Total SCF correction =     0.000264


     Computing stress (Cartesian axis) and pressure

          total   stress  (Ry/bohr**3)                   (kbar)     P=      -29.86
  -0.00021334   0.00000000   0.00000000          -31.38        0.00        0.00
   0.00000000  -0.00021334   0.00000000            0.00      -31.38        0.00
   0.00000000   0.00000000  -0.00018230            0.00        0.00      -26.82

     kinetic stress (kbar)   4471.25      0.00      0.00
                                0.00   4471.25      0.00
                                0.00      0.00   4480.47

     local   stress (kbar)  -2708.57      0.00      0.00
                                0.00  -2708.57     -0.00
                                0.00     -0.00  -2211.93

     nonloc. stress (kbar)     66.38      0.00      0.00
                                0.00     66.38      0.00
                                0.00      0.00     58.02

     hartree stress (kbar)   2421.71     -0.00     -0.00
                               -0.00   2421.71     -0.00
                               -0.00     -0.00   2291.72

     exc-cor stress (kbar)   3792.50      0.00      0.00
                                0.00   3792.50      0.00
                                0.00      0.00   3791.46

     corecor stress (kbar)  -5083.66      0.00     -0.00
                                0.00  -5083.66     -0.00
                               -0.00     -0.00  -5084.58

     ewald   stress (kbar)  -2990.99     -0.00     -0.00
                               -0.00  -2990.99     -0.00
                               -0.00     -0.00  -3351.97

     hubbard stress (kbar)      0.00      0.00      0.00
                                0.00      0.00      0.00
                                0.00      0.00      0.00

     DFT-D   stress (kbar)      0.00      0.00      0.00
                                0.00      0.00      0.00
                                0.00      0.00      0.00

     XDM     stress (kbar)      0.00      0.00      0.00
                                0.00      0.00      0.00
                                0.00      0.00      0.00

     dft-nl  stress (kbar)      0.00      0.00      0.00
                                0.00      0.00      0.00
                                0.00      0.00      0.00

     TS-vdW  stress (kbar)      0.00      0.00      0.00
                                0.00      0.00      0.00
                                0.00      0.00      0.00



     Writing output data file ./SnI2.save/

     init_run     :      2.05s CPU      1.48s WALL (       1 calls)
     electrons    :     38.00s CPU     24.16s WALL (       1 calls)
     forces       :      1.16s CPU      0.68s WALL (       1 calls)
     stress       :      5.01s CPU      2.70s WALL (       1 calls)

     Called by init_run:
     wfcinit      :      0.51s CPU      0.32s WALL (       1 calls)
     wfcinit:atom :      0.00s CPU      0.00s WALL (       1 calls)
     wfcinit:wfcr :      0.49s CPU      0.30s WALL (       1 calls)
     potinit      :      0.22s CPU      0.13s WALL (       1 calls)
     hinit0       :      0.52s CPU      0.42s WALL (       1 calls)

     Called by electrons:
     c_bands      :     14.33s CPU      7.77s WALL (      16 calls)
     sum_band     :     11.86s CPU      8.38s WALL (      16 calls)
     v_of_rho     :      0.84s CPU      0.47s WALL (      16 calls)
     v_h          :      0.07s CPU      0.04s WALL (      16 calls)
     v_xc         :      0.87s CPU      0.49s WALL (      18 calls)
     newd         :      9.80s CPU      6.64s WALL (      16 calls)
     mix_rho      :      0.81s CPU      0.50s WALL (      16 calls)

     Called by c_bands:
     init_us_2    :      0.11s CPU      0.07s WALL (      33 calls)
     cegterg      :     13.69s CPU      7.33s WALL (      16 calls)

     Called by sum_band:
     sum_band:wei :      0.00s CPU      0.00s WALL (      16 calls)
     sum_band:loo :      2.74s CPU      1.44s WALL (      16 calls)
     sum_band:buf :      0.00s CPU      0.00s WALL (      16 calls)
     sum_band:ini :      0.05s CPU      0.03s WALL (      16 calls)
     sum_band:cal :      0.23s CPU      0.12s WALL (      16 calls)
     sum_band:bec :      0.48s CPU      0.24s WALL (      16 calls)
     addusdens    :      8.50s CPU      6.50s WALL (      16 calls)
     addusd:skk   :      0.01s CPU      0.01s WALL (      32 calls)
     addusd:dgemm :      3.01s CPU      3.72s WALL (      32 calls)
     addusd:qvan2 :      5.29s CPU      2.67s WALL (      32 calls)

     Called by *egterg:
     cdiaghg      :      0.47s CPU      0.25s WALL (      71 calls)
     cegterg:over :      0.60s CPU      0.33s WALL (      56 calls)
     cegterg:upda :      0.21s CPU      0.11s WALL (      56 calls)
     cegterg:last :      0.41s CPU      0.21s WALL (      36 calls)
     h_psi        :     11.27s CPU      6.03s WALL (      73 calls)
     s_psi        :      0.77s CPU      0.44s WALL (      73 calls)
     g_psi        :      0.03s CPU      0.02s WALL (      56 calls)

     Called by h_psi:
     h_psi:calbec :      0.61s CPU      0.31s WALL (      73 calls)
     vloc_psi     :      9.98s CPU      5.33s WALL (      73 calls)
     add_vuspsi   :      0.65s CPU      0.37s WALL (      73 calls)

     General routines
     calbec       :      0.94s CPU      0.50s WALL (      94 calls)
     fft          :      1.58s CPU      0.90s WALL (     370 calls)
     ffts         :      0.43s CPU      0.24s WALL (     128 calls)
     fftw         :     10.91s CPU      5.83s WALL (   11516 calls)
     interpolate  :      0.40s CPU      0.21s WALL (      64 calls)

     Parallel routines
     fft_scatt_xy :      0.60s CPU      0.31s WALL (   12014 calls)
     fft_scatt_yz :      9.56s CPU      5.24s WALL (   12014 calls)

     PWSCF        :     47.24s CPU     30.35s WALL


   This run was terminated on:  10:54:20  31Jan2021            

=------------------------------------------------------------------------------=
   JOB DONE.
=------------------------------------------------------------------------------=
