
     Program PWSCF v.6.4.1 starts on 24Jan2021 at 17:50:43 

     This program is part of the open-source Quantum ESPRESSO suite
     for quantum simulation of materials; please cite
         "P. Giannozzi et al., J. Phys.:Condens. Matter 21 395502 (2009);
         "P. Giannozzi et al., J. Phys.:Condens. Matter 29 465901 (2017);
          URL http://www.quantum-espresso.org", 
     in publications or presentations arising from this work. More details at
     http://www.quantum-espresso.org/quote

     Parallel version (MPI & OpenMP), running on      48 processor cores
     Number of MPI processes:                24
     Threads/MPI process:                     2

     MPI processes distributed on     1 nodes
     R & G space division:  proc/nbgrp/npool/nimage =      24
     Waiting for input...
     Reading input from standard input

     Current dimensions of program PWSCF are:
     Max number of different atomic species (ntypx) = 10
     Max number of k-points (npk) =  40000
     Max angular momentum in pseudopotentials (lmaxx) =  3
               file Sn.rel-pbesol-dn-kjpaw_psl.1.0.0.UPF: wavefunction(s)  5S 5P 5P 4D 4D renormalized
               file I.rel-pbesol-n-kjpaw_psl.1.0.0.UPF: wavefunction(s)  5S renormalized

     Subspace diagonalization in iterative solution of the eigenvalue problem:
     one sub-group per band group will be used
     scalapack distributed-memory algorithm (size of sub-group:  3*  3 procs)

 
     Parallelization info
     --------------------
     sticks:   dense  smooth     PW     G-vecs:    dense   smooth      PW
     Min         372     248     67                26472    14418    2019
     Max         373     249     68                26475    14423    2023
     Sum        8945    5957   1609               635371   346083   48501
 

     Title: 
     CsIsalt                                                                    


     bravais-lattice index     =            1
     lattice parameter (alat)  =      14.4199  a.u.
     unit-cell volume          =    2998.4083 (a.u.)^3
     number of atoms/cell      =            6
     number of atomic types    =            2
     number of electrons       =        56.00
     number of Kohn-Sham states=           56
     kinetic-energy cutoff     =      90.0000  Ry
     charge density cutoff     =     540.0000  Ry
     convergence threshold     =      1.0E-06
     mixing beta               =       0.3500
     number of iterations used =            8  plain     mixing
     Exchange-correlation      = SLA PW PSX PSC ( 1  4 10  8 0 0)
     Non magnetic calculation with spin-orbit


     celldm(1)=  14.419945  celldm(2)=   0.000000  celldm(3)=   0.000000
     celldm(4)=   0.000000  celldm(5)=   0.000000  celldm(6)=   0.000000

     crystal axes: (cart. coord. in units of alat)
               a(1) = (   1.000000   0.000000   0.000000 )  
               a(2) = (   0.000000   1.000000   0.000000 )  
               a(3) = (   0.000000   0.000000   1.000000 )  

     reciprocal axes: (cart. coord. in units 2 pi/alat)
               b(1) = (  1.000000  0.000000  0.000000 )  
               b(2) = (  0.000000  1.000000  0.000000 )  
               b(3) = (  0.000000  0.000000  1.000000 )  


     PseudoPot. # 1 for Sn read from file:
     /marconi_scratch/userexternal/cmalosso/degironcoli/pseudo/Sn.rel-pbesol-dn-kjpaw_psl.1.0.0.UPF
     MD5 check sum: e69eff64f15ae39ad43ef58bacbfdf88
     Pseudo is Projector augmented-wave + core cor, Zval = 14.0
     Generated using "atomic" code by A. Dal Corso v.6.3
     Shape of augmentation charge: PSQ
     Using radial grid of 1243 points, 10 beta functions with: 
                l(1) =   0
                l(2) =   0
                l(3) =   1
                l(4) =   1
                l(5) =   1
                l(6) =   1
                l(7) =   2
                l(8) =   2
                l(9) =   2
               l(10) =   2
     Q(r) pseudized with 0 coefficients 


     PseudoPot. # 2 for I  read from file:
     /marconi_scratch/userexternal/cmalosso/degironcoli/pseudo/I.rel-pbesol-n-kjpaw_psl.1.0.0.UPF
     MD5 check sum: 4478c427bd443f303eca1937a163b991
     Pseudo is Projector augmented-wave + core cor, Zval =  7.0
     Generated using "atomic" code by A. Dal Corso v.6.3
     Shape of augmentation charge: PSQ
     Using radial grid of 1247 points, 10 beta functions with: 
                l(1) =   0
                l(2) =   0
                l(3) =   1
                l(4) =   1
                l(5) =   1
                l(6) =   1
                l(7) =   2
                l(8) =   2
                l(9) =   2
               l(10) =   2
     Q(r) pseudized with 0 coefficients 


     atomic species   valence    mass     pseudopotential
        Sn            14.00   118.70000     Sn( 1.00)
        I              7.00   126.90000     I ( 1.00)

     16 Sym. Ops., with inversion, found ( 8 have fractional translation)


                                    s                        frac. trans.

      isym =  1     identity                                     

 cryst.   s( 1) = (     1          0          0      )
                  (     0          1          0      )
                  (     0          0          1      )

 cart.    s( 1) = (  1.0000000  0.0000000  0.0000000 )
                  (  0.0000000  1.0000000  0.0000000 )
                  (  0.0000000  0.0000000  1.0000000 )


      isym =  2     180 deg rotation - cart. axis [0,0,1]        

 cryst.   s( 2) = (    -1          0          0      )
                  (     0         -1          0      )
                  (     0          0          1      )

 cart.    s( 2) = ( -1.0000000  0.0000000  0.0000000 )
                  (  0.0000000 -1.0000000  0.0000000 )
                  (  0.0000000  0.0000000  1.0000000 )


      isym =  3     180 deg rotation - cart. axis [0,1,0]        

 cryst.   s( 3) = (    -1          0          0      )    f =(  0.5000000 )
                  (     0          1          0      )       ( -0.5000000 )
                  (     0          0         -1      )       (  0.5000000 )

 cart.    s( 3) = ( -1.0000000  0.0000000  0.0000000 )    f =(  0.5000000 )
                  (  0.0000000  1.0000000  0.0000000 )       ( -0.5000000 )
                  (  0.0000000  0.0000000 -1.0000000 )       (  0.5000000 )


      isym =  4     180 deg rotation - cart. axis [1,0,0]        

 cryst.   s( 4) = (     1          0          0      )    f =( -0.5000000 )
                  (     0         -1          0      )       (  0.5000000 )
                  (     0          0         -1      )       (  0.5000000 )

 cart.    s( 4) = (  1.0000000  0.0000000  0.0000000 )    f =( -0.5000000 )
                  (  0.0000000 -1.0000000  0.0000000 )       (  0.5000000 )
                  (  0.0000000  0.0000000 -1.0000000 )       (  0.5000000 )


      isym =  5     180 deg rotation - cart. axis [1,1,0]        

 cryst.   s( 5) = (     0          1          0      )
                  (     1          0          0      )
                  (     0          0         -1      )

 cart.    s( 5) = (  0.0000000  1.0000000  0.0000000 )
                  (  1.0000000  0.0000000  0.0000000 )
                  (  0.0000000  0.0000000 -1.0000000 )


      isym =  6     180 deg rotation - cart. axis [1,-1,0]       

 cryst.   s( 6) = (     0         -1          0      )
                  (    -1          0          0      )
                  (     0          0         -1      )

 cart.    s( 6) = (  0.0000000 -1.0000000  0.0000000 )
                  ( -1.0000000  0.0000000  0.0000000 )
                  (  0.0000000  0.0000000 -1.0000000 )


      isym =  7      90 deg rotation - cart. axis [0,0,-1]       

 cryst.   s( 7) = (     0         -1          0      )    f =( -0.5000000 )
                  (     1          0          0      )       (  0.5000000 )
                  (     0          0          1      )       ( -0.5000000 )

 cart.    s( 7) = (  0.0000000  1.0000000  0.0000000 )    f =( -0.5000000 )
                  ( -1.0000000  0.0000000  0.0000000 )       (  0.5000000 )
                  (  0.0000000  0.0000000  1.0000000 )       ( -0.5000000 )


      isym =  8      90 deg rotation - cart. axis [0,0,1]        

 cryst.   s( 8) = (     0          1          0      )    f =(  0.5000000 )
                  (    -1          0          0      )       ( -0.5000000 )
                  (     0          0          1      )       ( -0.5000000 )

 cart.    s( 8) = (  0.0000000 -1.0000000  0.0000000 )    f =(  0.5000000 )
                  (  1.0000000  0.0000000  0.0000000 )       ( -0.5000000 )
                  (  0.0000000  0.0000000  1.0000000 )       ( -0.5000000 )


      isym =  9     inversion                                    

 cryst.   s( 9) = (    -1          0          0      )
                  (     0         -1          0      )
                  (     0          0         -1      )

 cart.    s( 9) = ( -1.0000000  0.0000000  0.0000000 )
                  (  0.0000000 -1.0000000  0.0000000 )
                  (  0.0000000  0.0000000 -1.0000000 )


      isym = 10     inv. 180 deg rotation - cart. axis [0,0,1]   

 cryst.   s(10) = (     1          0          0      )
                  (     0          1          0      )
                  (     0          0         -1      )

 cart.    s(10) = (  1.0000000  0.0000000  0.0000000 )
                  (  0.0000000  1.0000000  0.0000000 )
                  (  0.0000000  0.0000000 -1.0000000 )


      isym = 11     inv. 180 deg rotation - cart. axis [0,1,0]   

 cryst.   s(11) = (     1          0          0      )    f =( -0.5000000 )
                  (     0         -1          0      )       (  0.5000000 )
                  (     0          0          1      )       ( -0.5000000 )

 cart.    s(11) = (  1.0000000  0.0000000  0.0000000 )    f =( -0.5000000 )
                  (  0.0000000 -1.0000000  0.0000000 )       (  0.5000000 )
                  (  0.0000000  0.0000000  1.0000000 )       ( -0.5000000 )


      isym = 12     inv. 180 deg rotation - cart. axis [1,0,0]   

 cryst.   s(12) = (    -1          0          0      )    f =(  0.5000000 )
                  (     0          1          0      )       ( -0.5000000 )
                  (     0          0          1      )       ( -0.5000000 )

 cart.    s(12) = ( -1.0000000  0.0000000  0.0000000 )    f =(  0.5000000 )
                  (  0.0000000  1.0000000  0.0000000 )       ( -0.5000000 )
                  (  0.0000000  0.0000000  1.0000000 )       ( -0.5000000 )


      isym = 13     inv. 180 deg rotation - cart. axis [1,1,0]   

 cryst.   s(13) = (     0         -1          0      )
                  (    -1          0          0      )
                  (     0          0          1      )

 cart.    s(13) = (  0.0000000 -1.0000000  0.0000000 )
                  ( -1.0000000  0.0000000  0.0000000 )
                  (  0.0000000  0.0000000  1.0000000 )


      isym = 14     inv. 180 deg rotation - cart. axis [1,-1,0]  

 cryst.   s(14) = (     0          1          0      )
                  (     1          0          0      )
                  (     0          0          1      )

 cart.    s(14) = (  0.0000000  1.0000000  0.0000000 )
                  (  1.0000000  0.0000000  0.0000000 )
                  (  0.0000000  0.0000000  1.0000000 )


      isym = 15     inv.  90 deg rotation - cart. axis [0,0,-1]  

 cryst.   s(15) = (     0          1          0      )    f =(  0.5000000 )
                  (    -1          0          0      )       ( -0.5000000 )
                  (     0          0         -1      )       (  0.5000000 )

 cart.    s(15) = (  0.0000000 -1.0000000  0.0000000 )    f =(  0.5000000 )
                  (  1.0000000  0.0000000  0.0000000 )       ( -0.5000000 )
                  (  0.0000000  0.0000000 -1.0000000 )       (  0.5000000 )


      isym = 16     inv.  90 deg rotation - cart. axis [0,0,1]   

 cryst.   s(16) = (     0         -1          0      )    f =( -0.5000000 )
                  (     1          0          0      )       (  0.5000000 )
                  (     0          0         -1      )       (  0.5000000 )

 cart.    s(16) = (  0.0000000  1.0000000  0.0000000 )    f =( -0.5000000 )
                  ( -1.0000000  0.0000000  0.0000000 )       (  0.5000000 )
                  (  0.0000000  0.0000000 -1.0000000 )       (  0.5000000 )


     double point group D_4h(4/mmm)
     there are 14 classes and  4 irreducible representations
     the character table:

       E     -E    2C4   -2C4   C2    2C2' 2C2'' i     -i    2S4   -2S4   s_h 
                               -C2   -2C2' -2C2'                         -s_h 
G_6+   2.00 -2.00  1.41 -1.41  0.00  0.00  0.00  2.00 -2.00  1.41 -1.41  0.00
G_7+   2.00 -2.00 -1.41  1.41  0.00  0.00  0.00  2.00 -2.00 -1.41  1.41  0.00
G_6-   2.00 -2.00  1.41 -1.41  0.00  0.00  0.00 -2.00  2.00 -1.41  1.41  0.00
G_7-   2.00 -2.00 -1.41  1.41  0.00  0.00  0.00 -2.00  2.00  1.41 -1.41  0.00

        2s_v  2s_d
       -2s_v -2s_d
G_6+   0.00  0.00
G_7+   0.00  0.00
G_6-   0.00  0.00
G_7-   0.00  0.00

     the symmetry operations in each class and the name of the first element:

     E             1
          identity                                               
     -E           -1
          identity E                                             
     2C4           7    8
           90 deg rotation - cart. axis [0,0,-1]                 
     -2C4         -7   -8
           90 deg rotation - cart. axis [0,0,-1] E               
      C2  -C2      2   -2
          180 deg rotation - cart. axis [0,0,1]                  
      2C2'-2C2'    3   -3    4   -4
          180 deg rotation - cart. axis [0,1,0]                  
     2C2''-2C2'    5   -5   -6    6
          180 deg rotation - cart. axis [1,1,0]                  
     i             9
          inversion                                              
     -i           -9
          inversion E                                            
     2S4          15   16
          inv.  90 deg rotation - cart. axis [0,0,-1]            
     -2S4        -15  -16
          inv.  90 deg rotation - cart. axis [0,0,-1] E          
      s_h -s_h    10  -10
          inv. 180 deg rotation - cart. axis [0,0,1]             
      2s_v-2s_v   11  -11   12  -12
          inv. 180 deg rotation - cart. axis [0,1,0]             
      2s_d-2s_d   13  -13  -14   14
          inv. 180 deg rotation - cart. axis [1,1,0]             

   Cartesian axes

     site n.     atom                  positions (alat units)
         1           Sn  tau(   1) = (   0.0000000   0.0000000   0.0000000  )
         2           Sn  tau(   2) = (   0.5000000   0.5000000   0.5000000  )
         3           I   tau(   3) = (   0.2985210   0.2985210   0.0000000  )
         4           I   tau(   4) = (   0.7014790   0.7014790   0.0000000  )
         5           I   tau(   5) = (   0.7985210   0.2014790   0.5000000  )
         6           I   tau(   6) = (   0.2014790   0.7985210   0.5000000  )

   Crystallographic axes

     site n.     atom                  positions (cryst. coord.)
         1           Sn  tau(   1) = (  0.0000000  0.0000000  0.0000000  )
         2           Sn  tau(   2) = (  0.5000000  0.5000000  0.5000000  )
         3           I   tau(   3) = (  0.2985210  0.2985210  0.0000000  )
         4           I   tau(   4) = (  0.7014790  0.7014790  0.0000000  )
         5           I   tau(   5) = (  0.7985210  0.2014790  0.5000000  )
         6           I   tau(   6) = (  0.2014790  0.7985210  0.5000000  )

     number of k points=   126
                       cart. coord. in units 2pi/alat
        k(    1) = (   0.0454545   0.0454545   0.0454545), wk =   0.0060105
        k(    2) = (   0.0454545   0.0454545   0.1363636), wk =   0.0060105
        k(    3) = (   0.0454545   0.0454545   0.2272727), wk =   0.0060105
        k(    4) = (   0.0454545   0.0454545   0.3181818), wk =   0.0060105
        k(    5) = (   0.0454545   0.0454545   0.4090909), wk =   0.0060105
        k(    6) = (   0.0454545   0.0454545  -0.5000000), wk =   0.0030053
        k(    7) = (   0.0454545   0.1363636   0.1363636), wk =   0.0120210
        k(    8) = (   0.0454545   0.1363636   0.2272727), wk =   0.0120210
        k(    9) = (   0.0454545   0.1363636   0.3181818), wk =   0.0120210
        k(   10) = (   0.0454545   0.1363636   0.4090909), wk =   0.0120210
        k(   11) = (   0.0454545   0.1363636  -0.5000000), wk =   0.0060105
        k(   12) = (   0.0454545   0.2272727   0.2272727), wk =   0.0120210
        k(   13) = (   0.0454545   0.2272727   0.3181818), wk =   0.0120210
        k(   14) = (   0.0454545   0.2272727   0.4090909), wk =   0.0120210
        k(   15) = (   0.0454545   0.2272727  -0.5000000), wk =   0.0060105
        k(   16) = (   0.0454545   0.3181818   0.3181818), wk =   0.0120210
        k(   17) = (   0.0454545   0.3181818   0.4090909), wk =   0.0120210
        k(   18) = (   0.0454545   0.3181818  -0.5000000), wk =   0.0060105
        k(   19) = (   0.0454545   0.4090909   0.4090909), wk =   0.0120210
        k(   20) = (   0.0454545   0.4090909  -0.5000000), wk =   0.0060105
        k(   21) = (   0.0454545  -0.5000000  -0.5000000), wk =   0.0030053
        k(   22) = (   0.1363636   0.1363636   0.1363636), wk =   0.0060105
        k(   23) = (   0.1363636   0.1363636   0.2272727), wk =   0.0060105
        k(   24) = (   0.1363636   0.1363636   0.3181818), wk =   0.0060105
        k(   25) = (   0.1363636   0.1363636   0.4090909), wk =   0.0060105
        k(   26) = (   0.1363636   0.1363636  -0.5000000), wk =   0.0030053
        k(   27) = (   0.1363636   0.2272727   0.2272727), wk =   0.0120210
        k(   28) = (   0.1363636   0.2272727   0.3181818), wk =   0.0120210
        k(   29) = (   0.1363636   0.2272727   0.4090909), wk =   0.0120210
        k(   30) = (   0.1363636   0.2272727  -0.5000000), wk =   0.0060105
        k(   31) = (   0.1363636   0.3181818   0.3181818), wk =   0.0120210
        k(   32) = (   0.1363636   0.3181818   0.4090909), wk =   0.0120210
        k(   33) = (   0.1363636   0.3181818  -0.5000000), wk =   0.0060105
        k(   34) = (   0.1363636   0.4090909   0.4090909), wk =   0.0120210
        k(   35) = (   0.1363636   0.4090909  -0.5000000), wk =   0.0060105
        k(   36) = (   0.1363636  -0.5000000  -0.5000000), wk =   0.0030053
        k(   37) = (   0.2272727   0.2272727   0.2272727), wk =   0.0060105
        k(   38) = (   0.2272727   0.2272727   0.3181818), wk =   0.0060105
        k(   39) = (   0.2272727   0.2272727   0.4090909), wk =   0.0060105
        k(   40) = (   0.2272727   0.2272727  -0.5000000), wk =   0.0030053
        k(   41) = (   0.2272727   0.3181818   0.3181818), wk =   0.0120210
        k(   42) = (   0.2272727   0.3181818   0.4090909), wk =   0.0120210
        k(   43) = (   0.2272727   0.3181818  -0.5000000), wk =   0.0060105
        k(   44) = (   0.2272727   0.4090909   0.4090909), wk =   0.0120210
        k(   45) = (   0.2272727   0.4090909  -0.5000000), wk =   0.0060105
        k(   46) = (   0.2272727  -0.5000000  -0.5000000), wk =   0.0030053
        k(   47) = (   0.3181818   0.3181818   0.3181818), wk =   0.0060105
        k(   48) = (   0.3181818   0.3181818   0.4090909), wk =   0.0060105
        k(   49) = (   0.3181818   0.3181818  -0.5000000), wk =   0.0030053
        k(   50) = (   0.3181818   0.4090909   0.4090909), wk =   0.0120210
        k(   51) = (   0.3181818   0.4090909  -0.5000000), wk =   0.0060105
        k(   52) = (   0.3181818  -0.5000000  -0.5000000), wk =   0.0030053
        k(   53) = (   0.4090909   0.4090909   0.4090909), wk =   0.0060105
        k(   54) = (   0.4090909   0.4090909  -0.5000000), wk =   0.0030053
        k(   55) = (   0.4090909  -0.5000000  -0.5000000), wk =   0.0030053
        k(   56) = (  -0.5000000  -0.5000000  -0.5000000), wk =   0.0007513
        k(   57) = (   0.0454545   0.1363636   0.0454545), wk =   0.0120210
        k(   58) = (   0.0454545   0.2272727   0.0454545), wk =   0.0120210
        k(   59) = (   0.0454545   0.3181818   0.0454545), wk =   0.0120210
        k(   60) = (   0.0454545   0.4090909   0.0454545), wk =   0.0120210
        k(   61) = (   0.0454545  -0.5000000   0.0454545), wk =   0.0060105
        k(   62) = (   0.1363636   0.1363636   0.0454545), wk =   0.0060105
        k(   63) = (   0.1363636   0.2272727   0.0454545), wk =   0.0120210
        k(   64) = (   0.2272727   0.0454545   0.1363636), wk =   0.0120210
        k(   65) = (   0.1363636   0.3181818   0.0454545), wk =   0.0120210
        k(   66) = (   0.3181818   0.0454545   0.1363636), wk =   0.0120210
        k(   67) = (   0.1363636   0.4090909   0.0454545), wk =   0.0120210
        k(   68) = (   0.4090909   0.0454545   0.1363636), wk =   0.0120210
        k(   69) = (   0.1363636  -0.5000000   0.0454545), wk =   0.0060105
        k(   70) = (  -0.5000000   0.0454545   0.1363636), wk =   0.0060105
        k(   71) = (   0.2272727   0.2272727   0.0454545), wk =   0.0060105
        k(   72) = (   0.2272727   0.3181818   0.0454545), wk =   0.0120210
        k(   73) = (   0.3181818   0.0454545   0.2272727), wk =   0.0120210
        k(   74) = (   0.2272727   0.4090909   0.0454545), wk =   0.0120210
        k(   75) = (   0.4090909   0.0454545   0.2272727), wk =   0.0120210
        k(   76) = (   0.2272727  -0.5000000   0.0454545), wk =   0.0060105
        k(   77) = (  -0.5000000   0.0454545   0.2272727), wk =   0.0060105
        k(   78) = (   0.3181818   0.3181818   0.0454545), wk =   0.0060105
        k(   79) = (   0.3181818   0.4090909   0.0454545), wk =   0.0120210
        k(   80) = (   0.4090909   0.0454545   0.3181818), wk =   0.0120210
        k(   81) = (   0.3181818  -0.5000000   0.0454545), wk =   0.0060105
        k(   82) = (  -0.5000000   0.0454545   0.3181818), wk =   0.0060105
        k(   83) = (   0.4090909   0.4090909   0.0454545), wk =   0.0060105
        k(   84) = (   0.4090909  -0.5000000   0.0454545), wk =   0.0060105
        k(   85) = (  -0.5000000   0.0454545   0.4090909), wk =   0.0060105
        k(   86) = (  -0.5000000  -0.5000000   0.0454545), wk =   0.0015026
        k(   87) = (   0.1363636   0.2272727   0.1363636), wk =   0.0120210
        k(   88) = (   0.1363636   0.3181818   0.1363636), wk =   0.0120210
        k(   89) = (   0.1363636   0.4090909   0.1363636), wk =   0.0120210
        k(   90) = (   0.1363636  -0.5000000   0.1363636), wk =   0.0060105
        k(   91) = (   0.2272727   0.2272727   0.1363636), wk =   0.0060105
        k(   92) = (   0.2272727   0.3181818   0.1363636), wk =   0.0120210
        k(   93) = (   0.3181818   0.1363636   0.2272727), wk =   0.0120210
        k(   94) = (   0.2272727   0.4090909   0.1363636), wk =   0.0120210
        k(   95) = (   0.4090909   0.1363636   0.2272727), wk =   0.0120210
        k(   96) = (   0.2272727  -0.5000000   0.1363636), wk =   0.0060105
        k(   97) = (  -0.5000000   0.1363636   0.2272727), wk =   0.0060105
        k(   98) = (   0.3181818   0.3181818   0.1363636), wk =   0.0060105
        k(   99) = (   0.3181818   0.4090909   0.1363636), wk =   0.0120210
        k(  100) = (   0.4090909   0.1363636   0.3181818), wk =   0.0120210
        k(  101) = (   0.3181818  -0.5000000   0.1363636), wk =   0.0060105
        k(  102) = (  -0.5000000   0.1363636   0.3181818), wk =   0.0060105
        k(  103) = (   0.4090909   0.4090909   0.1363636), wk =   0.0060105
        k(  104) = (   0.4090909  -0.5000000   0.1363636), wk =   0.0060105
        k(  105) = (  -0.5000000   0.1363636   0.4090909), wk =   0.0060105
        k(  106) = (  -0.5000000  -0.5000000   0.1363636), wk =   0.0015026
        k(  107) = (   0.2272727   0.3181818   0.2272727), wk =   0.0120210
        k(  108) = (   0.2272727   0.4090909   0.2272727), wk =   0.0120210
        k(  109) = (   0.2272727  -0.5000000   0.2272727), wk =   0.0060105
        k(  110) = (   0.3181818   0.3181818   0.2272727), wk =   0.0060105
        k(  111) = (   0.3181818   0.4090909   0.2272727), wk =   0.0120210
        k(  112) = (   0.4090909   0.2272727   0.3181818), wk =   0.0120210
        k(  113) = (   0.3181818  -0.5000000   0.2272727), wk =   0.0060105
        k(  114) = (  -0.5000000   0.2272727   0.3181818), wk =   0.0060105
        k(  115) = (   0.4090909   0.4090909   0.2272727), wk =   0.0060105
        k(  116) = (   0.4090909  -0.5000000   0.2272727), wk =   0.0060105
        k(  117) = (  -0.5000000   0.2272727   0.4090909), wk =   0.0060105
        k(  118) = (  -0.5000000  -0.5000000   0.2272727), wk =   0.0015026
        k(  119) = (   0.3181818   0.4090909   0.3181818), wk =   0.0120210
        k(  120) = (   0.3181818  -0.5000000   0.3181818), wk =   0.0060105
        k(  121) = (   0.4090909   0.4090909   0.3181818), wk =   0.0060105
        k(  122) = (   0.4090909  -0.5000000   0.3181818), wk =   0.0060105
        k(  123) = (  -0.5000000   0.3181818   0.4090909), wk =   0.0060105
        k(  124) = (  -0.5000000  -0.5000000   0.3181818), wk =   0.0015026
        k(  125) = (   0.4090909  -0.5000000   0.4090909), wk =   0.0060105
        k(  126) = (  -0.5000000  -0.5000000   0.4090909), wk =   0.0015026

                       cryst. coord.
        k(    1) = (   0.0454545   0.0454545   0.0454545), wk =   0.0060105
        k(    2) = (   0.0454545   0.0454545   0.1363636), wk =   0.0060105
        k(    3) = (   0.0454545   0.0454545   0.2272727), wk =   0.0060105
        k(    4) = (   0.0454545   0.0454545   0.3181818), wk =   0.0060105
        k(    5) = (   0.0454545   0.0454545   0.4090909), wk =   0.0060105
        k(    6) = (   0.0454545   0.0454545  -0.5000000), wk =   0.0030053
        k(    7) = (   0.0454545   0.1363636   0.1363636), wk =   0.0120210
        k(    8) = (   0.0454545   0.1363636   0.2272727), wk =   0.0120210
        k(    9) = (   0.0454545   0.1363636   0.3181818), wk =   0.0120210
        k(   10) = (   0.0454545   0.1363636   0.4090909), wk =   0.0120210
        k(   11) = (   0.0454545   0.1363636  -0.5000000), wk =   0.0060105
        k(   12) = (   0.0454545   0.2272727   0.2272727), wk =   0.0120210
        k(   13) = (   0.0454545   0.2272727   0.3181818), wk =   0.0120210
        k(   14) = (   0.0454545   0.2272727   0.4090909), wk =   0.0120210
        k(   15) = (   0.0454545   0.2272727  -0.5000000), wk =   0.0060105
        k(   16) = (   0.0454545   0.3181818   0.3181818), wk =   0.0120210
        k(   17) = (   0.0454545   0.3181818   0.4090909), wk =   0.0120210
        k(   18) = (   0.0454545   0.3181818  -0.5000000), wk =   0.0060105
        k(   19) = (   0.0454545   0.4090909   0.4090909), wk =   0.0120210
        k(   20) = (   0.0454545   0.4090909  -0.5000000), wk =   0.0060105
        k(   21) = (   0.0454545  -0.5000000  -0.5000000), wk =   0.0030053
        k(   22) = (   0.1363636   0.1363636   0.1363636), wk =   0.0060105
        k(   23) = (   0.1363636   0.1363636   0.2272727), wk =   0.0060105
        k(   24) = (   0.1363636   0.1363636   0.3181818), wk =   0.0060105
        k(   25) = (   0.1363636   0.1363636   0.4090909), wk =   0.0060105
        k(   26) = (   0.1363636   0.1363636  -0.5000000), wk =   0.0030053
        k(   27) = (   0.1363636   0.2272727   0.2272727), wk =   0.0120210
        k(   28) = (   0.1363636   0.2272727   0.3181818), wk =   0.0120210
        k(   29) = (   0.1363636   0.2272727   0.4090909), wk =   0.0120210
        k(   30) = (   0.1363636   0.2272727  -0.5000000), wk =   0.0060105
        k(   31) = (   0.1363636   0.3181818   0.3181818), wk =   0.0120210
        k(   32) = (   0.1363636   0.3181818   0.4090909), wk =   0.0120210
        k(   33) = (   0.1363636   0.3181818  -0.5000000), wk =   0.0060105
        k(   34) = (   0.1363636   0.4090909   0.4090909), wk =   0.0120210
        k(   35) = (   0.1363636   0.4090909  -0.5000000), wk =   0.0060105
        k(   36) = (   0.1363636  -0.5000000  -0.5000000), wk =   0.0030053
        k(   37) = (   0.2272727   0.2272727   0.2272727), wk =   0.0060105
        k(   38) = (   0.2272727   0.2272727   0.3181818), wk =   0.0060105
        k(   39) = (   0.2272727   0.2272727   0.4090909), wk =   0.0060105
        k(   40) = (   0.2272727   0.2272727  -0.5000000), wk =   0.0030053
        k(   41) = (   0.2272727   0.3181818   0.3181818), wk =   0.0120210
        k(   42) = (   0.2272727   0.3181818   0.4090909), wk =   0.0120210
        k(   43) = (   0.2272727   0.3181818  -0.5000000), wk =   0.0060105
        k(   44) = (   0.2272727   0.4090909   0.4090909), wk =   0.0120210
        k(   45) = (   0.2272727   0.4090909  -0.5000000), wk =   0.0060105
        k(   46) = (   0.2272727  -0.5000000  -0.5000000), wk =   0.0030053
        k(   47) = (   0.3181818   0.3181818   0.3181818), wk =   0.0060105
        k(   48) = (   0.3181818   0.3181818   0.4090909), wk =   0.0060105
        k(   49) = (   0.3181818   0.3181818  -0.5000000), wk =   0.0030053
        k(   50) = (   0.3181818   0.4090909   0.4090909), wk =   0.0120210
        k(   51) = (   0.3181818   0.4090909  -0.5000000), wk =   0.0060105
        k(   52) = (   0.3181818  -0.5000000  -0.5000000), wk =   0.0030053
        k(   53) = (   0.4090909   0.4090909   0.4090909), wk =   0.0060105
        k(   54) = (   0.4090909   0.4090909  -0.5000000), wk =   0.0030053
        k(   55) = (   0.4090909  -0.5000000  -0.5000000), wk =   0.0030053
        k(   56) = (  -0.5000000  -0.5000000  -0.5000000), wk =   0.0007513
        k(   57) = (   0.0454545   0.1363636   0.0454545), wk =   0.0120210
        k(   58) = (   0.0454545   0.2272727   0.0454545), wk =   0.0120210
        k(   59) = (   0.0454545   0.3181818   0.0454545), wk =   0.0120210
        k(   60) = (   0.0454545   0.4090909   0.0454545), wk =   0.0120210
        k(   61) = (   0.0454545  -0.5000000   0.0454545), wk =   0.0060105
        k(   62) = (   0.1363636   0.1363636   0.0454545), wk =   0.0060105
        k(   63) = (   0.1363636   0.2272727   0.0454545), wk =   0.0120210
        k(   64) = (   0.2272727   0.0454545   0.1363636), wk =   0.0120210
        k(   65) = (   0.1363636   0.3181818   0.0454545), wk =   0.0120210
        k(   66) = (   0.3181818   0.0454545   0.1363636), wk =   0.0120210
        k(   67) = (   0.1363636   0.4090909   0.0454545), wk =   0.0120210
        k(   68) = (   0.4090909   0.0454545   0.1363636), wk =   0.0120210
        k(   69) = (   0.1363636  -0.5000000   0.0454545), wk =   0.0060105
        k(   70) = (  -0.5000000   0.0454545   0.1363636), wk =   0.0060105
        k(   71) = (   0.2272727   0.2272727   0.0454545), wk =   0.0060105
        k(   72) = (   0.2272727   0.3181818   0.0454545), wk =   0.0120210
        k(   73) = (   0.3181818   0.0454545   0.2272727), wk =   0.0120210
        k(   74) = (   0.2272727   0.4090909   0.0454545), wk =   0.0120210
        k(   75) = (   0.4090909   0.0454545   0.2272727), wk =   0.0120210
        k(   76) = (   0.2272727  -0.5000000   0.0454545), wk =   0.0060105
        k(   77) = (  -0.5000000   0.0454545   0.2272727), wk =   0.0060105
        k(   78) = (   0.3181818   0.3181818   0.0454545), wk =   0.0060105
        k(   79) = (   0.3181818   0.4090909   0.0454545), wk =   0.0120210
        k(   80) = (   0.4090909   0.0454545   0.3181818), wk =   0.0120210
        k(   81) = (   0.3181818  -0.5000000   0.0454545), wk =   0.0060105
        k(   82) = (  -0.5000000   0.0454545   0.3181818), wk =   0.0060105
        k(   83) = (   0.4090909   0.4090909   0.0454545), wk =   0.0060105
        k(   84) = (   0.4090909  -0.5000000   0.0454545), wk =   0.0060105
        k(   85) = (  -0.5000000   0.0454545   0.4090909), wk =   0.0060105
        k(   86) = (  -0.5000000  -0.5000000   0.0454545), wk =   0.0015026
        k(   87) = (   0.1363636   0.2272727   0.1363636), wk =   0.0120210
        k(   88) = (   0.1363636   0.3181818   0.1363636), wk =   0.0120210
        k(   89) = (   0.1363636   0.4090909   0.1363636), wk =   0.0120210
        k(   90) = (   0.1363636  -0.5000000   0.1363636), wk =   0.0060105
        k(   91) = (   0.2272727   0.2272727   0.1363636), wk =   0.0060105
        k(   92) = (   0.2272727   0.3181818   0.1363636), wk =   0.0120210
        k(   93) = (   0.3181818   0.1363636   0.2272727), wk =   0.0120210
        k(   94) = (   0.2272727   0.4090909   0.1363636), wk =   0.0120210
        k(   95) = (   0.4090909   0.1363636   0.2272727), wk =   0.0120210
        k(   96) = (   0.2272727  -0.5000000   0.1363636), wk =   0.0060105
        k(   97) = (  -0.5000000   0.1363636   0.2272727), wk =   0.0060105
        k(   98) = (   0.3181818   0.3181818   0.1363636), wk =   0.0060105
        k(   99) = (   0.3181818   0.4090909   0.1363636), wk =   0.0120210
        k(  100) = (   0.4090909   0.1363636   0.3181818), wk =   0.0120210
        k(  101) = (   0.3181818  -0.5000000   0.1363636), wk =   0.0060105
        k(  102) = (  -0.5000000   0.1363636   0.3181818), wk =   0.0060105
        k(  103) = (   0.4090909   0.4090909   0.1363636), wk =   0.0060105
        k(  104) = (   0.4090909  -0.5000000   0.1363636), wk =   0.0060105
        k(  105) = (  -0.5000000   0.1363636   0.4090909), wk =   0.0060105
        k(  106) = (  -0.5000000  -0.5000000   0.1363636), wk =   0.0015026
        k(  107) = (   0.2272727   0.3181818   0.2272727), wk =   0.0120210
        k(  108) = (   0.2272727   0.4090909   0.2272727), wk =   0.0120210
        k(  109) = (   0.2272727  -0.5000000   0.2272727), wk =   0.0060105
        k(  110) = (   0.3181818   0.3181818   0.2272727), wk =   0.0060105
        k(  111) = (   0.3181818   0.4090909   0.2272727), wk =   0.0120210
        k(  112) = (   0.4090909   0.2272727   0.3181818), wk =   0.0120210
        k(  113) = (   0.3181818  -0.5000000   0.2272727), wk =   0.0060105
        k(  114) = (  -0.5000000   0.2272727   0.3181818), wk =   0.0060105
        k(  115) = (   0.4090909   0.4090909   0.2272727), wk =   0.0060105
        k(  116) = (   0.4090909  -0.5000000   0.2272727), wk =   0.0060105
        k(  117) = (  -0.5000000   0.2272727   0.4090909), wk =   0.0060105
        k(  118) = (  -0.5000000  -0.5000000   0.2272727), wk =   0.0015026
        k(  119) = (   0.3181818   0.4090909   0.3181818), wk =   0.0120210
        k(  120) = (   0.3181818  -0.5000000   0.3181818), wk =   0.0060105
        k(  121) = (   0.4090909   0.4090909   0.3181818), wk =   0.0060105
        k(  122) = (   0.4090909  -0.5000000   0.3181818), wk =   0.0060105
        k(  123) = (  -0.5000000   0.3181818   0.4090909), wk =   0.0060105
        k(  124) = (  -0.5000000  -0.5000000   0.3181818), wk =   0.0015026
        k(  125) = (   0.4090909  -0.5000000   0.4090909), wk =   0.0060105
        k(  126) = (  -0.5000000  -0.5000000   0.4090909), wk =   0.0015026

     Dense  grid:   635371 G-vectors     FFT dimensions: ( 108, 108, 108)

     Smooth grid:   346083 G-vectors     FFT dimensions: (  90,  90,  90)

     Dynamical RAM for                 wfc:       3.08 MB

     Dynamical RAM for     wfc (w. buffer):     390.89 MB

     Dynamical RAM for           str. fact:       0.81 MB

     Dynamical RAM for           local pot:       0.00 MB

     Dynamical RAM for          nlocal pot:       5.61 MB

     Dynamical RAM for                qrad:      22.39 MB

     Dynamical RAM for          rho,v,vnew:      10.19 MB

     Dynamical RAM for               rhoin:       3.40 MB

     Dynamical RAM for            rho*nmix:      25.85 MB

     Dynamical RAM for           G-vectors:       1.62 MB

     Dynamical RAM for          h,s,v(r/c):       0.25 MB

     Dynamical RAM for          <psi|beta>:       0.35 MB

     Dynamical RAM for                 psi:      12.31 MB

     Dynamical RAM for                hpsi:      12.31 MB

     Dynamical RAM for                spsi:      12.31 MB

     Dynamical RAM for      wfcinit/wfcrot:       5.71 MB

     Dynamical RAM for           addusdens:     248.04 MB

     Dynamical RAM for          addusforce:     253.17 MB

     Dynamical RAM for         addusstress:     253.70 MB

     Estimated static dynamical RAM per process >     465.53 MB

     Estimated max dynamical RAM per process >     719.23 MB

     Estimated total dynamical RAM >      16.86 GB

     Initial potential from superposition of free atoms

     starting charge   55.99771, renormalised to   56.00000
     Starting wfcs are   68 randomized atomic wfcs
     Checking if some PAW data can be deallocated... 
       PAW data deallocated on   16 nodes for type:  1
       PAW data deallocated on    8 nodes for type:  2

     total cpu time spent up to now is      154.9 secs

     Self-consistent Calculation

     iteration #  1     ecut=    90.00 Ry     beta= 0.35
     Davidson diagonalization with overlap
     ethr =  1.00E-02,  avg # of iterations =  1.0

     total cpu time spent up to now is      548.6 secs

     total energy              =   -2370.83366947 Ry
     Harris-Foulkes estimate   =   -2371.11849014 Ry
     estimated scf accuracy    <       0.58882948 Ry

     iteration #  2     ecut=    90.00 Ry     beta= 0.35
     Davidson diagonalization with overlap
     ethr =  1.05E-03,  avg # of iterations =  3.0

     total cpu time spent up to now is     1088.5 secs

     total energy              =   -2370.93721925 Ry
     Harris-Foulkes estimate   =   -2370.94811724 Ry
     estimated scf accuracy    <       0.04039044 Ry

     iteration #  3     ecut=    90.00 Ry     beta= 0.35
     Davidson diagonalization with overlap
     ethr =  7.21E-05,  avg # of iterations =  3.3

     total cpu time spent up to now is     1607.4 secs

     total energy              =   -2370.94078009 Ry
     Harris-Foulkes estimate   =   -2370.94310097 Ry
     estimated scf accuracy    <       0.00913955 Ry

     iteration #  4     ecut=    90.00 Ry     beta= 0.35
     Davidson diagonalization with overlap
     ethr =  1.63E-05,  avg # of iterations =  3.1

     total cpu time spent up to now is     2153.7 secs

     WARNING: integrated charge=    56.00132813, expected=    56.00000000

     total energy              =   -2370.94200674 Ry
     Harris-Foulkes estimate   =   -2370.94196397 Ry
     estimated scf accuracy    <       0.00057350 Ry

     iteration #  5     ecut=    90.00 Ry     beta= 0.35
     Davidson diagonalization with overlap
     ethr =  1.02E-06,  avg # of iterations =  4.8

     total cpu time spent up to now is     2846.1 secs

     WARNING: integrated charge=    56.00085994, expected=    56.00000000

     total energy              =   -2370.94217800 Ry
     Harris-Foulkes estimate   =   -2370.94220029 Ry
     estimated scf accuracy    <       0.00005548 Ry

     iteration #  6     ecut=    90.00 Ry     beta= 0.35
     Davidson diagonalization with overlap
     ethr =  9.91E-08,  avg # of iterations =  3.3

     total cpu time spent up to now is     3411.9 secs

     WARNING: integrated charge=    56.00013580, expected=    56.00000000

     total energy              =   -2370.94219382 Ry
     Harris-Foulkes estimate   =   -2370.94218724 Ry
     estimated scf accuracy    <       0.00000892 Ry

     iteration #  7     ecut=    90.00 Ry     beta= 0.35
     Davidson diagonalization with overlap
     ethr =  1.59E-08,  avg # of iterations =  4.6

     total cpu time spent up to now is     4122.1 secs

     WARNING: integrated charge=    56.00007965, expected=    56.00000000

     total energy              =   -2370.94219584 Ry
     Harris-Foulkes estimate   =   -2370.94219699 Ry
     estimated scf accuracy    <       0.00000413 Ry

     iteration #  8     ecut=    90.00 Ry     beta= 0.35
     Davidson diagonalization with overlap
     ethr =  7.37E-09,  avg # of iterations =  3.1

     total cpu time spent up to now is     4700.2 secs

     End of self-consistent calculation

          k = 0.0455 0.0455 0.0455 ( 43276 PWs)   bands (ev):

   -23.2745 -23.2745 -23.2745 -23.2745 -23.1422 -23.1422 -23.1421 -23.1421
   -22.2549 -22.2549 -22.2549 -22.2549 -22.1396 -22.1396 -22.1396 -22.1396
   -22.0860 -22.0860 -22.0859 -22.0859 -11.6292 -11.6292 -11.5339 -11.5339
   -11.4813 -11.4813 -11.4799 -11.4799  -7.0831  -7.0831  -6.8688  -6.8688
    -2.6599  -2.6599  -2.4945  -2.4945  -2.1303  -2.1303  -2.0526  -2.0526
    -1.9129  -1.9129  -1.5256  -1.5256  -1.2388  -1.2388  -1.1160  -1.1160
    -1.0959  -1.0959  -1.0378  -1.0378  -0.9274  -0.9274  -0.8963  -0.8963

     occupation numbers 
     1.0000   1.0000   1.0000   1.0000   1.0000   1.0000   1.0000   1.0000
     1.0000   1.0000   1.0000   1.0000   1.0000   1.0000   1.0000   1.0000
     1.0000   1.0000   1.0000   1.0000   1.0000   1.0000   1.0000   1.0000
     1.0000   1.0000   1.0000   1.0000   1.0000   1.0000   1.0000   1.0000
     1.0000   1.0000   1.0000   1.0000   1.0000   1.0000   1.0000   1.0000
     1.0000   1.0000   1.0000   1.0000   1.0000   1.0000   1.0000   1.0000
     1.0000   1.0000   1.0000   1.0000   1.0000   1.0000   1.0000   1.0000

          k = 0.0455 0.0455 0.1364 ( 43248 PWs)   bands (ev):

   -23.2745 -23.2745 -23.2745 -23.2745 -23.1422 -23.1422 -23.1421 -23.1421
   -22.2549 -22.2549 -22.2549 -22.2549 -22.1396 -22.1396 -22.1396 -22.1396
   -22.0860 -22.0860 -22.0859 -22.0859 -11.6253 -11.6253 -11.5377 -11.5377
   -11.4812 -11.4812 -11.4799 -11.4799  -7.0768  -7.0768  -6.8800  -6.8800
    -2.6493  -2.6493  -2.4964  -2.4964  -2.1276  -2.1276  -2.0515  -2.0515
    -1.9006  -1.9006  -1.5293  -1.5293  -1.2417  -1.2417  -1.1317  -1.1317
    -1.1086  -1.1086  -1.0485  -1.0485  -0.9269  -0.9269  -0.9058  -0.9058

     occupation numbers 
     1.0000   1.0000   1.0000   1.0000   1.0000   1.0000   1.0000   1.0000
     1.0000   1.0000   1.0000   1.0000   1.0000   1.0000   1.0000   1.0000
     1.0000   1.0000   1.0000   1.0000   1.0000   1.0000   1.0000   1.0000
     1.0000   1.0000   1.0000   1.0000   1.0000   1.0000   1.0000   1.0000
     1.0000   1.0000   1.0000   1.0000   1.0000   1.0000   1.0000   1.0000
     1.0000   1.0000   1.0000   1.0000   1.0000   1.0000   1.0000   1.0000
     1.0000   1.0000   1.0000   1.0000   1.0000   1.0000   1.0000   1.0000

          k = 0.0455 0.0455 0.2273 ( 43203 PWs)   bands (ev):

   -23.2745 -23.2745 -23.2745 -23.2745 -23.1422 -23.1422 -23.1421 -23.1421
   -22.2549 -22.2549 -22.2549 -22.2549 -22.1396 -22.1396 -22.1396 -22.1396
   -22.0859 -22.0859 -22.0859 -22.0859 -11.6177 -11.6177 -11.5450 -11.5450
   -11.4811 -11.4811 -11.4798 -11.4798  -7.0641  -7.0641  -6.9008  -6.9008
    -2.6306  -2.6306  -2.5007  -2.5007  -2.1251  -2.1251  -2.0499  -2.0499
    -1.8733  -1.8733  -1.5432  -1.5432  -1.2434  -1.2434  -1.1551  -1.1551
    -1.1255  -1.1255  -1.0656  -1.0656  -0.9387  -0.9387  -0.9153  -0.9153

     occupation numbers 
     1.0000   1.0000   1.0000   1.0000   1.0000   1.0000   1.0000   1.0000
     1.0000   1.0000   1.0000   1.0000   1.0000   1.0000   1.0000   1.0000
     1.0000   1.0000   1.0000   1.0000   1.0000   1.0000   1.0000   1.0000
     1.0000   1.0000   1.0000   1.0000   1.0000   1.0000   1.0000   1.0000
     1.0000   1.0000   1.0000   1.0000   1.0000   1.0000   1.0000   1.0000
     1.0000   1.0000   1.0000   1.0000   1.0000   1.0000   1.0000   1.0000
     1.0000   1.0000   1.0000   1.0000   1.0000   1.0000   1.0000   1.0000

          k = 0.0455 0.0455 0.3182 ( 43226 PWs)   bands (ev):

   -23.2745 -23.2745 -23.2745 -23.2745 -23.1422 -23.1422 -23.1421 -23.1421
   -22.2549 -22.2549 -22.2549 -22.2549 -22.1396 -22.1396 -22.1396 -22.1396
   -22.0859 -22.0859 -22.0859 -22.0859 -11.6073 -11.6073 -11.5552 -11.5552
   -11.4810 -11.4810 -11.4796 -11.4796  -7.0452  -7.0452  -6.9286  -6.9286
    -2.6079  -2.6079  -2.5074  -2.5074  -2.1246  -2.1246  -2.0490  -2.0490
    -1.8298  -1.8298  -1.5747  -1.5747  -1.2392  -1.2392  -1.1734  -1.1734
    -1.1428  -1.1428  -1.0827  -1.0827  -0.9591  -0.9591  -0.9268  -0.9268

     occupation numbers 
     1.0000   1.0000   1.0000   1.0000   1.0000   1.0000   1.0000   1.0000
     1.0000   1.0000   1.0000   1.0000   1.0000   1.0000   1.0000   1.0000
     1.0000   1.0000   1.0000   1.0000   1.0000   1.0000   1.0000   1.0000
     1.0000   1.0000   1.0000   1.0000   1.0000   1.0000   1.0000   1.0000
     1.0000   1.0000   1.0000   1.0000   1.0000   1.0000   1.0000   1.0000
     1.0000   1.0000   1.0000   1.0000   1.0000   1.0000   1.0000   1.0000
     1.0000   1.0000   1.0000   1.0000   1.0000   1.0000   1.0000   1.0000

          k = 0.0455 0.0455 0.4091 ( 43225 PWs)   bands (ev):

   -23.2745 -23.2745 -23.2745 -23.2745 -23.1422 -23.1422 -23.1422 -23.1422
   -22.2549 -22.2549 -22.2549 -22.2549 -22.1396 -22.1396 -22.1396 -22.1396
   -22.0859 -22.0859 -22.0859 -22.0859 -11.5947 -11.5947 -11.5675 -11.5675
   -11.4809 -11.4809 -11.4796 -11.4796  -7.0206  -7.0206  -6.9599  -6.9599
    -2.5875  -2.5875  -2.5157  -2.5157  -2.1254  -2.1254  -2.0492  -2.0492
    -1.7755  -1.7755  -1.6219  -1.6219  -1.2285  -1.2285  -1.1854  -1.1854
    -1.1556  -1.1556  -1.0946  -1.0946  -0.9753  -0.9753  -0.9415  -0.9415

     occupation numbers 
     1.0000   1.0000   1.0000   1.0000   1.0000   1.0000   1.0000   1.0000
     1.0000   1.0000   1.0000   1.0000   1.0000   1.0000   1.0000   1.0000
     1.0000   1.0000   1.0000   1.0000   1.0000   1.0000   1.0000   1.0000
     1.0000   1.0000   1.0000   1.0000   1.0000   1.0000   1.0000   1.0000
     1.0000   1.0000   1.0000   1.0000   1.0000   1.0000   1.0000   1.0000
     1.0000   1.0000   1.0000   1.0000   1.0000   1.0000   1.0000   1.0000
     1.0000   1.0000   1.0000   1.0000   1.0000   1.0000   1.0000   1.0000

          k = 0.0455 0.0455-0.5000 ( 43258 PWs)   bands (ev):

   -23.2745 -23.2745 -23.2745 -23.2745 -23.1422 -23.1422 -23.1422 -23.1422
   -22.2549 -22.2549 -22.2549 -22.2549 -22.1396 -22.1396 -22.1396 -22.1396
   -22.0859 -22.0859 -22.0859 -22.0859 -11.5817 -11.5817 -11.5805 -11.5805
   -11.4809 -11.4809 -11.4795 -11.4795  -6.9925  -6.9925  -6.9904  -6.9904
    -2.5782  -2.5782  -2.5203  -2.5203  -2.1259  -2.1259  -2.0494  -2.0494
    -1.7382  -1.7382  -1.6569  -1.6569  -1.2200  -1.2200  -1.1934  -1.1934
    -1.1592  -1.1592  -1.0989  -1.0989  -0.9811  -0.9811  -0.9488  -0.9488

     occupation numbers 
     1.0000   1.0000   1.0000   1.0000   1.0000   1.0000   1.0000   1.0000
     1.0000   1.0000   1.0000   1.0000   1.0000   1.0000   1.0000   1.0000
     1.0000   1.0000   1.0000   1.0000   1.0000   1.0000   1.0000   1.0000
     1.0000   1.0000   1.0000   1.0000   1.0000   1.0000   1.0000   1.0000
     1.0000   1.0000   1.0000   1.0000   1.0000   1.0000   1.0000   1.0000
     1.0000   1.0000   1.0000   1.0000   1.0000   1.0000   1.0000   1.0000
     1.0000   1.0000   1.0000   1.0000   1.0000   1.0000   1.0000   1.0000

          k = 0.0455 0.1364 0.1364 ( 43218 PWs)   bands (ev):

   -23.2745 -23.2745 -23.2745 -23.2745 -23.1422 -23.1422 -23.1421 -23.1421
   -22.2549 -22.2549 -22.2549 -22.2549 -22.1396 -22.1396 -22.1396 -22.1396
   -22.0859 -22.0859 -22.0859 -22.0859 -11.6200 -11.6200 -11.5365 -11.5365
   -11.4864 -11.4864 -11.4815 -11.4815  -7.0674  -7.0674  -6.8863  -6.8863
    -2.6993  -2.6993  -2.5616  -2.5616  -2.1496  -2.1496  -2.0002  -2.0002
    -1.8625  -1.8625  -1.5385  -1.5385  -1.2251  -1.2251  -1.1467  -1.1467
    -1.0996  -1.0996  -0.9939  -0.9939  -0.9259  -0.9259  -0.8776  -0.8776

     occupation numbers 
     1.0000   1.0000   1.0000   1.0000   1.0000   1.0000   1.0000   1.0000
     1.0000   1.0000   1.0000   1.0000   1.0000   1.0000   1.0000   1.0000
     1.0000   1.0000   1.0000   1.0000   1.0000   1.0000   1.0000   1.0000
     1.0000   1.0000   1.0000   1.0000   1.0000   1.0000   1.0000   1.0000
     1.0000   1.0000   1.0000   1.0000   1.0000   1.0000   1.0000   1.0000
     1.0000   1.0000   1.0000   1.0000   1.0000   1.0000   1.0000   1.0000
     1.0000   1.0000   1.0000   1.0000   1.0000   1.0000   1.0000   1.0000

          k = 0.0455 0.1364 0.2273 ( 43200 PWs)   bands (ev):

   -23.2745 -23.2745 -23.2745 -23.2745 -23.1422 -23.1422 -23.1421 -23.1421
   -22.2549 -22.2549 -22.2549 -22.2549 -22.1396 -22.1396 -22.1396 -22.1396
   -22.0859 -22.0859 -22.0859 -22.0859 -11.6128 -11.6128 -11.5433 -11.5433
   -11.4863 -11.4863 -11.4816 -11.4816  -7.0559  -7.0559  -6.9057  -6.9057
    -2.6939  -2.6939  -2.5641  -2.5641  -2.1304  -2.1304  -1.9889  -1.9889
    -1.8533  -1.8533  -1.5536  -1.5536  -1.2247  -1.2247  -1.1654  -1.1654
    -1.1125  -1.1125  -1.0106  -1.0106  -0.9310  -0.9310  -0.8836  -0.8836

     occupation numbers 
     1.0000   1.0000   1.0000   1.0000   1.0000   1.0000   1.0000   1.0000
     1.0000   1.0000   1.0000   1.0000   1.0000   1.0000   1.0000   1.0000
     1.0000   1.0000   1.0000   1.0000   1.0000   1.0000   1.0000   1.0000
     1.0000   1.0000   1.0000   1.0000   1.0000   1.0000   1.0000   1.0000
     1.0000   1.0000   1.0000   1.0000   1.0000   1.0000   1.0000   1.0000
     1.0000   1.0000   1.0000   1.0000   1.0000   1.0000   1.0000   1.0000
     1.0000   1.0000   1.0000   1.0000   1.0000   1.0000   1.0000   1.0000

          k = 0.0455 0.1364 0.3182 ( 43208 PWs)   bands (ev):

   -23.2745 -23.2745 -23.2745 -23.2745 -23.1422 -23.1422 -23.1421 -23.1421
   -22.2549 -22.2549 -22.2549 -22.2549 -22.1396 -22.1396 -22.1396 -22.1396
   -22.0859 -22.0859 -22.0859 -22.0859 -11.6028 -11.6028 -11.5529 -11.5529
   -11.4861 -11.4861 -11.4817 -11.4817  -7.0389  -7.0389  -6.9315  -6.9315
    -2.6878  -2.6878  -2.5665  -2.5665  -2.1153  -2.1153  -1.9757  -1.9757
    -1.8326  -1.8326  -1.5769  -1.5769  -1.2248  -1.2248  -1.1831  -1.1831
    -1.1215  -1.1215  -1.0287  -1.0287  -0.9426  -0.9426  -0.8898  -0.8898

     occupation numbers 
     1.0000   1.0000   1.0000   1.0000   1.0000   1.0000   1.0000   1.0000
     1.0000   1.0000   1.0000   1.0000   1.0000   1.0000   1.0000   1.0000
     1.0000   1.0000   1.0000   1.0000   1.0000   1.0000   1.0000   1.0000
     1.0000   1.0000   1.0000   1.0000   1.0000   1.0000   1.0000   1.0000
     1.0000   1.0000   1.0000   1.0000   1.0000   1.0000   1.0000   1.0000
     1.0000   1.0000   1.0000   1.0000   1.0000   1.0000   1.0000   1.0000
     1.0000   1.0000   1.0000   1.0000   1.0000   1.0000   1.0000   1.0000

          k = 0.0455 0.1364 0.4091 ( 43250 PWs)   bands (ev):

   -23.2745 -23.2745 -23.2745 -23.2745 -23.1422 -23.1422 -23.1422 -23.1422
   -22.2549 -22.2549 -22.2549 -22.2549 -22.1396 -22.1396 -22.1396 -22.1396
   -22.0859 -22.0859 -22.0859 -22.0859 -11.5908 -11.5908 -11.5646 -11.5646
   -11.4859 -11.4859 -11.4818 -11.4818  -7.0165  -7.0165  -6.9604  -6.9604
    -2.6831  -2.6831  -2.5681  -2.5681  -2.1076  -2.1076  -1.9672  -1.9672
    -1.8032  -1.8032  -1.6030  -1.6030  -1.2299  -1.2299  -1.1885  -1.1885
    -1.1262  -1.1262  -1.0433  -1.0433  -0.9558  -0.9558  -0.8953  -0.8953

     occupation numbers 
     1.0000   1.0000   1.0000   1.0000   1.0000   1.0000   1.0000   1.0000
     1.0000   1.0000   1.0000   1.0000   1.0000   1.0000   1.0000   1.0000
     1.0000   1.0000   1.0000   1.0000   1.0000   1.0000   1.0000   1.0000
     1.0000   1.0000   1.0000   1.0000   1.0000   1.0000   1.0000   1.0000
     1.0000   1.0000   1.0000   1.0000   1.0000   1.0000   1.0000   1.0000
     1.0000   1.0000   1.0000   1.0000   1.0000   1.0000   1.0000   1.0000
     1.0000   1.0000   1.0000   1.0000   1.0000   1.0000   1.0000   1.0000

          k = 0.0455 0.1364-0.5000 ( 43218 PWs)   bands (ev):

   -23.2745 -23.2745 -23.2745 -23.2745 -23.1422 -23.1422 -23.1422 -23.1422
   -22.2549 -22.2549 -22.2549 -22.2549 -22.1396 -22.1396 -22.1396 -22.1396
   -22.0859 -22.0859 -22.0859 -22.0859 -11.5794 -11.5794 -11.5758 -11.5758
   -11.4858 -11.4858 -11.4818 -11.4818  -6.9924  -6.9924  -6.9870  -6.9870
    -2.6813  -2.6813  -2.5687  -2.5687  -2.1055  -2.1055  -1.9648  -1.9648
    -1.7872  -1.7872  -1.6163  -1.6163  -1.2333  -1.2333  -1.1883  -1.1883
    -1.1274  -1.1274  -1.0489  -1.0489  -0.9616  -0.9616  -0.8975  -0.8975

     occupation numbers 
     1.0000   1.0000   1.0000   1.0000   1.0000   1.0000   1.0000   1.0000
     1.0000   1.0000   1.0000   1.0000   1.0000   1.0000   1.0000   1.0000
     1.0000   1.0000   1.0000   1.0000   1.0000   1.0000   1.0000   1.0000
     1.0000   1.0000   1.0000   1.0000   1.0000   1.0000   1.0000   1.0000
     1.0000   1.0000   1.0000   1.0000   1.0000   1.0000   1.0000   1.0000
     1.0000   1.0000   1.0000   1.0000   1.0000   1.0000   1.0000   1.0000
     1.0000   1.0000   1.0000   1.0000   1.0000   1.0000   1.0000   1.0000

          k = 0.0455 0.2273 0.2273 ( 43218 PWs)   bands (ev):

   -23.2745 -23.2745 -23.2745 -23.2745 -23.1422 -23.1422 -23.1421 -23.1421
   -22.2549 -22.2549 -22.2549 -22.2549 -22.1396 -22.1396 -22.1396 -22.1396
   -22.0859 -22.0859 -22.0859 -22.0859 -11.6034 -11.6034 -11.5406 -11.5406
   -11.4948 -11.4948 -11.4857 -11.4857  -7.0406  -7.0406  -6.9155  -6.9155
    -2.7754  -2.7754  -2.6606  -2.6606  -2.1151  -2.1151  -1.9505  -1.9505
    -1.8152  -1.8152  -1.5680  -1.5680  -1.2398  -1.2398  -1.1733  -1.1733
    -1.0451  -1.0451  -0.9693  -0.9693  -0.9097  -0.9097  -0.7900  -0.7900

     occupation numbers 
     1.0000   1.0000   1.0000   1.0000   1.0000   1.0000   1.0000   1.0000
     1.0000   1.0000   1.0000   1.0000   1.0000   1.0000   1.0000   1.0000
     1.0000   1.0000   1.0000   1.0000   1.0000   1.0000   1.0000   1.0000
     1.0000   1.0000   1.0000   1.0000   1.0000   1.0000   1.0000   1.0000
     1.0000   1.0000   1.0000   1.0000   1.0000   1.0000   1.0000   1.0000
     1.0000   1.0000   1.0000   1.0000   1.0000   1.0000   1.0000   1.0000
     1.0000   1.0000   1.0000   1.0000   1.0000   1.0000   1.0000   1.0000

          k = 0.0455 0.2273 0.3182 ( 43219 PWs)   bands (ev):

   -23.2745 -23.2745 -23.2745 -23.2745 -23.1422 -23.1422 -23.1421 -23.1421
   -22.2549 -22.2549 -22.2549 -22.2549 -22.1396 -22.1396 -22.1396 -22.1396
   -22.0859 -22.0859 -22.0859 -22.0859 -11.5942 -11.5942 -11.5489 -11.5489
   -11.4944 -11.4944 -11.4865 -11.4865  -7.0271  -7.0271  -6.9375  -6.9375
    -2.7799  -2.7799  -2.6663  -2.6663  -2.0830  -2.0830  -1.9256  -1.9256
    -1.8224  -1.8224  -1.5803  -1.5803  -1.2456  -1.2456  -1.1744  -1.1744
    -1.0532  -1.0532  -0.9837  -0.9837  -0.9076  -0.9076  -0.7929  -0.7929

     occupation numbers 
     1.0000   1.0000   1.0000   1.0000   1.0000   1.0000   1.0000   1.0000
     1.0000   1.0000   1.0000   1.0000   1.0000   1.0000   1.0000   1.0000
     1.0000   1.0000   1.0000   1.0000   1.0000   1.0000   1.0000   1.0000
     1.0000   1.0000   1.0000   1.0000   1.0000   1.0000   1.0000   1.0000
     1.0000   1.0000   1.0000   1.0000   1.0000   1.0000   1.0000   1.0000
     1.0000   1.0000   1.0000   1.0000   1.0000   1.0000   1.0000   1.0000
     1.0000   1.0000   1.0000   1.0000   1.0000   1.0000   1.0000   1.0000

          k = 0.0455 0.2273 0.4091 ( 43230 PWs)   bands (ev):

   -23.2745 -23.2745 -23.2745 -23.2745 -23.1422 -23.1422 -23.1422 -23.1422
   -22.2549 -22.2549 -22.2549 -22.2549 -22.1396 -22.1396 -22.1396 -22.1396
   -22.0859 -22.0859 -22.0859 -22.0859 -11.5833 -11.5833 -11.5592 -11.5592
   -11.4938 -11.4938 -11.4872 -11.4872  -7.0090  -7.0090  -6.9620  -6.9620
    -2.7828  -2.7828  -2.6702  -2.6702  -2.0655  -2.0655  -1.8985  -1.8985
    -1.8298  -1.8298  -1.5875  -1.5875  -1.2487  -1.2487  -1.1739  -1.1739
    -1.0653  -1.0653  -0.9953  -0.9953  -0.9040  -0.9040  -0.7954  -0.7954

     occupation numbers 
     1.0000   1.0000   1.0000   1.0000   1.0000   1.0000   1.0000   1.0000
     1.0000   1.0000   1.0000   1.0000   1.0000   1.0000   1.0000   1.0000
     1.0000   1.0000   1.0000   1.0000   1.0000   1.0000   1.0000   1.0000
     1.0000   1.0000   1.0000   1.0000   1.0000   1.0000   1.0000   1.0000
     1.0000   1.0000   1.0000   1.0000   1.0000   1.0000   1.0000   1.0000
     1.0000   1.0000   1.0000   1.0000   1.0000   1.0000   1.0000   1.0000
     1.0000   1.0000   1.0000   1.0000   1.0000   1.0000   1.0000   1.0000

          k = 0.0455 0.2273-0.5000 ( 43224 PWs)   bands (ev):

   -23.2745 -23.2745 -23.2745 -23.2745 -23.1422 -23.1422 -23.1422 -23.1422
   -22.2549 -22.2549 -22.2549 -22.2549 -22.1396 -22.1396 -22.1396 -22.1396
   -22.0859 -22.0859 -22.0859 -22.0859 -11.5739 -11.5739 -11.5683 -11.5683
   -11.4935 -11.4935 -11.4875 -11.4875  -6.9904  -6.9904  -6.9830  -6.9830
    -2.7838  -2.7838  -2.6716  -2.6716  -2.0605  -2.0605  -1.8861  -1.8861
    -1.8336  -1.8336  -1.5895  -1.5895  -1.2489  -1.2489  -1.1734  -1.1734
    -1.0724  -1.0724  -0.9990  -0.9990  -0.9024  -0.9024  -0.7965  -0.7965

     occupation numbers 
     1.0000   1.0000   1.0000   1.0000   1.0000   1.0000   1.0000   1.0000
     1.0000   1.0000   1.0000   1.0000   1.0000   1.0000   1.0000   1.0000
     1.0000   1.0000   1.0000   1.0000   1.0000   1.0000   1.0000   1.0000
     1.0000   1.0000   1.0000   1.0000   1.0000   1.0000   1.0000   1.0000
     1.0000   1.0000   1.0000   1.0000   1.0000   1.0000   1.0000   1.0000
     1.0000   1.0000   1.0000   1.0000   1.0000   1.0000   1.0000   1.0000
     1.0000   1.0000   1.0000   1.0000   1.0000   1.0000   1.0000   1.0000

          k = 0.0455 0.3182 0.3182 ( 43232 PWs)   bands (ev):

   -23.2745 -23.2745 -23.2745 -23.2745 -23.1422 -23.1422 -23.1421 -23.1421
   -22.2549 -22.2549 -22.2549 -22.2549 -22.1396 -22.1396 -22.1396 -22.1396
   -22.0859 -22.0859 -22.0859 -22.0859 -11.5822 -11.5822 -11.5449 -11.5449
   -11.5040 -11.5040 -11.4933 -11.4933  -7.0114  -7.0114  -6.9470  -6.9470
    -2.8520  -2.8520  -2.7652  -2.7652  -2.0523  -2.0523  -1.9217  -1.9217
    -1.7935  -1.7935  -1.5847  -1.5847  -1.2553  -1.2553  -1.1868  -1.1868
    -1.0067  -1.0067  -0.9487  -0.9487  -0.8168  -0.8168  -0.6728  -0.6728

     occupation numbers 
     1.0000   1.0000   1.0000   1.0000   1.0000   1.0000   1.0000   1.0000
     1.0000   1.0000   1.0000   1.0000   1.0000   1.0000   1.0000   1.0000
     1.0000   1.0000   1.0000   1.0000   1.0000   1.0000   1.0000   1.0000
     1.0000   1.0000   1.0000   1.0000   1.0000   1.0000   1.0000   1.0000
     1.0000   1.0000   1.0000   1.0000   1.0000   1.0000   1.0000   1.0000
     1.0000   1.0000   1.0000   1.0000   1.0000   1.0000   1.0000   1.0000
     1.0000   1.0000   1.0000   1.0000   1.0000   1.0000   1.0000   1.0000

          k = 0.0455 0.3182 0.4091 ( 43235 PWs)   bands (ev):

   -23.2745 -23.2745 -23.2745 -23.2745 -23.1422 -23.1422 -23.1422 -23.1422
   -22.2549 -22.2549 -22.2549 -22.2549 -22.1396 -22.1396 -22.1396 -22.1396
   -22.0859 -22.0859 -22.0859 -22.0859 -11.5730 -11.5730 -11.5525 -11.5525
   -11.5034 -11.5034 -11.4950 -11.4950  -6.9994  -6.9994  -6.9652  -6.9652
    -2.8588  -2.8588  -2.7717  -2.7717  -2.0332  -2.0332  -1.8907  -1.8907
    -1.8134  -1.8134  -1.5841  -1.5841  -1.2517  -1.2517  -1.1798  -1.1798
    -1.0058  -1.0058  -0.9607  -0.9607  -0.8075  -0.8075  -0.6716  -0.6716

     occupation numbers 
     1.0000   1.0000   1.0000   1.0000   1.0000   1.0000   1.0000   1.0000
     1.0000   1.0000   1.0000   1.0000   1.0000   1.0000   1.0000   1.0000
     1.0000   1.0000   1.0000   1.0000   1.0000   1.0000   1.0000   1.0000
     1.0000   1.0000   1.0000   1.0000   1.0000   1.0000   1.0000   1.0000
     1.0000   1.0000   1.0000   1.0000   1.0000   1.0000   1.0000   1.0000
     1.0000   1.0000   1.0000   1.0000   1.0000   1.0000   1.0000   1.0000
     1.0000   1.0000   1.0000   1.0000   1.0000   1.0000   1.0000   1.0000

          k = 0.0455 0.3182-0.5000 ( 43246 PWs)   bands (ev):

   -23.2745 -23.2745 -23.2745 -23.2745 -23.1422 -23.1422 -23.1422 -23.1422
   -22.2549 -22.2549 -22.2549 -22.2549 -22.1396 -22.1396 -22.1396 -22.1396
   -22.0859 -22.0859 -22.0859 -22.0859 -11.5658 -11.5658 -11.5592 -11.5592
   -11.5029 -11.5029 -11.4959 -11.4959  -6.9874  -6.9874  -6.9795  -6.9795
    -2.8612  -2.8612  -2.7740  -2.7740  -2.0278  -2.0278  -1.8744  -1.8744
    -1.8246  -1.8246  -1.5833  -1.5833  -1.2489  -1.2489  -1.1763  -1.1763
    -1.0107  -1.0107  -0.9627  -0.9627  -0.8031  -0.8031  -0.6711  -0.6711

     occupation numbers 
     1.0000   1.0000   1.0000   1.0000   1.0000   1.0000   1.0000   1.0000
     1.0000   1.0000   1.0000   1.0000   1.0000   1.0000   1.0000   1.0000
     1.0000   1.0000   1.0000   1.0000   1.0000   1.0000   1.0000   1.0000
     1.0000   1.0000   1.0000   1.0000   1.0000   1.0000   1.0000   1.0000
     1.0000   1.0000   1.0000   1.0000   1.0000   1.0000   1.0000   1.0000
     1.0000   1.0000   1.0000   1.0000   1.0000   1.0000   1.0000   1.0000
     1.0000   1.0000   1.0000   1.0000   1.0000   1.0000   1.0000   1.0000

          k = 0.0455 0.4091 0.4091 ( 43250 PWs)   bands (ev):

   -23.2745 -23.2745 -23.2745 -23.2745 -23.1422 -23.1422 -23.1422 -23.1422
   -22.2549 -22.2549 -22.2549 -22.2549 -22.1396 -22.1396 -22.1396 -22.1396
   -22.0859 -22.0859 -22.0859 -22.0859 -11.5614 -11.5614 -11.5480 -11.5480
   -11.5110 -11.5110 -11.5039 -11.5039  -6.9892  -6.9892  -6.9704  -6.9704
    -2.9003  -2.9003  -2.8472  -2.8472  -2.0155  -2.0155  -1.9061  -1.9061
    -1.7870  -1.7870  -1.5882  -1.5882  -1.2421  -1.2421  -1.1935  -1.1935
    -0.9757  -0.9757  -0.9422  -0.9422  -0.6820  -0.6820  -0.5866  -0.5866

     occupation numbers 
     1.0000   1.0000   1.0000   1.0000   1.0000   1.0000   1.0000   1.0000
     1.0000   1.0000   1.0000   1.0000   1.0000   1.0000   1.0000   1.0000
     1.0000   1.0000   1.0000   1.0000   1.0000   1.0000   1.0000   1.0000
     1.0000   1.0000   1.0000   1.0000   1.0000   1.0000   1.0000   1.0000
     1.0000   1.0000   1.0000   1.0000   1.0000   1.0000   1.0000   1.0000
     1.0000   1.0000   1.0000   1.0000   1.0000   1.0000   1.0000   1.0000
     1.0000   1.0000   1.0000   1.0000   1.0000   1.0000   1.0000   1.0000

          k = 0.0455 0.4091-0.5000 ( 43242 PWs)   bands (ev):

   -23.2745 -23.2745 -23.2745 -23.2745 -23.1422 -23.1422 -23.1422 -23.1422
   -22.2549 -22.2549 -22.2549 -22.2549 -22.1396 -22.1396 -22.1396 -22.1396
   -22.0859 -22.0859 -22.0859 -22.0859 -11.5567 -11.5567 -11.5512 -11.5512
   -11.5109 -11.5109 -11.5053 -11.5053  -6.9846  -6.9846  -6.9773  -6.9773
    -2.9035  -2.9035  -2.8499  -2.8499  -2.0111  -2.0111  -1.8973  -1.8973
    -1.7910  -1.7910  -1.5882  -1.5882  -1.2386  -1.2386  -1.1870  -1.1870
    -0.9709  -0.9709  -0.9442  -0.9442  -0.6789  -0.6789  -0.5835  -0.5835

     occupation numbers 
     1.0000   1.0000   1.0000   1.0000   1.0000   1.0000   1.0000   1.0000
     1.0000   1.0000   1.0000   1.0000   1.0000   1.0000   1.0000   1.0000
     1.0000   1.0000   1.0000   1.0000   1.0000   1.0000   1.0000   1.0000
     1.0000   1.0000   1.0000   1.0000   1.0000   1.0000   1.0000   1.0000
     1.0000   1.0000   1.0000   1.0000   1.0000   1.0000   1.0000   1.0000
     1.0000   1.0000   1.0000   1.0000   1.0000   1.0000   1.0000   1.0000
     1.0000   1.0000   1.0000   1.0000   1.0000   1.0000   1.0000   1.0000

          k = 0.0455-0.5000-0.5000 ( 43240 PWs)   bands (ev):

   -23.2745 -23.2745 -23.2745 -23.2745 -23.1422 -23.1422 -23.1422 -23.1422
   -22.2549 -22.2549 -22.2549 -22.2549 -22.1396 -22.1396 -22.1396 -22.1396
   -22.0859 -22.0859 -22.0859 -22.0859 -11.5501 -11.5501 -11.5498 -11.5498
   -11.5122 -11.5122 -11.5122 -11.5122  -6.9834  -6.9834  -6.9766  -6.9766
    -2.9131  -2.9131  -2.8813  -2.8813  -2.0061  -2.0061  -1.9054  -1.9054
    -1.7795  -1.7795  -1.5916  -1.5916  -1.2315  -1.2315  -1.1937  -1.1937
    -0.9563  -0.9563  -0.9403  -0.9403  -0.5986  -0.5986  -0.5756  -0.5756

     occupation numbers 
     1.0000   1.0000   1.0000   1.0000   1.0000   1.0000   1.0000   1.0000
     1.0000   1.0000   1.0000   1.0000   1.0000   1.0000   1.0000   1.0000
     1.0000   1.0000   1.0000   1.0000   1.0000   1.0000   1.0000   1.0000
     1.0000   1.0000   1.0000   1.0000   1.0000   1.0000   1.0000   1.0000
     1.0000   1.0000   1.0000   1.0000   1.0000   1.0000   1.0000   1.0000
     1.0000   1.0000   1.0000   1.0000   1.0000   1.0000   1.0000   1.0000
     1.0000   1.0000   1.0000   1.0000   1.0000   1.0000   1.0000   1.0000

          k = 0.1364 0.1364 0.1364 ( 43243 PWs)   bands (ev):

   -23.2745 -23.2745 -23.2745 -23.2745 -23.1422 -23.1422 -23.1421 -23.1421
   -22.2549 -22.2549 -22.2549 -22.2549 -22.1396 -22.1396 -22.1396 -22.1396
   -22.0859 -22.0859 -22.0859 -22.0859 -11.6154 -11.6154 -11.5355 -11.5355
   -11.4922 -11.4922 -11.4816 -11.4816  -7.0595  -7.0595  -6.8927  -6.8927
    -2.7675  -2.7675  -2.5473  -2.5473  -2.1310  -2.1310  -2.0028  -2.0028
    -1.8573  -1.8573  -1.5484  -1.5484  -1.2254  -1.2254  -1.1665  -1.1665
    -1.1272  -1.1272  -0.9693  -0.9693  -0.9132  -0.9132  -0.7971  -0.7971

     occupation numbers 
     1.0000   1.0000   1.0000   1.0000   1.0000   1.0000   1.0000   1.0000
     1.0000   1.0000   1.0000   1.0000   1.0000   1.0000   1.0000   1.0000
     1.0000   1.0000   1.0000   1.0000   1.0000   1.0000   1.0000   1.0000
     1.0000   1.0000   1.0000   1.0000   1.0000   1.0000   1.0000   1.0000
     1.0000   1.0000   1.0000   1.0000   1.0000   1.0000   1.0000   1.0000
     1.0000   1.0000   1.0000   1.0000   1.0000   1.0000   1.0000   1.0000
     1.0000   1.0000   1.0000   1.0000   1.0000   1.0000   1.0000   1.0000

          k = 0.1364 0.1364 0.2273 ( 43234 PWs)   bands (ev):

   -23.2745 -23.2745 -23.2745 -23.2745 -23.1422 -23.1422 -23.1421 -23.1421
   -22.2549 -22.2549 -22.2549 -22.2549 -22.1396 -22.1396 -22.1396 -22.1396
   -22.0859 -22.0859 -22.0859 -22.0859 -11.6085 -11.6085 -11.5417 -11.5417
   -11.4924 -11.4924 -11.4815 -11.4815  -7.0493  -7.0493  -6.9108  -6.9108
    -2.7729  -2.7729  -2.5385  -2.5385  -2.1249  -2.1249  -1.9763  -1.9763
    -1.8541  -1.8541  -1.5633  -1.5633  -1.2266  -1.2266  -1.1819  -1.1819
    -1.1365  -1.1365  -0.9783  -0.9783  -0.9152  -0.9152  -0.8001  -0.8001

     occupation numbers 
     1.0000   1.0000   1.0000   1.0000   1.0000   1.0000   1.0000   1.0000
     1.0000   1.0000   1.0000   1.0000   1.0000   1.0000   1.0000   1.0000
     1.0000   1.0000   1.0000   1.0000   1.0000   1.0000   1.0000   1.0000
     1.0000   1.0000   1.0000   1.0000   1.0000   1.0000   1.0000   1.0000
     1.0000   1.0000   1.0000   1.0000   1.0000   1.0000   1.0000   1.0000
     1.0000   1.0000   1.0000   1.0000   1.0000   1.0000   1.0000   1.0000
     1.0000   1.0000   1.0000   1.0000   1.0000   1.0000   1.0000   1.0000

          k = 0.1364 0.1364 0.3182 ( 43235 PWs)   bands (ev):

   -23.2745 -23.2745 -23.2745 -23.2745 -23.1422 -23.1422 -23.1421 -23.1421
   -22.2549 -22.2549 -22.2549 -22.2549 -22.1396 -22.1396 -22.1396 -22.1396
   -22.0859 -22.0859 -22.0859 -22.0859 -11.5990 -11.5990 -11.5506 -11.5506
   -11.4926 -11.4926 -11.4814 -11.4814  -7.0340  -7.0340  -6.9347  -6.9347
    -2.7780  -2.7780  -2.5292  -2.5292  -2.1243  -2.1243  -1.9451  -1.9451
    -1.8440  -1.8440  -1.5804  -1.5804  -1.2370  -1.2370  -1.1953  -1.1953
    -1.1343  -1.1343  -0.9937  -0.9937  -0.9207  -0.9207  -0.8030  -0.8030

     occupation numbers 
     1.0000   1.0000   1.0000   1.0000   1.0000   1.0000   1.0000   1.0000
     1.0000   1.0000   1.0000   1.0000   1.0000   1.0000   1.0000   1.0000
     1.0000   1.0000   1.0000   1.0000   1.0000   1.0000   1.0000   1.0000
     1.0000   1.0000   1.0000   1.0000   1.0000   1.0000   1.0000   1.0000
     1.0000   1.0000   1.0000   1.0000   1.0000   1.0000   1.0000   1.0000
     1.0000   1.0000   1.0000   1.0000   1.0000   1.0000   1.0000   1.0000
     1.0000   1.0000   1.0000   1.0000   1.0000   1.0000   1.0000   1.0000

          k = 0.1364 0.1364 0.4091 ( 43249 PWs)   bands (ev):

   -23.2745 -23.2745 -23.2745 -23.2745 -23.1422 -23.1422 -23.1422 -23.1422
   -22.2549 -22.2549 -22.2549 -22.2549 -22.1396 -22.1396 -22.1396 -22.1396
   -22.0859 -22.0859 -22.0859 -22.0859 -11.5880 -11.5880 -11.5612 -11.5612
   -11.4927 -11.4927 -11.4813 -11.4813  -7.0140  -7.0140  -6.9613  -6.9613
    -2.7814  -2.7814  -2.5223  -2.5223  -2.1264  -2.1264  -1.9266  -1.9266
    -1.8252  -1.8252  -1.5949  -1.5949  -1.2524  -1.2524  -1.1990  -1.1990
    -1.1267  -1.1267  -1.0108  -1.0108  -0.9281  -0.9281  -0.8047  -0.8047

     occupation numbers 
     1.0000   1.0000   1.0000   1.0000   1.0000   1.0000   1.0000   1.0000
     1.0000   1.0000   1.0000   1.0000   1.0000   1.0000   1.0000   1.0000
     1.0000   1.0000   1.0000   1.0000   1.0000   1.0000   1.0000   1.0000
     1.0000   1.0000   1.0000   1.0000   1.0000   1.0000   1.0000   1.0000
     1.0000   1.0000   1.0000   1.0000   1.0000   1.0000   1.0000   1.0000
     1.0000   1.0000   1.0000   1.0000   1.0000   1.0000   1.0000   1.0000
     1.0000   1.0000   1.0000   1.0000   1.0000   1.0000   1.0000   1.0000

          k = 0.1364 0.1364-0.5000 ( 43256 PWs)   bands (ev):

   -23.2745 -23.2745 -23.2745 -23.2745 -23.1422 -23.1422 -23.1422 -23.1422
   -22.2549 -22.2549 -22.2549 -22.2549 -22.1396 -22.1396 -22.1396 -22.1396
   -22.0859 -22.0859 -22.0859 -22.0859 -11.5797 -11.5797 -11.5693 -11.5693
   -11.4927 -11.4927 -11.4813 -11.4813  -6.9951  -6.9951  -6.9827  -6.9827
    -2.7826  -2.7826  -2.5197  -2.5197  -2.1275  -2.1275  -1.9219  -1.9219
    -1.8144  -1.8144  -1.6010  -1.6010  -1.2589  -1.2589  -1.1997  -1.1997
    -1.1222  -1.1222  -1.0190  -1.0190  -0.9317  -0.9317  -0.8052  -0.8052

     occupation numbers 
     1.0000   1.0000   1.0000   1.0000   1.0000   1.0000   1.0000   1.0000
     1.0000   1.0000   1.0000   1.0000   1.0000   1.0000   1.0000   1.0000
     1.0000   1.0000   1.0000   1.0000   1.0000   1.0000   1.0000   1.0000
     1.0000   1.0000   1.0000   1.0000   1.0000   1.0000   1.0000   1.0000
     1.0000   1.0000   1.0000   1.0000   1.0000   1.0000   1.0000   1.0000
     1.0000   1.0000   1.0000   1.0000   1.0000   1.0000   1.0000   1.0000
     1.0000   1.0000   1.0000   1.0000   1.0000   1.0000   1.0000   1.0000

          k = 0.1364 0.2273 0.2273 ( 43202 PWs)   bands (ev):

   -23.2745 -23.2745 -23.2745 -23.2745 -23.1422 -23.1422 -23.1421 -23.1421
   -22.2549 -22.2549 -22.2549 -22.2549 -22.1396 -22.1396 -22.1396 -22.1396
   -22.0859 -22.0859 -22.0859 -22.0859 -11.6002 -11.6002 -11.5396 -11.5396
   -11.5005 -11.5005 -11.4841 -11.4841  -7.0367  -7.0367  -6.9209  -6.9209
    -2.8404  -2.8404  -2.5786  -2.5786  -2.1102  -2.1102  -1.9519  -1.9519
    -1.8405  -1.8405  -1.5779  -1.5779  -1.2536  -1.2536  -1.1917  -1.1917
    -1.1059  -1.1059  -0.9627  -0.9627  -0.9017  -0.9017  -0.6807  -0.6807

     occupation numbers 
     1.0000   1.0000   1.0000   1.0000   1.0000   1.0000   1.0000   1.0000
     1.0000   1.0000   1.0000   1.0000   1.0000   1.0000   1.0000   1.0000
     1.0000   1.0000   1.0000   1.0000   1.0000   1.0000   1.0000   1.0000
     1.0000   1.0000   1.0000   1.0000   1.0000   1.0000   1.0000   1.0000
     1.0000   1.0000   1.0000   1.0000   1.0000   1.0000   1.0000   1.0000
     1.0000   1.0000   1.0000   1.0000   1.0000   1.0000   1.0000   1.0000
     1.0000   1.0000   1.0000   1.0000   1.0000   1.0000   1.0000   1.0000

          k = 0.1364 0.2273 0.3182 ( 43229 PWs)   bands (ev):

   -23.2745 -23.2745 -23.2745 -23.2745 -23.1422 -23.1422 -23.1421 -23.1421
   -22.2549 -22.2549 -22.2549 -22.2549 -22.1396 -22.1396 -22.1396 -22.1396
   -22.0859 -22.0859 -22.0859 -22.0859 -11.5918 -11.5918 -11.5468 -11.5468
   -11.5010 -11.5010 -11.4842 -11.4842  -7.0248  -7.0248  -6.9413  -6.9413
    -2.8503  -2.8503  -2.5737  -2.5737  -2.1010  -2.1010  -1.9183  -1.9183
    -1.8446  -1.8446  -1.5858  -1.5858  -1.2633  -1.2633  -1.1900  -1.1900
    -1.1094  -1.1094  -0.9687  -0.9687  -0.9005  -0.9005  -0.6784  -0.6784

     occupation numbers 
     1.0000   1.0000   1.0000   1.0000   1.0000   1.0000   1.0000   1.0000
     1.0000   1.0000   1.0000   1.0000   1.0000   1.0000   1.0000   1.0000
     1.0000   1.0000   1.0000   1.0000   1.0000   1.0000   1.0000   1.0000
     1.0000   1.0000   1.0000   1.0000   1.0000   1.0000   1.0000   1.0000
     1.0000   1.0000   1.0000   1.0000   1.0000   1.0000   1.0000   1.0000
     1.0000   1.0000   1.0000   1.0000   1.0000   1.0000   1.0000   1.0000
     1.0000   1.0000   1.0000   1.0000   1.0000   1.0000   1.0000   1.0000

          k = 0.1364 0.2273 0.4091 ( 43218 PWs)   bands (ev):

   -23.2745 -23.2745 -23.2745 -23.2745 -23.1422 -23.1422 -23.1422 -23.1422
   -22.2549 -22.2549 -22.2549 -22.2549 -22.1396 -22.1396 -22.1396 -22.1396
   -22.0859 -22.0859 -22.0859 -22.0859 -11.5825 -11.5825 -11.5553 -11.5553
   -11.5013 -11.5013 -11.4842 -11.4842  -7.0091  -7.0091  -6.9635  -6.9635
    -2.8570  -2.8570  -2.5702  -2.5702  -2.0984  -2.0984  -1.8917  -1.8917
    -1.8463  -1.8463  -1.5864  -1.5864  -1.2721  -1.2721  -1.1888  -1.1888
    -1.1112  -1.1112  -0.9755  -0.9755  -0.9006  -0.9006  -0.6765  -0.6765

     occupation numbers 
     1.0000   1.0000   1.0000   1.0000   1.0000   1.0000   1.0000   1.0000
     1.0000   1.0000   1.0000   1.0000   1.0000   1.0000   1.0000   1.0000
     1.0000   1.0000   1.0000   1.0000   1.0000   1.0000   1.0000   1.0000
     1.0000   1.0000   1.0000   1.0000   1.0000   1.0000   1.0000   1.0000
     1.0000   1.0000   1.0000   1.0000   1.0000   1.0000   1.0000   1.0000
     1.0000   1.0000   1.0000   1.0000   1.0000   1.0000   1.0000   1.0000
     1.0000   1.0000   1.0000   1.0000   1.0000   1.0000   1.0000   1.0000

          k = 0.1364 0.2273-0.5000 ( 43242 PWs)   bands (ev):

   -23.2745 -23.2745 -23.2745 -23.2745 -23.1422 -23.1422 -23.1422 -23.1422
   -22.2549 -22.2549 -22.2549 -22.2549 -22.1396 -22.1396 -22.1396 -22.1396
   -22.0859 -22.0859 -22.0859 -22.0859 -11.5766 -11.5766 -11.5608 -11.5608
   -11.5014 -11.5014 -11.4842 -11.4842  -6.9956  -6.9956  -6.9794  -6.9794
    -2.8594  -2.8594  -2.5690  -2.5690  -2.0982  -2.0982  -1.8832  -1.8832
    -1.8455  -1.8455  -1.5851  -1.5851  -1.2753  -1.2753  -1.1883  -1.1883
    -1.1123  -1.1123  -0.9785  -0.9785  -0.9009  -0.9009  -0.6758  -0.6758

     occupation numbers 
     1.0000   1.0000   1.0000   1.0000   1.0000   1.0000   1.0000   1.0000
     1.0000   1.0000   1.0000   1.0000   1.0000   1.0000   1.0000   1.0000
     1.0000   1.0000   1.0000   1.0000   1.0000   1.0000   1.0000   1.0000
     1.0000   1.0000   1.0000   1.0000   1.0000   1.0000   1.0000   1.0000
     1.0000   1.0000   1.0000   1.0000   1.0000   1.0000   1.0000   1.0000
     1.0000   1.0000   1.0000   1.0000   1.0000   1.0000   1.0000   1.0000
     1.0000   1.0000   1.0000   1.0000   1.0000   1.0000   1.0000   1.0000

          k = 0.1364 0.3182 0.3182 ( 43227 PWs)   bands (ev):

   -23.2745 -23.2745 -23.2745 -23.2745 -23.1422 -23.1422 -23.1421 -23.1421
   -22.2549 -22.2549 -22.2549 -22.2549 -22.1396 -22.1396 -22.1396 -22.1396
   -22.0859 -22.0859 -22.0859 -22.0859 -11.5818 -11.5818 -11.5441 -11.5441
   -11.5085 -11.5085 -11.4897 -11.4897  -7.0119  -7.0119  -6.9514  -6.9514
    -2.8878  -2.8878  -2.6678  -2.6678  -2.0673  -2.0673  -1.9246  -1.9246
    -1.8125  -1.8125  -1.5906  -1.5906  -1.2740  -1.2740  -1.2044  -1.2044
    -1.0367  -1.0367  -0.9462  -0.9462  -0.8713  -0.8713  -0.5952  -0.5952

     occupation numbers 
     1.0000   1.0000   1.0000   1.0000   1.0000   1.0000   1.0000   1.0000
     1.0000   1.0000   1.0000   1.0000   1.0000   1.0000   1.0000   1.0000
     1.0000   1.0000   1.0000   1.0000   1.0000   1.0000   1.0000   1.0000
     1.0000   1.0000   1.0000   1.0000   1.0000   1.0000   1.0000   1.0000
     1.0000   1.0000   1.0000   1.0000   1.0000   1.0000   1.0000   1.0000
     1.0000   1.0000   1.0000   1.0000   1.0000   1.0000   1.0000   1.0000
     1.0000   1.0000   1.0000   1.0000   1.0000   1.0000   1.0000   1.0000

          k = 0.1364 0.3182 0.4091 ( 43241 PWs)   bands (ev):

   -23.2745 -23.2745 -23.2745 -23.2745 -23.1422 -23.1422 -23.1422 -23.1422
   -22.2549 -22.2549 -22.2549 -22.2549 -22.1396 -22.1396 -22.1396 -22.1396
   -22.0859 -22.0859 -22.0859 -22.0859 -11.5745 -11.5745 -11.5494 -11.5494
   -11.5094 -11.5094 -11.4902 -11.4902  -7.0019  -7.0019  -6.9677  -6.9677
    -2.8961  -2.8961  -2.6700  -2.6700  -2.0592  -2.0592  -1.9023  -1.9023
    -1.8220  -1.8220  -1.5835  -1.5835  -1.2710  -1.2710  -1.1949  -1.1949
    -1.0446  -1.0446  -0.9460  -0.9460  -0.8645  -0.8645  -0.5894  -0.5894

     occupation numbers 
     1.0000   1.0000   1.0000   1.0000   1.0000   1.0000   1.0000   1.0000
     1.0000   1.0000   1.0000   1.0000   1.0000   1.0000   1.0000   1.0000
     1.0000   1.0000   1.0000   1.0000   1.0000   1.0000   1.0000   1.0000
     1.0000   1.0000   1.0000   1.0000   1.0000   1.0000   1.0000   1.0000
     1.0000   1.0000   1.0000   1.0000   1.0000   1.0000   1.0000   1.0000
     1.0000   1.0000   1.0000   1.0000   1.0000   1.0000   1.0000   1.0000
     1.0000   1.0000   1.0000   1.0000   1.0000   1.0000   1.0000   1.0000

          k = 0.1364 0.3182-0.5000 ( 43256 PWs)   bands (ev):

   -23.2745 -23.2745 -23.2745 -23.2745 -23.1422 -23.1422 -23.1422 -23.1422
   -22.2549 -22.2549 -22.2549 -22.2549 -22.1396 -22.1396 -22.1396 -22.1396
   -22.0859 -22.0859 -22.0859 -22.0859 -11.5706 -11.5706 -11.5526 -11.5526
   -11.5097 -11.5097 -11.4904 -11.4904  -6.9937  -6.9937  -6.9783  -6.9783
    -2.8991  -2.8991  -2.6708  -2.6708  -2.0574  -2.0574  -1.8945  -1.8945
    -1.8248  -1.8248  -1.5796  -1.5796  -1.2689  -1.2689  -1.1907  -1.1907
    -1.0505  -1.0505  -0.9452  -0.9452  -0.8615  -0.8615  -0.5870  -0.5870

     occupation numbers 
     1.0000   1.0000   1.0000   1.0000   1.0000   1.0000   1.0000   1.0000
     1.0000   1.0000   1.0000   1.0000   1.0000   1.0000   1.0000   1.0000
     1.0000   1.0000   1.0000   1.0000   1.0000   1.0000   1.0000   1.0000
     1.0000   1.0000   1.0000   1.0000   1.0000   1.0000   1.0000   1.0000
     1.0000   1.0000   1.0000   1.0000   1.0000   1.0000   1.0000   1.0000
     1.0000   1.0000   1.0000   1.0000   1.0000   1.0000   1.0000   1.0000
     1.0000   1.0000   1.0000   1.0000   1.0000   1.0000   1.0000   1.0000

          k = 0.1364 0.4091 0.4091 ( 43225 PWs)   bands (ev):

   -23.2745 -23.2745 -23.2745 -23.2745 -23.1422 -23.1422 -23.1422 -23.1422
   -22.2549 -22.2549 -22.2549 -22.2549 -22.1396 -22.1396 -22.1396 -22.1396
   -22.0859 -22.0859 -22.0859 -22.0859 -11.5649 -11.5649 -11.5484 -11.5484
   -11.5121 -11.5121 -11.4983 -11.4983  -6.9932  -6.9932  -6.9742  -6.9742
    -2.8946  -2.8946  -2.7704  -2.7704  -2.0374  -2.0374  -1.9206  -1.9206
    -1.7925  -1.7925  -1.5855  -1.5855  -1.2578  -1.2578  -1.2091  -1.2091
    -0.9725  -0.9725  -0.9268  -0.9268  -0.7936  -0.7936  -0.5924  -0.5924

     occupation numbers 
     1.0000   1.0000   1.0000   1.0000   1.0000   1.0000   1.0000   1.0000
     1.0000   1.0000   1.0000   1.0000   1.0000   1.0000   1.0000   1.0000
     1.0000   1.0000   1.0000   1.0000   1.0000   1.0000   1.0000   1.0000
     1.0000   1.0000   1.0000   1.0000   1.0000   1.0000   1.0000   1.0000
     1.0000   1.0000   1.0000   1.0000   1.0000   1.0000   1.0000   1.0000
     1.0000   1.0000   1.0000   1.0000   1.0000   1.0000   1.0000   1.0000
     1.0000   1.0000   1.0000   1.0000   1.0000   1.0000   1.0000   1.0000

          k = 0.1364 0.4091-0.5000 ( 43234 PWs)   bands (ev):

   -23.2745 -23.2745 -23.2745 -23.2745 -23.1422 -23.1422 -23.1422 -23.1422
   -22.2549 -22.2549 -22.2549 -22.2549 -22.1396 -22.1396 -22.1396 -22.1396
   -22.0859 -22.0859 -22.0859 -22.0859 -11.5625 -11.5625 -11.5492 -11.5492
   -11.5128 -11.5128 -11.4988 -11.4988  -6.9901  -6.9901  -6.9796  -6.9796
    -2.8977  -2.8977  -2.7725  -2.7725  -2.0358  -2.0358  -1.9158  -1.9158
    -1.7934  -1.7934  -1.5825  -1.5825  -1.2533  -1.2533  -1.2018  -1.2018
    -0.9718  -0.9718  -0.9260  -0.9260  -0.7914  -0.7914  -0.5899  -0.5899

     occupation numbers 
     1.0000   1.0000   1.0000   1.0000   1.0000   1.0000   1.0000   1.0000
     1.0000   1.0000   1.0000   1.0000   1.0000   1.0000   1.0000   1.0000
     1.0000   1.0000   1.0000   1.0000   1.0000   1.0000   1.0000   1.0000
     1.0000   1.0000   1.0000   1.0000   1.0000   1.0000   1.0000   1.0000
     1.0000   1.0000   1.0000   1.0000   1.0000   1.0000   1.0000   1.0000
     1.0000   1.0000   1.0000   1.0000   1.0000   1.0000   1.0000   1.0000
     1.0000   1.0000   1.0000   1.0000   1.0000   1.0000   1.0000   1.0000

          k = 0.1364-0.5000-0.5000 ( 43224 PWs)   bands (ev):

   -23.2745 -23.2745 -23.2745 -23.2745 -23.1422 -23.1422 -23.1421 -23.1421
   -22.2549 -22.2549 -22.2549 -22.2549 -22.1396 -22.1396 -22.1396 -22.1396
[...]
     1.0000   1.0000   1.0000   1.0000   1.0000   1.0000   1.0000   1.0000
     1.0000   1.0000   1.0000   1.0000   1.0000   1.0000   1.0000   1.0000
     1.0000   1.0000   1.0000   1.0000   1.0000   1.0000   1.0000   1.0000
     1.0000   1.0000   1.0000   1.0000   1.0000   1.0000   1.0000   1.0000
     1.0000   1.0000   1.0000   1.0000   1.0000   1.0000   1.0000   1.0000
     1.0000   1.0000   1.0000   1.0000   1.0000   1.0000   1.0000   1.0000

          k =-0.5000 0.2273 0.4091 ( 43228 PWs)   bands (ev):

   -23.2745 -23.2745 -23.2745 -23.2745 -23.1422 -23.1422 -23.1422 -23.1422
   -22.2549 -22.2549 -22.2549 -22.2549 -22.1396 -22.1396 -22.1396 -22.1396
   -22.0859 -22.0859 -22.0859 -22.0859 -11.5602 -11.5602 -11.5600 -11.5600
   -11.5010 -11.5010 -11.5010 -11.5010  -6.9931  -6.9931  -6.9882  -6.9882
    -2.7800  -2.7800  -2.7570  -2.7570  -2.0645  -2.0645  -1.9464  -1.9464
    -1.8008  -1.8008  -1.5896  -1.5896  -1.2742  -1.2742  -1.2419  -1.2419
    -0.9434  -0.9434  -0.9207  -0.9207  -0.7992  -0.7992  -0.7799  -0.7799

     occupation numbers 
     1.0000   1.0000   1.0000   1.0000   1.0000   1.0000   1.0000   1.0000
     1.0000   1.0000   1.0000   1.0000   1.0000   1.0000   1.0000   1.0000
     1.0000   1.0000   1.0000   1.0000   1.0000   1.0000   1.0000   1.0000
     1.0000   1.0000   1.0000   1.0000   1.0000   1.0000   1.0000   1.0000
     1.0000   1.0000   1.0000   1.0000   1.0000   1.0000   1.0000   1.0000
     1.0000   1.0000   1.0000   1.0000   1.0000   1.0000   1.0000   1.0000
     1.0000   1.0000   1.0000   1.0000   1.0000   1.0000   1.0000   1.0000

          k =-0.5000-0.5000 0.2273 ( 43212 PWs)   bands (ev):

   -23.2745 -23.2745 -23.2745 -23.2745 -23.1422 -23.1422 -23.1422 -23.1422
   -22.2549 -22.2549 -22.2549 -22.2549 -22.1396 -22.1396 -22.1396 -22.1396
   -22.0859 -22.0859 -22.0859 -22.0859 -11.5696 -11.5696 -11.5696 -11.5696
   -11.4910 -11.4910 -11.4910 -11.4910  -6.9983  -6.9983  -6.9983  -6.9983
    -2.5336  -2.5336  -2.5336  -2.5336  -2.0196  -2.0196  -2.0196  -2.0196
    -1.8081  -1.8081  -1.8081  -1.8081  -1.3932  -1.3932  -1.3932  -1.3932
    -1.0970  -1.0970  -1.0970  -1.0970  -0.8161  -0.8161  -0.8161  -0.8161

     occupation numbers 
     1.0000   1.0000   1.0000   1.0000   1.0000   1.0000   1.0000   1.0000
     1.0000   1.0000   1.0000   1.0000   1.0000   1.0000   1.0000   1.0000
     1.0000   1.0000   1.0000   1.0000   1.0000   1.0000   1.0000   1.0000
     1.0000   1.0000   1.0000   1.0000   1.0000   1.0000   1.0000   1.0000
     1.0000   1.0000   1.0000   1.0000   1.0000   1.0000   1.0000   1.0000
     1.0000   1.0000   1.0000   1.0000   1.0000   1.0000   1.0000   1.0000
     1.0000   1.0000   1.0000   1.0000   1.0000   1.0000   1.0000   1.0000

          k = 0.3182 0.4091 0.3182 ( 43252 PWs)   bands (ev):

   -23.2745 -23.2745 -23.2745 -23.2745 -23.1422 -23.1422 -23.1422 -23.1422
   -22.2549 -22.2549 -22.2549 -22.2549 -22.1396 -22.1396 -22.1396 -22.1396
   -22.0859 -22.0859 -22.0859 -22.0859 -11.5722 -11.5722 -11.5579 -11.5579
   -11.5014 -11.5014 -11.4903 -11.4903  -7.0042  -7.0042  -6.9834  -6.9834
    -2.7605  -2.7605  -2.5695  -2.5695  -2.0896  -2.0896  -1.9459  -1.9459
    -1.8580  -1.8580  -1.6324  -1.6324  -1.3350  -1.3350  -1.2857  -1.2857
    -1.0762  -1.0762  -0.9174  -0.9174  -0.8341  -0.8341  -0.7805  -0.7805

     occupation numbers 
     1.0000   1.0000   1.0000   1.0000   1.0000   1.0000   1.0000   1.0000
     1.0000   1.0000   1.0000   1.0000   1.0000   1.0000   1.0000   1.0000
     1.0000   1.0000   1.0000   1.0000   1.0000   1.0000   1.0000   1.0000
     1.0000   1.0000   1.0000   1.0000   1.0000   1.0000   1.0000   1.0000
     1.0000   1.0000   1.0000   1.0000   1.0000   1.0000   1.0000   1.0000
     1.0000   1.0000   1.0000   1.0000   1.0000   1.0000   1.0000   1.0000
     1.0000   1.0000   1.0000   1.0000   1.0000   1.0000   1.0000   1.0000

          k = 0.3182-0.5000 0.3182 ( 43214 PWs)   bands (ev):

   -23.2745 -23.2745 -23.2745 -23.2745 -23.1422 -23.1422 -23.1422 -23.1422
   -22.2549 -22.2549 -22.2549 -22.2549 -22.1396 -22.1396 -22.1396 -22.1396
   -22.0859 -22.0859 -22.0859 -22.0859 -11.5656 -11.5656 -11.5655 -11.5655
   -11.4952 -11.4952 -11.4952 -11.4952  -6.9966  -6.9966  -6.9935  -6.9935
    -2.6684  -2.6684  -2.6550  -2.6550  -2.0822  -2.0822  -1.9616  -1.9616
    -1.8347  -1.8347  -1.6388  -1.6388  -1.3256  -1.3256  -1.3055  -1.3055
    -1.0168  -1.0168  -0.9841  -0.9841  -0.8288  -0.8288  -0.8101  -0.8101

     occupation numbers 
     1.0000   1.0000   1.0000   1.0000   1.0000   1.0000   1.0000   1.0000
     1.0000   1.0000   1.0000   1.0000   1.0000   1.0000   1.0000   1.0000
     1.0000   1.0000   1.0000   1.0000   1.0000   1.0000   1.0000   1.0000
     1.0000   1.0000   1.0000   1.0000   1.0000   1.0000   1.0000   1.0000
     1.0000   1.0000   1.0000   1.0000   1.0000   1.0000   1.0000   1.0000
     1.0000   1.0000   1.0000   1.0000   1.0000   1.0000   1.0000   1.0000
     1.0000   1.0000   1.0000   1.0000   1.0000   1.0000   1.0000   1.0000

          k = 0.4091 0.4091 0.3182 ( 43218 PWs)   bands (ev):

   -23.2745 -23.2745 -23.2745 -23.2745 -23.1422 -23.1422 -23.1422 -23.1422
   -22.2549 -22.2549 -22.2549 -22.2549 -22.1396 -22.1396 -22.1396 -22.1396
   -22.0859 -22.0859 -22.0859 -22.0859 -11.5712 -11.5712 -11.5637 -11.5637
   -11.4961 -11.4961 -11.4899 -11.4899  -7.0046  -7.0046  -6.9934  -6.9934
    -2.6606  -2.6606  -2.5282  -2.5282  -2.0944  -2.0944  -1.9640  -1.9640
    -1.8726  -1.8726  -1.6762  -1.6762  -1.3547  -1.3547  -1.3181  -1.3181
    -1.0949  -1.0949  -0.9942  -0.9942  -0.8219  -0.8219  -0.8048  -0.8048

     occupation numbers 
     1.0000   1.0000   1.0000   1.0000   1.0000   1.0000   1.0000   1.0000
     1.0000   1.0000   1.0000   1.0000   1.0000   1.0000   1.0000   1.0000
     1.0000   1.0000   1.0000   1.0000   1.0000   1.0000   1.0000   1.0000
     1.0000   1.0000   1.0000   1.0000   1.0000   1.0000   1.0000   1.0000
     1.0000   1.0000   1.0000   1.0000   1.0000   1.0000   1.0000   1.0000
     1.0000   1.0000   1.0000   1.0000   1.0000   1.0000   1.0000   1.0000
     1.0000   1.0000   1.0000   1.0000   1.0000   1.0000   1.0000   1.0000

          k = 0.4091-0.5000 0.3182 ( 43228 PWs)   bands (ev):

   -23.2745 -23.2745 -23.2745 -23.2745 -23.1422 -23.1422 -23.1422 -23.1422
   -22.2549 -22.2549 -22.2549 -22.2549 -22.1396 -22.1396 -22.1396 -22.1396
   -22.0859 -22.0859 -22.0859 -22.0859 -11.5683 -11.5683 -11.5682 -11.5682
   -11.4920 -11.4920 -11.4920 -11.4920  -7.0017  -7.0017  -7.0001  -7.0001
    -2.5706  -2.5706  -2.5665  -2.5665  -2.0869  -2.0869  -1.9900  -1.9900
    -1.8506  -1.8506  -1.7091  -1.7091  -1.3547  -1.3547  -1.3379  -1.3379
    -1.0762  -1.0762  -1.0575  -1.0575  -0.8155  -0.8155  -0.8047  -0.8047

     occupation numbers 
     1.0000   1.0000   1.0000   1.0000   1.0000   1.0000   1.0000   1.0000
     1.0000   1.0000   1.0000   1.0000   1.0000   1.0000   1.0000   1.0000
     1.0000   1.0000   1.0000   1.0000   1.0000   1.0000   1.0000   1.0000
     1.0000   1.0000   1.0000   1.0000   1.0000   1.0000   1.0000   1.0000
     1.0000   1.0000   1.0000   1.0000   1.0000   1.0000   1.0000   1.0000
     1.0000   1.0000   1.0000   1.0000   1.0000   1.0000   1.0000   1.0000
     1.0000   1.0000   1.0000   1.0000   1.0000   1.0000   1.0000   1.0000

          k =-0.5000 0.3182 0.4091 ( 43228 PWs)   bands (ev):

   -23.2745 -23.2745 -23.2745 -23.2745 -23.1422 -23.1422 -23.1422 -23.1422
   -22.2549 -22.2549 -22.2549 -22.2549 -22.1396 -22.1396 -22.1396 -22.1396
   -22.0859 -22.0859 -22.0859 -22.0859 -11.5648 -11.5648 -11.5647 -11.5647
   -11.4957 -11.4957 -11.4957 -11.4957  -7.0003  -7.0003  -6.9968  -6.9968
    -2.6711  -2.6711  -2.6576  -2.6576  -2.0966  -2.0966  -1.9630  -1.9630
    -1.8382  -1.8382  -1.6188  -1.6188  -1.3084  -1.3084  -1.2683  -1.2683
    -1.0116  -1.0116  -0.9937  -0.9937  -0.8248  -0.8248  -0.8035  -0.8035

     occupation numbers 
     1.0000   1.0000   1.0000   1.0000   1.0000   1.0000   1.0000   1.0000
     1.0000   1.0000   1.0000   1.0000   1.0000   1.0000   1.0000   1.0000
     1.0000   1.0000   1.0000   1.0000   1.0000   1.0000   1.0000   1.0000
     1.0000   1.0000   1.0000   1.0000   1.0000   1.0000   1.0000   1.0000
     1.0000   1.0000   1.0000   1.0000   1.0000   1.0000   1.0000   1.0000
     1.0000   1.0000   1.0000   1.0000   1.0000   1.0000   1.0000   1.0000
     1.0000   1.0000   1.0000   1.0000   1.0000   1.0000   1.0000   1.0000

          k =-0.5000-0.5000 0.3182 ( 43212 PWs)   bands (ev):

   -23.2745 -23.2745 -23.2745 -23.2745 -23.1422 -23.1422 -23.1422 -23.1422
   -22.2549 -22.2549 -22.2549 -22.2549 -22.1396 -22.1396 -22.1396 -22.1396
   -22.0859 -22.0859 -22.0859 -22.0859 -11.5692 -11.5692 -11.5692 -11.5692
   -11.4908 -11.4908 -11.4908 -11.4908  -7.0031  -7.0031  -7.0031  -7.0031
    -2.5282  -2.5282  -2.5282  -2.5282  -2.0520  -2.0520  -2.0520  -2.0520
    -1.7967  -1.7967  -1.7967  -1.7967  -1.3579  -1.3579  -1.3579  -1.3579
    -1.0896  -1.0896  -1.0896  -1.0896  -0.8047  -0.8047  -0.8047  -0.8047

     occupation numbers 
     1.0000   1.0000   1.0000   1.0000   1.0000   1.0000   1.0000   1.0000
     1.0000   1.0000   1.0000   1.0000   1.0000   1.0000   1.0000   1.0000
     1.0000   1.0000   1.0000   1.0000   1.0000   1.0000   1.0000   1.0000
     1.0000   1.0000   1.0000   1.0000   1.0000   1.0000   1.0000   1.0000
     1.0000   1.0000   1.0000   1.0000   1.0000   1.0000   1.0000   1.0000
     1.0000   1.0000   1.0000   1.0000   1.0000   1.0000   1.0000   1.0000
     1.0000   1.0000   1.0000   1.0000   1.0000   1.0000   1.0000   1.0000

          k = 0.4091-0.5000 0.4091 ( 43212 PWs)   bands (ev):

   -23.2745 -23.2745 -23.2745 -23.2745 -23.1422 -23.1422 -23.1422 -23.1422
   -22.2549 -22.2549 -22.2549 -22.2549 -22.1396 -22.1396 -22.1396 -22.1396
   -22.0859 -22.0859 -22.0859 -22.0859 -11.5679 -11.5679 -11.5678 -11.5678
   -11.4920 -11.4920 -11.4920 -11.4920  -7.0055  -7.0055  -7.0037  -7.0037
    -2.5684  -2.5684  -2.5656  -2.5656  -2.1088  -2.1088  -2.0043  -2.0043
    -1.8497  -1.8497  -1.6941  -1.6941  -1.3307  -1.3307  -1.2982  -1.2982
    -1.0742  -1.0742  -1.0655  -1.0655  -0.8070  -0.8070  -0.7953  -0.7953

     occupation numbers 
     1.0000   1.0000   1.0000   1.0000   1.0000   1.0000   1.0000   1.0000
     1.0000   1.0000   1.0000   1.0000   1.0000   1.0000   1.0000   1.0000
     1.0000   1.0000   1.0000   1.0000   1.0000   1.0000   1.0000   1.0000
     1.0000   1.0000   1.0000   1.0000   1.0000   1.0000   1.0000   1.0000
     1.0000   1.0000   1.0000   1.0000   1.0000   1.0000   1.0000   1.0000
     1.0000   1.0000   1.0000   1.0000   1.0000   1.0000   1.0000   1.0000
     1.0000   1.0000   1.0000   1.0000   1.0000   1.0000   1.0000   1.0000

          k =-0.5000-0.5000 0.4091 ( 43204 PWs)   bands (ev):

   -23.2745 -23.2745 -23.2745 -23.2745 -23.1422 -23.1422 -23.1422 -23.1422
   -22.2549 -22.2549 -22.2549 -22.2549 -22.1396 -22.1396 -22.1396 -22.1396
   -22.0859 -22.0859 -22.0859 -22.0859 -11.5689 -11.5689 -11.5689 -11.5689
   -11.4907 -11.4907 -11.4907 -11.4907  -7.0068  -7.0068  -7.0068  -7.0068
    -2.5243  -2.5243  -2.5243  -2.5243  -2.0746  -2.0746  -2.0746  -2.0746
    -1.7898  -1.7898  -1.7898  -1.7898  -1.3243  -1.3243  -1.3243  -1.3243
    -1.0916  -1.0916  -1.0916  -1.0916  -0.7947  -0.7947  -0.7947  -0.7947

     occupation numbers 
     1.0000   1.0000   1.0000   1.0000   1.0000   1.0000   1.0000   1.0000
     1.0000   1.0000   1.0000   1.0000   1.0000   1.0000   1.0000   1.0000
     1.0000   1.0000   1.0000   1.0000   1.0000   1.0000   1.0000   1.0000
     1.0000   1.0000   1.0000   1.0000   1.0000   1.0000   1.0000   1.0000
     1.0000   1.0000   1.0000   1.0000   1.0000   1.0000   1.0000   1.0000
     1.0000   1.0000   1.0000   1.0000   1.0000   1.0000   1.0000   1.0000
     1.0000   1.0000   1.0000   1.0000   1.0000   1.0000   1.0000   1.0000

     highest occupied level (ev):    -0.5756

!    total energy              =   -2370.94219638 Ry
     Harris-Foulkes estimate   =   -2370.94219639 Ry
     estimated scf accuracy    <       0.00000019 Ry

     total all-electron energy =    -81634.464402 Ry

     The total energy is the sum of the following terms:

     one-electron contribution =    -248.68422209 Ry
     hartree contribution      =     145.43377526 Ry
     xc contribution           =    -157.08911033 Ry
     ewald contribution        =    -190.25175950 Ry
     one-center paw contrib.   =   -1920.35087973 Ry
      -> PAW hartree energy AE =     107.23300137 Ry
      -> PAW hartree energy PS =    -106.44835663 Ry
      -> PAW xc energy AE      =    -324.23304854 Ry
      -> PAW xc energy PS      =      46.59332993 Ry
      -> total E_H with PAW    =     146.21842000 Ry
      -> total E_XC with PAW   =    -434.72882894 Ry

     convergence has been achieved in   8 iterations

     Forces acting on atoms (cartesian axes, Ry/au):

     atom    1 type  1   force =     0.00000000    0.00000000   -0.00000000
     atom    2 type  1   force =     0.00000000    0.00000000    0.00000000
     atom    3 type  2   force =    -0.01796950   -0.01796950   -0.00000000
     atom    4 type  2   force =     0.01796950    0.01796950   -0.00000000
     atom    5 type  2   force =    -0.01796950    0.01796950    0.00000000
     atom    6 type  2   force =     0.01796950   -0.01796950    0.00000000
     The non-local contrib.  to forces
     atom    1 type  1   force =     0.00000000    0.00000000    0.00000000
     atom    2 type  1   force =     0.00000000    0.00000000    0.00000000
     atom    3 type  2   force =    -0.04129496   -0.04129496    0.00000000
     atom    4 type  2   force =     0.04129496    0.04129496    0.00000000
     atom    5 type  2   force =    -0.04129496    0.04129496    0.00000000
     atom    6 type  2   force =     0.04129496   -0.04129496    0.00000000
     The ionic contribution  to forces
     atom    1 type  1   force =    -0.00000000   -0.00000000   -0.00000000
     atom    2 type  1   force =     0.00000000    0.00000000    0.00000000
     atom    3 type  2   force =     1.38633657    1.38633657    0.00000000
     atom    4 type  2   force =    -1.38633657   -1.38633657   -0.00000000
     atom    5 type  2   force =     1.38633657   -1.38633657    0.00000000
     atom    6 type  2   force =    -1.38633657    1.38633657    0.00000000
     The local contribution  to forces
     atom    1 type  1   force =     0.00000000    0.00000000    0.00000000
     atom    2 type  1   force =     0.00000000    0.00000000    0.00000000
     atom    3 type  2   force =    -1.36677180   -1.36677180    0.00000000
     atom    4 type  2   force =     1.36677180    1.36677180    0.00000000
     atom    5 type  2   force =    -1.36677180    1.36677180    0.00000000
     atom    6 type  2   force =     1.36677180   -1.36677180    0.00000000
     The core correction contribution to forces
     atom    1 type  1   force =     0.00000000    0.00000000    0.00000000
     atom    2 type  1   force =     0.00000000    0.00000000    0.00000000
     atom    3 type  2   force =     0.00390810    0.00390810    0.00000000
     atom    4 type  2   force =    -0.00390810   -0.00390810    0.00000000
     atom    5 type  2   force =     0.00390810   -0.00390810    0.00000000
     atom    6 type  2   force =    -0.00390810    0.00390810   -0.00000000
     The Hubbard contrib.    to forces
     atom    1 type  1   force =     0.00000000    0.00000000    0.00000000
     atom    2 type  1   force =     0.00000000    0.00000000    0.00000000
     atom    3 type  2   force =     0.00000000    0.00000000    0.00000000
     atom    4 type  2   force =     0.00000000    0.00000000    0.00000000
     atom    5 type  2   force =     0.00000000    0.00000000    0.00000000
     atom    6 type  2   force =     0.00000000    0.00000000    0.00000000
     The SCF correction term to forces
     atom    1 type  1   force =    -0.00000000   -0.00000000    0.00000000
     atom    2 type  1   force =    -0.00000000   -0.00000000   -0.00000000
     atom    3 type  2   force =    -0.00014740   -0.00014740   -0.00000000
     atom    4 type  2   force =     0.00014740    0.00014740   -0.00000000
     atom    5 type  2   force =    -0.00014740    0.00014740   -0.00000000
     atom    6 type  2   force =     0.00014740   -0.00014740   -0.00000000

     Total force =     0.050825     Total SCF correction =     0.000417


     Computing stress (Cartesian axis) and pressure

     Message from routine stres:
     noncollinear stress + GGA not implemented

     Writing output data file CsIsalt.save/
 
     init_run     :     94.86s CPU    149.84s WALL (       1 calls)
     electrons    :   2953.79s CPU   4545.52s WALL (       1 calls)
     forces       :     23.43s CPU     32.76s WALL (       1 calls)

     Called by init_run:
     wfcinit      :     92.29s CPU    146.30s WALL (       1 calls)
     wfcinit:atom :      0.42s CPU      0.45s WALL (     126 calls)
     wfcinit:wfcr :     89.41s CPU    142.05s WALL (     126 calls)
     potinit      :      0.51s CPU      0.74s WALL (       1 calls)
     hinit0       :      0.80s CPU      1.15s WALL (       1 calls)

     Called by electrons:
     c_bands      :   2360.56s CPU   3670.32s WALL (       8 calls)
     sum_band     :    581.19s CPU    857.71s WALL (       8 calls)
     v_of_rho     :      0.62s CPU      0.96s WALL (       9 calls)
     v_h          :      0.03s CPU      0.05s WALL (       9 calls)
     v_xc         :      0.63s CPU      0.97s WALL (      10 calls)
     newd         :      8.44s CPU     11.22s WALL (       9 calls)
     PAW_pot      :      1.62s CPU      2.34s WALL (       9 calls)
     mix_rho      :      1.48s CPU      2.82s WALL (       8 calls)

     Called by c_bands:
     init_us_2    :      8.94s CPU     12.88s WALL (    2268 calls)
     cegterg      :   2232.40s CPU   3524.89s WALL (    1008 calls)

     Called by sum_band:
     sum_band:bec :     13.17s CPU     18.01s WALL (    1008 calls)
     addusdens    :      6.71s CPU      8.64s WALL (       8 calls)

     Called by *egterg:
     h_psi        :   1593.45s CPU   2590.18s WALL (    4451 calls)
     s_psi        :     34.76s CPU     39.53s WALL (    4451 calls)
     g_psi        :      3.34s CPU      3.46s WALL (    3317 calls)
     cdiaghg      :    162.68s CPU    261.63s WALL (    4325 calls)
     cegterg:over :    216.51s CPU    308.08s WALL (    3317 calls)
     cegterg:upda :    163.00s CPU    238.68s WALL (    3317 calls)
     cegterg:last :     35.59s CPU     51.57s WALL (    1009 calls)
     cdiaghg:chol :     12.61s CPU     18.11s WALL (    4325 calls)
     cdiaghg:inve :      5.81s CPU      9.78s WALL (    4325 calls)
     cdiaghg:para :     45.31s CPU     75.91s WALL (    8650 calls)

     Called by h_psi:
     h_psi:pot    :   1586.07s CPU   2581.90s WALL (    4451 calls)
     h_psi:calbec :     42.06s CPU     49.62s WALL (    4451 calls)
     vloc_psi     :   1507.29s CPU   2490.23s WALL (    4451 calls)
     add_vuspsi   :     36.70s CPU     42.02s WALL (    4451 calls)

     General routines
     calbec       :     68.41s CPU     84.68s WALL (    5963 calls)
     fft          :      2.24s CPU      3.95s WALL (     198 calls)
     ffts         :      0.26s CPU      0.50s WALL (      68 calls)
     fftw         :   1924.80s CPU   3162.48s WALL (  753748 calls)
     interpolate  :      0.53s CPU      1.00s WALL (      36 calls)
 
     Parallel routines
     fft_scatt_xy :     59.61s CPU     75.55s WALL (  754014 calls)
     fft_scatt_yz :   1562.75s CPU   2682.58s WALL (  754014 calls)

     PAW routines
     PAW_pot      :      1.62s CPU      2.34s WALL (       9 calls)
     PAW_symme    :      0.09s CPU      0.12s WALL (      17 calls)
 
     PWSCF        :  51m37.51s CPU      1h19m WALL

 
   This run was terminated on:  19:10:16  24Jan2021            

=------------------------------------------------------------------------------=
   JOB DONE.
=------------------------------------------------------------------------------=
