
     Program PWSCF v.6.7MaX starts on 15Jan2021 at 11: 1:28 

     This program is part of the open-source Quantum ESPRESSO suite
     for quantum simulation of materials; please cite
         "P. Giannozzi et al., J. Phys.:Condens. Matter 21 395502 (2009);
         "P. Giannozzi et al., J. Phys.:Condens. Matter 29 465901 (2017);
          URL http://www.quantum-espresso.org", 
     in publications or presentations arising from this work. More details at
     http://www.quantum-espresso.org/quote

     Parallel version (MPI), running on    32 processors

     MPI processes distributed on     1 nodes
     R & G space division:  proc/nbgrp/npool/nimage =      32
     Waiting for input...
     Reading input from standard input

     Current dimensions of program PWSCF are:
     Max number of different atomic species (ntypx) = 10
     Max number of k-points (npk) =  40000
     Max angular momentum in pseudopotentials (lmaxx) =  3
     file Sn.pbe-dn-kjpaw_psl.1.0.0.UPF: wavefunction(s)  5S 5P 4D renormalized
     file I.pbe-n-kjpaw_psl.1.0.0.UPF: wavefunction(s)  5S renormalized
     file Cs.pbe-spn-kjpaw_psl.1.0.0.UPF: wavefunction(s)  5S 6S renormalized

     Subspace diagonalization in iterative solution of the eigenvalue problem:
     a serial algorithm will be used

     Message from routine setup:
     using ibrav=0 with symmetry is DISCOURAGED, use correct ibrav instead

     Parallelization info
     --------------------
     sticks:   dense  smooth     PW     G-vecs:    dense   smooth      PW
     Min          92      92     25                 9510     9510    1393
     Max          94      94     26                 9521     9521    1398
     Sum        2963    2963    825               304449   304449   44685


     Title: 
     CsSnI3                                                                     


     bravais-lattice index     =            0
     lattice parameter (alat)  =       9.1317  a.u.
     unit-cell volume          =    6370.5385 (a.u.)^3
     number of atoms/cell      =           20
     number of atomic types    =            3
     number of electrons       =       176.00
     number of Kohn-Sham states=           89
     kinetic-energy cutoff     =      50.0000  Ry
     charge density cutoff     =     200.0000  Ry
     scf convergence threshold =      1.0E-06
     mixing beta               =       0.7000
     number of iterations used =            8  plain     mixing
     Exchange-correlation= SLA  PW   PBX  PBC
                           (   1   4   3   4   0   0   0)

     celldm(1)=   9.131705  celldm(2)=   0.000000  celldm(3)=   0.000000
     celldm(4)=   0.000000  celldm(5)=   0.000000  celldm(6)=   0.000000

     crystal axes: (cart. coord. in units of alat)
               a(1) = (   1.000000   0.000000   0.000000 )  
               a(2) = (   0.000000   2.227728   0.000000 )  
               a(3) = (   0.000000   0.000000   3.755420 )  

     reciprocal axes: (cart. coord. in units 2 pi/alat)
               b(1) = (  1.000000  0.000000  0.000000 )  
               b(2) = (  0.000000  0.448888  0.000000 )  
               b(3) = (  0.000000  0.000000  0.266282 )  


     PseudoPot. # 1 for Sn read from file:
     ../../../pseudo/Sn.pbe-dn-kjpaw_psl.1.0.0.UPF
     MD5 check sum: 67f11dec737d427557dc41ea34975807
     Pseudo is Projector augmented-wave + core cor, Zval = 14.0
     Generated using &quot;atomic&quot; code by A. Dal Corso  v.6.3
     Shape of augmentation charge: PSQ
     Using radial grid of 1243 points,  6 beta functions with: 
                l(1) =   0
                l(2) =   0
                l(3) =   1
                l(4) =   1
                l(5) =   2
                l(6) =   2
     Q(r) pseudized with 0 coefficients 


     PseudoPot. # 2 for I  read from file:
     ../../../pseudo/I.pbe-n-kjpaw_psl.1.0.0.UPF
     MD5 check sum: cd3d296c3308a581e1559a0c8a554cb5
     Pseudo is Projector augmented-wave + core cor, Zval =  7.0
     Generated using &quot;atomic&quot; code by A. Dal Corso  v.6.3
     Shape of augmentation charge: PSQ
     Using radial grid of 1247 points,  6 beta functions with: 
                l(1) =   0
                l(2) =   0
                l(3) =   1
                l(4) =   1
                l(5) =   2
                l(6) =   2
     Q(r) pseudized with 0 coefficients 


     PseudoPot. # 3 for Cs read from file:
     ../../../pseudo/Cs.pbe-spn-kjpaw_psl.1.0.0.UPF
     MD5 check sum: b82c75cc2e1f4ff73b6412cffeb9c584
     Pseudo is Projector augmented-wave + core cor, Zval =  9.0
     Generated using &quot;atomic&quot; code by A. Dal Corso  v.6.4.1
     Shape of augmentation charge: PSQ
     Using radial grid of 1251 points,  9 beta functions with: 
                l(1) =   0
                l(2) =   0
                l(3) =   0
                l(4) =   1
                l(5) =   1
                l(6) =   2
                l(7) =   2
                l(8) =   3
                l(9) =   3
     Q(r) pseudized with 0 coefficients 


     atomic species   valence    mass     pseudopotential
        Sn            14.00   118.70000     Sn( 1.00)
        I              7.00   126.90000     I ( 1.00)
        Cs             9.00   132.90000     Cs( 1.00)

      8 Sym. Ops., with inversion, found ( 6 have fractional translation)


                                    s                        frac. trans.

      isym =  1     identity                                     

 cryst.   s( 1) = (     1          0          0      )
                  (     0          1          0      )
                  (     0          0          1      )

 cart.    s( 1) = (  1.0000000  0.0000000  0.0000000 )
                  (  0.0000000  1.0000000  0.0000000 )
                  (  0.0000000  0.0000000  1.0000000 )


      isym =  2     180 deg rotation - cart. axis [0,0,1]        

 cryst.   s( 2) = (    -1          0          0      )    f =(  0.0000000 )
                  (     0         -1          0      )       (  0.5000000 )
                  (     0          0          1      )       (  0.5000000 )

 cart.    s( 2) = ( -1.0000000  0.0000000  0.0000000 )    f =(  0.0000000 )
                  (  0.0000000 -1.0000000  0.0000000 )       (  1.1138638 )
                  (  0.0000000  0.0000000  1.0000000 )       (  1.8777098 )


      isym =  3     180 deg rotation - cart. axis [0,1,0]        

 cryst.   s( 3) = (    -1          0          0      )    f =(  0.5000000 )
                  (     0          1          0      )       ( -0.5000000 )
                  (     0          0         -1      )       ( -0.5000000 )

 cart.    s( 3) = ( -1.0000000  0.0000000  0.0000000 )    f =(  0.5000000 )
                  (  0.0000000  1.0000000  0.0000000 )       ( -1.1138638 )
                  (  0.0000000  0.0000000 -1.0000000 )       ( -1.8777098 )


      isym =  4     180 deg rotation - cart. axis [1,0,0]        

 cryst.   s( 4) = (     1          0          0      )    f =( -0.5000000 )
                  (     0         -1          0      )       (  0.0000000 )
                  (     0          0         -1      )       (  0.0000000 )

 cart.    s( 4) = (  1.0000000  0.0000000  0.0000000 )    f =( -0.5000000 )
                  (  0.0000000 -1.0000000  0.0000000 )       (  0.0000000 )
                  (  0.0000000  0.0000000 -1.0000000 )       (  0.0000000 )


      isym =  5     inversion                                    

 cryst.   s( 5) = (    -1          0          0      )
                  (     0         -1          0      )
                  (     0          0         -1      )

 cart.    s( 5) = ( -1.0000000  0.0000000  0.0000000 )
                  (  0.0000000 -1.0000000  0.0000000 )
                  (  0.0000000  0.0000000 -1.0000000 )


      isym =  6     inv. 180 deg rotation - cart. axis [0,0,1]   

 cryst.   s( 6) = (     1          0          0      )    f =(  0.0000000 )
                  (     0          1          0      )       ( -0.5000000 )
                  (     0          0         -1      )       ( -0.5000000 )

 cart.    s( 6) = (  1.0000000  0.0000000  0.0000000 )    f =(  0.0000000 )
                  (  0.0000000  1.0000000  0.0000000 )       ( -1.1138638 )
                  (  0.0000000  0.0000000 -1.0000000 )       ( -1.8777098 )


      isym =  7     inv. 180 deg rotation - cart. axis [0,1,0]   

 cryst.   s( 7) = (     1          0          0      )    f =( -0.5000000 )
                  (     0         -1          0      )       (  0.5000000 )
                  (     0          0          1      )       (  0.5000000 )

 cart.    s( 7) = (  1.0000000  0.0000000  0.0000000 )    f =( -0.5000000 )
                  (  0.0000000 -1.0000000  0.0000000 )       (  1.1138638 )
                  (  0.0000000  0.0000000  1.0000000 )       (  1.8777098 )


      isym =  8     inv. 180 deg rotation - cart. axis [1,0,0]   

 cryst.   s( 8) = (    -1          0          0      )    f =(  0.5000000 )
                  (     0          1          0      )       (  0.0000000 )
                  (     0          0          1      )       (  0.0000000 )

 cart.    s( 8) = ( -1.0000000  0.0000000  0.0000000 )    f =(  0.5000000 )
                  (  0.0000000  1.0000000  0.0000000 )       (  0.0000000 )
                  (  0.0000000  0.0000000  1.0000000 )       (  0.0000000 )


   Cartesian axes

     site n.     atom                  positions (alat units)
         1           Cs  tau(   1) = (   0.2500000   0.1859640   2.5168147  )
         2           Cs  tau(   2) = (   0.7500000   2.0417636   1.2386050  )
         3           Cs  tau(   3) = (   0.2500000   1.2998278   3.1163149  )
         4           Cs  tau(   4) = (   0.7500000   0.9278998   0.6391048  )
         5           Sn  tau(   5) = (   0.2500000   0.7615710   1.6485466  )
         6           Sn  tau(   6) = (   0.7500000   1.4661567   2.1068731  )
         7           Sn  tau(   7) = (   0.2500000   1.8754348   0.2291632  )
         8           Sn  tau(   8) = (   0.7500000   0.3522928   3.5262565  )
         9           I   tau(   9) = (   0.7500000   0.0581437   0.4202578  )
        10           I   tau(  10) = (   0.2500000   2.1695839   3.3351619  )
        11           I   tau(  11) = (   0.7500000   1.1720075   1.4574521  )
        12           I   tau(  12) = (   0.2500000   1.0557201   2.2979676  )
        13           I   tau(  13) = (   0.7500000   0.6531118   2.9738192  )
        14           I   tau(  14) = (   0.2500000   1.5746158   0.7816005  )
        15           I   tau(  15) = (   0.7500000   1.7669756   2.6593103  )
        16           I   tau(  16) = (   0.2500000   0.4607520   1.0961094  )
        17           I   tau(  17) = (   0.7500000   0.3753632   1.8734812  )
        18           I   tau(  18) = (   0.2500000   1.8523644   1.8819384  )
        19           I   tau(  19) = (   0.7500000   1.4892270   0.0042286  )
        20           I   tau(  20) = (   0.2500000   0.7385006   3.7511911  )

   Crystallographic axes

     site n.     atom                  positions (cryst. coord.)
         1           Cs  tau(   1) = (  0.2500000  0.0834770  0.6701820  )
         2           Cs  tau(   2) = (  0.7500000  0.9165230  0.3298180  )
         3           Cs  tau(   3) = (  0.2500000  0.5834770  0.8298180  )
         4           Cs  tau(   4) = (  0.7500000  0.4165230  0.1701820  )
         5           Sn  tau(   5) = (  0.2500000  0.3418600  0.4389780  )
         6           Sn  tau(   6) = (  0.7500000  0.6581400  0.5610220  )
         7           Sn  tau(   7) = (  0.2500000  0.8418600  0.0610220  )
         8           Sn  tau(   8) = (  0.7500000  0.1581400  0.9389780  )
         9           I   tau(   9) = (  0.7500000  0.0261000  0.1119070  )
        10           I   tau(  10) = (  0.2500000  0.9739000  0.8880930  )
        11           I   tau(  11) = (  0.7500000  0.5261000  0.3880930  )
        12           I   tau(  12) = (  0.2500000  0.4739000  0.6119070  )
        13           I   tau(  13) = (  0.7500000  0.2931740  0.7918740  )
        14           I   tau(  14) = (  0.2500000  0.7068260  0.2081260  )
        15           I   tau(  15) = (  0.7500000  0.7931740  0.7081260  )
        16           I   tau(  16) = (  0.2500000  0.2068260  0.2918740  )
        17           I   tau(  17) = (  0.7500000  0.1684960  0.4988740  )
        18           I   tau(  18) = (  0.2500000  0.8315040  0.5011260  )
        19           I   tau(  19) = (  0.7500000  0.6684960  0.0011260  )
        20           I   tau(  20) = (  0.2500000  0.3315040  0.9988740  )

     number of k points=    27
                       cart. coord. in units 2pi/alat
        k(    1) = (   0.0000000   0.0000000   0.0000000), wk =   0.0312500
        k(    2) = (   0.0000000   0.0000000   0.0665705), wk =   0.0625000
        k(    3) = (   0.0000000   0.0000000  -0.1331409), wk =   0.0312500
        k(    4) = (   0.0000000   0.1122220   0.0000000), wk =   0.0625000
        k(    5) = (   0.0000000   0.1122220   0.0665705), wk =   0.1250000
        k(    6) = (   0.0000000   0.1122220  -0.1331409), wk =   0.0625000
        k(    7) = (   0.0000000  -0.2244440   0.0000000), wk =   0.0312500
        k(    8) = (   0.0000000  -0.2244440   0.0665705), wk =   0.0625000
        k(    9) = (   0.0000000  -0.2244440  -0.1331409), wk =   0.0312500
        k(   10) = (   0.2500000   0.0000000   0.0000000), wk =   0.0625000
        k(   11) = (   0.2500000   0.0000000   0.0665705), wk =   0.1250000
        k(   12) = (   0.2500000   0.0000000  -0.1331409), wk =   0.0625000
        k(   13) = (   0.2500000   0.1122220   0.0000000), wk =   0.1250000
        k(   14) = (   0.2500000   0.1122220   0.0665705), wk =   0.2500000
        k(   15) = (   0.2500000   0.1122220  -0.1331409), wk =   0.1250000
        k(   16) = (   0.2500000  -0.2244440   0.0000000), wk =   0.0625000
        k(   17) = (   0.2500000  -0.2244440   0.0665705), wk =   0.1250000
        k(   18) = (   0.2500000  -0.2244440  -0.1331409), wk =   0.0625000
        k(   19) = (  -0.5000000   0.0000000   0.0000000), wk =   0.0312500
        k(   20) = (  -0.5000000   0.0000000   0.0665705), wk =   0.0625000
        k(   21) = (  -0.5000000   0.0000000  -0.1331409), wk =   0.0312500
        k(   22) = (  -0.5000000   0.1122220   0.0000000), wk =   0.0625000
        k(   23) = (  -0.5000000   0.1122220   0.0665705), wk =   0.1250000
        k(   24) = (  -0.5000000   0.1122220  -0.1331409), wk =   0.0625000
        k(   25) = (  -0.5000000  -0.2244440   0.0000000), wk =   0.0312500
        k(   26) = (  -0.5000000  -0.2244440   0.0665705), wk =   0.0625000
        k(   27) = (  -0.5000000  -0.2244440  -0.1331409), wk =   0.0312500

                       cryst. coord.
        k(    1) = (   0.0000000   0.0000000   0.0000000), wk =   0.0312500
        k(    2) = (   0.0000000   0.0000000   0.2500000), wk =   0.0625000
        k(    3) = (   0.0000000   0.0000000  -0.5000000), wk =   0.0312500
        k(    4) = (   0.0000000   0.2500000   0.0000000), wk =   0.0625000
        k(    5) = (   0.0000000   0.2500000   0.2500000), wk =   0.1250000
        k(    6) = (   0.0000000   0.2500000  -0.5000000), wk =   0.0625000
        k(    7) = (   0.0000000  -0.5000000   0.0000000), wk =   0.0312500
        k(    8) = (   0.0000000  -0.5000000   0.2500000), wk =   0.0625000
        k(    9) = (   0.0000000  -0.5000000  -0.5000000), wk =   0.0312500
        k(   10) = (   0.2500000   0.0000000   0.0000000), wk =   0.0625000
        k(   11) = (   0.2500000   0.0000000   0.2500000), wk =   0.1250000
        k(   12) = (   0.2500000   0.0000000  -0.5000000), wk =   0.0625000
        k(   13) = (   0.2500000   0.2500000   0.0000000), wk =   0.1250000
        k(   14) = (   0.2500000   0.2500000   0.2500000), wk =   0.2500000
        k(   15) = (   0.2500000   0.2500000  -0.5000000), wk =   0.1250000
        k(   16) = (   0.2500000  -0.5000000   0.0000000), wk =   0.0625000
        k(   17) = (   0.2500000  -0.5000000   0.2500000), wk =   0.1250000
        k(   18) = (   0.2500000  -0.5000000  -0.5000000), wk =   0.0625000
        k(   19) = (  -0.5000000   0.0000000   0.0000000), wk =   0.0312500
        k(   20) = (  -0.5000000   0.0000000   0.2500000), wk =   0.0625000
        k(   21) = (  -0.5000000   0.0000000  -0.5000000), wk =   0.0312500
        k(   22) = (  -0.5000000   0.2500000   0.0000000), wk =   0.0625000
        k(   23) = (  -0.5000000   0.2500000   0.2500000), wk =   0.1250000
        k(   24) = (  -0.5000000   0.2500000  -0.5000000), wk =   0.0625000
        k(   25) = (  -0.5000000  -0.5000000   0.0000000), wk =   0.0312500
        k(   26) = (  -0.5000000  -0.5000000   0.2500000), wk =   0.0625000
        k(   27) = (  -0.5000000  -0.5000000  -0.5000000), wk =   0.0312500

     Dense  grid:   304449 G-vectors     FFT dimensions: (  48,  96, 160)

     Dynamical RAM for                 wfc:       1.61 MB

     Dynamical RAM for     wfc (w. buffer):      45.17 MB

     Dynamical RAM for           str. fact:       0.44 MB

     Dynamical RAM for           local pot:       0.00 MB

     Dynamical RAM for          nlocal pot:       7.61 MB

     Dynamical RAM for                qrad:      10.22 MB

     Dynamical RAM for          rho,v,vnew:       0.96 MB

     Dynamical RAM for               rhoin:       0.32 MB

     Dynamical RAM for            rho*nmix:       2.32 MB

     Dynamical RAM for           G-vectors:       0.62 MB

     Dynamical RAM for          h,s,v(r/c):       1.45 MB

     Dynamical RAM for          <psi|beta>:       0.57 MB

     Dynamical RAM for                 psi:       3.23 MB

     Dynamical RAM for                hpsi:       3.23 MB

     Dynamical RAM for                spsi:       3.23 MB

     Dynamical RAM for      wfcinit/wfcrot:       4.02 MB

     Dynamical RAM for           addusdens:      87.08 MB

     Dynamical RAM for          addusforce:      90.50 MB

     Dynamical RAM for         addusstress:      89.26 MB

     Estimated static dynamical RAM per process >      69.13 MB

     Estimated max dynamical RAM per process >     159.63 MB

     Estimated total dynamical RAM >       4.99 GB

     Check: negative core charge=   -0.000002

     Initial potential from superposition of free atoms

     starting charge  175.83511, renormalised to  176.00000
     Starting wfcs are  104 randomized atomic wfcs
     Checking if some PAW data can be deallocated... 
       PAW data deallocated on   24 nodes for type:  1
       PAW data deallocated on   16 nodes for type:  2
       PAW data deallocated on   24 nodes for type:  3

     total cpu time spent up to now is       64.6 secs

     Self-consistent Calculation

     iteration #  1     ecut=    50.00 Ry     beta= 0.70
     Davidson diagonalization with overlap
     ethr =  1.00E-02,  avg # of iterations =  2.0

     Threshold (ethr) on eigenvalues was too large:
     Diagonalizing with lowered threshold

     Davidson diagonalization with overlap
     ethr =  3.12E-04,  avg # of iterations =  3.9

     total cpu time spent up to now is      400.1 secs

     total energy              =   -7979.41065883 Ry
     estimated scf accuracy    <       0.44524295 Ry

     iteration #  2     ecut=    50.00 Ry     beta= 0.70
     Davidson diagonalization with overlap
     ethr =  2.53E-04,  avg # of iterations =  4.1

     total cpu time spent up to now is      607.5 secs

     total energy              =   -7979.51068279 Ry
     estimated scf accuracy    <       0.54694830 Ry

     iteration #  3     ecut=    50.00 Ry     beta= 0.70
     Davidson diagonalization with overlap
     ethr =  2.53E-04,  avg # of iterations =  4.7

     total cpu time spent up to now is      772.8 secs

     total energy              =   -7979.61042995 Ry
     estimated scf accuracy    <       0.01495447 Ry

     iteration #  4     ecut=    50.00 Ry     beta= 0.70
     Davidson diagonalization with overlap
     ethr =  8.50E-06,  avg # of iterations = 10.0

     total cpu time spent up to now is     1034.8 secs

     total energy              =   -7979.62559234 Ry
     estimated scf accuracy    <       0.00651774 Ry

     iteration #  5     ecut=    50.00 Ry     beta= 0.70
     Davidson diagonalization with overlap
     c_bands:  1 eigenvalues not converged
     c_bands:  1 eigenvalues not converged
     ethr =  3.70E-06,  avg # of iterations =  5.9

     total cpu time spent up to now is     1195.6 secs

     total energy              =   -7979.62602136 Ry
     estimated scf accuracy    <       0.00119060 Ry

     iteration #  6     ecut=    50.00 Ry     beta= 0.70
     Davidson diagonalization with overlap
     c_bands:  1 eigenvalues not converged
     ethr =  6.76E-07,  avg # of iterations =  6.6

     total cpu time spent up to now is     1408.8 secs

     total energy              =   -7979.62656936 Ry
     estimated scf accuracy    <       0.00021514 Ry

     iteration #  7     ecut=    50.00 Ry     beta= 0.70
     Davidson diagonalization with overlap
     ethr =  1.22E-07,  avg # of iterations =  4.2

     total cpu time spent up to now is     1570.5 secs

     total energy              =   -7979.62661444 Ry
     estimated scf accuracy    <       0.00001876 Ry

     iteration #  8     ecut=    50.00 Ry     beta= 0.70
     Davidson diagonalization with overlap
     ethr =  1.07E-08,  avg # of iterations =  7.4

     total cpu time spent up to now is     1832.3 secs

     total energy              =   -7979.62660453 Ry
     estimated scf accuracy    <       0.00006177 Ry

     iteration #  9     ecut=    50.00 Ry     beta= 0.70
     Davidson diagonalization with overlap
     ethr =  1.07E-08,  avg # of iterations =  6.4

     total cpu time spent up to now is     2054.5 secs

     total energy              =   -7979.62662642 Ry
     estimated scf accuracy    <       0.00001811 Ry

     iteration # 10     ecut=    50.00 Ry     beta= 0.70
     Davidson diagonalization with overlap
     ethr =  1.03E-08,  avg # of iterations =  1.8

     total cpu time spent up to now is     2183.6 secs

     total energy              =   -7979.62662271 Ry
     estimated scf accuracy    <       0.00000868 Ry

     iteration # 11     ecut=    50.00 Ry     beta= 0.70
     Davidson diagonalization with overlap
     ethr =  4.93E-09,  avg # of iterations =  5.7

     total cpu time spent up to now is     2372.6 secs

     total energy              =   -7979.62662555 Ry
     estimated scf accuracy    <       0.00000111 Ry

     iteration # 12     ecut=    50.00 Ry     beta= 0.70
     Davidson diagonalization with overlap
     ethr =  6.31E-10,  avg # of iterations =  3.6

     total cpu time spent up to now is     2530.5 secs

     End of self-consistent calculation

          k = 0.0000 0.0000 0.0000 ( 37989 PWs)   bands (ev):

   -17.8659 -17.8659 -17.8657 -17.8657 -17.8624 -17.8624 -17.8621 -17.8620
   -17.8536 -17.8536 -17.8530 -17.8529 -17.8488 -17.8488 -17.8473 -17.8473
   -17.8418 -17.8418 -17.8405 -17.8404 -17.7825 -17.7823 -17.7816 -17.7814
    -8.8065  -8.7822  -8.6001  -8.5387  -8.4512  -8.4417  -8.4223  -8.4121
    -8.2860  -8.2622  -8.2450  -8.2016  -4.6117  -4.6095  -4.6078  -4.6016
    -4.5920  -4.5662  -4.5507  -4.5490  -4.5425  -4.5409  -4.5368  -4.5338
    -2.8867  -2.8617  -2.8235  -2.7428   0.1214   0.3225   0.7509   0.8848
     0.8993   0.9834   1.1110   1.1202   1.2112   1.2743   1.3217   1.3270
     1.3294   1.5515   1.6289   1.7302   1.7772   1.7925   1.8083   1.8147
     1.8197   1.8335   1.9760   2.0602   2.0654   2.1703   2.2024   2.2197
     2.2313   2.2325   2.3103   2.3126   2.3775   2.4737   2.6220   2.9217
     5.3008

     occupation numbers 
     1.0000   1.0000   1.0000   1.0000   1.0000   1.0000   1.0000   1.0000
     1.0000   1.0000   1.0000   1.0000   1.0000   1.0000   1.0000   1.0000
     1.0000   1.0000   1.0000   1.0000   1.0000   1.0000   1.0000   1.0000
     1.0000   1.0000   1.0000   1.0000   1.0000   1.0000   1.0000   1.0000
     1.0000   1.0000   1.0000   1.0000   1.0000   1.0000   1.0000   1.0000
     1.0000   1.0000   1.0000   1.0000   1.0000   1.0000   1.0000   1.0000
     1.0000   1.0000   1.0000   1.0000   1.0000   1.0000   1.0000   1.0000
     1.0000   1.0000   1.0000   1.0000   1.0000   1.0000   1.0000   1.0000
     1.0000   1.0000   1.0000   1.0000   1.0000   1.0000   1.0000   1.0000
     1.0000   1.0000   1.0000   1.0000   1.0000   1.0000   1.0000   1.0000
     1.0000   1.0000   1.0000   1.0000   1.0000   1.0000   1.0000   1.0000
     0.0000

          k = 0.0000 0.0000 0.0666 ( 38045 PWs)   bands (ev):

   -17.8659 -17.8659 -17.8657 -17.8657 -17.8624 -17.8624 -17.8621 -17.8621
   -17.8537 -17.8536 -17.8530 -17.8529 -17.8488 -17.8488 -17.8473 -17.8473
   -17.8419 -17.8418 -17.8405 -17.8405 -17.7825 -17.7823 -17.7816 -17.7814
    -8.8035  -8.7864  -8.5911  -8.5481  -8.4499  -8.4431  -8.4199  -8.4130
    -8.2843  -8.2702  -8.2340  -8.2060  -4.6150  -4.6138  -4.6052  -4.5945
    -4.5914  -4.5698  -4.5505  -4.5493  -4.5422  -4.5411  -4.5360  -4.5339
    -2.8849  -2.8695  -2.8077  -2.7529   0.1460   0.2866   0.7753   0.8867
     0.8970   0.9258   1.1148   1.1693   1.2261   1.2638   1.2819   1.3191
     1.4557   1.5270   1.5954   1.6663   1.7762   1.8110   1.8129   1.8150
     1.8204   1.8305   1.9766   2.0156   2.0776   2.1542   2.2049   2.2210
     2.2229   2.2249   2.3253   2.3699   2.3906   2.4704   2.6539   2.8764
     5.3100

     occupation numbers 
     1.0000   1.0000   1.0000   1.0000   1.0000   1.0000   1.0000   1.0000
     1.0000   1.0000   1.0000   1.0000   1.0000   1.0000   1.0000   1.0000
     1.0000   1.0000   1.0000   1.0000   1.0000   1.0000   1.0000   1.0000
     1.0000   1.0000   1.0000   1.0000   1.0000   1.0000   1.0000   1.0000
     1.0000   1.0000   1.0000   1.0000   1.0000   1.0000   1.0000   1.0000
     1.0000   1.0000   1.0000   1.0000   1.0000   1.0000   1.0000   1.0000
     1.0000   1.0000   1.0000   1.0000   1.0000   1.0000   1.0000   1.0000
     1.0000   1.0000   1.0000   1.0000   1.0000   1.0000   1.0000   1.0000
     1.0000   1.0000   1.0000   1.0000   1.0000   1.0000   1.0000   1.0000
     1.0000   1.0000   1.0000   1.0000   1.0000   1.0000   1.0000   1.0000
     1.0000   1.0000   1.0000   1.0000   1.0000   1.0000   1.0000   1.0000
     0.0000

          k = 0.0000 0.0000-0.1331 ( 38058 PWs)   bands (ev):

   -17.8659 -17.8659 -17.8657 -17.8657 -17.8624 -17.8624 -17.8621 -17.8621
   -17.8537 -17.8537 -17.8530 -17.8530 -17.8488 -17.8488 -17.8473 -17.8473
   -17.8419 -17.8419 -17.8404 -17.8404 -17.7824 -17.7824 -17.7815 -17.7815
    -8.7956  -8.7956  -8.5698  -8.5698  -8.4465  -8.4465  -8.4158  -8.4158
    -8.2791  -8.2791  -8.2180  -8.2180  -4.6167  -4.6167  -4.5994  -4.5994
    -4.5791  -4.5791  -4.5499  -4.5499  -4.5416  -4.5416  -4.5346  -4.5346
    -2.8792  -2.8792  -2.7784  -2.7784   0.2110   0.2110   0.8403   0.8403
     0.8917   0.8917   1.1401   1.1401   1.2816   1.2816   1.3004   1.3004
     1.5185   1.5185   1.5789   1.5789   1.7925   1.7925   1.8148   1.8148
     1.8239   1.8239   1.9813   1.9813   2.1164   2.1164   2.2127   2.2127
     2.2225   2.2225   2.3498   2.3498   2.4543   2.4543   2.7617   2.7617
     5.3286

     occupation numbers 
     1.0000   1.0000   1.0000   1.0000   1.0000   1.0000   1.0000   1.0000
     1.0000   1.0000   1.0000   1.0000   1.0000   1.0000   1.0000   1.0000
     1.0000   1.0000   1.0000   1.0000   1.0000   1.0000   1.0000   1.0000
     1.0000   1.0000   1.0000   1.0000   1.0000   1.0000   1.0000   1.0000
     1.0000   1.0000   1.0000   1.0000   1.0000   1.0000   1.0000   1.0000
     1.0000   1.0000   1.0000   1.0000   1.0000   1.0000   1.0000   1.0000
     1.0000   1.0000   1.0000   1.0000   1.0000   1.0000   1.0000   1.0000
     1.0000   1.0000   1.0000   1.0000   1.0000   1.0000   1.0000   1.0000
     1.0000   1.0000   1.0000   1.0000   1.0000   1.0000   1.0000   1.0000
     1.0000   1.0000   1.0000   1.0000   1.0000   1.0000   1.0000   1.0000
     1.0000   1.0000   1.0000   1.0000   1.0000   1.0000   1.0000   1.0000
     0.0000

          k = 0.0000 0.1122 0.0000 ( 38078 PWs)   bands (ev):

   -17.8659 -17.8659 -17.8657 -17.8657 -17.8624 -17.8624 -17.8621 -17.8621
   -17.8537 -17.8537 -17.8530 -17.8530 -17.8488 -17.8488 -17.8473 -17.8473
   -17.8418 -17.8418 -17.8405 -17.8405 -17.7824 -17.7821 -17.7818 -17.7815
    -8.7938  -8.7747  -8.6067  -8.5786  -8.4765  -8.4740  -8.3916  -8.3610
    -8.2684  -8.2646  -8.2477  -8.2092  -4.6165  -4.6157  -4.5981  -4.5971
    -4.5926  -4.5615  -4.5495  -4.5481  -4.5478  -4.5437  -4.5421  -4.5411
    -2.8986  -2.8762  -2.7909  -2.7384   0.1601   0.3141   0.7831   0.8767
     0.9095   0.9204   1.1245   1.1579   1.2348   1.2642   1.2663   1.3236
     1.3780   1.5303   1.5472   1.6772   1.7494   1.7596   1.7698   1.8082
     1.9017   1.9225   1.9536   2.0501   2.0622   2.0846   2.1987   2.2315
     2.2346   2.2439   2.2949   2.3567   2.3589   2.5085   2.7100   2.9715
     5.1897

     occupation numbers 
     1.0000   1.0000   1.0000   1.0000   1.0000   1.0000   1.0000   1.0000
     1.0000   1.0000   1.0000   1.0000   1.0000   1.0000   1.0000   1.0000
     1.0000   1.0000   1.0000   1.0000   1.0000   1.0000   1.0000   1.0000
     1.0000   1.0000   1.0000   1.0000   1.0000   1.0000   1.0000   1.0000
     1.0000   1.0000   1.0000   1.0000   1.0000   1.0000   1.0000   1.0000
     1.0000   1.0000   1.0000   1.0000   1.0000   1.0000   1.0000   1.0000
     1.0000   1.0000   1.0000   1.0000   1.0000   1.0000   1.0000   1.0000
     1.0000   1.0000   1.0000   1.0000   1.0000   1.0000   1.0000   1.0000
     1.0000   1.0000   1.0000   1.0000   1.0000   1.0000   1.0000   1.0000
     1.0000   1.0000   1.0000   1.0000   1.0000   1.0000   1.0000   1.0000
     1.0000   1.0000   1.0000   1.0000   1.0000   1.0000   1.0000   1.0000
     0.0000

          k = 0.0000 0.1122 0.0666 ( 38067 PWs)   bands (ev):

   -17.8659 -17.8659 -17.8657 -17.8657 -17.8624 -17.8624 -17.8621 -17.8621
   -17.8537 -17.8537 -17.8530 -17.8529 -17.8488 -17.8488 -17.8473 -17.8473
   -17.8419 -17.8418 -17.8405 -17.8404 -17.7824 -17.7822 -17.7817 -17.7815
    -8.7914  -8.7780  -8.6017  -8.5818  -8.4777  -8.4750  -8.3875  -8.3655
    -8.2710  -8.2647  -8.2395  -8.2134  -4.6173  -4.6134  -4.6049  -4.5993
    -4.5832  -4.5647  -4.5493  -4.5481  -4.5462  -4.5434  -4.5423  -4.5416
    -2.8957  -2.8800  -2.7827  -2.7458   0.1804   0.2890   0.7963   0.8644
     0.9110   0.9187   1.1402   1.1627   1.2392   1.2393   1.2600   1.2921
     1.4457   1.5135   1.5560   1.6961   1.7177   1.7520   1.7665   1.8030
     1.9046   1.9197   1.9558   1.9987   2.0855   2.1105   2.2042   2.2309
     2.2312   2.2400   2.3074   2.3514   2.3821   2.4894   2.7477   2.9334
     5.1995

     occupation numbers 
     1.0000   1.0000   1.0000   1.0000   1.0000   1.0000   1.0000   1.0000
     1.0000   1.0000   1.0000   1.0000   1.0000   1.0000   1.0000   1.0000
     1.0000   1.0000   1.0000   1.0000   1.0000   1.0000   1.0000   1.0000
     1.0000   1.0000   1.0000   1.0000   1.0000   1.0000   1.0000   1.0000
     1.0000   1.0000   1.0000   1.0000   1.0000   1.0000   1.0000   1.0000
     1.0000   1.0000   1.0000   1.0000   1.0000   1.0000   1.0000   1.0000
     1.0000   1.0000   1.0000   1.0000   1.0000   1.0000   1.0000   1.0000
     1.0000   1.0000   1.0000   1.0000   1.0000   1.0000   1.0000   1.0000
     1.0000   1.0000   1.0000   1.0000   1.0000   1.0000   1.0000   1.0000
     1.0000   1.0000   1.0000   1.0000   1.0000   1.0000   1.0000   1.0000
     1.0000   1.0000   1.0000   1.0000   1.0000   1.0000   1.0000   1.0000
     0.0000

          k = 0.0000 0.1122-0.1331 ( 38068 PWs)   bands (ev):

   -17.8659 -17.8659 -17.8657 -17.8657 -17.8624 -17.8624 -17.8621 -17.8621
   -17.8537 -17.8537 -17.8529 -17.8529 -17.8488 -17.8488 -17.8473 -17.8473
   -17.8419 -17.8419 -17.8405 -17.8405 -17.7823 -17.7823 -17.7816 -17.7816
    -8.7851  -8.7851  -8.5908  -8.5908  -8.4774  -8.4774  -8.3767  -8.3767
    -8.2688  -8.2688  -8.2247  -8.2247  -4.6152  -4.6152  -4.6043  -4.6043
    -4.5725  -4.5725  -4.5488  -4.5488  -4.5433  -4.5433  -4.5428  -4.5428
    -2.8883  -2.8883  -2.7640  -2.7640   0.2323   0.2323   0.8305   0.8305
     0.9147   0.9147   1.1640   1.1640   1.2444   1.2444   1.2498   1.2498
     1.4898   1.4898   1.6256   1.6256   1.7561   1.7561   1.7589   1.7589
     1.9122   1.9122   1.9667   1.9667   2.1069   2.1069   2.2203   2.2203
     2.2336   2.2336   2.3315   2.3315   2.4394   2.4394   2.8405   2.8405
     5.2144

     occupation numbers 
     1.0000   1.0000   1.0000   1.0000   1.0000   1.0000   1.0000   1.0000
     1.0000   1.0000   1.0000   1.0000   1.0000   1.0000   1.0000   1.0000
     1.0000   1.0000   1.0000   1.0000   1.0000   1.0000   1.0000   1.0000
     1.0000   1.0000   1.0000   1.0000   1.0000   1.0000   1.0000   1.0000
     1.0000   1.0000   1.0000   1.0000   1.0000   1.0000   1.0000   1.0000
     1.0000   1.0000   1.0000   1.0000   1.0000   1.0000   1.0000   1.0000
     1.0000   1.0000   1.0000   1.0000   1.0000   1.0000   1.0000   1.0000
     1.0000   1.0000   1.0000   1.0000   1.0000   1.0000   1.0000   1.0000
     1.0000   1.0000   1.0000   1.0000   1.0000   1.0000   1.0000   1.0000
     1.0000   1.0000   1.0000   1.0000   1.0000   1.0000   1.0000   1.0000
     1.0000   1.0000   1.0000   1.0000   1.0000   1.0000   1.0000   1.0000
     0.0000

          k = 0.0000-0.2244 0.0000 ( 38074 PWs)   bands (ev):

   -17.8659 -17.8659 -17.8657 -17.8657 -17.8624 -17.8624 -17.8621 -17.8621
   -17.8537 -17.8537 -17.8530 -17.8530 -17.8488 -17.8488 -17.8473 -17.8473
   -17.8419 -17.8419 -17.8405 -17.8405 -17.7821 -17.7821 -17.7818 -17.7818
    -8.7722  -8.7722  -8.6142  -8.6142  -8.4919  -8.4919  -8.3507  -8.3507
    -8.2614  -8.2614  -8.2317  -8.2317  -4.6185  -4.6185  -4.5978  -4.5978
    -4.5709  -4.5709  -4.5537  -4.5537  -4.5466  -4.5466  -4.5449  -4.5449
    -2.8966  -2.8966  -2.7501  -2.7501   0.2506   0.2506   0.8138   0.8138
     0.9447   0.9447   1.1843   1.1843   1.1949   1.1949   1.3125   1.3125
     1.4114   1.4114   1.5547   1.5547   1.7403   1.7403   1.7799   1.7799
     1.9634   1.9634   2.0066   2.0066   2.0653   2.0653   2.2303   2.2303
     2.2579   2.2579   2.3071   2.3071   2.3937   2.3937   2.9341   2.9341
     5.1349

     occupation numbers 
     1.0000   1.0000   1.0000   1.0000   1.0000   1.0000   1.0000   1.0000
     1.0000   1.0000   1.0000   1.0000   1.0000   1.0000   1.0000   1.0000
     1.0000   1.0000   1.0000   1.0000   1.0000   1.0000   1.0000   1.0000
     1.0000   1.0000   1.0000   1.0000   1.0000   1.0000   1.0000   1.0000
     1.0000   1.0000   1.0000   1.0000   1.0000   1.0000   1.0000   1.0000
     1.0000   1.0000   1.0000   1.0000   1.0000   1.0000   1.0000   1.0000
     1.0000   1.0000   1.0000   1.0000   1.0000   1.0000   1.0000   1.0000
     1.0000   1.0000   1.0000   1.0000   1.0000   1.0000   1.0000   1.0000
     1.0000   1.0000   1.0000   1.0000   1.0000   1.0000   1.0000   1.0000
     1.0000   1.0000   1.0000   1.0000   1.0000   1.0000   1.0000   1.0000
     1.0000   1.0000   1.0000   1.0000   1.0000   1.0000   1.0000   1.0000
     0.0000

          k = 0.0000-0.2244 0.0666 ( 38066 PWs)   bands (ev):

   -17.8659 -17.8659 -17.8657 -17.8657 -17.8624 -17.8624 -17.8621 -17.8621
   -17.8537 -17.8537 -17.8529 -17.8529 -17.8488 -17.8488 -17.8473 -17.8473
   -17.8418 -17.8418 -17.8404 -17.8404 -17.7821 -17.7821 -17.7818 -17.7818
    -8.7723  -8.7723  -8.6144  -8.6144  -8.4908  -8.4908  -8.3537  -8.3537
    -8.2559  -8.2559  -8.2351  -8.2351  -4.6173  -4.6173  -4.6011  -4.6011
    -4.5684  -4.5684  -4.5541  -4.5541  -4.5466  -4.5466  -4.5449  -4.5449
    -2.8959  -2.8959  -2.7508  -2.7508   0.2534   0.2534   0.8088   0.8088
     0.9447   0.9447   1.1950   1.1950   1.1969   1.1969   1.3074   1.3074
     1.3876   1.3876   1.5592   1.5592   1.7409   1.7409   1.8006   1.8006
     1.9613   1.9613   2.0013   2.0013   2.0710   2.0710   2.2235   2.2235
     2.2659   2.2659   2.3006   2.3006   2.4007   2.4007   2.9259   2.9259
     5.1342

     occupation numbers 
     1.0000   1.0000   1.0000   1.0000   1.0000   1.0000   1.0000   1.0000
     1.0000   1.0000   1.0000   1.0000   1.0000   1.0000   1.0000   1.0000
     1.0000   1.0000   1.0000   1.0000   1.0000   1.0000   1.0000   1.0000
     1.0000   1.0000   1.0000   1.0000   1.0000   1.0000   1.0000   1.0000
     1.0000   1.0000   1.0000   1.0000   1.0000   1.0000   1.0000   1.0000
     1.0000   1.0000   1.0000   1.0000   1.0000   1.0000   1.0000   1.0000
     1.0000   1.0000   1.0000   1.0000   1.0000   1.0000   1.0000   1.0000
     1.0000   1.0000   1.0000   1.0000   1.0000   1.0000   1.0000   1.0000
     1.0000   1.0000   1.0000   1.0000   1.0000   1.0000   1.0000   1.0000
     1.0000   1.0000   1.0000   1.0000   1.0000   1.0000   1.0000   1.0000
     1.0000   1.0000   1.0000   1.0000   1.0000   1.0000   1.0000   1.0000
     0.0000

          k = 0.0000-0.2244-0.1331 ( 38084 PWs)   bands (ev):

   -17.8659 -17.8659 -17.8657 -17.8657 -17.8624 -17.8624 -17.8621 -17.8621
   -17.8537 -17.8537 -17.8529 -17.8529 -17.8488 -17.8488 -17.8473 -17.8473
   -17.8419 -17.8419 -17.8405 -17.8405 -17.7821 -17.7821 -17.7818 -17.7818
    -8.7723  -8.7723  -8.6145  -8.6145  -8.4898  -8.4898  -8.3565  -8.3565
    -8.2459  -8.2459  -8.2432  -8.2432  -4.6156  -4.6156  -4.6046  -4.6046
    -4.5660  -4.5660  -4.5546  -4.5546  -4.5466  -4.5466  -4.5449  -4.5449
    -2.8953  -2.8953  -2.7516  -2.7516   0.2562   0.2562   0.8037   0.8037
     0.9447   0.9447   1.1950   1.1950   1.2101   1.2101   1.3110   1.3110
     1.3550   1.3550   1.5643   1.5643   1.7416   1.7416   1.8218   1.8218
     1.9592   1.9592   1.9924   1.9924   2.0793   2.0793   2.2162   2.2162
     2.2819   2.2819   2.2860   2.2860   2.4078   2.4078   2.9174   2.9174
     5.1336

     occupation numbers 
     1.0000   1.0000   1.0000   1.0000   1.0000   1.0000   1.0000   1.0000
     1.0000   1.0000   1.0000   1.0000   1.0000   1.0000   1.0000   1.0000
     1.0000   1.0000   1.0000   1.0000   1.0000   1.0000   1.0000   1.0000
     1.0000   1.0000   1.0000   1.0000   1.0000   1.0000   1.0000   1.0000
     1.0000   1.0000   1.0000   1.0000   1.0000   1.0000   1.0000   1.0000
     1.0000   1.0000   1.0000   1.0000   1.0000   1.0000   1.0000   1.0000
     1.0000   1.0000   1.0000   1.0000   1.0000   1.0000   1.0000   1.0000
     1.0000   1.0000   1.0000   1.0000   1.0000   1.0000   1.0000   1.0000
     1.0000   1.0000   1.0000   1.0000   1.0000   1.0000   1.0000   1.0000
     1.0000   1.0000   1.0000   1.0000   1.0000   1.0000   1.0000   1.0000
     1.0000   1.0000   1.0000   1.0000   1.0000   1.0000   1.0000   1.0000
     0.0000

          k = 0.2500 0.0000 0.0000 ( 38019 PWs)   bands (ev):

   -17.8653 -17.8653 -17.8652 -17.8652 -17.8640 -17.8640 -17.8638 -17.8638
   -17.8535 -17.8535 -17.8530 -17.8530 -17.8471 -17.8471 -17.8460 -17.8460
   -17.8420 -17.8420 -17.8410 -17.8410 -17.7768 -17.7766 -17.7760 -17.7758
    -8.6913  -8.6714  -8.5273  -8.4846  -8.3939  -8.3844  -8.3694  -8.3594
    -8.2677  -8.2647  -8.2421  -8.2372  -4.6724  -4.6700  -4.6432  -4.6422
    -4.5979  -4.5949  -4.5918  -4.5905  -4.5746  -4.5700  -4.5603  -4.5584
    -3.0548  -3.0482  -2.9524  -2.9331   0.3426   0.4096   0.4455   0.4558
     0.4588   0.4954   0.8675   0.8694   0.8824   0.8977   0.9788   1.0380
     1.3360   1.4438   1.4810   1.4997   1.6758   1.7017   1.7019   1.7683
     1.8086   1.8615   1.9293   1.9624   1.9654   2.0122   2.0586   2.0752
     2.0887   2.1807   2.2926   2.3308   2.6671   2.7915   3.0278   3.0295
     5.9343

     occupation numbers 
     1.0000   1.0000   1.0000   1.0000   1.0000   1.0000   1.0000   1.0000
     1.0000   1.0000   1.0000   1.0000   1.0000   1.0000   1.0000   1.0000
     1.0000   1.0000   1.0000   1.0000   1.0000   1.0000   1.0000   1.0000
     1.0000   1.0000   1.0000   1.0000   1.0000   1.0000   1.0000   1.0000
     1.0000   1.0000   1.0000   1.0000   1.0000   1.0000   1.0000   1.0000
     1.0000   1.0000   1.0000   1.0000   1.0000   1.0000   1.0000   1.0000
     1.0000   1.0000   1.0000   1.0000   1.0000   1.0000   1.0000   1.0000
     1.0000   1.0000   1.0000   1.0000   1.0000   1.0000   1.0000   1.0000
     1.0000   1.0000   1.0000   1.0000   1.0000   1.0000   1.0000   1.0000
     1.0000   1.0000   1.0000   1.0000   1.0000   1.0000   1.0000   1.0000
     1.0000   1.0000   1.0000   1.0000   1.0000   1.0000   1.0000   1.0000
     0.0000

          k = 0.2500 0.0000 0.0666 ( 38008 PWs)   bands (ev):

   -17.8653 -17.8653 -17.8652 -17.8652 -17.8640 -17.8640 -17.8638 -17.8638
   -17.8535 -17.8535 -17.8530 -17.8530 -17.8471 -17.8471 -17.8460 -17.8460
   -17.8420 -17.8420 -17.8410 -17.8410 -17.7767 -17.7766 -17.7760 -17.7759
    -8.6888  -8.6748  -8.5208  -8.4908  -8.3925  -8.3858  -8.3679  -8.3609
    -8.2665  -8.2642  -8.2420  -8.2384  -4.6722  -4.6705  -4.6427  -4.6420
    -4.5989  -4.5975  -4.5903  -4.5903  -4.5736  -4.5702  -4.5597  -4.5584
    -3.0539  -3.0492  -2.9496  -2.9359   0.3387   0.3967   0.4144   0.4490
     0.4975   0.5406   0.8491   0.8578   0.8741   0.8816   1.0035   1.0451
     1.3372   1.4043   1.4443   1.5607   1.6266   1.6751   1.7279   1.7837
     1.8543   1.8885   1.9269   1.9464   1.9729   2.0248   2.0439   2.0574
     2.1015   2.1835   2.2921   2.3232   2.6826   2.7705   3.0272   3.0281
     5.8750

     occupation numbers 
     1.0000   1.0000   1.0000   1.0000   1.0000   1.0000   1.0000   1.0000
     1.0000   1.0000   1.0000   1.0000   1.0000   1.0000   1.0000   1.0000
     1.0000   1.0000   1.0000   1.0000   1.0000   1.0000   1.0000   1.0000
     1.0000   1.0000   1.0000   1.0000   1.0000   1.0000   1.0000   1.0000
     1.0000   1.0000   1.0000   1.0000   1.0000   1.0000   1.0000   1.0000
     1.0000   1.0000   1.0000   1.0000   1.0000   1.0000   1.0000   1.0000
     1.0000   1.0000   1.0000   1.0000   1.0000   1.0000   1.0000   1.0000
     1.0000   1.0000   1.0000   1.0000   1.0000   1.0000   1.0000   1.0000
     1.0000   1.0000   1.0000   1.0000   1.0000   1.0000   1.0000   1.0000
     1.0000   1.0000   1.0000   1.0000   1.0000   1.0000   1.0000   1.0000
     1.0000   1.0000   1.0000   1.0000   1.0000   1.0000   1.0000   1.0000
     0.0000

          k = 0.2500 0.0000-0.1331 ( 38016 PWs)   bands (ev):

   -17.8653 -17.8653 -17.8652 -17.8652 -17.8640 -17.8640 -17.8638 -17.8638
   -17.8535 -17.8535 -17.8530 -17.8530 -17.8471 -17.8471 -17.8460 -17.8460
   -17.8420 -17.8420 -17.8410 -17.8410 -17.7767 -17.7767 -17.7759 -17.7759
    -8.6823  -8.6823  -8.5057  -8.5057  -8.3892  -8.3892  -8.3643  -8.3643
    -8.2644  -8.2644  -8.2408  -8.2408  -4.6714  -4.6714  -4.6420  -4.6420
    -4.5996  -4.5996  -4.5899  -4.5899  -4.5715  -4.5715  -4.5587  -4.5587
    -3.0517  -3.0517  -2.9427  -2.9427   0.3528   0.3528   0.4299   0.4299
     0.5532   0.5532   0.8262   0.8262   0.8776   0.8776   1.0370   1.0370
     1.3625   1.3625   1.4680   1.4680   1.6743   1.6743   1.7644   1.7644
     1.8979   1.8979   1.9194   1.9194   1.9996   1.9996   2.0477   2.0477
     2.1501   2.1501   2.3045   2.3045   2.7239   2.7239   3.0266   3.0266
     5.8888

     occupation numbers 
     1.0000   1.0000   1.0000   1.0000   1.0000   1.0000   1.0000   1.0000
     1.0000   1.0000   1.0000   1.0000   1.0000   1.0000   1.0000   1.0000
     1.0000   1.0000   1.0000   1.0000   1.0000   1.0000   1.0000   1.0000
     1.0000   1.0000   1.0000   1.0000   1.0000   1.0000   1.0000   1.0000
     1.0000   1.0000   1.0000   1.0000   1.0000   1.0000   1.0000   1.0000
     1.0000   1.0000   1.0000   1.0000   1.0000   1.0000   1.0000   1.0000
     1.0000   1.0000   1.0000   1.0000   1.0000   1.0000   1.0000   1.0000
     1.0000   1.0000   1.0000   1.0000   1.0000   1.0000   1.0000   1.0000
     1.0000   1.0000   1.0000   1.0000   1.0000   1.0000   1.0000   1.0000
     1.0000   1.0000   1.0000   1.0000   1.0000   1.0000   1.0000   1.0000
     1.0000   1.0000   1.0000   1.0000   1.0000   1.0000   1.0000   1.0000
     0.0000

          k = 0.2500 0.1122 0.0000 ( 38024 PWs)   bands (ev):

   -17.8653 -17.8653 -17.8652 -17.8652 -17.8640 -17.8640 -17.8638 -17.8638
   -17.8535 -17.8535 -17.8530 -17.8530 -17.8471 -17.8471 -17.8460 -17.8460
   -17.8420 -17.8420 -17.8410 -17.8410 -17.7767 -17.7765 -17.7761 -17.7760
    -8.6812  -8.6657  -8.5316  -8.5087  -8.4190  -8.4092  -8.3455  -8.3236
    -8.2638  -8.2609  -8.2444  -8.2385  -4.6710  -4.6658  -4.6515  -4.6442
    -4.6009  -4.5999  -4.5912  -4.5907  -4.5704  -4.5659  -4.5615  -4.5592
    -3.0463  -3.0409  -2.9539  -2.9394   0.3208   0.3346   0.3872   0.4457
     0.5077   0.6001   0.7825   0.8006   0.8968   0.9026   1.0604   1.0609
     1.4032   1.4712   1.5119   1.5617   1.6604   1.6789   1.7253   1.7531
     1.8020   1.9307   1.9331   1.9476   1.9510   2.0028   2.0507   2.0724
     2.0751   2.1619   2.2514   2.2813   2.6787   2.8069   2.9550   2.9999
     5.8802

     occupation numbers 
     1.0000   1.0000   1.0000   1.0000   1.0000   1.0000   1.0000   1.0000
     1.0000   1.0000   1.0000   1.0000   1.0000   1.0000   1.0000   1.0000
     1.0000   1.0000   1.0000   1.0000   1.0000   1.0000   1.0000   1.0000
     1.0000   1.0000   1.0000   1.0000   1.0000   1.0000   1.0000   1.0000
     1.0000   1.0000   1.0000   1.0000   1.0000   1.0000   1.0000   1.0000
     1.0000   1.0000   1.0000   1.0000   1.0000   1.0000   1.0000   1.0000
     1.0000   1.0000   1.0000   1.0000   1.0000   1.0000   1.0000   1.0000
     1.0000   1.0000   1.0000   1.0000   1.0000   1.0000   1.0000   1.0000
     1.0000   1.0000   1.0000   1.0000   1.0000   1.0000   1.0000   1.0000
     1.0000   1.0000   1.0000   1.0000   1.0000   1.0000   1.0000   1.0000
     1.0000   1.0000   1.0000   1.0000   1.0000   1.0000   1.0000   1.0000
     0.0000

          k = 0.2500 0.1122 0.0666 ( 38020 PWs)   bands (ev):

   -17.8653 -17.8653 -17.8652 -17.8652 -17.8640 -17.8640 -17.8638 -17.8638
   -17.8535 -17.8535 -17.8530 -17.8530 -17.8471 -17.8471 -17.8460 -17.8460
   -17.8420 -17.8419 -17.8410 -17.8410 -17.7766 -17.7765 -17.7761 -17.7760
    -8.6792  -8.6683  -8.5278  -8.5116  -8.4181  -8.4111  -8.3425  -8.3270
    -8.2630  -8.2597  -8.2443  -8.2396  -4.6703  -4.6667  -4.6503  -4.6452
    -4.6013  -4.6002  -4.5914  -4.5909  -4.5695  -4.5663  -4.5608  -4.5592
    -3.0455  -3.0417  -2.9519  -2.9416   0.3108   0.3423   0.4020   0.4465
     0.5089   0.5874   0.7669   0.8031   0.9093   0.9247   1.0263   1.0695
     1.4006   1.4758   1.4922   1.5283   1.6404   1.7053   1.7381   1.7870
     1.8334   1.9095   1.9361   1.9568   1.9696   1.9996   2.0373   2.0543
     2.0798   2.1444   2.2625   2.2837   2.6973   2.7889   2.9567   2.9890
     5.9176

     occupation numbers 
     1.0000   1.0000   1.0000   1.0000   1.0000   1.0000   1.0000   1.0000
     1.0000   1.0000   1.0000   1.0000   1.0000   1.0000   1.0000   1.0000
     1.0000   1.0000   1.0000   1.0000   1.0000   1.0000   1.0000   1.0000
     1.0000   1.0000   1.0000   1.0000   1.0000   1.0000   1.0000   1.0000
     1.0000   1.0000   1.0000   1.0000   1.0000   1.0000   1.0000   1.0000
     1.0000   1.0000   1.0000   1.0000   1.0000   1.0000   1.0000   1.0000
     1.0000   1.0000   1.0000   1.0000   1.0000   1.0000   1.0000   1.0000
     1.0000   1.0000   1.0000   1.0000   1.0000   1.0000   1.0000   1.0000
     1.0000   1.0000   1.0000   1.0000   1.0000   1.0000   1.0000   1.0000
     1.0000   1.0000   1.0000   1.0000   1.0000   1.0000   1.0000   1.0000
     1.0000   1.0000   1.0000   1.0000   1.0000   1.0000   1.0000   1.0000
     0.0000

          k = 0.2500 0.1122-0.1331 ( 38000 PWs)   bands (ev):

   -17.8653 -17.8653 -17.8652 -17.8652 -17.8640 -17.8640 -17.8638 -17.8638
   -17.8535 -17.8535 -17.8530 -17.8530 -17.8471 -17.8471 -17.8460 -17.8460
   -17.8420 -17.8420 -17.8410 -17.8410 -17.7766 -17.7766 -17.7760 -17.7760
    -8.6740  -8.6740  -8.5193  -8.5193  -8.4151  -8.4151  -8.3349  -8.3349
    -8.2605  -8.2605  -8.2423  -8.2423  -4.6686  -4.6686  -4.6477  -4.6477
    -4.6011  -4.6011  -4.5914  -4.5914  -4.5677  -4.5677  -4.5596  -4.5596
    -3.0436  -3.0436  -2.9468  -2.9468   0.3218   0.3218   0.4360   0.4360
     0.5398   0.5398   0.7810   0.7810   0.9337   0.9337   1.0347   1.0347
     1.4318   1.4318   1.4877   1.4877   1.7130   1.7130   1.7355   1.7355
     1.9047   1.9047   1.9481   1.9481   1.9867   1.9867   2.0332   2.0332
     2.1021   2.1021   2.2796   2.2796   2.7432   2.7432   2.9684   2.9684
     5.9967

     occupation numbers 
     1.0000   1.0000   1.0000   1.0000   1.0000   1.0000   1.0000   1.0000
     1.0000   1.0000   1.0000   1.0000   1.0000   1.0000   1.0000   1.0000
     1.0000   1.0000   1.0000   1.0000   1.0000   1.0000   1.0000   1.0000
     1.0000   1.0000   1.0000   1.0000   1.0000   1.0000   1.0000   1.0000
     1.0000   1.0000   1.0000   1.0000   1.0000   1.0000   1.0000   1.0000
     1.0000   1.0000   1.0000   1.0000   1.0000   1.0000   1.0000   1.0000
     1.0000   1.0000   1.0000   1.0000   1.0000   1.0000   1.0000   1.0000
     1.0000   1.0000   1.0000   1.0000   1.0000   1.0000   1.0000   1.0000
     1.0000   1.0000   1.0000   1.0000   1.0000   1.0000   1.0000   1.0000
     1.0000   1.0000   1.0000   1.0000   1.0000   1.0000   1.0000   1.0000
     1.0000   1.0000   1.0000   1.0000   1.0000   1.0000   1.0000   1.0000
     0.0000

          k = 0.2500-0.2244 0.0000 ( 38084 PWs)   bands (ev):

   -17.8653 -17.8653 -17.8652 -17.8652 -17.8640 -17.8640 -17.8638 -17.8638
   -17.8535 -17.8535 -17.8530 -17.8530 -17.8471 -17.8471 -17.8460 -17.8460
   -17.8420 -17.8420 -17.8410 -17.8410 -17.7764 -17.7764 -17.7762 -17.7762
    -8.6641  -8.6641  -8.5349  -8.5349  -8.4276  -8.4276  -8.3174  -8.3174
    -8.2577  -8.2577  -8.2437  -8.2437  -4.6632  -4.6632  -4.6559  -4.6559
    -4.6025  -4.6025  -4.5911  -4.5911  -4.5647  -4.5647  -4.5617  -4.5617
    -3.0349  -3.0349  -2.9513  -2.9513   0.2823   0.2823   0.4534   0.4534
     0.5264   0.5264   0.7443   0.7443   0.9472   0.9472   1.0979   1.0979
     1.4838   1.4838   1.5520   1.5520   1.6186   1.6186   1.7554   1.7554
     1.9203   1.9203   1.9463   1.9463   1.9859   1.9859   2.0589   2.0589
     2.1078   2.1078   2.1807   2.1807   2.7840   2.7840   2.9051   2.9051
     5.9947

     occupation numbers 
     1.0000   1.0000   1.0000   1.0000   1.0000   1.0000   1.0000   1.0000
     1.0000   1.0000   1.0000   1.0000   1.0000   1.0000   1.0000   1.0000
     1.0000   1.0000   1.0000   1.0000   1.0000   1.0000   1.0000   1.0000
     1.0000   1.0000   1.0000   1.0000   1.0000   1.0000   1.0000   1.0000
     1.0000   1.0000   1.0000   1.0000   1.0000   1.0000   1.0000   1.0000
     1.0000   1.0000   1.0000   1.0000   1.0000   1.0000   1.0000   1.0000
     1.0000   1.0000   1.0000   1.0000   1.0000   1.0000   1.0000   1.0000
     1.0000   1.0000   1.0000   1.0000   1.0000   1.0000   1.0000   1.0000
     1.0000   1.0000   1.0000   1.0000   1.0000   1.0000   1.0000   1.0000
     1.0000   1.0000   1.0000   1.0000   1.0000   1.0000   1.0000   1.0000
     1.0000   1.0000   1.0000   1.0000   1.0000   1.0000   1.0000   1.0000
     0.0000

          k = 0.2500-0.2244 0.0666 ( 38024 PWs)   bands (ev):

   -17.8653 -17.8653 -17.8652 -17.8652 -17.8640 -17.8640 -17.8638 -17.8638
   -17.8535 -17.8535 -17.8530 -17.8530 -17.8471 -17.8471 -17.8460 -17.8460
   -17.8420 -17.8420 -17.8410 -17.8410 -17.7764 -17.7764 -17.7762 -17.7762
    -8.6641  -8.6641  -8.5351  -8.5351  -8.4270  -8.4270  -8.3187  -8.3187
    -8.2555  -8.2555  -8.2450  -8.2450  -4.6622  -4.6622  -4.6570  -4.6570
    -4.6026  -4.6026  -4.5914  -4.5914  -4.5643  -4.5643  -4.5616  -4.5616
    -3.0348  -3.0348  -2.9516  -2.9516   0.2944   0.2944   0.4317   0.4317
     0.5304   0.5304   0.7691   0.7691   0.9343   0.9343   1.0711   1.0711
     1.4758   1.4758   1.5845   1.5845   1.6548   1.6548   1.7367   1.7367
     1.8920   1.8920   1.9470   1.9470   1.9866   1.9866   2.0494   2.0494
     2.1092   2.1092   2.1972   2.1972   2.7989   2.7989   2.8857   2.8857
     6.0044

     occupation numbers 
     1.0000   1.0000   1.0000   1.0000   1.0000   1.0000   1.0000   1.0000
     1.0000   1.0000   1.0000   1.0000   1.0000   1.0000   1.0000   1.0000
     1.0000   1.0000   1.0000   1.0000   1.0000   1.0000   1.0000   1.0000
     1.0000   1.0000   1.0000   1.0000   1.0000   1.0000   1.0000   1.0000
     1.0000   1.0000   1.0000   1.0000   1.0000   1.0000   1.0000   1.0000
     1.0000   1.0000   1.0000   1.0000   1.0000   1.0000   1.0000   1.0000
     1.0000   1.0000   1.0000   1.0000   1.0000   1.0000   1.0000   1.0000
     1.0000   1.0000   1.0000   1.0000   1.0000   1.0000   1.0000   1.0000
     1.0000   1.0000   1.0000   1.0000   1.0000   1.0000   1.0000   1.0000
     1.0000   1.0000   1.0000   1.0000   1.0000   1.0000   1.0000   1.0000
     1.0000   1.0000   1.0000   1.0000   1.0000   1.0000   1.0000   1.0000
     0.0000

          k = 0.2500-0.2244-0.1331 ( 38000 PWs)   bands (ev):

   -17.8653 -17.8653 -17.8652 -17.8652 -17.8640 -17.8640 -17.8638 -17.8638
   -17.8535 -17.8535 -17.8530 -17.8530 -17.8471 -17.8471 -17.8460 -17.8460
   -17.8419 -17.8419 -17.8410 -17.8410 -17.7764 -17.7764 -17.7762 -17.7762
    -8.6641  -8.6641  -8.5353  -8.5353  -8.4263  -8.4263  -8.3201  -8.3201
    -8.2525  -8.2525  -8.2471  -8.2471  -4.6598  -4.6598  -4.6596  -4.6596
    -4.6026  -4.6026  -4.5917  -4.5917  -4.5638  -4.5638  -4.5616  -4.5616
    -3.0346  -3.0346  -2.9518  -2.9518   0.3106   0.3106   0.4068   0.4068
     0.5341   0.5341   0.8020   0.8020   0.9104   0.9104   1.0482   1.0482
     1.4723   1.4723   1.6318   1.6318   1.6557   1.6557   1.7542   1.7542
     1.8365   1.8365   1.9633   1.9633   1.9762   1.9762   2.0433   2.0433
     2.1106   2.1106   2.2111   2.2111   2.8309   2.8309   2.8493   2.8493
     6.0181

     occupation numbers 
     1.0000   1.0000   1.0000   1.0000   1.0000   1.0000   1.0000   1.0000
     1.0000   1.0000   1.0000   1.0000   1.0000   1.0000   1.0000   1.0000
     1.0000   1.0000   1.0000   1.0000   1.0000   1.0000   1.0000   1.0000
     1.0000   1.0000   1.0000   1.0000   1.0000   1.0000   1.0000   1.0000
     1.0000   1.0000   1.0000   1.0000   1.0000   1.0000   1.0000   1.0000
     1.0000   1.0000   1.0000   1.0000   1.0000   1.0000   1.0000   1.0000
     1.0000   1.0000   1.0000   1.0000   1.0000   1.0000   1.0000   1.0000
     1.0000   1.0000   1.0000   1.0000   1.0000   1.0000   1.0000   1.0000
     1.0000   1.0000   1.0000   1.0000   1.0000   1.0000   1.0000   1.0000
     1.0000   1.0000   1.0000   1.0000   1.0000   1.0000   1.0000   1.0000
     1.0000   1.0000   1.0000   1.0000   1.0000   1.0000   1.0000   1.0000
     0.0000

          k =-0.5000 0.0000 0.0000 ( 38048 PWs)   bands (ev):

   -17.8658 -17.8658 -17.8658 -17.8658 -17.8644 -17.8644 -17.8644 -17.8644
   -17.8532 -17.8532 -17.8532 -17.8532 -17.8451 -17.8451 -17.8451 -17.8451
   -17.8418 -17.8418 -17.8417 -17.8417 -17.7709 -17.7709 -17.7704 -17.7704
    -8.4872  -8.4872  -8.4849  -8.4849  -8.3142  -8.3142  -8.3052  -8.3052
    -8.2935  -8.2935  -8.2735  -8.2735  -4.7886  -4.7886  -4.7210  -4.7210
    -4.6040  -4.6040  -4.5938  -4.5938  -4.5805  -4.5805  -4.5507  -4.5507
    -3.2034  -3.2034  -3.1665  -3.1665   0.0734   0.0734   0.0749   0.0749
     0.5618   0.5618   0.6196   0.6196   0.8891   0.8891   0.9089   0.9089
     1.2401   1.2401   1.6303   1.6303   1.6744   1.6744   1.7800   1.7800
     1.7921   1.7921   1.8527   1.8527   1.9038   1.9038   1.9279   1.9279
     2.0589   2.0589   2.0967   2.0967   2.5316   2.5316   2.9109   2.9109
     6.1084

     occupation numbers 
     1.0000   1.0000   1.0000   1.0000   1.0000   1.0000   1.0000   1.0000
     1.0000   1.0000   1.0000   1.0000   1.0000   1.0000   1.0000   1.0000
     1.0000   1.0000   1.0000   1.0000   1.0000   1.0000   1.0000   1.0000
     1.0000   1.0000   1.0000   1.0000   1.0000   1.0000   1.0000   1.0000
     1.0000   1.0000   1.0000   1.0000   1.0000   1.0000   1.0000   1.0000
     1.0000   1.0000   1.0000   1.0000   1.0000   1.0000   1.0000   1.0000
     1.0000   1.0000   1.0000   1.0000   1.0000   1.0000   1.0000   1.0000
     1.0000   1.0000   1.0000   1.0000   1.0000   1.0000   1.0000   1.0000
     1.0000   1.0000   1.0000   1.0000   1.0000   1.0000   1.0000   1.0000
     1.0000   1.0000   1.0000   1.0000   1.0000   1.0000   1.0000   1.0000
     1.0000   1.0000   1.0000   1.0000   1.0000   1.0000   1.0000   1.0000
     0.0000

          k =-0.5000 0.0000 0.0666 ( 38044 PWs)   bands (ev):

   -17.8658 -17.8658 -17.8658 -17.8658 -17.8644 -17.8644 -17.8644 -17.8644
   -17.8532 -17.8532 -17.8532 -17.8532 -17.8451 -17.8451 -17.8451 -17.8451
   -17.8418 -17.8418 -17.8417 -17.8417 -17.7709 -17.7709 -17.7704 -17.7704
    -8.4875  -8.4875  -8.4846  -8.4846  -8.3139  -8.3139  -8.3056  -8.3056
    -8.2933  -8.2933  -8.2736  -8.2736  -4.7886  -4.7886  -4.7210  -4.7210
    -4.6042  -4.6042  -4.5938  -4.5938  -4.5803  -4.5803  -4.5508  -4.5508
    -3.2005  -3.2005  -3.1695  -3.1695   0.0641   0.0641   0.0869   0.0869
     0.5704   0.5704   0.6230   0.6230   0.8615   0.8615   0.8929   0.8929
     1.2842   1.2842   1.6173   1.6173   1.6795   1.6795   1.7765   1.7765
     1.8026   1.8026   1.8423   1.8423   1.8635   1.8635   1.9479   1.9479
     2.0557   2.0557   2.1133   2.1133   2.5585   2.5585   2.8843   2.8843
     6.1061

     occupation numbers 
     1.0000   1.0000   1.0000   1.0000   1.0000   1.0000   1.0000   1.0000
     1.0000   1.0000   1.0000   1.0000   1.0000   1.0000   1.0000   1.0000
     1.0000   1.0000   1.0000   1.0000   1.0000   1.0000   1.0000   1.0000
     1.0000   1.0000   1.0000   1.0000   1.0000   1.0000   1.0000   1.0000
     1.0000   1.0000   1.0000   1.0000   1.0000   1.0000   1.0000   1.0000
     1.0000   1.0000   1.0000   1.0000   1.0000   1.0000   1.0000   1.0000
     1.0000   1.0000   1.0000   1.0000   1.0000   1.0000   1.0000   1.0000
     1.0000   1.0000   1.0000   1.0000   1.0000   1.0000   1.0000   1.0000
     1.0000   1.0000   1.0000   1.0000   1.0000   1.0000   1.0000   1.0000
     1.0000   1.0000   1.0000   1.0000   1.0000   1.0000   1.0000   1.0000
     1.0000   1.0000   1.0000   1.0000   1.0000   1.0000   1.0000   1.0000
     0.0000

          k =-0.5000 0.0000-0.1331 ( 38044 PWs)   bands (ev):

   -17.8658 -17.8658 -17.8658 -17.8658 -17.8644 -17.8644 -17.8644 -17.8644
   -17.8532 -17.8532 -17.8532 -17.8532 -17.8451 -17.8451 -17.8450 -17.8450
   -17.8418 -17.8418 -17.8418 -17.8418 -17.7709 -17.7709 -17.7704 -17.7704
    -8.4878  -8.4878  -8.4843  -8.4843  -8.3135  -8.3135  -8.3061  -8.3061
    -8.2931  -8.2931  -8.2736  -8.2736  -4.7885  -4.7885  -4.7211  -4.7211
    -4.6043  -4.6043  -4.5939  -4.5939  -4.5802  -4.5802  -4.5508  -4.5508
    -3.1969  -3.1969  -3.1732  -3.1732   0.0606   0.0606   0.0931   0.0931
     0.5797   0.5797   0.6270   0.6270   0.8375   0.8375   0.8760   0.8760
     1.3287   1.3287   1.5996   1.5996   1.6848   1.6848   1.7963   1.7963
     1.7984   1.7984   1.8255   1.8255   1.8328   1.8328   1.9583   1.9583
     2.0532   2.0532   2.1273   2.1273   2.5910   2.5910   2.8523   2.8523
     6.1043

     occupation numbers 
     1.0000   1.0000   1.0000   1.0000   1.0000   1.0000   1.0000   1.0000
     1.0000   1.0000   1.0000   1.0000   1.0000   1.0000   1.0000   1.0000
     1.0000   1.0000   1.0000   1.0000   1.0000   1.0000   1.0000   1.0000
     1.0000   1.0000   1.0000   1.0000   1.0000   1.0000   1.0000   1.0000
     1.0000   1.0000   1.0000   1.0000   1.0000   1.0000   1.0000   1.0000
     1.0000   1.0000   1.0000   1.0000   1.0000   1.0000   1.0000   1.0000
     1.0000   1.0000   1.0000   1.0000   1.0000   1.0000   1.0000   1.0000
     1.0000   1.0000   1.0000   1.0000   1.0000   1.0000   1.0000   1.0000
     1.0000   1.0000   1.0000   1.0000   1.0000   1.0000   1.0000   1.0000
     1.0000   1.0000   1.0000   1.0000   1.0000   1.0000   1.0000   1.0000
     1.0000   1.0000   1.0000   1.0000   1.0000   1.0000   1.0000   1.0000
     0.0000

          k =-0.5000 0.1122 0.0000 ( 38014 PWs)   bands (ev):

   -17.8658 -17.8658 -17.8658 -17.8658 -17.8644 -17.8644 -17.8644 -17.8644
   -17.8532 -17.8532 -17.8532 -17.8532 -17.8451 -17.8451 -17.8451 -17.8451
   -17.8418 -17.8418 -17.8417 -17.8417 -17.7709 -17.7709 -17.7704 -17.7704
    -8.4869  -8.4869  -8.4852  -8.4852  -8.3136  -8.3136  -8.3069  -8.3069
    -8.2898  -8.2898  -8.2761  -8.2761  -4.7788  -4.7788  -4.7310  -4.7310
    -4.6018  -4.6018  -4.5942  -4.5942  -4.5772  -4.5772  -4.5557  -4.5557
    -3.1983  -3.1983  -3.1723  -3.1723   0.1296   0.1296   0.1347   0.1347
     0.5049   0.5049   0.5444   0.5444   0.8519   0.8519   0.8961   0.8961
     1.3096   1.3096   1.5474   1.5474   1.6532   1.6532   1.7505   1.7505
     1.7961   1.7961   1.8025   1.8025   1.8900   1.8900   1.9564   1.9564
     2.0888   2.0888   2.1261   2.1261   2.6810   2.6810   2.9251   2.9251
     6.1422

     occupation numbers 
     1.0000   1.0000   1.0000   1.0000   1.0000   1.0000   1.0000   1.0000
     1.0000   1.0000   1.0000   1.0000   1.0000   1.0000   1.0000   1.0000
     1.0000   1.0000   1.0000   1.0000   1.0000   1.0000   1.0000   1.0000
     1.0000   1.0000   1.0000   1.0000   1.0000   1.0000   1.0000   1.0000
     1.0000   1.0000   1.0000   1.0000   1.0000   1.0000   1.0000   1.0000
     1.0000   1.0000   1.0000   1.0000   1.0000   1.0000   1.0000   1.0000
     1.0000   1.0000   1.0000   1.0000   1.0000   1.0000   1.0000   1.0000
     1.0000   1.0000   1.0000   1.0000   1.0000   1.0000   1.0000   1.0000
     1.0000   1.0000   1.0000   1.0000   1.0000   1.0000   1.0000   1.0000
     1.0000   1.0000   1.0000   1.0000   1.0000   1.0000   1.0000   1.0000
     1.0000   1.0000   1.0000   1.0000   1.0000   1.0000   1.0000   1.0000
     0.0000

          k =-0.5000 0.1122 0.0666 ( 38030 PWs)   bands (ev):

   -17.8658 -17.8658 -17.8658 -17.8658 -17.8644 -17.8644 -17.8644 -17.8644
   -17.8532 -17.8532 -17.8532 -17.8532 -17.8451 -17.8451 -17.8451 -17.8451
   -17.8418 -17.8418 -17.8418 -17.8418 -17.7709 -17.7709 -17.7704 -17.7704
    -8.4871  -8.4871  -8.4850  -8.4850  -8.3133  -8.3133  -8.3072  -8.3072
    -8.2898  -8.2898  -8.2761  -8.2761  -4.7787  -4.7787  -4.7310  -4.7310
    -4.6019  -4.6019  -4.5941  -4.5941  -4.5772  -4.5772  -4.5558  -4.5558
    -3.1963  -3.1963  -3.1744  -3.1744   0.1221   0.1221   0.1413   0.1413
     0.5136   0.5136   0.5445   0.5445   0.8460   0.8460   0.8864   0.8864
     1.3208   1.3208   1.5573   1.5573   1.6497   1.6497   1.7362   1.7362
     1.7721   1.7721   1.8196   1.8196   1.8807   1.8807   1.9784   1.9784
     2.0852   2.0852   2.1262   2.1262   2.7000   2.7000   2.9076   2.9076
     6.1284

     occupation numbers 
     1.0000   1.0000   1.0000   1.0000   1.0000   1.0000   1.0000   1.0000
     1.0000   1.0000   1.0000   1.0000   1.0000   1.0000   1.0000   1.0000
     1.0000   1.0000   1.0000   1.0000   1.0000   1.0000   1.0000   1.0000
     1.0000   1.0000   1.0000   1.0000   1.0000   1.0000   1.0000   1.0000
     1.0000   1.0000   1.0000   1.0000   1.0000   1.0000   1.0000   1.0000
     1.0000   1.0000   1.0000   1.0000   1.0000   1.0000   1.0000   1.0000
     1.0000   1.0000   1.0000   1.0000   1.0000   1.0000   1.0000   1.0000
     1.0000   1.0000   1.0000   1.0000   1.0000   1.0000   1.0000   1.0000
     1.0000   1.0000   1.0000   1.0000   1.0000   1.0000   1.0000   1.0000
     1.0000   1.0000   1.0000   1.0000   1.0000   1.0000   1.0000   1.0000
     1.0000   1.0000   1.0000   1.0000   1.0000   1.0000   1.0000   1.0000
     0.0000

          k =-0.5000 0.1122-0.1331 ( 38028 PWs)   bands (ev):

   -17.8658 -17.8658 -17.8658 -17.8658 -17.8644 -17.8644 -17.8644 -17.8644
   -17.8532 -17.8532 -17.8532 -17.8532 -17.8451 -17.8451 -17.8451 -17.8451
   -17.8418 -17.8418 -17.8418 -17.8418 -17.7709 -17.7709 -17.7704 -17.7704
    -8.4873  -8.4873  -8.4848  -8.4848  -8.3131  -8.3131  -8.3075  -8.3075
    -8.2897  -8.2897  -8.2761  -8.2761  -4.7787  -4.7787  -4.7310  -4.7310
    -4.6020  -4.6020  -4.5941  -4.5941  -4.5771  -4.5771  -4.5558  -4.5558
    -3.1937  -3.1937  -3.1770  -3.1770   0.1182   0.1182   0.1444   0.1444
     0.5252   0.5252   0.5417   0.5417   0.8576   0.8576   0.8586   0.8586
     1.3355   1.3355   1.5556   1.5556   1.6654   1.6654   1.7168   1.7168
     1.7532   1.7532   1.8297   1.8297   1.8703   1.8703   1.9958   1.9958
     2.0943   2.0943   2.1159   2.1159   2.7231   2.7231   2.8860   2.8860
     6.1231

     occupation numbers 
     1.0000   1.0000   1.0000   1.0000   1.0000   1.0000   1.0000   1.0000
     1.0000   1.0000   1.0000   1.0000   1.0000   1.0000   1.0000   1.0000
     1.0000   1.0000   1.0000   1.0000   1.0000   1.0000   1.0000   1.0000
     1.0000   1.0000   1.0000   1.0000   1.0000   1.0000   1.0000   1.0000
     1.0000   1.0000   1.0000   1.0000   1.0000   1.0000   1.0000   1.0000
     1.0000   1.0000   1.0000   1.0000   1.0000   1.0000   1.0000   1.0000
     1.0000   1.0000   1.0000   1.0000   1.0000   1.0000   1.0000   1.0000
     1.0000   1.0000   1.0000   1.0000   1.0000   1.0000   1.0000   1.0000
     1.0000   1.0000   1.0000   1.0000   1.0000   1.0000   1.0000   1.0000
     1.0000   1.0000   1.0000   1.0000   1.0000   1.0000   1.0000   1.0000
     1.0000   1.0000   1.0000   1.0000   1.0000   1.0000   1.0000   1.0000
     0.0000

          k =-0.5000-0.2244 0.0000 ( 38096 PWs)   bands (ev):

   -17.8658 -17.8658 -17.8658 -17.8658 -17.8645 -17.8645 -17.8645 -17.8645
   -17.8532 -17.8532 -17.8532 -17.8532 -17.8451 -17.8451 -17.8451 -17.8451
   -17.8418 -17.8418 -17.8418 -17.8418 -17.7706 -17.7706 -17.7706 -17.7706
    -8.4861  -8.4861  -8.4861  -8.4861  -8.3108  -8.3108  -8.3108  -8.3108
    -8.2825  -8.2825  -8.2825  -8.2825  -4.7549  -4.7549  -4.7549  -4.7549
    -4.5972  -4.5972  -4.5972  -4.5972  -4.5672  -4.5672  -4.5672  -4.5672
    -3.1856  -3.1856  -3.1856  -3.1856   0.2194   0.2194   0.2194   0.2194
     0.4339   0.4339   0.4339   0.4339   0.8412   0.8412   0.8412   0.8412
     1.4533   1.4533   1.4533   1.4533   1.6363   1.6363   1.6363   1.6363
     1.7966   1.7966   1.7966   1.7966   1.9224   1.9224   1.9224   1.9224
     2.1497   2.1497   2.1497   2.1497   2.8726   2.8726   2.8726   2.8726
     6.1267

     occupation numbers 
     1.0000   1.0000   1.0000   1.0000   1.0000   1.0000   1.0000   1.0000
     1.0000   1.0000   1.0000   1.0000   1.0000   1.0000   1.0000   1.0000
     1.0000   1.0000   1.0000   1.0000   1.0000   1.0000   1.0000   1.0000
     1.0000   1.0000   1.0000   1.0000   1.0000   1.0000   1.0000   1.0000
     1.0000   1.0000   1.0000   1.0000   1.0000   1.0000   1.0000   1.0000
     1.0000   1.0000   1.0000   1.0000   1.0000   1.0000   1.0000   1.0000
     1.0000   1.0000   1.0000   1.0000   1.0000   1.0000   1.0000   1.0000
     1.0000   1.0000   1.0000   1.0000   1.0000   1.0000   1.0000   1.0000
     1.0000   1.0000   1.0000   1.0000   1.0000   1.0000   1.0000   1.0000
     1.0000   1.0000   1.0000   1.0000   1.0000   1.0000   1.0000   1.0000
     1.0000   1.0000   1.0000   1.0000   1.0000   1.0000   1.0000   1.0000
     0.0000

          k =-0.5000-0.2244 0.0666 ( 38068 PWs)   bands (ev):

   -17.8658 -17.8658 -17.8658 -17.8658 -17.8645 -17.8645 -17.8645 -17.8645
   -17.8532 -17.8532 -17.8532 -17.8532 -17.8451 -17.8451 -17.8451 -17.8451
   -17.8418 -17.8418 -17.8418 -17.8418 -17.7706 -17.7706 -17.7706 -17.7706
    -8.4861  -8.4861  -8.4861  -8.4861  -8.3108  -8.3108  -8.3108  -8.3108
    -8.2825  -8.2825  -8.2825  -8.2825  -4.7549  -4.7549  -4.7549  -4.7549
    -4.5972  -4.5972  -4.5972  -4.5972  -4.5672  -4.5672  -4.5672  -4.5672
    -3.1856  -3.1856  -3.1856  -3.1856   0.2161   0.2161   0.2161   0.2161
     0.4355   0.4355   0.4355   0.4355   0.8536   0.8536   0.8536   0.8536
     1.4064   1.4064   1.4064   1.4064   1.6779   1.6779   1.6779   1.6779
     1.7967   1.7967   1.7967   1.7967   1.9313   1.9313   1.9313   1.9313
     2.1318   2.1318   2.1318   2.1318   2.8770   2.8770   2.8770   2.8770
     6.1223

     occupation numbers 
     1.0000   1.0000   1.0000   1.0000   1.0000   1.0000   1.0000   1.0000
     1.0000   1.0000   1.0000   1.0000   1.0000   1.0000   1.0000   1.0000
     1.0000   1.0000   1.0000   1.0000   1.0000   1.0000   1.0000   1.0000
     1.0000   1.0000   1.0000   1.0000   1.0000   1.0000   1.0000   1.0000
     1.0000   1.0000   1.0000   1.0000   1.0000   1.0000   1.0000   1.0000
     1.0000   1.0000   1.0000   1.0000   1.0000   1.0000   1.0000   1.0000
     1.0000   1.0000   1.0000   1.0000   1.0000   1.0000   1.0000   1.0000
     1.0000   1.0000   1.0000   1.0000   1.0000   1.0000   1.0000   1.0000
     1.0000   1.0000   1.0000   1.0000   1.0000   1.0000   1.0000   1.0000
     1.0000   1.0000   1.0000   1.0000   1.0000   1.0000   1.0000   1.0000
     1.0000   1.0000   1.0000   1.0000   1.0000   1.0000   1.0000   1.0000
     0.0000

          k =-0.5000-0.2244-0.1331 ( 38056 PWs)   bands (ev):

   -17.8658 -17.8658 -17.8658 -17.8658 -17.8645 -17.8645 -17.8645 -17.8645
   -17.8532 -17.8532 -17.8532 -17.8532 -17.8451 -17.8451 -17.8451 -17.8451
   -17.8418 -17.8418 -17.8418 -17.8418 -17.7706 -17.7706 -17.7706 -17.7706
    -8.4861  -8.4861  -8.4861  -8.4861  -8.3107  -8.3107  -8.3107  -8.3107
    -8.2825  -8.2825  -8.2825  -8.2825  -4.7549  -4.7549  -4.7549  -4.7549
    -4.5972  -4.5972  -4.5972  -4.5972  -4.5673  -4.5673  -4.5673  -4.5673
    -3.1856  -3.1856  -3.1856  -3.1856   0.2130   0.2130   0.2130   0.2130
     0.4371   0.4371   0.4371   0.4371   0.8669   0.8669   0.8669   0.8669
     1.3690   1.3690   1.3690   1.3690   1.7074   1.7074   1.7074   1.7074
     1.7989   1.7989   1.7989   1.7989   1.9427   1.9427   1.9427   1.9427
     2.1110   2.1110   2.1110   2.1110   2.8815   2.8815   2.8815   2.8815
     6.1176

     occupation numbers 
     1.0000   1.0000   1.0000   1.0000   1.0000   1.0000   1.0000   1.0000
     1.0000   1.0000   1.0000   1.0000   1.0000   1.0000   1.0000   1.0000
     1.0000   1.0000   1.0000   1.0000   1.0000   1.0000   1.0000   1.0000
     1.0000   1.0000   1.0000   1.0000   1.0000   1.0000   1.0000   1.0000
     1.0000   1.0000   1.0000   1.0000   1.0000   1.0000   1.0000   1.0000
     1.0000   1.0000   1.0000   1.0000   1.0000   1.0000   1.0000   1.0000
     1.0000   1.0000   1.0000   1.0000   1.0000   1.0000   1.0000   1.0000
     1.0000   1.0000   1.0000   1.0000   1.0000   1.0000   1.0000   1.0000
     1.0000   1.0000   1.0000   1.0000   1.0000   1.0000   1.0000   1.0000
     1.0000   1.0000   1.0000   1.0000   1.0000   1.0000   1.0000   1.0000
     1.0000   1.0000   1.0000   1.0000   1.0000   1.0000   1.0000   1.0000
     0.0000

     highest occupied, lowest unoccupied level (ev):     3.0295    5.1336

!    total energy              =   -7979.62662577 Ry

     total all-electron energy =   -282510.781338 Ry
     estimated scf accuracy    <       0.00000005 Ry

     The total energy is the sum of the following terms:
     one-electron contribution =    -463.62720049 Ry
     hartree contribution      =     316.58303629 Ry
     xc contribution           =    -465.89111443 Ry
     ewald contribution        =    -633.56960439 Ry
     one-center paw contrib.   =   -6733.12174274 Ry
      -> PAW hartree energy AE =      25.63885752 Ry
      -> PAW hartree energy PS =     -25.52931035 Ry
      -> PAW xc energy AE      =    -383.53089009 Ry
      -> PAW xc energy PS      =      20.51557142 Ry
      -> total E_H with PAW    =     316.69258345 Ry
      -> total E_XC with PAW   =    -828.90643311 Ry

     convergence has been achieved in  12 iterations

     Forces acting on atoms (cartesian axes, Ry/au):

     atom    1 type  3   force =     0.00000000   -0.00063395    0.00033675
     atom    2 type  3   force =     0.00000000    0.00063395   -0.00033675
     atom    3 type  3   force =     0.00000000   -0.00063395   -0.00033675
     atom    4 type  3   force =     0.00000000    0.00063395    0.00033675
     atom    5 type  1   force =     0.00000000   -0.00070352    0.00024522
     atom    6 type  1   force =    -0.00000000    0.00070352   -0.00024522
     atom    7 type  1   force =     0.00000000   -0.00070352   -0.00024522
     atom    8 type  1   force =    -0.00000000    0.00070352    0.00024522
     atom    9 type  2   force =     0.00000000    0.00019559   -0.00016822
     atom   10 type  2   force =     0.00000000   -0.00019559    0.00016822
     atom   11 type  2   force =     0.00000000    0.00019559    0.00016822
     atom   12 type  2   force =     0.00000000   -0.00019559   -0.00016822
     atom   13 type  2   force =     0.00000000   -0.00013341   -0.00045048
     atom   14 type  2   force =     0.00000000    0.00013341    0.00045048
     atom   15 type  2   force =     0.00000000   -0.00013341    0.00045048
     atom   16 type  2   force =     0.00000000    0.00013341   -0.00045048
     atom   17 type  2   force =     0.00000000   -0.00075468    0.00047468
     atom   18 type  2   force =     0.00000000    0.00075468   -0.00047468
     atom   19 type  2   force =     0.00000000   -0.00075468   -0.00047468
     atom   20 type  2   force =     0.00000000    0.00075468    0.00047468
     The non-local contrib.  to forces
     atom    1 type  3   force =     0.00000000    0.00220667   -0.00227348
     atom    2 type  3   force =     0.00000000   -0.00220667    0.00227348
     atom    3 type  3   force =     0.00000000    0.00220667    0.00227348
     atom    4 type  3   force =     0.00000000   -0.00220667   -0.00227348
     atom    5 type  1   force =     0.00000000   -0.08732575   -0.13163612
     atom    6 type  1   force =     0.00000000    0.08732575    0.13163612
     atom    7 type  1   force =     0.00000000   -0.08732575    0.13163612
     atom    8 type  1   force =     0.00000000    0.08732575   -0.13163612
     atom    9 type  2   force =     0.00000000   -0.04888393   -0.04762013
     atom   10 type  2   force =     0.00000000    0.04888393    0.04762013
     atom   11 type  2   force =     0.00000000   -0.04888393    0.04762013
     atom   12 type  2   force =     0.00000000    0.04888393   -0.04762013
     atom   13 type  2   force =     0.00000000   -0.03281582    0.05558706
     atom   14 type  2   force =     0.00000000    0.03281582   -0.05558706
     atom   15 type  2   force =     0.00000000   -0.03281582   -0.05558706
     atom   16 type  2   force =     0.00000000    0.03281582    0.05558706
     atom   17 type  2   force =     0.00000000    0.05613361   -0.01686332
     atom   18 type  2   force =     0.00000000   -0.05613361    0.01686332
     atom   19 type  2   force =     0.00000000    0.05613361    0.01686332
     atom   20 type  2   force =     0.00000000   -0.05613361   -0.01686332
     The ionic contribution  to forces
     atom    1 type  3   force =    -0.00000000    0.02273773    0.42856976
     atom    2 type  3   force =    -0.00000000   -0.02273773   -0.42856976
     atom    3 type  3   force =    -0.00000000    0.02273773   -0.42856976
     atom    4 type  3   force =    -0.00000000   -0.02273773    0.42856976
     atom    5 type  1   force =    -0.00000000   -2.44382135   -1.60292983
     atom    6 type  1   force =     0.00000000    2.44382135    1.60292983
     atom    7 type  1   force =    -0.00000000   -2.44382135    1.60292983
     atom    8 type  1   force =     0.00000000    2.44382135   -1.60292983
     atom    9 type  2   force =    -0.00000000    3.00608891    5.13288893
     atom   10 type  2   force =     0.00000000   -3.00608891   -5.13288893
     atom   11 type  2   force =    -0.00000000    3.00608891   -5.13288893
     atom   12 type  2   force =    -0.00000000   -3.00608891    5.13288893
     atom   13 type  2   force =     0.00000000    2.02422849   -3.75281499
     atom   14 type  2   force =     0.00000000   -2.02422849    3.75281499
     atom   15 type  2   force =    -0.00000000    2.02422849    3.75281499
     atom   16 type  2   force =    -0.00000000   -2.02422849   -3.75281499
     atom   17 type  2   force =    -0.00000000   -4.20564473    2.10270404
     atom   18 type  2   force =     0.00000000    4.20564473   -2.10270404
     atom   19 type  2   force =    -0.00000000   -4.20564473   -2.10270404
     atom   20 type  2   force =     0.00000000    4.20564473    2.10270404
     The local contribution  to forces
     atom    1 type  3   force =    -0.00000000   -0.02545791   -0.42619009
     atom    2 type  3   force =     0.00000000    0.02545791    0.42619009
     atom    3 type  3   force =    -0.00000000   -0.02545791    0.42619009
     atom    4 type  3   force =     0.00000000    0.02545791   -0.42619009
     atom    5 type  1   force =    -0.00000000    2.52995675    1.73467150
     atom    6 type  1   force =    -0.00000000   -2.52995675   -1.73467150
     atom    7 type  1   force =    -0.00000000    2.52995675   -1.73467150
     atom    8 type  1   force =    -0.00000000   -2.52995675    1.73467150
     atom    9 type  2   force =    -0.00000000   -2.96351304   -5.09194512
     atom   10 type  2   force =     0.00000000    2.96351304    5.09194512
     atom   11 type  2   force =    -0.00000000   -2.96351304    5.09194512
     atom   12 type  2   force =     0.00000000    2.96351304   -5.09194512
     atom   13 type  2   force =    -0.00000000   -1.99585208    3.70424200
     atom   14 type  2   force =     0.00000000    1.99585208   -3.70424200
     atom   15 type  2   force =    -0.00000000   -1.99585208   -3.70424200
     atom   16 type  2   force =     0.00000000    1.99585208    3.70424200
     atom   17 type  2   force =    -0.00000000    4.15635872   -2.08791572
     atom   18 type  2   force =     0.00000000   -4.15635872    2.08791572
     atom   19 type  2   force =     0.00000000    4.15635872    2.08791572
     atom   20 type  2   force =     0.00000000   -4.15635872   -2.08791572
     The core correction contribution to forces
     atom    1 type  3   force =     0.00000000   -0.00018051    0.00019071
     atom    2 type  3   force =     0.00000000    0.00018051   -0.00019071
     atom    3 type  3   force =     0.00000000   -0.00018051   -0.00019071
     atom    4 type  3   force =     0.00000000    0.00018051    0.00019071
     atom    5 type  1   force =    -0.00000000    0.00019263    0.00006475
     atom    6 type  1   force =    -0.00000000   -0.00019263   -0.00006475
     atom    7 type  1   force =     0.00000000    0.00019263   -0.00006475
     atom    8 type  1   force =    -0.00000000   -0.00019263    0.00006475
     atom    9 type  2   force =     0.00000000    0.00650770    0.00656398
     atom   10 type  2   force =    -0.00000000   -0.00650770   -0.00656398
     atom   11 type  2   force =     0.00000000    0.00650770   -0.00656398
     atom   12 type  2   force =     0.00000000   -0.00650770    0.00656398
     atom   13 type  2   force =    -0.00000000    0.00433305   -0.00741535
     atom   14 type  2   force =    -0.00000000   -0.00433305    0.00741535
     atom   15 type  2   force =     0.00000000    0.00433305    0.00741535
     atom   16 type  2   force =     0.00000000   -0.00433305   -0.00741535
     atom   17 type  2   force =     0.00000000   -0.00770563    0.00252191
     atom   18 type  2   force =     0.00000000    0.00770563   -0.00252191
     atom   19 type  2   force =    -0.00000000   -0.00770563   -0.00252191
     atom   20 type  2   force =     0.00000000    0.00770563    0.00252191
     The Hubbard contrib.    to forces
     atom    1 type  3   force =     0.00000000    0.00000000    0.00000000
     atom    2 type  3   force =     0.00000000    0.00000000    0.00000000
     atom    3 type  3   force =     0.00000000    0.00000000    0.00000000
     atom    4 type  3   force =     0.00000000    0.00000000    0.00000000
     atom    5 type  1   force =     0.00000000    0.00000000    0.00000000
     atom    6 type  1   force =     0.00000000    0.00000000    0.00000000
     atom    7 type  1   force =     0.00000000    0.00000000    0.00000000
     atom    8 type  1   force =     0.00000000    0.00000000    0.00000000
     atom    9 type  2   force =     0.00000000    0.00000000    0.00000000
     atom   10 type  2   force =     0.00000000    0.00000000    0.00000000
     atom   11 type  2   force =     0.00000000    0.00000000    0.00000000
     atom   12 type  2   force =     0.00000000    0.00000000    0.00000000
     atom   13 type  2   force =     0.00000000    0.00000000    0.00000000
     atom   14 type  2   force =     0.00000000    0.00000000    0.00000000
     atom   15 type  2   force =     0.00000000    0.00000000    0.00000000
     atom   16 type  2   force =     0.00000000    0.00000000    0.00000000
     atom   17 type  2   force =     0.00000000    0.00000000    0.00000000
     atom   18 type  2   force =     0.00000000    0.00000000    0.00000000
     atom   19 type  2   force =     0.00000000    0.00000000    0.00000000
     atom   20 type  2   force =     0.00000000    0.00000000    0.00000000
     The SCF correction term to forces
     atom    1 type  3   force =    -0.00000000    0.00006007    0.00003985
     atom    2 type  3   force =     0.00000000   -0.00006007   -0.00003985
     atom    3 type  3   force =    -0.00000000    0.00006007   -0.00003985
     atom    4 type  3   force =     0.00000000   -0.00006007    0.00003985
     atom    5 type  1   force =    -0.00000000    0.00029421    0.00007493
     atom    6 type  1   force =    -0.00000000   -0.00029421   -0.00007493
     atom    7 type  1   force =    -0.00000000    0.00029421   -0.00007493
     atom    8 type  1   force =    -0.00000000   -0.00029421    0.00007493
     atom    9 type  2   force =     0.00000000   -0.00000406   -0.00005589
     atom   10 type  2   force =    -0.00000000    0.00000406    0.00005589
     atom   11 type  2   force =    -0.00000000   -0.00000406    0.00005589
     atom   12 type  2   force =     0.00000000    0.00000406   -0.00005589
     atom   13 type  2   force =    -0.00000000   -0.00002704   -0.00004921
     atom   14 type  2   force =     0.00000000    0.00002704    0.00004921
     atom   15 type  2   force =    -0.00000000   -0.00002704    0.00004921
     atom   16 type  2   force =     0.00000000    0.00002704   -0.00004921
     atom   17 type  2   force =    -0.00000000    0.00010335    0.00002778
     atom   18 type  2   force =    -0.00000000   -0.00010335   -0.00002778
     atom   19 type  2   force =    -0.00000000    0.00010335   -0.00002778
     atom   20 type  2   force =     0.00000000   -0.00010335    0.00002778

     Total force =     0.002934     Total SCF correction =     0.000679
     SCF correction compared to forces is large: reduce conv_thr to get better values


     Computing stress (Cartesian axis) and pressure

          total   stress  (Ry/bohr**3)                   (kbar)     P=       -0.12
  -0.00000050   0.00000000   0.00000000           -0.07        0.00        0.00
   0.00000000  -0.00000033   0.00000000            0.00       -0.05        0.00
   0.00000000   0.00000000  -0.00000166            0.00        0.00       -0.24

     kinetic stress (kbar)   5524.57      0.00      0.00
                                0.00   5535.23      0.00
                                0.00      0.00   5529.23

     local   stress (kbar)  -4517.51      0.00      0.00
                                0.00  -1884.38      0.00
                                0.00      0.00   -991.28

     nonloc. stress (kbar)   1140.21      0.00      0.00
                                0.00   1138.27      0.00
                                0.00      0.00   1141.00

     hartree stress (kbar)   3402.57      0.00      0.00
                                0.00   2188.67     -0.00
                                0.00     -0.00   1719.13

     exc-cor stress (kbar)   5446.86     -0.00     -0.00
                               -0.00   5446.50      0.00
                               -0.00      0.00   5446.93

     corecor stress (kbar)  -7211.97      0.00     -0.00
                                0.00  -7212.17     -0.00
                               -0.00     -0.00  -7212.17

     ewald   stress (kbar)  -3784.80     -0.00     -0.00
                               -0.00  -5212.16      0.00
                               -0.00      0.00  -5633.09

     hubbard stress (kbar)      0.00      0.00      0.00
                                0.00      0.00      0.00
                                0.00      0.00      0.00

     DFT-D   stress (kbar)      0.00      0.00      0.00
                                0.00      0.00      0.00
                                0.00      0.00      0.00

     XDM     stress (kbar)      0.00      0.00      0.00
                                0.00      0.00      0.00
                                0.00      0.00      0.00

     dft-nl  stress (kbar)      0.00      0.00      0.00
                                0.00      0.00      0.00
                                0.00      0.00      0.00

     TS-vdW  stress (kbar)      0.00      0.00      0.00
                                0.00      0.00      0.00
                                0.00      0.00      0.00



     Writing output data file ./out/CsSnI3.save/

     init_run     :     61.28s CPU     61.85s WALL (       1 calls)
     electrons    :   2459.16s CPU   2465.95s WALL (       1 calls)
     forces       :     51.63s CPU     51.74s WALL (       1 calls)
     stress       :     73.37s CPU     73.51s WALL (       1 calls)

     Called by init_run:
     wfcinit      :     57.29s CPU     57.46s WALL (       1 calls)
     wfcinit:atom :      0.08s CPU      0.08s WALL (      27 calls)
     wfcinit:wfcr :     56.31s CPU     56.45s WALL (      27 calls)
     potinit      :      1.28s CPU      1.31s WALL (       1 calls)
     hinit0       :      1.41s CPU      1.42s WALL (       1 calls)

     Called by electrons:
     c_bands      :   2237.88s CPU   2242.44s WALL (      13 calls)
     sum_band     :    202.31s CPU    203.74s WALL (      13 calls)
     v_of_rho     :      0.78s CPU      0.80s WALL (      13 calls)
     v_h          :      0.10s CPU      0.10s WALL (      13 calls)
     v_xc         :      0.78s CPU      0.78s WALL (      15 calls)
     newd         :     10.81s CPU     11.63s WALL (      13 calls)
     PAW_pot      :      8.58s CPU      8.61s WALL (      13 calls)
     mix_rho      :      0.23s CPU      0.24s WALL (      13 calls)

     Called by c_bands:
     init_us_2    :     11.38s CPU     11.49s WALL (     783 calls)
     cegterg      :   2215.01s CPU   2218.80s WALL (     351 calls)

     Called by sum_band:
     sum_band:wei :      0.00s CPU      0.00s WALL (      13 calls)
     sum_band:loo :    192.33s CPU    192.96s WALL (      13 calls)
     sum_band:buf :      1.27s CPU      1.33s WALL (     351 calls)
     sum_band:ini :      5.13s CPU      5.14s WALL (     351 calls)
     sum_band:cal :    149.33s CPU    149.42s WALL (     351 calls)
     sum_band:bec :      0.81s CPU      0.82s WALL (     351 calls)
     addusdens    :      9.38s CPU     10.17s WALL (      13 calls)
     addusd:skk   :      0.03s CPU      0.03s WALL (      39 calls)
     addusd:dgemm :      5.20s CPU      5.96s WALL (      39 calls)
     addusd:qvan2 :      3.78s CPU      3.78s WALL (      39 calls)

     Called by *egterg:
     cdiaghg      :     65.47s CPU     65.60s WALL (    2113 calls)
     cegterg:over :    116.44s CPU    116.55s WALL (    1789 calls)
     cegterg:upda :     92.88s CPU     92.97s WALL (    1789 calls)
     cegterg:last :    345.48s CPU    345.75s WALL (     909 calls)
     h_psi        :   1119.94s CPU   1122.82s WALL (    2167 calls)
     s_psi        :    465.05s CPU    465.40s WALL (    2167 calls)
     g_psi        :      0.69s CPU      0.71s WALL (    1789 calls)

     Called by h_psi:
     h_psi:calbec :    454.48s CPU    454.80s WALL (    2167 calls)
     vloc_psi     :    195.20s CPU    197.42s WALL (    2167 calls)
     add_vuspsi   :    467.07s CPU    467.39s WALL (    2167 calls)

     General routines
     calbec       :    661.85s CPU    662.31s WALL (    2653 calls)
     fft          :      0.50s CPU      0.50s WALL (     169 calls)
     ffts         :      0.02s CPU      0.02s WALL (      13 calls)
     fftw         :    211.20s CPU    213.68s WALL (  220787 calls)

     Parallel routines
     fft_scatt_xy :     16.21s CPU     16.36s WALL (  220969 calls)
     fft_scatt_yz :     43.43s CPU     43.97s WALL (  220969 calls)

     PAW routines
     PAW_pot      :      8.58s CPU      8.61s WALL (      13 calls)
     PAW_symme    :      0.04s CPU      0.04s WALL (      26 calls)

     PWSCF        :  44m 9.65s CPU  44m21.24s WALL


   This run was terminated on:  11:45:49  15Jan2021            

=------------------------------------------------------------------------------=
   JOB DONE.
=------------------------------------------------------------------------------=
