
     Program PWSCF v.6.4.1 starts on 24Jan2021 at 17:46:14 

     This program is part of the open-source Quantum ESPRESSO suite
     for quantum simulation of materials; please cite
         "P. Giannozzi et al., J. Phys.:Condens. Matter 21 395502 (2009);
         "P. Giannozzi et al., J. Phys.:Condens. Matter 29 465901 (2017);
          URL http://www.quantum-espresso.org", 
     in publications or presentations arising from this work. More details at
     http://www.quantum-espresso.org/quote

     Parallel version (MPI & OpenMP), running on      48 processor cores
     Number of MPI processes:                24
     Threads/MPI process:                     2

     MPI processes distributed on     1 nodes
     R & G space division:  proc/nbgrp/npool/nimage =      24
     Waiting for input...
     Reading input from standard input

     Current dimensions of program PWSCF are:
     Max number of different atomic species (ntypx) = 10
     Max number of k-points (npk) =  40000
     Max angular momentum in pseudopotentials (lmaxx) =  3
               file Sn.rel-pbesol-dn-kjpaw_psl.1.0.0.UPF: wavefunction(s)  5S 5P 5P 4D 4D renormalized
               file I.rel-pbesol-n-kjpaw_psl.1.0.0.UPF: wavefunction(s)  5S renormalized

     Subspace diagonalization in iterative solution of the eigenvalue problem:
     one sub-group per band group will be used
     scalapack distributed-memory algorithm (size of sub-group:  3*  3 procs)

 
     Parallelization info
     --------------------
     sticks:   dense  smooth     PW     G-vecs:    dense   smooth      PW
     Min         372     248     67                26472    14418    2019
     Max         373     249     68                26475    14423    2023
     Sum        8945    5957   1609               635371   346083   48501
 

     Title: 
     CsIsalt                                                                    


     bravais-lattice index     =            1
     lattice parameter (alat)  =      14.4199  a.u.
     unit-cell volume          =    2998.4083 (a.u.)^3
     number of atoms/cell      =            6
     number of atomic types    =            2
     number of electrons       =        56.00
     number of Kohn-Sham states=           56
     kinetic-energy cutoff     =      90.0000  Ry
     charge density cutoff     =     540.0000  Ry
     convergence threshold     =      1.0E-06
     mixing beta               =       0.3500
     number of iterations used =            8  plain     mixing
     Exchange-correlation      = SLA PW PSX PSC ( 1  4 10  8 0 0)
     Non magnetic calculation with spin-orbit


     celldm(1)=  14.419945  celldm(2)=   0.000000  celldm(3)=   0.000000
     celldm(4)=   0.000000  celldm(5)=   0.000000  celldm(6)=   0.000000

     crystal axes: (cart. coord. in units of alat)
               a(1) = (   1.000000   0.000000   0.000000 )  
               a(2) = (   0.000000   1.000000   0.000000 )  
               a(3) = (   0.000000   0.000000   1.000000 )  

     reciprocal axes: (cart. coord. in units 2 pi/alat)
               b(1) = (  1.000000  0.000000  0.000000 )  
               b(2) = (  0.000000  1.000000  0.000000 )  
               b(3) = (  0.000000  0.000000  1.000000 )  


     PseudoPot. # 1 for Sn read from file:
     /marconi_scratch/userexternal/cmalosso/degironcoli/pseudo/Sn.rel-pbesol-dn-kjpaw_psl.1.0.0.UPF
     MD5 check sum: e69eff64f15ae39ad43ef58bacbfdf88
     Pseudo is Projector augmented-wave + core cor, Zval = 14.0
     Generated using "atomic" code by A. Dal Corso v.6.3
     Shape of augmentation charge: PSQ
     Using radial grid of 1243 points, 10 beta functions with: 
                l(1) =   0
                l(2) =   0
                l(3) =   1
                l(4) =   1
                l(5) =   1
                l(6) =   1
                l(7) =   2
                l(8) =   2
                l(9) =   2
               l(10) =   2
     Q(r) pseudized with 0 coefficients 


     PseudoPot. # 2 for I  read from file:
     /marconi_scratch/userexternal/cmalosso/degironcoli/pseudo/I.rel-pbesol-n-kjpaw_psl.1.0.0.UPF
     MD5 check sum: 4478c427bd443f303eca1937a163b991
     Pseudo is Projector augmented-wave + core cor, Zval =  7.0
     Generated using "atomic" code by A. Dal Corso v.6.3
     Shape of augmentation charge: PSQ
     Using radial grid of 1247 points, 10 beta functions with: 
                l(1) =   0
                l(2) =   0
                l(3) =   1
                l(4) =   1
                l(5) =   1
                l(6) =   1
                l(7) =   2
                l(8) =   2
                l(9) =   2
               l(10) =   2
     Q(r) pseudized with 0 coefficients 


     atomic species   valence    mass     pseudopotential
        Sn            14.00   118.70000     Sn( 1.00)
        I              7.00   126.90000     I ( 1.00)

     16 Sym. Ops., with inversion, found ( 8 have fractional translation)


                                    s                        frac. trans.

      isym =  1     identity                                     

 cryst.   s( 1) = (     1          0          0      )
                  (     0          1          0      )
                  (     0          0          1      )

 cart.    s( 1) = (  1.0000000  0.0000000  0.0000000 )
                  (  0.0000000  1.0000000  0.0000000 )
                  (  0.0000000  0.0000000  1.0000000 )


      isym =  2     180 deg rotation - cart. axis [0,0,1]        

 cryst.   s( 2) = (    -1          0          0      )
                  (     0         -1          0      )
                  (     0          0          1      )

 cart.    s( 2) = ( -1.0000000  0.0000000  0.0000000 )
                  (  0.0000000 -1.0000000  0.0000000 )
                  (  0.0000000  0.0000000  1.0000000 )


      isym =  3     180 deg rotation - cart. axis [0,1,0]        

 cryst.   s( 3) = (    -1          0          0      )    f =(  0.5000000 )
                  (     0          1          0      )       ( -0.5000000 )
                  (     0          0         -1      )       (  0.5000000 )

 cart.    s( 3) = ( -1.0000000  0.0000000  0.0000000 )    f =(  0.5000000 )
                  (  0.0000000  1.0000000  0.0000000 )       ( -0.5000000 )
                  (  0.0000000  0.0000000 -1.0000000 )       (  0.5000000 )


      isym =  4     180 deg rotation - cart. axis [1,0,0]        

 cryst.   s( 4) = (     1          0          0      )    f =( -0.5000000 )
                  (     0         -1          0      )       (  0.5000000 )
                  (     0          0         -1      )       (  0.5000000 )

 cart.    s( 4) = (  1.0000000  0.0000000  0.0000000 )    f =( -0.5000000 )
                  (  0.0000000 -1.0000000  0.0000000 )       (  0.5000000 )
                  (  0.0000000  0.0000000 -1.0000000 )       (  0.5000000 )


      isym =  5     180 deg rotation - cart. axis [1,1,0]        

 cryst.   s( 5) = (     0          1          0      )
                  (     1          0          0      )
                  (     0          0         -1      )

 cart.    s( 5) = (  0.0000000  1.0000000  0.0000000 )
                  (  1.0000000  0.0000000  0.0000000 )
                  (  0.0000000  0.0000000 -1.0000000 )


      isym =  6     180 deg rotation - cart. axis [1,-1,0]       

 cryst.   s( 6) = (     0         -1          0      )
                  (    -1          0          0      )
                  (     0          0         -1      )

 cart.    s( 6) = (  0.0000000 -1.0000000  0.0000000 )
                  ( -1.0000000  0.0000000  0.0000000 )
                  (  0.0000000  0.0000000 -1.0000000 )


      isym =  7      90 deg rotation - cart. axis [0,0,-1]       

 cryst.   s( 7) = (     0         -1          0      )    f =( -0.5000000 )
                  (     1          0          0      )       (  0.5000000 )
                  (     0          0          1      )       ( -0.5000000 )

 cart.    s( 7) = (  0.0000000  1.0000000  0.0000000 )    f =( -0.5000000 )
                  ( -1.0000000  0.0000000  0.0000000 )       (  0.5000000 )
                  (  0.0000000  0.0000000  1.0000000 )       ( -0.5000000 )


      isym =  8      90 deg rotation - cart. axis [0,0,1]        

 cryst.   s( 8) = (     0          1          0      )    f =(  0.5000000 )
                  (    -1          0          0      )       ( -0.5000000 )
                  (     0          0          1      )       ( -0.5000000 )

 cart.    s( 8) = (  0.0000000 -1.0000000  0.0000000 )    f =(  0.5000000 )
                  (  1.0000000  0.0000000  0.0000000 )       ( -0.5000000 )
                  (  0.0000000  0.0000000  1.0000000 )       ( -0.5000000 )


      isym =  9     inversion                                    

 cryst.   s( 9) = (    -1          0          0      )
                  (     0         -1          0      )
                  (     0          0         -1      )

 cart.    s( 9) = ( -1.0000000  0.0000000  0.0000000 )
                  (  0.0000000 -1.0000000  0.0000000 )
                  (  0.0000000  0.0000000 -1.0000000 )


      isym = 10     inv. 180 deg rotation - cart. axis [0,0,1]   

 cryst.   s(10) = (     1          0          0      )
                  (     0          1          0      )
                  (     0          0         -1      )

 cart.    s(10) = (  1.0000000  0.0000000  0.0000000 )
                  (  0.0000000  1.0000000  0.0000000 )
                  (  0.0000000  0.0000000 -1.0000000 )


      isym = 11     inv. 180 deg rotation - cart. axis [0,1,0]   

 cryst.   s(11) = (     1          0          0      )    f =( -0.5000000 )
                  (     0         -1          0      )       (  0.5000000 )
                  (     0          0          1      )       ( -0.5000000 )

 cart.    s(11) = (  1.0000000  0.0000000  0.0000000 )    f =( -0.5000000 )
                  (  0.0000000 -1.0000000  0.0000000 )       (  0.5000000 )
                  (  0.0000000  0.0000000  1.0000000 )       ( -0.5000000 )


      isym = 12     inv. 180 deg rotation - cart. axis [1,0,0]   

 cryst.   s(12) = (    -1          0          0      )    f =(  0.5000000 )
                  (     0          1          0      )       ( -0.5000000 )
                  (     0          0          1      )       ( -0.5000000 )

 cart.    s(12) = ( -1.0000000  0.0000000  0.0000000 )    f =(  0.5000000 )
                  (  0.0000000  1.0000000  0.0000000 )       ( -0.5000000 )
                  (  0.0000000  0.0000000  1.0000000 )       ( -0.5000000 )


      isym = 13     inv. 180 deg rotation - cart. axis [1,1,0]   

 cryst.   s(13) = (     0         -1          0      )
                  (    -1          0          0      )
                  (     0          0          1      )

 cart.    s(13) = (  0.0000000 -1.0000000  0.0000000 )
                  ( -1.0000000  0.0000000  0.0000000 )
                  (  0.0000000  0.0000000  1.0000000 )


      isym = 14     inv. 180 deg rotation - cart. axis [1,-1,0]  

 cryst.   s(14) = (     0          1          0      )
                  (     1          0          0      )
                  (     0          0          1      )

 cart.    s(14) = (  0.0000000  1.0000000  0.0000000 )
                  (  1.0000000  0.0000000  0.0000000 )
                  (  0.0000000  0.0000000  1.0000000 )


      isym = 15     inv.  90 deg rotation - cart. axis [0,0,-1]  

 cryst.   s(15) = (     0          1          0      )    f =(  0.5000000 )
                  (    -1          0          0      )       ( -0.5000000 )
                  (     0          0         -1      )       (  0.5000000 )

 cart.    s(15) = (  0.0000000 -1.0000000  0.0000000 )    f =(  0.5000000 )
                  (  1.0000000  0.0000000  0.0000000 )       ( -0.5000000 )
                  (  0.0000000  0.0000000 -1.0000000 )       (  0.5000000 )


      isym = 16     inv.  90 deg rotation - cart. axis [0,0,1]   

 cryst.   s(16) = (     0         -1          0      )    f =( -0.5000000 )
                  (     1          0          0      )       (  0.5000000 )
                  (     0          0         -1      )       (  0.5000000 )

 cart.    s(16) = (  0.0000000  1.0000000  0.0000000 )    f =( -0.5000000 )
                  ( -1.0000000  0.0000000  0.0000000 )       (  0.5000000 )
                  (  0.0000000  0.0000000 -1.0000000 )       (  0.5000000 )


     double point group D_4h(4/mmm)
     there are 14 classes and  4 irreducible representations
     the character table:

       E     -E    2C4   -2C4   C2    2C2' 2C2'' i     -i    2S4   -2S4   s_h 
                               -C2   -2C2' -2C2'                         -s_h 
G_6+   2.00 -2.00  1.41 -1.41  0.00  0.00  0.00  2.00 -2.00  1.41 -1.41  0.00
G_7+   2.00 -2.00 -1.41  1.41  0.00  0.00  0.00  2.00 -2.00 -1.41  1.41  0.00
G_6-   2.00 -2.00  1.41 -1.41  0.00  0.00  0.00 -2.00  2.00 -1.41  1.41  0.00
G_7-   2.00 -2.00 -1.41  1.41  0.00  0.00  0.00 -2.00  2.00  1.41 -1.41  0.00

        2s_v  2s_d
       -2s_v -2s_d
G_6+   0.00  0.00
G_7+   0.00  0.00
G_6-   0.00  0.00
G_7-   0.00  0.00

     the symmetry operations in each class and the name of the first element:

     E             1
          identity                                               
     -E           -1
          identity E                                             
     2C4           7    8
           90 deg rotation - cart. axis [0,0,-1]                 
     -2C4         -7   -8
           90 deg rotation - cart. axis [0,0,-1] E               
      C2  -C2      2   -2
          180 deg rotation - cart. axis [0,0,1]                  
      2C2'-2C2'    3   -3    4   -4
          180 deg rotation - cart. axis [0,1,0]                  
     2C2''-2C2'    5   -5   -6    6
          180 deg rotation - cart. axis [1,1,0]                  
     i             9
          inversion                                              
     -i           -9
          inversion E                                            
     2S4          15   16
          inv.  90 deg rotation - cart. axis [0,0,-1]            
     -2S4        -15  -16
          inv.  90 deg rotation - cart. axis [0,0,-1] E          
      s_h -s_h    10  -10
          inv. 180 deg rotation - cart. axis [0,0,1]             
      2s_v-2s_v   11  -11   12  -12
          inv. 180 deg rotation - cart. axis [0,1,0]             
      2s_d-2s_d   13  -13  -14   14
          inv. 180 deg rotation - cart. axis [1,1,0]             

   Cartesian axes

     site n.     atom                  positions (alat units)
         1           Sn  tau(   1) = (   0.0000000   0.0000000   0.0000000  )
         2           Sn  tau(   2) = (   0.5000000   0.5000000   0.5000000  )
         3           I   tau(   3) = (   0.2985210   0.2985210   0.0000000  )
         4           I   tau(   4) = (   0.7014790   0.7014790   0.0000000  )
         5           I   tau(   5) = (   0.7985210   0.2014790   0.5000000  )
         6           I   tau(   6) = (   0.2014790   0.7985210   0.5000000  )

   Crystallographic axes

     site n.     atom                  positions (cryst. coord.)
         1           Sn  tau(   1) = (  0.0000000  0.0000000  0.0000000  )
         2           Sn  tau(   2) = (  0.5000000  0.5000000  0.5000000  )
         3           I   tau(   3) = (  0.2985210  0.2985210  0.0000000  )
         4           I   tau(   4) = (  0.7014790  0.7014790  0.0000000  )
         5           I   tau(   5) = (  0.7985210  0.2014790  0.5000000  )
         6           I   tau(   6) = (  0.2014790  0.7985210  0.5000000  )

     number of k points=    40
                       cart. coord. in units 2pi/alat
        k(    1) = (   0.0714286   0.0714286   0.0714286), wk =   0.0233236
        k(    2) = (   0.0714286   0.0714286   0.2142857), wk =   0.0233236
        k(    3) = (   0.0714286   0.0714286   0.3571429), wk =   0.0233236
        k(    4) = (   0.0714286   0.0714286  -0.5000000), wk =   0.0116618
        k(    5) = (   0.0714286   0.2142857   0.2142857), wk =   0.0466472
        k(    6) = (   0.0714286   0.2142857   0.3571429), wk =   0.0466472
        k(    7) = (   0.0714286   0.2142857  -0.5000000), wk =   0.0233236
        k(    8) = (   0.0714286   0.3571429   0.3571429), wk =   0.0466472
        k(    9) = (   0.0714286   0.3571429  -0.5000000), wk =   0.0233236
        k(   10) = (   0.0714286  -0.5000000  -0.5000000), wk =   0.0116618
        k(   11) = (   0.2142857   0.2142857   0.2142857), wk =   0.0233236
        k(   12) = (   0.2142857   0.2142857   0.3571429), wk =   0.0233236
        k(   13) = (   0.2142857   0.2142857  -0.5000000), wk =   0.0116618
        k(   14) = (   0.2142857   0.3571429   0.3571429), wk =   0.0466472
        k(   15) = (   0.2142857   0.3571429  -0.5000000), wk =   0.0233236
        k(   16) = (   0.2142857  -0.5000000  -0.5000000), wk =   0.0116618
        k(   17) = (   0.3571429   0.3571429   0.3571429), wk =   0.0233236
        k(   18) = (   0.3571429   0.3571429  -0.5000000), wk =   0.0116618
        k(   19) = (   0.3571429  -0.5000000  -0.5000000), wk =   0.0116618
        k(   20) = (  -0.5000000  -0.5000000  -0.5000000), wk =   0.0029155
        k(   21) = (   0.0714286   0.2142857   0.0714286), wk =   0.0466472
        k(   22) = (   0.0714286   0.3571429   0.0714286), wk =   0.0466472
        k(   23) = (   0.0714286  -0.5000000   0.0714286), wk =   0.0233236
        k(   24) = (   0.2142857   0.2142857   0.0714286), wk =   0.0233236
        k(   25) = (   0.2142857   0.3571429   0.0714286), wk =   0.0466472
        k(   26) = (   0.3571429   0.0714286   0.2142857), wk =   0.0466472
        k(   27) = (   0.2142857  -0.5000000   0.0714286), wk =   0.0233236
        k(   28) = (  -0.5000000   0.0714286   0.2142857), wk =   0.0233236
        k(   29) = (   0.3571429   0.3571429   0.0714286), wk =   0.0233236
        k(   30) = (   0.3571429  -0.5000000   0.0714286), wk =   0.0233236
        k(   31) = (  -0.5000000   0.0714286   0.3571429), wk =   0.0233236
        k(   32) = (  -0.5000000  -0.5000000   0.0714286), wk =   0.0058309
        k(   33) = (   0.2142857   0.3571429   0.2142857), wk =   0.0466472
        k(   34) = (   0.2142857  -0.5000000   0.2142857), wk =   0.0233236
        k(   35) = (   0.3571429   0.3571429   0.2142857), wk =   0.0233236
        k(   36) = (   0.3571429  -0.5000000   0.2142857), wk =   0.0233236
        k(   37) = (  -0.5000000   0.2142857   0.3571429), wk =   0.0233236
        k(   38) = (  -0.5000000  -0.5000000   0.2142857), wk =   0.0058309
        k(   39) = (   0.3571429  -0.5000000   0.3571429), wk =   0.0233236
        k(   40) = (  -0.5000000  -0.5000000   0.3571429), wk =   0.0058309

                       cryst. coord.
        k(    1) = (   0.0714286   0.0714286   0.0714286), wk =   0.0233236
        k(    2) = (   0.0714286   0.0714286   0.2142857), wk =   0.0233236
        k(    3) = (   0.0714286   0.0714286   0.3571429), wk =   0.0233236
        k(    4) = (   0.0714286   0.0714286  -0.5000000), wk =   0.0116618
        k(    5) = (   0.0714286   0.2142857   0.2142857), wk =   0.0466472
        k(    6) = (   0.0714286   0.2142857   0.3571429), wk =   0.0466472
        k(    7) = (   0.0714286   0.2142857  -0.5000000), wk =   0.0233236
        k(    8) = (   0.0714286   0.3571429   0.3571429), wk =   0.0466472
        k(    9) = (   0.0714286   0.3571429  -0.5000000), wk =   0.0233236
        k(   10) = (   0.0714286  -0.5000000  -0.5000000), wk =   0.0116618
        k(   11) = (   0.2142857   0.2142857   0.2142857), wk =   0.0233236
        k(   12) = (   0.2142857   0.2142857   0.3571429), wk =   0.0233236
        k(   13) = (   0.2142857   0.2142857  -0.5000000), wk =   0.0116618
        k(   14) = (   0.2142857   0.3571429   0.3571429), wk =   0.0466472
        k(   15) = (   0.2142857   0.3571429  -0.5000000), wk =   0.0233236
        k(   16) = (   0.2142857  -0.5000000  -0.5000000), wk =   0.0116618
        k(   17) = (   0.3571429   0.3571429   0.3571429), wk =   0.0233236
        k(   18) = (   0.3571429   0.3571429  -0.5000000), wk =   0.0116618
        k(   19) = (   0.3571429  -0.5000000  -0.5000000), wk =   0.0116618
        k(   20) = (  -0.5000000  -0.5000000  -0.5000000), wk =   0.0029155
        k(   21) = (   0.0714286   0.2142857   0.0714286), wk =   0.0466472
        k(   22) = (   0.0714286   0.3571429   0.0714286), wk =   0.0466472
        k(   23) = (   0.0714286  -0.5000000   0.0714286), wk =   0.0233236
        k(   24) = (   0.2142857   0.2142857   0.0714286), wk =   0.0233236
        k(   25) = (   0.2142857   0.3571429   0.0714286), wk =   0.0466472
        k(   26) = (   0.3571429   0.0714286   0.2142857), wk =   0.0466472
        k(   27) = (   0.2142857  -0.5000000   0.0714286), wk =   0.0233236
        k(   28) = (  -0.5000000   0.0714286   0.2142857), wk =   0.0233236
        k(   29) = (   0.3571429   0.3571429   0.0714286), wk =   0.0233236
        k(   30) = (   0.3571429  -0.5000000   0.0714286), wk =   0.0233236
        k(   31) = (  -0.5000000   0.0714286   0.3571429), wk =   0.0233236
        k(   32) = (  -0.5000000  -0.5000000   0.0714286), wk =   0.0058309
        k(   33) = (   0.2142857   0.3571429   0.2142857), wk =   0.0466472
        k(   34) = (   0.2142857  -0.5000000   0.2142857), wk =   0.0233236
        k(   35) = (   0.3571429   0.3571429   0.2142857), wk =   0.0233236
        k(   36) = (   0.3571429  -0.5000000   0.2142857), wk =   0.0233236
        k(   37) = (  -0.5000000   0.2142857   0.3571429), wk =   0.0233236
        k(   38) = (  -0.5000000  -0.5000000   0.2142857), wk =   0.0058309
        k(   39) = (   0.3571429  -0.5000000   0.3571429), wk =   0.0233236
        k(   40) = (  -0.5000000  -0.5000000   0.3571429), wk =   0.0058309

     Dense  grid:   635371 G-vectors     FFT dimensions: ( 108, 108, 108)

     Smooth grid:   346083 G-vectors     FFT dimensions: (  90,  90,  90)

     Dynamical RAM for                 wfc:       3.08 MB

     Dynamical RAM for     wfc (w. buffer):     126.19 MB

     Dynamical RAM for           str. fact:       0.81 MB

     Dynamical RAM for           local pot:       0.00 MB

     Dynamical RAM for          nlocal pot:       5.61 MB

     Dynamical RAM for                qrad:      22.39 MB

     Dynamical RAM for          rho,v,vnew:      10.19 MB

     Dynamical RAM for               rhoin:       3.40 MB

     Dynamical RAM for            rho*nmix:      25.85 MB

     Dynamical RAM for           G-vectors:       1.62 MB

     Dynamical RAM for          h,s,v(r/c):       0.25 MB

     Dynamical RAM for          <psi|beta>:       0.35 MB

     Dynamical RAM for                 psi:      12.31 MB

     Dynamical RAM for                hpsi:      12.31 MB

     Dynamical RAM for                spsi:      12.31 MB

     Dynamical RAM for      wfcinit/wfcrot:       5.71 MB

     Dynamical RAM for           addusdens:     248.04 MB

     Dynamical RAM for          addusforce:     253.17 MB

     Dynamical RAM for         addusstress:     253.70 MB

     Estimated static dynamical RAM per process >     200.84 MB

     Estimated max dynamical RAM per process >     454.53 MB

     Estimated total dynamical RAM >      10.65 GB

     Initial potential from superposition of free atoms

     starting charge   55.99771, renormalised to   56.00000
     Starting wfcs are   68 randomized atomic wfcs
     Checking if some PAW data can be deallocated... 
       PAW data deallocated on   16 nodes for type:  1
       PAW data deallocated on    8 nodes for type:  2

     total cpu time spent up to now is       71.9 secs

     Self-consistent Calculation

     iteration #  1     ecut=    90.00 Ry     beta= 0.35
     Davidson diagonalization with overlap
     ethr =  1.00E-02,  avg # of iterations =  1.0

     total cpu time spent up to now is      233.6 secs

     total energy              =   -2370.83360446 Ry
     Harris-Foulkes estimate   =   -2371.11848219 Ry
     estimated scf accuracy    <       0.58894072 Ry

     iteration #  2     ecut=    90.00 Ry     beta= 0.35
     Davidson diagonalization with overlap
     ethr =  1.05E-03,  avg # of iterations =  3.0

     total cpu time spent up to now is      451.2 secs

     total energy              =   -2370.93722322 Ry
     Harris-Foulkes estimate   =   -2370.94811885 Ry
     estimated scf accuracy    <       0.04039148 Ry

     iteration #  3     ecut=    90.00 Ry     beta= 0.35
     Davidson diagonalization with overlap
     ethr =  7.21E-05,  avg # of iterations =  3.4

     total cpu time spent up to now is      666.5 secs

     total energy              =   -2370.94078409 Ry
     Harris-Foulkes estimate   =   -2370.94311180 Ry
     estimated scf accuracy    <       0.00914908 Ry

     iteration #  4     ecut=    90.00 Ry     beta= 0.35
     Davidson diagonalization with overlap
     ethr =  1.63E-05,  avg # of iterations =  3.2

     total cpu time spent up to now is      901.9 secs

     total energy              =   -2370.94201192 Ry
     Harris-Foulkes estimate   =   -2370.94196712 Ry
     estimated scf accuracy    <       0.00056822 Ry

     iteration #  5     ecut=    90.00 Ry     beta= 0.35
     Davidson diagonalization with overlap
     ethr =  1.01E-06,  avg # of iterations =  4.8

     total cpu time spent up to now is     1215.1 secs

     total energy              =   -2370.94217490 Ry
     Harris-Foulkes estimate   =   -2370.94220496 Ry
     estimated scf accuracy    <       0.00007178 Ry

     iteration #  6     ecut=    90.00 Ry     beta= 0.35
     Davidson diagonalization with overlap
     ethr =  1.28E-07,  avg # of iterations =  3.2

     total cpu time spent up to now is     1478.7 secs

     total energy              =   -2370.94219470 Ry
     Harris-Foulkes estimate   =   -2370.94218761 Ry
     estimated scf accuracy    <       0.00000873 Ry

     iteration #  7     ecut=    90.00 Ry     beta= 0.35
     Davidson diagonalization with overlap
     ethr =  1.56E-08,  avg # of iterations =  4.5

     total cpu time spent up to now is     1793.8 secs

     total energy              =   -2370.94219665 Ry
     Harris-Foulkes estimate   =   -2370.94219709 Ry
     estimated scf accuracy    <       0.00000210 Ry

     iteration #  8     ecut=    90.00 Ry     beta= 0.35
     Davidson diagonalization with overlap
     ethr =  3.74E-09,  avg # of iterations =  3.4

     total cpu time spent up to now is     2065.7 secs

     End of self-consistent calculation

          k = 0.0714 0.0714 0.0714 ( 43270 PWs)   bands (ev):

   -23.2738 -23.2738 -23.2738 -23.2738 -23.1415 -23.1415 -23.1415 -23.1415
   -22.2541 -22.2541 -22.2541 -22.2541 -22.1389 -22.1389 -22.1389 -22.1389
   -22.0853 -22.0853 -22.0852 -22.0852 -11.6265 -11.6265 -11.5342 -11.5342
   -11.4835 -11.4835 -11.4803 -11.4803  -7.0781  -7.0781  -6.8732  -6.8732
    -2.6770  -2.6770  -2.5179  -2.5179  -2.1399  -2.1399  -2.0365  -2.0365
    -1.8919  -1.8919  -1.5287  -1.5287  -1.2308  -1.2308  -1.1281  -1.1281
    -1.1052  -1.1052  -1.0097  -1.0097  -0.9271  -0.9271  -0.8909  -0.8909

     occupation numbers 
     1.0000   1.0000   1.0000   1.0000   1.0000   1.0000   1.0000   1.0000
     1.0000   1.0000   1.0000   1.0000   1.0000   1.0000   1.0000   1.0000
     1.0000   1.0000   1.0000   1.0000   1.0000   1.0000   1.0000   1.0000
     1.0000   1.0000   1.0000   1.0000   1.0000   1.0000   1.0000   1.0000
     1.0000   1.0000   1.0000   1.0000   1.0000   1.0000   1.0000   1.0000
     1.0000   1.0000   1.0000   1.0000   1.0000   1.0000   1.0000   1.0000
     1.0000   1.0000   1.0000   1.0000   1.0000   1.0000   1.0000   1.0000

          k = 0.0714 0.0714 0.2143 ( 43194 PWs)   bands (ev):

   -23.2738 -23.2738 -23.2738 -23.2738 -23.1415 -23.1415 -23.1415 -23.1415
   -22.2541 -22.2541 -22.2541 -22.2541 -22.1389 -22.1389 -22.1389 -22.1389
   -22.0853 -22.0853 -22.0852 -22.0852 -11.6172 -11.6172 -11.5431 -11.5431
   -11.4834 -11.4834 -11.4801 -11.4801  -7.0630  -7.0630  -6.8990  -6.8990
    -2.6619  -2.6619  -2.5188  -2.5188  -2.1309  -2.1309  -2.0244  -2.0244
    -1.8701  -1.8701  -1.5446  -1.5446  -1.2316  -1.2316  -1.1598  -1.1598
    -1.1280  -1.1280  -1.0322  -1.0322  -0.9341  -0.9341  -0.9036  -0.9036

     occupation numbers 
     1.0000   1.0000   1.0000   1.0000   1.0000   1.0000   1.0000   1.0000
     1.0000   1.0000   1.0000   1.0000   1.0000   1.0000   1.0000   1.0000
     1.0000   1.0000   1.0000   1.0000   1.0000   1.0000   1.0000   1.0000
     1.0000   1.0000   1.0000   1.0000   1.0000   1.0000   1.0000   1.0000
     1.0000   1.0000   1.0000   1.0000   1.0000   1.0000   1.0000   1.0000
     1.0000   1.0000   1.0000   1.0000   1.0000   1.0000   1.0000   1.0000
     1.0000   1.0000   1.0000   1.0000   1.0000   1.0000   1.0000   1.0000

          k = 0.0714 0.0714 0.3571 ( 43235 PWs)   bands (ev):

   -23.2738 -23.2738 -23.2738 -23.2738 -23.1415 -23.1415 -23.1415 -23.1415
   -22.2541 -22.2541 -22.2541 -22.2541 -22.1389 -22.1389 -22.1389 -22.1389
   -22.0853 -22.0853 -22.0852 -22.0852 -11.6005 -11.6005 -11.5593 -11.5593
   -11.4833 -11.4833 -11.4800 -11.4800  -7.0331  -7.0331  -6.9422  -6.9422
    -2.6428  -2.6428  -2.5197  -2.5197  -2.1280  -2.1280  -2.0115  -2.0115
    -1.8131  -1.8131  -1.5914  -1.5914  -1.2244  -1.2244  -1.1953  -1.1953
    -1.1407  -1.1407  -1.0622  -1.0622  -0.9595  -0.9595  -0.9187  -0.9187

     occupation numbers 
     1.0000   1.0000   1.0000   1.0000   1.0000   1.0000   1.0000   1.0000
     1.0000   1.0000   1.0000   1.0000   1.0000   1.0000   1.0000   1.0000
     1.0000   1.0000   1.0000   1.0000   1.0000   1.0000   1.0000   1.0000
     1.0000   1.0000   1.0000   1.0000   1.0000   1.0000   1.0000   1.0000
     1.0000   1.0000   1.0000   1.0000   1.0000   1.0000   1.0000   1.0000
     1.0000   1.0000   1.0000   1.0000   1.0000   1.0000   1.0000   1.0000
     1.0000   1.0000   1.0000   1.0000   1.0000   1.0000   1.0000   1.0000

          k = 0.0714 0.0714-0.5000 ( 43248 PWs)   bands (ev):

   -23.2738 -23.2738 -23.2738 -23.2738 -23.1415 -23.1415 -23.1415 -23.1415
   -22.2541 -22.2541 -22.2541 -22.2541 -22.1389 -22.1389 -22.1389 -22.1389
   -22.0852 -22.0852 -22.0852 -22.0852 -11.5813 -11.5813 -11.5783 -11.5783
   -11.4833 -11.4833 -11.4799 -11.4799  -6.9928  -6.9928  -6.9884  -6.9884
    -2.6342  -2.6342  -2.5200  -2.5200  -2.1286  -2.1286  -2.0080  -2.0080
    -1.7612  -1.7612  -1.6370  -1.6370  -1.2238  -1.2238  -1.2005  -1.2005
    -1.1437  -1.1437  -1.0768  -1.0768  -0.9748  -0.9748  -0.9283  -0.9283

     occupation numbers 
     1.0000   1.0000   1.0000   1.0000   1.0000   1.0000   1.0000   1.0000
     1.0000   1.0000   1.0000   1.0000   1.0000   1.0000   1.0000   1.0000
     1.0000   1.0000   1.0000   1.0000   1.0000   1.0000   1.0000   1.0000
     1.0000   1.0000   1.0000   1.0000   1.0000   1.0000   1.0000   1.0000
     1.0000   1.0000   1.0000   1.0000   1.0000   1.0000   1.0000   1.0000
     1.0000   1.0000   1.0000   1.0000   1.0000   1.0000   1.0000   1.0000
     1.0000   1.0000   1.0000   1.0000   1.0000   1.0000   1.0000   1.0000

          k = 0.0714 0.2143 0.2143 ( 43206 PWs)   bands (ev):

   -23.2738 -23.2738 -23.2738 -23.2738 -23.1415 -23.1415 -23.1415 -23.1415
   -22.2541 -22.2541 -22.2541 -22.2541 -22.1389 -22.1389 -22.1389 -22.1389
   -22.0853 -22.0853 -22.0852 -22.0852 -11.6055 -11.6055 -11.5398 -11.5398
   -11.4949 -11.4949 -11.4845 -11.4845  -7.0438  -7.0438  -6.9117  -6.9117
    -2.7839  -2.7839  -2.6227  -2.6227  -2.1215  -2.1215  -1.9572  -1.9572
    -1.8257  -1.8257  -1.5657  -1.5657  -1.2384  -1.2384  -1.1743  -1.1743
    -1.0711  -1.0711  -0.9729  -0.9729  -0.9114  -0.9114  -0.7783  -0.7783

     occupation numbers 
     1.0000   1.0000   1.0000   1.0000   1.0000   1.0000   1.0000   1.0000
     1.0000   1.0000   1.0000   1.0000   1.0000   1.0000   1.0000   1.0000
     1.0000   1.0000   1.0000   1.0000   1.0000   1.0000   1.0000   1.0000
     1.0000   1.0000   1.0000   1.0000   1.0000   1.0000   1.0000   1.0000
     1.0000   1.0000   1.0000   1.0000   1.0000   1.0000   1.0000   1.0000
     1.0000   1.0000   1.0000   1.0000   1.0000   1.0000   1.0000   1.0000
     1.0000   1.0000   1.0000   1.0000   1.0000   1.0000   1.0000   1.0000

          k = 0.0714 0.2143 0.3571 ( 43219 PWs)   bands (ev):

   -23.2738 -23.2738 -23.2738 -23.2738 -23.1415 -23.1415 -23.1415 -23.1415
   -22.2541 -22.2541 -22.2541 -22.2541 -22.1389 -22.1389 -22.1389 -22.1389
   -22.0852 -22.0852 -22.0852 -22.0852 -11.5907 -11.5907 -11.5533 -11.5533
   -11.4946 -11.4946 -11.4851 -11.4851  -7.0210  -7.0210  -6.9474  -6.9474
    -2.7926  -2.7926  -2.6250  -2.6250  -2.0851  -2.0851  -1.9161  -1.9161
    -1.8307  -1.8307  -1.5849  -1.5849  -1.2487  -1.2487  -1.1780  -1.1780
    -1.0838  -1.0838  -0.9914  -0.9914  -0.9129  -0.9129  -0.7815  -0.7815

     occupation numbers 
     1.0000   1.0000   1.0000   1.0000   1.0000   1.0000   1.0000   1.0000
     1.0000   1.0000   1.0000   1.0000   1.0000   1.0000   1.0000   1.0000
     1.0000   1.0000   1.0000   1.0000   1.0000   1.0000   1.0000   1.0000
     1.0000   1.0000   1.0000   1.0000   1.0000   1.0000   1.0000   1.0000
     1.0000   1.0000   1.0000   1.0000   1.0000   1.0000   1.0000   1.0000
     1.0000   1.0000   1.0000   1.0000   1.0000   1.0000   1.0000   1.0000
     1.0000   1.0000   1.0000   1.0000   1.0000   1.0000   1.0000   1.0000

          k = 0.0714 0.2143-0.5000 ( 43256 PWs)   bands (ev):

   -23.2738 -23.2738 -23.2738 -23.2738 -23.1415 -23.1415 -23.1415 -23.1415
   -22.2541 -22.2541 -22.2541 -22.2541 -22.1389 -22.1389 -22.1389 -22.1389
   -22.0852 -22.0852 -22.0852 -22.0852 -11.5759 -11.5759 -11.5676 -11.5676
   -11.4944 -11.4944 -11.4854 -11.4854  -6.9920  -6.9920  -6.9822  -6.9822
    -2.7958  -2.7958  -2.6258  -2.6258  -2.0754  -2.0754  -1.8937  -1.8937
    -1.8305  -1.8305  -1.5910  -1.5910  -1.2528  -1.2528  -1.1789  -1.1789
    -1.0915  -1.0915  -1.0022  -1.0022  -0.9135  -0.9135  -0.7829  -0.7829

     occupation numbers 
     1.0000   1.0000   1.0000   1.0000   1.0000   1.0000   1.0000   1.0000
     1.0000   1.0000   1.0000   1.0000   1.0000   1.0000   1.0000   1.0000
     1.0000   1.0000   1.0000   1.0000   1.0000   1.0000   1.0000   1.0000
     1.0000   1.0000   1.0000   1.0000   1.0000   1.0000   1.0000   1.0000
     1.0000   1.0000   1.0000   1.0000   1.0000   1.0000   1.0000   1.0000
     1.0000   1.0000   1.0000   1.0000   1.0000   1.0000   1.0000   1.0000
     1.0000   1.0000   1.0000   1.0000   1.0000   1.0000   1.0000   1.0000

          k = 0.0714 0.3571 0.3571 ( 43248 PWs)   bands (ev):

   -23.2738 -23.2738 -23.2738 -23.2738 -23.1415 -23.1415 -23.1415 -23.1415
   -22.2541 -22.2541 -22.2541 -22.2541 -22.1389 -22.1389 -22.1389 -22.1389
   -22.0852 -22.0852 -22.0852 -22.0852 -11.5732 -11.5732 -11.5462 -11.5462
   -11.5086 -11.5086 -11.4964 -11.4964  -7.0007  -7.0007  -6.9591  -6.9591
    -2.8863  -2.8863  -2.7817  -2.7817  -2.0358  -2.0358  -1.9146  -1.9146
    -1.7931  -1.7931  -1.5866  -1.5866  -1.2556  -1.2556  -1.1941  -1.1941
    -0.9933  -0.9933  -0.9443  -0.9443  -0.7886  -0.7886  -0.6078  -0.6078

     occupation numbers 
     1.0000   1.0000   1.0000   1.0000   1.0000   1.0000   1.0000   1.0000
     1.0000   1.0000   1.0000   1.0000   1.0000   1.0000   1.0000   1.0000
     1.0000   1.0000   1.0000   1.0000   1.0000   1.0000   1.0000   1.0000
     1.0000   1.0000   1.0000   1.0000   1.0000   1.0000   1.0000   1.0000
     1.0000   1.0000   1.0000   1.0000   1.0000   1.0000   1.0000   1.0000
     1.0000   1.0000   1.0000   1.0000   1.0000   1.0000   1.0000   1.0000
     1.0000   1.0000   1.0000   1.0000   1.0000   1.0000   1.0000   1.0000

          k = 0.0714 0.3571-0.5000 ( 43224 PWs)   bands (ev):

   -23.2738 -23.2738 -23.2738 -23.2738 -23.1415 -23.1415 -23.1415 -23.1415
   -22.2541 -22.2541 -22.2541 -22.2541 -22.1389 -22.1389 -22.1389 -22.1389
   -22.0852 -22.0852 -22.0852 -22.0852 -11.5636 -11.5636 -11.5537 -11.5537
   -11.5086 -11.5086 -11.4980 -11.4980  -6.9873  -6.9873  -6.9780  -6.9780
    -2.8933  -2.8933  -2.7871  -2.7871  -2.0242  -2.0242  -1.8902  -1.8902
    -1.8070  -1.8070  -1.5838  -1.5838  -1.2482  -1.2482  -1.1837  -1.1837
    -0.9927  -0.9927  -0.9493  -0.9493  -0.7814  -0.7814  -0.6026  -0.6026

     occupation numbers 
     1.0000   1.0000   1.0000   1.0000   1.0000   1.0000   1.0000   1.0000
     1.0000   1.0000   1.0000   1.0000   1.0000   1.0000   1.0000   1.0000
     1.0000   1.0000   1.0000   1.0000   1.0000   1.0000   1.0000   1.0000
     1.0000   1.0000   1.0000   1.0000   1.0000   1.0000   1.0000   1.0000
     1.0000   1.0000   1.0000   1.0000   1.0000   1.0000   1.0000   1.0000
     1.0000   1.0000   1.0000   1.0000   1.0000   1.0000   1.0000   1.0000
     1.0000   1.0000   1.0000   1.0000   1.0000   1.0000   1.0000   1.0000

          k = 0.0714-0.5000-0.5000 ( 43240 PWs)   bands (ev):

   -23.2738 -23.2738 -23.2738 -23.2738 -23.1415 -23.1415 -23.1415 -23.1415
   -22.2541 -22.2541 -22.2541 -22.2541 -22.1389 -22.1389 -22.1389 -22.1389
   -22.0852 -22.0852 -22.0852 -22.0852 -11.5510 -11.5510 -11.5507 -11.5507
   -11.5113 -11.5113 -11.5112 -11.5112  -6.9840  -6.9840  -6.9773  -6.9773
    -2.9045  -2.9045  -2.8732  -2.8732  -2.0108  -2.0108  -1.9093  -1.9093
    -1.7793  -1.7793  -1.5901  -1.5901  -1.2339  -1.2339  -1.1968  -1.1968
    -0.9528  -0.9528  -0.9363  -0.9363  -0.6151  -0.6151  -0.5969  -0.5969

     occupation numbers 
     1.0000   1.0000   1.0000   1.0000   1.0000   1.0000   1.0000   1.0000
     1.0000   1.0000   1.0000   1.0000   1.0000   1.0000   1.0000   1.0000
     1.0000   1.0000   1.0000   1.0000   1.0000   1.0000   1.0000   1.0000
     1.0000   1.0000   1.0000   1.0000   1.0000   1.0000   1.0000   1.0000
     1.0000   1.0000   1.0000   1.0000   1.0000   1.0000   1.0000   1.0000
     1.0000   1.0000   1.0000   1.0000   1.0000   1.0000   1.0000   1.0000
     1.0000   1.0000   1.0000   1.0000   1.0000   1.0000   1.0000   1.0000

          k = 0.2143 0.2143 0.2143 ( 43240 PWs)   bands (ev):

   -23.2738 -23.2738 -23.2738 -23.2738 -23.1415 -23.1415 -23.1415 -23.1415
   -22.2541 -22.2541 -22.2541 -22.2541 -22.1389 -22.1389 -22.1389 -22.1389
   -22.0853 -22.0853 -22.0852 -22.0852 -11.5973 -11.5973 -11.5385 -11.5385
   -11.5047 -11.5047 -11.4840 -11.4840  -7.0325  -7.0325  -6.9253  -6.9253
    -2.8676  -2.8676  -2.5418  -2.5418  -2.1036  -2.1036  -1.9512  -1.9512
    -1.8639  -1.8639  -1.5885  -1.5885  -1.2708  -1.2708  -1.2115  -1.2115
    -1.1299  -1.1299  -0.9493  -0.9493  -0.8936  -0.8936  -0.6182  -0.6182

     occupation numbers 
     1.0000   1.0000   1.0000   1.0000   1.0000   1.0000   1.0000   1.0000
     1.0000   1.0000   1.0000   1.0000   1.0000   1.0000   1.0000   1.0000
     1.0000   1.0000   1.0000   1.0000   1.0000   1.0000   1.0000   1.0000
     1.0000   1.0000   1.0000   1.0000   1.0000   1.0000   1.0000   1.0000
     1.0000   1.0000   1.0000   1.0000   1.0000   1.0000   1.0000   1.0000
     1.0000   1.0000   1.0000   1.0000   1.0000   1.0000   1.0000   1.0000
     1.0000   1.0000   1.0000   1.0000   1.0000   1.0000   1.0000   1.0000

          k = 0.2143 0.2143 0.3571 ( 43243 PWs)   bands (ev):

   -23.2738 -23.2738 -23.2738 -23.2738 -23.1415 -23.1415 -23.1415 -23.1415
   -22.2541 -22.2541 -22.2541 -22.2541 -22.1389 -22.1389 -22.1389 -22.1389
   -22.0852 -22.0852 -22.0852 -22.0852 -11.5854 -11.5854 -11.5477 -11.5477
   -11.5065 -11.5065 -11.4838 -11.4838  -7.0162  -7.0162  -6.9545  -6.9545
    -2.8848  -2.8848  -2.5262  -2.5262  -2.1156  -2.1156  -1.8928  -1.8928
    -1.8703  -1.8703  -1.5902  -1.5902  -1.2890  -1.2890  -1.2010  -1.2010
    -1.1282  -1.1282  -0.9522  -0.9522  -0.8877  -0.8877  -0.6094  -0.6094

     occupation numbers 
     1.0000   1.0000   1.0000   1.0000   1.0000   1.0000   1.0000   1.0000
     1.0000   1.0000   1.0000   1.0000   1.0000   1.0000   1.0000   1.0000
     1.0000   1.0000   1.0000   1.0000   1.0000   1.0000   1.0000   1.0000
     1.0000   1.0000   1.0000   1.0000   1.0000   1.0000   1.0000   1.0000
     1.0000   1.0000   1.0000   1.0000   1.0000   1.0000   1.0000   1.0000
     1.0000   1.0000   1.0000   1.0000   1.0000   1.0000   1.0000   1.0000
     1.0000   1.0000   1.0000   1.0000   1.0000   1.0000   1.0000   1.0000

          k = 0.2143 0.2143-0.5000 ( 43214 PWs)   bands (ev):

   -23.2738 -23.2738 -23.2738 -23.2738 -23.1415 -23.1415 -23.1415 -23.1415
   -22.2541 -22.2541 -22.2541 -22.2541 -22.1389 -22.1389 -22.1389 -22.1389
   -22.0852 -22.0852 -22.0852 -22.0852 -11.5769 -11.5769 -11.5552 -11.5552
   -11.5071 -11.5071 -11.4838 -11.4838  -6.9984  -6.9984  -6.9781  -6.9781
    -2.8915  -2.8915  -2.5196  -2.5196  -2.1227  -2.1227  -1.8813  -1.8813
    -1.8621  -1.8621  -1.5806  -1.5806  -1.2995  -1.2995  -1.1960  -1.1960
    -1.1282  -1.1282  -0.9544  -0.9544  -0.8870  -0.8870  -0.6054  -0.6054

     occupation numbers 
     1.0000   1.0000   1.0000   1.0000   1.0000   1.0000   1.0000   1.0000
     1.0000   1.0000   1.0000   1.0000   1.0000   1.0000   1.0000   1.0000
     1.0000   1.0000   1.0000   1.0000   1.0000   1.0000   1.0000   1.0000
     1.0000   1.0000   1.0000   1.0000   1.0000   1.0000   1.0000   1.0000
     1.0000   1.0000   1.0000   1.0000   1.0000   1.0000   1.0000   1.0000
     1.0000   1.0000   1.0000   1.0000   1.0000   1.0000   1.0000   1.0000
     1.0000   1.0000   1.0000   1.0000   1.0000   1.0000   1.0000   1.0000

          k = 0.2143 0.3571 0.3571 ( 43257 PWs)   bands (ev):

   -23.2738 -23.2738 -23.2738 -23.2738 -23.1415 -23.1415 -23.1415 -23.1415
   -22.2541 -22.2541 -22.2541 -22.2541 -22.1389 -22.1389 -22.1389 -22.1389
   -22.0852 -22.0852 -22.0852 -22.0852 -11.5748 -11.5748 -11.5476 -11.5476
   -11.5108 -11.5108 -11.4899 -11.4899  -7.0050  -7.0050  -6.9688  -6.9688
    -2.8797  -2.8797  -2.6225  -2.6225  -2.0771  -2.0771  -1.9273  -1.9273
    -1.8293  -1.8293  -1.5950  -1.5950  -1.2970  -1.2970  -1.2282  -1.2282
    -1.0570  -1.0570  -0.9174  -0.9174  -0.8545  -0.8545  -0.6144  -0.6144

     occupation numbers 
     1.0000   1.0000   1.0000   1.0000   1.0000   1.0000   1.0000   1.0000
     1.0000   1.0000   1.0000   1.0000   1.0000   1.0000   1.0000   1.0000
     1.0000   1.0000   1.0000   1.0000   1.0000   1.0000   1.0000   1.0000
     1.0000   1.0000   1.0000   1.0000   1.0000   1.0000   1.0000   1.0000
     1.0000   1.0000   1.0000   1.0000   1.0000   1.0000   1.0000   1.0000
     1.0000   1.0000   1.0000   1.0000   1.0000   1.0000   1.0000   1.0000
     1.0000   1.0000   1.0000   1.0000   1.0000   1.0000   1.0000   1.0000

          k = 0.2143 0.3571-0.5000 ( 43246 PWs)   bands (ev):

   -23.2738 -23.2738 -23.2738 -23.2738 -23.1415 -23.1415 -23.1415 -23.1415
   -22.2541 -22.2541 -22.2541 -22.2541 -22.1389 -22.1389 -22.1389 -22.1389
   -22.0852 -22.0852 -22.0852 -22.0852 -11.5704 -11.5704 -11.5493 -11.5493
   -11.5126 -11.5126 -11.4902 -11.4902  -6.9981  -6.9981  -6.9815  -6.9815
    -2.8869  -2.8869  -2.6227  -2.6227  -2.0812  -2.0812  -1.9207  -1.9207
    -1.8298  -1.8298  -1.5781  -1.5781  -1.2903  -1.2903  -1.2121  -1.2121
    -1.0648  -1.0648  -0.9095  -0.9095  -0.8479  -0.8479  -0.6120  -0.6120

     occupation numbers 
     1.0000   1.0000   1.0000   1.0000   1.0000   1.0000   1.0000   1.0000
     1.0000   1.0000   1.0000   1.0000   1.0000   1.0000   1.0000   1.0000
     1.0000   1.0000   1.0000   1.0000   1.0000   1.0000   1.0000   1.0000
     1.0000   1.0000   1.0000   1.0000   1.0000   1.0000   1.0000   1.0000
     1.0000   1.0000   1.0000   1.0000   1.0000   1.0000   1.0000   1.0000
     1.0000   1.0000   1.0000   1.0000   1.0000   1.0000   1.0000   1.0000
     1.0000   1.0000   1.0000   1.0000   1.0000   1.0000   1.0000   1.0000

          k = 0.2143-0.5000-0.5000 ( 43204 PWs)   bands (ev):

   -23.2738 -23.2738 -23.2738 -23.2738 -23.1415 -23.1415 -23.1415 -23.1415
   -22.2541 -22.2541 -22.2541 -22.2541 -22.1389 -22.1389 -22.1389 -22.1389
   -22.0852 -22.0852 -22.0852 -22.0852 -11.5589 -11.5589 -11.5587 -11.5587
   -11.5024 -11.5024 -11.5024 -11.5024  -6.9932  -6.9932  -6.9878  -6.9878
    -2.7964  -2.7964  -2.7720  -2.7720  -2.0612  -2.0612  -1.9431  -1.9431
    -1.7953  -1.7953  -1.5828  -1.5828  -1.2646  -1.2646  -1.2264  -1.2264
    -0.9327  -0.9327  -0.9198  -0.9198  -0.7877  -0.7877  -0.7684  -0.7684

     occupation numbers 
     1.0000   1.0000   1.0000   1.0000   1.0000   1.0000   1.0000   1.0000
     1.0000   1.0000   1.0000   1.0000   1.0000   1.0000   1.0000   1.0000
     1.0000   1.0000   1.0000   1.0000   1.0000   1.0000   1.0000   1.0000
     1.0000   1.0000   1.0000   1.0000   1.0000   1.0000   1.0000   1.0000
     1.0000   1.0000   1.0000   1.0000   1.0000   1.0000   1.0000   1.0000
     1.0000   1.0000   1.0000   1.0000   1.0000   1.0000   1.0000   1.0000
     1.0000   1.0000   1.0000   1.0000   1.0000   1.0000   1.0000   1.0000

          k = 0.3571 0.3571 0.3571 ( 43240 PWs)   bands (ev):

   -23.2738 -23.2738 -23.2738 -23.2738 -23.1415 -23.1415 -23.1415 -23.1415
   -22.2541 -22.2541 -22.2541 -22.2541 -22.1389 -22.1389 -22.1389 -22.1389
   -22.0852 -22.0852 -22.0852 -22.0852 -11.5732 -11.5732 -11.5565 -11.5565
   -11.5031 -11.5031 -11.4887 -11.4887  -7.0066  -7.0066  -6.9846  -6.9846
    -2.7761  -2.7761  -2.5258  -2.5258  -2.1076  -2.1076  -1.9287  -1.9287
    -1.8897  -1.8897  -1.6239  -1.6239  -1.3377  -1.3377  -1.2688  -1.2688
    -1.0999  -1.0999  -0.9037  -0.9037  -0.8304  -0.8304  -0.7727  -0.7727

     occupation numbers 
     1.0000   1.0000   1.0000   1.0000   1.0000   1.0000   1.0000   1.0000
     1.0000   1.0000   1.0000   1.0000   1.0000   1.0000   1.0000   1.0000
     1.0000   1.0000   1.0000   1.0000   1.0000   1.0000   1.0000   1.0000
     1.0000   1.0000   1.0000   1.0000   1.0000   1.0000   1.0000   1.0000
     1.0000   1.0000   1.0000   1.0000   1.0000   1.0000   1.0000   1.0000
     1.0000   1.0000   1.0000   1.0000   1.0000   1.0000   1.0000   1.0000
     1.0000   1.0000   1.0000   1.0000   1.0000   1.0000   1.0000   1.0000

          k = 0.3571 0.3571-0.5000 ( 43234 PWs)   bands (ev):

   -23.2738 -23.2738 -23.2738 -23.2738 -23.1415 -23.1415 -23.1415 -23.1415
   -22.2541 -22.2541 -22.2541 -22.2541 -22.1389 -22.1389 -22.1389 -22.1389
   -22.0852 -22.0852 -22.0852 -22.0852 -11.5713 -11.5713 -11.5567 -11.5567
   -11.5043 -11.5043 -11.4886 -11.4886  -7.0052  -7.0052  -6.9921  -6.9921
    -2.7814  -2.7814  -2.5212  -2.5212  -2.1242  -2.1242  -1.9356  -1.9356
    -1.8870  -1.8870  -1.6007  -1.6007  -1.3276  -1.3276  -1.2410  -1.2410
    -1.1028  -1.1028  -0.8925  -0.8925  -0.8233  -0.8233  -0.7797  -0.7797

     occupation numbers 
     1.0000   1.0000   1.0000   1.0000   1.0000   1.0000   1.0000   1.0000
     1.0000   1.0000   1.0000   1.0000   1.0000   1.0000   1.0000   1.0000
     1.0000   1.0000   1.0000   1.0000   1.0000   1.0000   1.0000   1.0000
     1.0000   1.0000   1.0000   1.0000   1.0000   1.0000   1.0000   1.0000
     1.0000   1.0000   1.0000   1.0000   1.0000   1.0000   1.0000   1.0000
     1.0000   1.0000   1.0000   1.0000   1.0000   1.0000   1.0000   1.0000
     1.0000   1.0000   1.0000   1.0000   1.0000   1.0000   1.0000   1.0000

          k = 0.3571-0.5000-0.5000 ( 43204 PWs)   bands (ev):

   -23.2738 -23.2738 -23.2738 -23.2738 -23.1415 -23.1415 -23.1415 -23.1415
   -22.2541 -22.2541 -22.2541 -22.2541 -22.1389 -22.1389 -22.1389 -22.1389
   -22.0852 -22.0852 -22.0852 -22.0852 -11.5661 -11.5661 -11.5660 -11.5660
   -11.4940 -11.4940 -11.4940 -11.4940  -7.0041  -7.0041  -7.0012  -7.0012
    -2.6238  -2.6238  -2.6156  -2.6156  -2.1124  -2.1124  -1.9789  -1.9789
    -1.8499  -1.8499  -1.6387  -1.6387  -1.3129  -1.3129  -1.2637  -1.2637
    -1.0436  -1.0436  -1.0356  -1.0356  -0.8148  -0.8148  -0.7971  -0.7971

     occupation numbers 
     1.0000   1.0000   1.0000   1.0000   1.0000   1.0000   1.0000   1.0000
     1.0000   1.0000   1.0000   1.0000   1.0000   1.0000   1.0000   1.0000
     1.0000   1.0000   1.0000   1.0000   1.0000   1.0000   1.0000   1.0000
     1.0000   1.0000   1.0000   1.0000   1.0000   1.0000   1.0000   1.0000
     1.0000   1.0000   1.0000   1.0000   1.0000   1.0000   1.0000   1.0000
     1.0000   1.0000   1.0000   1.0000   1.0000   1.0000   1.0000   1.0000
     1.0000   1.0000   1.0000   1.0000   1.0000   1.0000   1.0000   1.0000

          k =-0.5000-0.5000-0.5000 ( 43160 PWs)   bands (ev):

   -23.2738 -23.2738 -23.2738 -23.2738 -23.1415 -23.1415 -23.1415 -23.1415
   -22.2541 -22.2541 -22.2541 -22.2541 -22.1389 -22.1389 -22.1389 -22.1389
   -22.0852 -22.0852 -22.0852 -22.0852 -11.5688 -11.5688 -11.5688 -11.5688
   -11.4907 -11.4907 -11.4907 -11.4907  -7.0080  -7.0080  -7.0080  -7.0080
    -2.5229  -2.5229  -2.5229  -2.5229  -2.0827  -2.0827  -2.0827  -2.0827
    -1.7875  -1.7875  -1.7875  -1.7875  -1.3098  -1.3098  -1.3098  -1.3098
    -1.0945  -1.0945  -1.0945  -1.0945  -0.7907  -0.7907  -0.7907  -0.7907

     occupation numbers 
     1.0000   1.0000   1.0000   1.0000   1.0000   1.0000   1.0000   1.0000
     1.0000   1.0000   1.0000   1.0000   1.0000   1.0000   1.0000   1.0000
     1.0000   1.0000   1.0000   1.0000   1.0000   1.0000   1.0000   1.0000
     1.0000   1.0000   1.0000   1.0000   1.0000   1.0000   1.0000   1.0000
     1.0000   1.0000   1.0000   1.0000   1.0000   1.0000   1.0000   1.0000
     1.0000   1.0000   1.0000   1.0000   1.0000   1.0000   1.0000   1.0000
     1.0000   1.0000   1.0000   1.0000   1.0000   1.0000   1.0000   1.0000

          k = 0.0714 0.2143 0.0714 ( 43194 PWs)   bands (ev):

   -23.2738 -23.2738 -23.2738 -23.2738 -23.1415 -23.1415 -23.1415 -23.1415
   -22.2541 -22.2541 -22.2541 -22.2541 -22.1389 -22.1389 -22.1389 -22.1389
   -22.0853 -22.0853 -22.0852 -22.0852 -11.6139 -11.6139 -11.5326 -11.5326
   -11.4948 -11.4948 -11.4841 -11.4841  -7.0550  -7.0550  -6.8902  -6.8902
    -2.7753  -2.7753  -2.6201  -2.6201  -2.1649  -2.1649  -1.9776  -1.9776
    -1.8213  -1.8213  -1.5464  -1.5464  -1.2333  -1.2333  -1.1707  -1.1707
    -1.0561  -1.0561  -0.9631  -0.9631  -0.9111  -0.9111  -0.7753  -0.7753

     occupation numbers 
     1.0000   1.0000   1.0000   1.0000   1.0000   1.0000   1.0000   1.0000
     1.0000   1.0000   1.0000   1.0000   1.0000   1.0000   1.0000   1.0000
     1.0000   1.0000   1.0000   1.0000   1.0000   1.0000   1.0000   1.0000
     1.0000   1.0000   1.0000   1.0000   1.0000   1.0000   1.0000   1.0000
     1.0000   1.0000   1.0000   1.0000   1.0000   1.0000   1.0000   1.0000
     1.0000   1.0000   1.0000   1.0000   1.0000   1.0000   1.0000   1.0000
     1.0000   1.0000   1.0000   1.0000   1.0000   1.0000   1.0000   1.0000

          k = 0.0714 0.3571 0.0714 ( 43235 PWs)   bands (ev):

   -23.2738 -23.2738 -23.2738 -23.2738 -23.1415 -23.1415 -23.1415 -23.1415
   -22.2541 -22.2541 -22.2541 -22.2541 -22.1389 -22.1389 -22.1389 -22.1389
   -22.0853 -22.0853 -22.0852 -22.0852 -11.5911 -11.5911 -11.5391 -11.5391
   -11.5045 -11.5045 -11.4916 -11.4916  -7.0146  -7.0146  -6.9228  -6.9228
    -2.8511  -2.8511  -2.7552  -2.7552  -2.1332  -2.1332  -1.9910  -1.9910
    -1.7338  -1.7338  -1.5853  -1.5853  -1.2623  -1.2623  -1.2246  -1.2246
    -1.0032  -1.0032  -0.9487  -0.9487  -0.7922  -0.7922  -0.6205  -0.6205

     occupation numbers 
     1.0000   1.0000   1.0000   1.0000   1.0000   1.0000   1.0000   1.0000
     1.0000   1.0000   1.0000   1.0000   1.0000   1.0000   1.0000   1.0000
     1.0000   1.0000   1.0000   1.0000   1.0000   1.0000   1.0000   1.0000
     1.0000   1.0000   1.0000   1.0000   1.0000   1.0000   1.0000   1.0000
     1.0000   1.0000   1.0000   1.0000   1.0000   1.0000   1.0000   1.0000
     1.0000   1.0000   1.0000   1.0000   1.0000   1.0000   1.0000   1.0000
     1.0000   1.0000   1.0000   1.0000   1.0000   1.0000   1.0000   1.0000

          k = 0.0714-0.5000 0.0714 ( 43248 PWs)   bands (ev):

   -23.2738 -23.2738 -23.2738 -23.2738 -23.1415 -23.1415 -23.1415 -23.1415
   -22.2541 -22.2541 -22.2541 -22.2541 -22.1389 -22.1389 -22.1389 -22.1389
   -22.0852 -22.0852 -22.0852 -22.0852 -11.5631 -11.5631 -11.5631 -11.5631
   -11.5003 -11.5003 -11.5003 -11.5003  -6.9678  -6.9678  -6.9663  -6.9663
    -2.8497  -2.8497  -2.8407  -2.8407  -2.0683  -2.0683  -2.0520  -2.0520
    -1.6770  -1.6770  -1.6276  -1.6276  -1.2624  -1.2624  -1.2588  -1.2588
    -0.9953  -0.9953  -0.9573  -0.9573  -0.6272  -0.6272  -0.6237  -0.6237

     occupation numbers 
     1.0000   1.0000   1.0000   1.0000   1.0000   1.0000   1.0000   1.0000
     1.0000   1.0000   1.0000   1.0000   1.0000   1.0000   1.0000   1.0000
     1.0000   1.0000   1.0000   1.0000   1.0000   1.0000   1.0000   1.0000
     1.0000   1.0000   1.0000   1.0000   1.0000   1.0000   1.0000   1.0000
     1.0000   1.0000   1.0000   1.0000   1.0000   1.0000   1.0000   1.0000
     1.0000   1.0000   1.0000   1.0000   1.0000   1.0000   1.0000   1.0000
     1.0000   1.0000   1.0000   1.0000   1.0000   1.0000   1.0000   1.0000

          k = 0.2143 0.2143 0.0714 ( 43206 PWs)   bands (ev):

   -23.2738 -23.2738 -23.2738 -23.2738 -23.1415 -23.1415 -23.1415 -23.1415
   -22.2541 -22.2541 -22.2541 -22.2541 -22.1389 -22.1389 -22.1389 -22.1389
   -22.0853 -22.0853 -22.0852 -22.0852 -11.6044 -11.6044 -11.5339 -11.5339
   -11.5029 -11.5029 -11.4842 -11.4842  -7.0402  -7.0402  -6.9071  -6.9071
    -2.8510  -2.8510  -2.5556  -2.5556  -2.1044  -2.1044  -1.9923  -1.9923
    -1.8620  -1.8620  -1.5693  -1.5693  -1.2675  -1.2675  -1.2207  -1.2207
    -1.1219  -1.1219  -0.9462  -0.9462  -0.9051  -0.9051  -0.6250  -0.6250

     occupation numbers 
     1.0000   1.0000   1.0000   1.0000   1.0000   1.0000   1.0000   1.0000
     1.0000   1.0000   1.0000   1.0000   1.0000   1.0000   1.0000   1.0000
     1.0000   1.0000   1.0000   1.0000   1.0000   1.0000   1.0000   1.0000
     1.0000   1.0000   1.0000   1.0000   1.0000   1.0000   1.0000   1.0000
     1.0000   1.0000   1.0000   1.0000   1.0000   1.0000   1.0000   1.0000
     1.0000   1.0000   1.0000   1.0000   1.0000   1.0000   1.0000   1.0000
     1.0000   1.0000   1.0000   1.0000   1.0000   1.0000   1.0000   1.0000

          k = 0.2143 0.3571 0.0714 ( 43219 PWs)   bands (ev):

   -23.2738 -23.2738 -23.2738 -23.2738 -23.1415 -23.1415 -23.1415 -23.1415
   -22.2541 -22.2541 -22.2541 -22.2541 -22.1389 -22.1389 -22.1389 -22.1389
   -22.0853 -22.0853 -22.0852 -22.0852 -11.5872 -11.5872 -11.5454 -11.5454
   -11.5038 -11.5038 -11.4890 -11.4890  -7.0124  -7.0124  -6.9379  -6.9379
    -2.8443  -2.8443  -2.6216  -2.6216  -2.0906  -2.0906  -1.9941  -1.9941
    -1.7961  -1.7961  -1.6089  -1.6089  -1.3231  -1.3231  -1.2816  -1.2816
    -1.0549  -1.0549  -0.9324  -0.9324  -0.8822  -0.8822  -0.6217  -0.6217

     occupation numbers 
     1.0000   1.0000   1.0000   1.0000   1.0000   1.0000   1.0000   1.0000
     1.0000   1.0000   1.0000   1.0000   1.0000   1.0000   1.0000   1.0000
     1.0000   1.0000   1.0000   1.0000   1.0000   1.0000   1.0000   1.0000
     1.0000   1.0000   1.0000   1.0000   1.0000   1.0000   1.0000   1.0000
     1.0000   1.0000   1.0000   1.0000   1.0000   1.0000   1.0000   1.0000
     1.0000   1.0000   1.0000   1.0000   1.0000   1.0000   1.0000   1.0000
     1.0000   1.0000   1.0000   1.0000   1.0000   1.0000   1.0000   1.0000

          k = 0.3571 0.0714 0.2143 ( 43219 PWs)   bands (ev):

   -23.2738 -23.2738 -23.2738 -23.2738 -23.1415 -23.1415 -23.1415 -23.1415
   -22.2541 -22.2541 -22.2541 -22.2541 -22.1389 -22.1389 -22.1389 -22.1389
   -22.0852 -22.0852 -22.0852 -22.0852 -11.5845 -11.5845 -11.5406 -11.5406
   -11.5069 -11.5069 -11.4935 -11.4935  -7.0106  -7.0106  -6.9369  -6.9369
    -2.8682  -2.8682  -2.7679  -2.7679  -2.0803  -2.0803  -1.9611  -1.9611
    -1.7607  -1.7607  -1.5887  -1.5887  -1.2613  -1.2613  -1.2114  -1.2114
    -1.0101  -1.0101  -0.9330  -0.9330  -0.7954  -0.7954  -0.6162  -0.6162

     occupation numbers 
     1.0000   1.0000   1.0000   1.0000   1.0000   1.0000   1.0000   1.0000
     1.0000   1.0000   1.0000   1.0000   1.0000   1.0000   1.0000   1.0000
     1.0000   1.0000   1.0000   1.0000   1.0000   1.0000   1.0000   1.0000
     1.0000   1.0000   1.0000   1.0000   1.0000   1.0000   1.0000   1.0000
     1.0000   1.0000   1.0000   1.0000   1.0000   1.0000   1.0000   1.0000
     1.0000   1.0000   1.0000   1.0000   1.0000   1.0000   1.0000   1.0000
     1.0000   1.0000   1.0000   1.0000   1.0000   1.0000   1.0000   1.0000

          k = 0.2143-0.5000 0.0714 ( 43256 PWs)   bands (ev):

   -23.2738 -23.2738 -23.2738 -23.2738 -23.1415 -23.1415 -23.1415 -23.1415
   -22.2541 -22.2541 -22.2541 -22.2541 -22.1389 -22.1389 -22.1389 -22.1389
   -22.0852 -22.0852 -22.0852 -22.0852 -11.5659 -11.5659 -11.5658 -11.5658
   -11.4969 -11.4969 -11.4968 -11.4968  -6.9764  -6.9764  -6.9752  -6.9752
    -2.7563  -2.7563  -2.7488  -2.7488  -2.0575  -2.0575  -2.0370  -2.0370
    -1.7054  -1.7054  -1.6576  -1.6576  -1.3294  -1.3294  -1.3263  -1.3263
    -0.9742  -0.9742  -0.9459  -0.9459  -0.7688  -0.7688  -0.7676  -0.7676

     occupation numbers 
     1.0000   1.0000   1.0000   1.0000   1.0000   1.0000   1.0000   1.0000
     1.0000   1.0000   1.0000   1.0000   1.0000   1.0000   1.0000   1.0000
     1.0000   1.0000   1.0000   1.0000   1.0000   1.0000   1.0000   1.0000
     1.0000   1.0000   1.0000   1.0000   1.0000   1.0000   1.0000   1.0000
     1.0000   1.0000   1.0000   1.0000   1.0000   1.0000   1.0000   1.0000
     1.0000   1.0000   1.0000   1.0000   1.0000   1.0000   1.0000   1.0000
     1.0000   1.0000   1.0000   1.0000   1.0000   1.0000   1.0000   1.0000

          k =-0.5000 0.0714 0.2143 ( 43256 PWs)   bands (ev):

   -23.2738 -23.2738 -23.2738 -23.2738 -23.1415 -23.1415 -23.1415 -23.1415
   -22.2541 -22.2541 -22.2541 -22.2541 -22.1389 -22.1389 -22.1389 -22.1389
   -22.0852 -22.0852 -22.0852 -22.0852 -11.5594 -11.5594 -11.5592 -11.5592
   -11.5037 -11.5037 -11.5037 -11.5037  -6.9740  -6.9740  -6.9698  -6.9698
    -2.8741  -2.8741  -2.8512  -2.8512  -2.0443  -2.0443  -1.9883  -1.9883
    -1.7356  -1.7356  -1.5996  -1.5996  -1.2497  -1.2497  -1.2483  -1.2483
    -1.0049  -1.0049  -0.9304  -0.9304  -0.6266  -0.6266  -0.6174  -0.6174

     occupation numbers 
     1.0000   1.0000   1.0000   1.0000   1.0000   1.0000   1.0000   1.0000
     1.0000   1.0000   1.0000   1.0000   1.0000   1.0000   1.0000   1.0000
     1.0000   1.0000   1.0000   1.0000   1.0000   1.0000   1.0000   1.0000
     1.0000   1.0000   1.0000   1.0000   1.0000   1.0000   1.0000   1.0000
     1.0000   1.0000   1.0000   1.0000   1.0000   1.0000   1.0000   1.0000
     1.0000   1.0000   1.0000   1.0000   1.0000   1.0000   1.0000   1.0000
     1.0000   1.0000   1.0000   1.0000   1.0000   1.0000   1.0000   1.0000

          k = 0.3571 0.3571 0.0714 ( 43248 PWs)   bands (ev):

   -23.2738 -23.2738 -23.2738 -23.2738 -23.1415 -23.1415 -23.1415 -23.1415
   -22.2541 -22.2541 -22.2541 -22.2541 -22.1389 -22.1389 -22.1389 -22.1389
   -22.0852 -22.0852 -22.0852 -22.0852 -11.5796 -11.5796 -11.5565 -11.5565
   -11.4989 -11.4989 -11.4890 -11.4890  -7.0041  -7.0041  -6.9621  -6.9621
    -2.7501  -2.7501  -2.5458  -2.5458  -2.0452  -2.0452  -1.9643  -1.9643
    -1.8680  -1.8680  -1.6566  -1.6566  -1.3803  -1.3803  -1.3557  -1.3557
    -1.1235  -1.1235  -0.9373  -0.9373  -0.8650  -0.8650  -0.7540  -0.7540

     occupation numbers 
     1.0000   1.0000   1.0000   1.0000   1.0000   1.0000   1.0000   1.0000
     1.0000   1.0000   1.0000   1.0000   1.0000   1.0000   1.0000   1.0000
     1.0000   1.0000   1.0000   1.0000   1.0000   1.0000   1.0000   1.0000
     1.0000   1.0000   1.0000   1.0000   1.0000   1.0000   1.0000   1.0000
     1.0000   1.0000   1.0000   1.0000   1.0000   1.0000   1.0000   1.0000
     1.0000   1.0000   1.0000   1.0000   1.0000   1.0000   1.0000   1.0000
     1.0000   1.0000   1.0000   1.0000   1.0000   1.0000   1.0000   1.0000

          k = 0.3571-0.5000 0.0714 ( 43224 PWs)   bands (ev):

   -23.2738 -23.2738 -23.2738 -23.2738 -23.1415 -23.1415 -23.1415 -23.1415
   -22.2541 -22.2541 -22.2541 -22.2541 -22.1389 -22.1389 -22.1389 -22.1389
   -22.0852 -22.0852 -22.0852 -22.0852 -11.5689 -11.5689 -11.5689 -11.5689
   -11.4929 -11.4929 -11.4929 -11.4929  -6.9870  -6.9870  -6.9863  -6.9863
    -2.6168  -2.6168  -2.6129  -2.6129  -2.0268  -2.0268  -1.9999  -1.9999
    -1.7735  -1.7735  -1.7317  -1.7317  -1.4055  -1.4055  -1.3975  -1.3975
    -1.0625  -1.0625  -1.0426  -1.0426  -0.8330  -0.8330  -0.8299  -0.8299

     occupation numbers 
     1.0000   1.0000   1.0000   1.0000   1.0000   1.0000   1.0000   1.0000
     1.0000   1.0000   1.0000   1.0000   1.0000   1.0000   1.0000   1.0000
     1.0000   1.0000   1.0000   1.0000   1.0000   1.0000   1.0000   1.0000
     1.0000   1.0000   1.0000   1.0000   1.0000   1.0000   1.0000   1.0000
     1.0000   1.0000   1.0000   1.0000   1.0000   1.0000   1.0000   1.0000
     1.0000   1.0000   1.0000   1.0000   1.0000   1.0000   1.0000   1.0000
     1.0000   1.0000   1.0000   1.0000   1.0000   1.0000   1.0000   1.0000

          k =-0.5000 0.0714 0.3571 ( 43224 PWs)   bands (ev):

   -23.2738 -23.2738 -23.2738 -23.2738 -23.1415 -23.1415 -23.1415 -23.1415
   -22.2541 -22.2541 -22.2541 -22.2541 -22.1389 -22.1389 -22.1389 -22.1389
   -22.0852 -22.0852 -22.0852 -22.0852 -11.5539 -11.5539 -11.5536 -11.5536
   -11.5086 -11.5086 -11.5086 -11.5086  -6.9810  -6.9810  -6.9749  -6.9749
    -2.8962  -2.8962  -2.8666  -2.8666  -2.0192  -2.0192  -1.9269  -1.9269
    -1.7735  -1.7735  -1.5905  -1.5905  -1.2396  -1.2396  -1.2169  -1.2169
    -0.9751  -0.9751  -0.9297  -0.9297  -0.6200  -0.6200  -0.6057  -0.6057

     occupation numbers 
     1.0000   1.0000   1.0000   1.0000   1.0000   1.0000   1.0000   1.0000
     1.0000   1.0000   1.0000   1.0000   1.0000   1.0000   1.0000   1.0000
     1.0000   1.0000   1.0000   1.0000   1.0000   1.0000   1.0000   1.0000
     1.0000   1.0000   1.0000   1.0000   1.0000   1.0000   1.0000   1.0000
     1.0000   1.0000   1.0000   1.0000   1.0000   1.0000   1.0000   1.0000
     1.0000   1.0000   1.0000   1.0000   1.0000   1.0000   1.0000   1.0000
     1.0000   1.0000   1.0000   1.0000   1.0000   1.0000   1.0000   1.0000

          k =-0.5000-0.5000 0.0714 ( 43240 PWs)   bands (ev):

   -23.2738 -23.2738 -23.2738 -23.2738 -23.1415 -23.1415 -23.1415 -23.1415
   -22.2541 -22.2541 -22.2541 -22.2541 -22.1389 -22.1389 -22.1389 -22.1389
   -22.0852 -22.0852 -22.0852 -22.0852 -11.5702 -11.5702 -11.5702 -11.5702
   -11.4912 -11.4912 -11.4912 -11.4912  -6.9914  -6.9914  -6.9914  -6.9914
    -2.5415  -2.5415  -2.5415  -2.5415  -1.9669  -1.9669  -1.9669  -1.9669
    -1.8317  -1.8317  -1.8317  -1.8317  -1.4277  -1.4277  -1.4277  -1.4277
    -1.1231  -1.1231  -1.1231  -1.1231  -0.8282  -0.8282  -0.8282  -0.8282

     occupation numbers 
     1.0000   1.0000   1.0000   1.0000   1.0000   1.0000   1.0000   1.0000
     1.0000   1.0000   1.0000   1.0000   1.0000   1.0000   1.0000   1.0000
     1.0000   1.0000   1.0000   1.0000   1.0000   1.0000   1.0000   1.0000
     1.0000   1.0000   1.0000   1.0000   1.0000   1.0000   1.0000   1.0000
     1.0000   1.0000   1.0000   1.0000   1.0000   1.0000   1.0000   1.0000
     1.0000   1.0000   1.0000   1.0000   1.0000   1.0000   1.0000   1.0000
     1.0000   1.0000   1.0000   1.0000   1.0000   1.0000   1.0000   1.0000

          k = 0.2143 0.3571 0.2143 ( 43243 PWs)   bands (ev):

   -23.2738 -23.2738 -23.2738 -23.2738 -23.1415 -23.1415 -23.1415 -23.1415
   -22.2541 -22.2541 -22.2541 -22.2541 -22.1389 -22.1389 -22.1389 -22.1389
   -22.0852 -22.0852 -22.0852 -22.0852 -11.5823 -11.5823 -11.5458 -11.5458
   -11.5068 -11.5068 -11.4894 -11.4894  -7.0106  -7.0106  -6.9501  -6.9501
    -2.8615  -2.8615  -2.6219  -2.6219  -2.0763  -2.0763  -1.9621  -1.9621
    -1.8131  -1.8131  -1.6151  -1.6151  -1.3090  -1.3090  -1.2594  -1.2594
    -1.0547  -1.0547  -0.9272  -0.9272  -0.8690  -0.8690  -0.6187  -0.6187

     occupation numbers 
     1.0000   1.0000   1.0000   1.0000   1.0000   1.0000   1.0000   1.0000
     1.0000   1.0000   1.0000   1.0000   1.0000   1.0000   1.0000   1.0000
     1.0000   1.0000   1.0000   1.0000   1.0000   1.0000   1.0000   1.0000
     1.0000   1.0000   1.0000   1.0000   1.0000   1.0000   1.0000   1.0000
     1.0000   1.0000   1.0000   1.0000   1.0000   1.0000   1.0000   1.0000
     1.0000   1.0000   1.0000   1.0000   1.0000   1.0000   1.0000   1.0000
     1.0000   1.0000   1.0000   1.0000   1.0000   1.0000   1.0000   1.0000

          k = 0.2143-0.5000 0.2143 ( 43214 PWs)   bands (ev):

   -23.2738 -23.2738 -23.2738 -23.2738 -23.1415 -23.1415 -23.1415 -23.1415
   -22.2541 -22.2541 -22.2541 -22.2541 -22.1389 -22.1389 -22.1389 -22.1389
   -22.0852 -22.0852 -22.0852 -22.0852 -11.5635 -11.5635 -11.5634 -11.5634
   -11.4987 -11.4987 -11.4987 -11.4987  -6.9828  -6.9828  -6.9794  -6.9794
    -2.7745  -2.7745  -2.7560  -2.7560  -2.0554  -2.0554  -1.9854  -1.9854
    -1.7652  -1.7652  -1.6251  -1.6251  -1.3024  -1.3024  -1.3007  -1.3007
    -0.9753  -0.9753  -0.9183  -0.9183  -0.7750  -0.7750  -0.7694  -0.7694

     occupation numbers 
     1.0000   1.0000   1.0000   1.0000   1.0000   1.0000   1.0000   1.0000
     1.0000   1.0000   1.0000   1.0000   1.0000   1.0000   1.0000   1.0000
     1.0000   1.0000   1.0000   1.0000   1.0000   1.0000   1.0000   1.0000
     1.0000   1.0000   1.0000   1.0000   1.0000   1.0000   1.0000   1.0000
     1.0000   1.0000   1.0000   1.0000   1.0000   1.0000   1.0000   1.0000
     1.0000   1.0000   1.0000   1.0000   1.0000   1.0000   1.0000   1.0000
     1.0000   1.0000   1.0000   1.0000   1.0000   1.0000   1.0000   1.0000

          k = 0.3571 0.3571 0.2143 ( 43257 PWs)   bands (ev):

   -23.2738 -23.2738 -23.2738 -23.2738 -23.1415 -23.1415 -23.1415 -23.1415
   -22.2541 -22.2541 -22.2541 -22.2541 -22.1389 -22.1389 -22.1389 -22.1389
   -22.0852 -22.0852 -22.0852 -22.0852 -11.5769 -11.5769 -11.5564 -11.5564
   -11.5007 -11.5007 -11.4889 -11.4889  -7.0059  -7.0059  -6.9714  -6.9714
    -2.7628  -2.7628  -2.5365  -2.5365  -2.0701  -2.0701  -1.9444  -1.9444
    -1.8743  -1.8743  -1.6590  -1.6590  -1.3590  -1.3590  -1.3203  -1.3203
    -1.1088  -1.1088  -0.9226  -0.9226  -0.8493  -0.8493  -0.7609  -0.7609

     occupation numbers 
     1.0000   1.0000   1.0000   1.0000   1.0000   1.0000   1.0000   1.0000
     1.0000   1.0000   1.0000   1.0000   1.0000   1.0000   1.0000   1.0000
     1.0000   1.0000   1.0000   1.0000   1.0000   1.0000   1.0000   1.0000
     1.0000   1.0000   1.0000   1.0000   1.0000   1.0000   1.0000   1.0000
     1.0000   1.0000   1.0000   1.0000   1.0000   1.0000   1.0000   1.0000
     1.0000   1.0000   1.0000   1.0000   1.0000   1.0000   1.0000   1.0000
     1.0000   1.0000   1.0000   1.0000   1.0000   1.0000   1.0000   1.0000

          k = 0.3571-0.5000 0.2143 ( 43246 PWs)   bands (ev):

   -23.2738 -23.2738 -23.2738 -23.2738 -23.1415 -23.1415 -23.1415 -23.1415
   -22.2541 -22.2541 -22.2541 -22.2541 -22.1389 -22.1389 -22.1389 -22.1389
   -22.0852 -22.0852 -22.0852 -22.0852 -11.5679 -11.5679 -11.5679 -11.5679
   -11.4933 -11.4933 -11.4932 -11.4932  -6.9933  -6.9933  -6.9914  -6.9914
    -2.6213  -2.6213  -2.6125  -2.6125  -2.0602  -2.0602  -1.9735  -1.9735
    -1.8268  -1.8268  -1.6938  -1.6938  -1.3678  -1.3678  -1.3662  -1.3662
    -1.0564  -1.0564  -1.0196  -1.0196  -0.8305  -0.8305  -0.8195  -0.8195

     occupation numbers 
     1.0000   1.0000   1.0000   1.0000   1.0000   1.0000   1.0000   1.0000
     1.0000   1.0000   1.0000   1.0000   1.0000   1.0000   1.0000   1.0000
     1.0000   1.0000   1.0000   1.0000   1.0000   1.0000   1.0000   1.0000
     1.0000   1.0000   1.0000   1.0000   1.0000   1.0000   1.0000   1.0000
     1.0000   1.0000   1.0000   1.0000   1.0000   1.0000   1.0000   1.0000
     1.0000   1.0000   1.0000   1.0000   1.0000   1.0000   1.0000   1.0000
     1.0000   1.0000   1.0000   1.0000   1.0000   1.0000   1.0000   1.0000

          k =-0.5000 0.2143 0.3571 ( 43246 PWs)   bands (ev):

   -23.2738 -23.2738 -23.2738 -23.2738 -23.1415 -23.1415 -23.1415 -23.1415
   -22.2541 -22.2541 -22.2541 -22.2541 -22.1389 -22.1389 -22.1389 -22.1389
   -22.0852 -22.0852 -22.0852 -22.0852 -11.5604 -11.5604 -11.5602 -11.5602
   -11.5012 -11.5012 -11.5012 -11.5012  -6.9900  -6.9900  -6.9852  -6.9852
    -2.7905  -2.7905  -2.7672  -2.7672  -2.0576  -2.0576  -1.9474  -1.9474
    -1.7960  -1.7960  -1.5957  -1.5957  -1.2766  -1.2766  -1.2534  -1.2534
    -0.9500  -0.9500  -0.9139  -0.9139  -0.7834  -0.7834  -0.7695  -0.7695

     occupation numbers 
     1.0000   1.0000   1.0000   1.0000   1.0000   1.0000   1.0000   1.0000
     1.0000   1.0000   1.0000   1.0000   1.0000   1.0000   1.0000   1.0000
     1.0000   1.0000   1.0000   1.0000   1.0000   1.0000   1.0000   1.0000
     1.0000   1.0000   1.0000   1.0000   1.0000   1.0000   1.0000   1.0000
     1.0000   1.0000   1.0000   1.0000   1.0000   1.0000   1.0000   1.0000
     1.0000   1.0000   1.0000   1.0000   1.0000   1.0000   1.0000   1.0000
     1.0000   1.0000   1.0000   1.0000   1.0000   1.0000   1.0000   1.0000

          k =-0.5000-0.5000 0.2143 ( 43204 PWs)   bands (ev):

   -23.2738 -23.2738 -23.2738 -23.2738 -23.1415 -23.1415 -23.1415 -23.1415
   -22.2541 -22.2541 -22.2541 -22.2541 -22.1389 -22.1389 -22.1389 -22.1389
   -22.0852 -22.0852 -22.0852 -22.0852 -11.5697 -11.5697 -11.5697 -11.5697
   -11.4910 -11.4910 -11.4910 -11.4910  -6.9974  -6.9974  -6.9974  -6.9974
    -2.5344  -2.5344  -2.5344  -2.5344  -2.0146  -2.0146  -2.0146  -2.0146
    -1.8100  -1.8100  -1.8100  -1.8100  -1.3976  -1.3976  -1.3976  -1.3976
    -1.0989  -1.0989  -1.0989  -1.0989  -0.8176  -0.8176  -0.8176  -0.8176

     occupation numbers 
     1.0000   1.0000   1.0000   1.0000   1.0000   1.0000   1.0000   1.0000
     1.0000   1.0000   1.0000   1.0000   1.0000   1.0000   1.0000   1.0000
     1.0000   1.0000   1.0000   1.0000   1.0000   1.0000   1.0000   1.0000
     1.0000   1.0000   1.0000   1.0000   1.0000   1.0000   1.0000   1.0000
     1.0000   1.0000   1.0000   1.0000   1.0000   1.0000   1.0000   1.0000
     1.0000   1.0000   1.0000   1.0000   1.0000   1.0000   1.0000   1.0000
     1.0000   1.0000   1.0000   1.0000   1.0000   1.0000   1.0000   1.0000

          k = 0.3571-0.5000 0.3571 ( 43234 PWs)   bands (ev):

   -23.2738 -23.2738 -23.2738 -23.2738 -23.1415 -23.1415 -23.1415 -23.1415
   -22.2541 -22.2541 -22.2541 -22.2541 -22.1389 -22.1389 -22.1389 -22.1389
   -22.0852 -22.0852 -22.0852 -22.0852 -11.5667 -11.5667 -11.5666 -11.5666
   -11.4938 -11.4938 -11.4937 -11.4937  -7.0008  -7.0008  -6.9981  -6.9981
    -2.6234  -2.6234  -2.6144  -2.6144  -2.0965  -2.0965  -1.9704  -1.9704
    -1.8511  -1.8511  -1.6550  -1.6550  -1.3313  -1.3313  -1.3019  -1.3019
    -1.0452  -1.0452  -1.0232  -1.0232  -0.8214  -0.8214  -0.8044  -0.8044

     occupation numbers 
     1.0000   1.0000   1.0000   1.0000   1.0000   1.0000   1.0000   1.0000
     1.0000   1.0000   1.0000   1.0000   1.0000   1.0000   1.0000   1.0000
     1.0000   1.0000   1.0000   1.0000   1.0000   1.0000   1.0000   1.0000
     1.0000   1.0000   1.0000   1.0000   1.0000   1.0000   1.0000   1.0000
     1.0000   1.0000   1.0000   1.0000   1.0000   1.0000   1.0000   1.0000
     1.0000   1.0000   1.0000   1.0000   1.0000   1.0000   1.0000   1.0000
     1.0000   1.0000   1.0000   1.0000   1.0000   1.0000   1.0000   1.0000

          k =-0.5000-0.5000 0.3571 ( 43204 PWs)   bands (ev):

   -23.2738 -23.2738 -23.2738 -23.2738 -23.1415 -23.1415 -23.1415 -23.1415
   -22.2541 -22.2541 -22.2541 -22.2541 -22.1389 -22.1389 -22.1389 -22.1389
   -22.0852 -22.0852 -22.0852 -22.0852 -11.5691 -11.5691 -11.5691 -11.5691
   -11.4908 -11.4908 -11.4908 -11.4908  -7.0047  -7.0047  -7.0047  -7.0047
    -2.5263  -2.5263  -2.5263  -2.5263  -2.0633  -2.0633  -2.0633  -2.0633
    -1.7932  -1.7932  -1.7932  -1.7932  -1.3423  -1.3423  -1.3423  -1.3423
    -1.0896  -1.0896  -1.0896  -1.0896  -0.8000  -0.8000  -0.8000  -0.8000

     occupation numbers 
     1.0000   1.0000   1.0000   1.0000   1.0000   1.0000   1.0000   1.0000
     1.0000   1.0000   1.0000   1.0000   1.0000   1.0000   1.0000   1.0000
     1.0000   1.0000   1.0000   1.0000   1.0000   1.0000   1.0000   1.0000
     1.0000   1.0000   1.0000   1.0000   1.0000   1.0000   1.0000   1.0000
     1.0000   1.0000   1.0000   1.0000   1.0000   1.0000   1.0000   1.0000
     1.0000   1.0000   1.0000   1.0000   1.0000   1.0000   1.0000   1.0000
     1.0000   1.0000   1.0000   1.0000   1.0000   1.0000   1.0000   1.0000

     highest occupied level (ev):    -0.5969

     WARNING: integrated charge=    56.00447696, expected=    56.00000000

!    total energy              =   -2370.94219679 Ry
     Harris-Foulkes estimate   =   -2370.94219692 Ry
     estimated scf accuracy    <       0.00000040 Ry

     total all-electron energy =    -81634.464403 Ry

     The total energy is the sum of the following terms:

     one-electron contribution =    -248.68588725 Ry
     hartree contribution      =     145.43968193 Ry
     xc contribution           =    -157.09272700 Ry
     ewald contribution        =    -190.25175950 Ry
     one-center paw contrib.   =   -1920.35150497 Ry
      -> PAW hartree energy AE =     107.24868183 Ry
      -> PAW hartree energy PS =    -106.46413824 Ry
      -> PAW xc energy AE      =    -324.23421365 Ry
      -> PAW xc energy PS      =      46.59447942 Ry
      -> total E_H with PAW    =     146.22422551 Ry
      -> total E_XC with PAW   =    -434.73246123 Ry

     convergence has been achieved in   8 iterations

     Forces acting on atoms (cartesian axes, Ry/au):

     atom    1 type  1   force =     0.00000000    0.00000000    0.00000000
     atom    2 type  1   force =     0.00000000    0.00000000   -0.00000000
     atom    3 type  2   force =    -0.01793917   -0.01793917    0.00000000
     atom    4 type  2   force =     0.01793917    0.01793917    0.00000000
     atom    5 type  2   force =    -0.01793917    0.01793917    0.00000000
     atom    6 type  2   force =     0.01793917   -0.01793917    0.00000000
     The non-local contrib.  to forces
     atom    1 type  1   force =     0.00000000    0.00000000   -0.00000000
     atom    2 type  1   force =     0.00000000    0.00000000    0.00000000
     atom    3 type  2   force =    -0.04121088   -0.04121088    0.00000000
     atom    4 type  2   force =     0.04121088    0.04121088    0.00000000
     atom    5 type  2   force =    -0.04121088    0.04121088    0.00000000
     atom    6 type  2   force =     0.04121088   -0.04121088    0.00000000
     The ionic contribution  to forces
     atom    1 type  1   force =    -0.00000000   -0.00000000   -0.00000000
     atom    2 type  1   force =     0.00000000    0.00000000    0.00000000
     atom    3 type  2   force =     1.38633657    1.38633657    0.00000000
     atom    4 type  2   force =    -1.38633657   -1.38633657   -0.00000000
     atom    5 type  2   force =     1.38633657   -1.38633657    0.00000000
     atom    6 type  2   force =    -1.38633657    1.38633657    0.00000000
     The local contribution  to forces
     atom    1 type  1   force =     0.00000000    0.00000000    0.00000000
     atom    2 type  1   force =     0.00000000    0.00000000    0.00000000
     atom    3 type  2   force =    -1.36685243   -1.36685243    0.00000000
     atom    4 type  2   force =     1.36685243    1.36685243    0.00000000
     atom    5 type  2   force =    -1.36685243    1.36685243    0.00000000
     atom    6 type  2   force =     1.36685243   -1.36685243    0.00000000
     The core correction contribution to forces
     atom    1 type  1   force =     0.00000000    0.00000000    0.00000000
     atom    2 type  1   force =     0.00000000    0.00000000    0.00000000
     atom    3 type  2   force =     0.00389933    0.00389933    0.00000000
     atom    4 type  2   force =    -0.00389933   -0.00389933    0.00000000
     atom    5 type  2   force =     0.00389933   -0.00389933    0.00000000
     atom    6 type  2   force =    -0.00389933    0.00389933   -0.00000000
     The Hubbard contrib.    to forces
     atom    1 type  1   force =     0.00000000    0.00000000    0.00000000
     atom    2 type  1   force =     0.00000000    0.00000000    0.00000000
     atom    3 type  2   force =     0.00000000    0.00000000    0.00000000
     atom    4 type  2   force =     0.00000000    0.00000000    0.00000000
     atom    5 type  2   force =     0.00000000    0.00000000    0.00000000
     atom    6 type  2   force =     0.00000000    0.00000000    0.00000000
     The SCF correction term to forces
     atom    1 type  1   force =     0.00000000    0.00000000   -0.00000000
     atom    2 type  1   force =    -0.00000000   -0.00000000   -0.00000000
     atom    3 type  2   force =    -0.00011176   -0.00011176    0.00000000
     atom    4 type  2   force =     0.00011176    0.00011176    0.00000000
     atom    5 type  2   force =    -0.00011176    0.00011176    0.00000000
     atom    6 type  2   force =     0.00011176   -0.00011176    0.00000000

     Total force =     0.050740     Total SCF correction =     0.000316


     Computing stress (Cartesian axis) and pressure

     Message from routine stres:
     noncollinear stress + GGA not implemented

     Writing output data file CsIsalt.save/
 
     init_run     :     47.52s CPU     67.06s WALL (       1 calls)
     electrons    :   1438.14s CPU   1993.93s WALL (       1 calls)
     forces       :      9.28s CPU     12.16s WALL (       1 calls)

     Called by init_run:
     wfcinit      :     44.47s CPU     62.76s WALL (       1 calls)
     wfcinit:atom :      0.12s CPU      0.14s WALL (      40 calls)
     wfcinit:wfcr :     43.46s CPU     61.30s WALL (      40 calls)
     potinit      :      1.01s CPU      1.53s WALL (       1 calls)
     hinit0       :      0.79s CPU      1.03s WALL (       1 calls)

     Called by electrons:
     c_bands      :   1139.23s CPU   1556.53s WALL (       8 calls)
     sum_band     :    284.41s CPU    417.21s WALL (       8 calls)
     v_of_rho     :      1.15s CPU      1.80s WALL (       9 calls)
     v_h          :      0.03s CPU      0.05s WALL (       9 calls)
     v_xc         :      1.34s CPU      2.06s WALL (      10 calls)
     newd         :      8.84s CPU     11.72s WALL (       9 calls)
     PAW_pot      :      2.11s CPU      2.88s WALL (       9 calls)
     mix_rho      :      2.01s CPU      3.14s WALL (       8 calls)

     Called by c_bands:
     init_us_2    :      2.93s CPU      4.05s WALL (     720 calls)
     cegterg      :   1097.44s CPU   1510.03s WALL (     320 calls)

     Called by sum_band:
     sum_band:bec :      4.19s CPU      5.63s WALL (     320 calls)
     addusdens    :      7.17s CPU      8.89s WALL (       8 calls)

     Called by *egterg:
     h_psi        :    830.15s CPU   1161.97s WALL (    1424 calls)
     s_psi        :     10.84s CPU     12.24s WALL (    1424 calls)
     g_psi        :      1.07s CPU      1.10s WALL (    1064 calls)
     cdiaghg      :     72.59s CPU    103.51s WALL (    1384 calls)
     cegterg:over :     88.79s CPU    114.37s WALL (    1064 calls)
     cegterg:upda :     71.58s CPU     91.60s WALL (    1064 calls)
     cegterg:last :     13.70s CPU     17.18s WALL (     320 calls)
     cdiaghg:chol :      4.05s CPU      5.73s WALL (    1384 calls)
     cdiaghg:inve :      2.43s CPU      3.61s WALL (    1384 calls)
     cdiaghg:para :     25.86s CPU     36.60s WALL (    2768 calls)

     Called by h_psi:
     h_psi:pot    :    828.09s CPU   1159.66s WALL (    1424 calls)
     h_psi:calbec :     15.22s CPU     17.61s WALL (    1424 calls)
     vloc_psi     :    801.24s CPU   1128.88s WALL (    1424 calls)
     add_vuspsi   :     11.62s CPU     13.16s WALL (    1424 calls)

     General routines
     calbec       :     24.77s CPU     29.42s WALL (    1904 calls)
     fft          :      4.36s CPU      6.76s WALL (     198 calls)
     ffts         :      1.40s CPU      2.10s WALL (      68 calls)
     fftw         :   1026.69s CPU   1478.06s WALL (  235980 calls)
     interpolate  :      1.33s CPU      1.95s WALL (      36 calls)
 
     Parallel routines
     fft_scatt_xy :     24.77s CPU     28.68s WALL (  236246 calls)
     fft_scatt_yz :    896.79s CPU   1316.77s WALL (  236246 calls)

     PAW routines
     PAW_pot      :      2.11s CPU      2.88s WALL (       9 calls)
     PAW_symme    :      0.19s CPU      0.25s WALL (      17 calls)
 
     PWSCF        :  25m 6.63s CPU  34m49.94s WALL

 
   This run was terminated on:  18:21: 4  24Jan2021            

=------------------------------------------------------------------------------=
   JOB DONE.
=------------------------------------------------------------------------------=
