
     Program PWSCF v.6.6 starts on 24Jan2021 at 21:50:42 

     This program is part of the open-source Quantum ESPRESSO suite
     for quantum simulation of materials; please cite
         "P. Giannozzi et al., J. Phys.:Condens. Matter 21 395502 (2009);
         "P. Giannozzi et al., J. Phys.:Condens. Matter 29 465901 (2017);
          URL http://www.quantum-espresso.org", 
     in publications or presentations arising from this work. More details at
     http://www.quantum-espresso.org/quote

     Parallel version (MPI), running on    64 processors

     MPI processes distributed on     2 nodes
     R & G space division:  proc/nbgrp/npool/nimage =      64
     Fft bands division:     nmany     =       1
     Waiting for input...
     Reading input from standard input

     Current dimensions of program PWSCF are:
     Max number of different atomic species (ntypx) = 10
     Max number of k-points (npk) =  40000
     Max angular momentum in pseudopotentials (lmaxx) =  3
     file Cs.pbesol-spn-rrkjus_psl.1.0.0.UPF: wavefunction(s)  5S 6S renormalized
     file Sn.pbesol-dn-kjpaw_psl.1.0.0.UPF: wavefunction(s)  5S 5P 4D renormalized
     file I.pbesol-n-kjpaw_psl.1.0.0.UPF: wavefunction(s)  5S renormalized

     Subspace diagonalization in iterative solution of the eigenvalue problem:
     a serial algorithm will be used

 
     Parallelization info
     --------------------
     sticks:   dense  smooth     PW     G-vecs:    dense   smooth      PW
     Min         110      73     20                17670     9609    1362
     Max         111      74     21                17687     9628    1372
     Sum        7083    4717   1291              1131365   615567   87455
 

     Title: 
     CsSnI3                                                                     


     bravais-lattice index     =            8
     lattice parameter (alat)  =       9.1317  a.u.
     unit-cell volume          =    6370.5385 (a.u.)^3
     number of atoms/cell      =           20
     number of atomic types    =            3
     number of electrons       =       176.00
     number of Kohn-Sham states=           88
     kinetic-energy cutoff     =      80.0000  Ry
     charge density cutoff     =     480.0000  Ry
     convergence threshold     =      1.0E-06
     mixing beta               =       0.5000
     number of iterations used =            8  plain     mixing
     Exchange-correlation= SLA PW PSX PSC
                           (   1   4  10   8   0   0   0)

     celldm(1)=   9.131705  celldm(2)=   2.227728  celldm(3)=   3.755420
     celldm(4)=   0.000000  celldm(5)=   0.000000  celldm(6)=   0.000000

     crystal axes: (cart. coord. in units of alat)
               a(1) = (   1.000000   0.000000   0.000000 )  
               a(2) = (   0.000000   2.227728   0.000000 )  
               a(3) = (   0.000000   0.000000   3.755420 )  

     reciprocal axes: (cart. coord. in units 2 pi/alat)
               b(1) = (  1.000000  0.000000  0.000000 )  
               b(2) = (  0.000000  0.448888  0.000000 )  
               b(3) = (  0.000000  0.000000  0.266282 )  


     PseudoPot. # 1 for Cs read from file:
     /scratch/gtenti/degironcoli/pseudo/Cs.pbesol-spn-rrkjus_psl.1.0.0.UPF
     MD5 check sum: a505fbb08e6a224ea4404a33e275d1b5
     Pseudo is Ultrasoft + core correction, Zval =  9.0
     Generated using "atomic" code by A. Dal Corso v.6.4.1
     Using radial grid of 1251 points,  9 beta functions with: 
                l(1) =   0
                l(2) =   0
                l(3) =   0
                l(4) =   1
                l(5) =   1
                l(6) =   2
                l(7) =   2
                l(8) =   3
                l(9) =   3
     Q(r) pseudized with 0 coefficients 


     PseudoPot. # 2 for Sn read from file:
     /scratch/gtenti/degironcoli/pseudo/Sn.pbesol-dn-kjpaw_psl.1.0.0.UPF
     MD5 check sum: 3b64f90c238cf26ccb627d174952382c
     Pseudo is Projector augmented-wave + core cor, Zval = 14.0
     Generated using "atomic" code by A. Dal Corso v.6.3
     Shape of augmentation charge: PSQ
     Using radial grid of 1243 points,  6 beta functions with: 
                l(1) =   0
                l(2) =   0
                l(3) =   1
                l(4) =   1
                l(5) =   2
                l(6) =   2
     Q(r) pseudized with 0 coefficients 


     PseudoPot. # 3 for I  read from file:
     /scratch/gtenti/degironcoli/pseudo/I.pbesol-n-kjpaw_psl.1.0.0.UPF
     MD5 check sum: 6038403ff9b03366b27f71806436e734
     Pseudo is Projector augmented-wave + core cor, Zval =  7.0
     Generated using "atomic" code by A. Dal Corso v.6.3
     Shape of augmentation charge: PSQ
     Using radial grid of 1247 points,  6 beta functions with: 
                l(1) =   0
                l(2) =   0
                l(3) =   1
                l(4) =   1
                l(5) =   2
                l(6) =   2
     Q(r) pseudized with 0 coefficients 


     atomic species   valence    mass     pseudopotential
        Cs             9.00   132.90000     Cs( 1.00)
        Sn            14.00   118.70000     Sn( 1.00)
        I              7.00   126.90000     I ( 1.00)

      8 Sym. Ops., with inversion, found ( 6 have fractional translation)


                                    s                        frac. trans.

      isym =  1     identity                                     

 cryst.   s( 1) = (     1          0          0      )
                  (     0          1          0      )
                  (     0          0          1      )

 cart.    s( 1) = (  1.0000000  0.0000000  0.0000000 )
                  (  0.0000000  1.0000000  0.0000000 )
                  (  0.0000000  0.0000000  1.0000000 )


      isym =  2     180 deg rotation - cart. axis [0,0,1]        

 cryst.   s( 2) = (    -1          0          0      )    f =(  0.0000000 )
                  (     0         -1          0      )       (  0.5000000 )
                  (     0          0          1      )       (  0.5000000 )

 cart.    s( 2) = ( -1.0000000  0.0000000  0.0000000 )    f =(  0.0000000 )
                  (  0.0000000 -1.0000000  0.0000000 )       (  1.1138638 )
                  (  0.0000000  0.0000000  1.0000000 )       (  1.8777098 )


      isym =  3     180 deg rotation - cart. axis [0,1,0]        

 cryst.   s( 3) = (    -1          0          0      )    f =(  0.5000000 )
                  (     0          1          0      )       ( -0.5000000 )
                  (     0          0         -1      )       ( -0.5000000 )

 cart.    s( 3) = ( -1.0000000  0.0000000  0.0000000 )    f =(  0.5000000 )
                  (  0.0000000  1.0000000  0.0000000 )       ( -1.1138638 )
                  (  0.0000000  0.0000000 -1.0000000 )       ( -1.8777098 )


      isym =  4     180 deg rotation - cart. axis [1,0,0]        

 cryst.   s( 4) = (     1          0          0      )    f =( -0.5000000 )
                  (     0         -1          0      )       (  0.0000000 )
                  (     0          0         -1      )       (  0.0000000 )

 cart.    s( 4) = (  1.0000000  0.0000000  0.0000000 )    f =( -0.5000000 )
                  (  0.0000000 -1.0000000  0.0000000 )       (  0.0000000 )
                  (  0.0000000  0.0000000 -1.0000000 )       (  0.0000000 )


      isym =  5     inversion                                    

 cryst.   s( 5) = (    -1          0          0      )
                  (     0         -1          0      )
                  (     0          0         -1      )

 cart.    s( 5) = ( -1.0000000  0.0000000  0.0000000 )
                  (  0.0000000 -1.0000000  0.0000000 )
                  (  0.0000000  0.0000000 -1.0000000 )


      isym =  6     inv. 180 deg rotation - cart. axis [0,0,1]   

 cryst.   s( 6) = (     1          0          0      )    f =(  0.0000000 )
                  (     0          1          0      )       ( -0.5000000 )
                  (     0          0         -1      )       ( -0.5000000 )

 cart.    s( 6) = (  1.0000000  0.0000000  0.0000000 )    f =(  0.0000000 )
                  (  0.0000000  1.0000000  0.0000000 )       ( -1.1138638 )
                  (  0.0000000  0.0000000 -1.0000000 )       ( -1.8777098 )


      isym =  7     inv. 180 deg rotation - cart. axis [0,1,0]   

 cryst.   s( 7) = (     1          0          0      )    f =( -0.5000000 )
                  (     0         -1          0      )       (  0.5000000 )
                  (     0          0          1      )       (  0.5000000 )

 cart.    s( 7) = (  1.0000000  0.0000000  0.0000000 )    f =( -0.5000000 )
                  (  0.0000000 -1.0000000  0.0000000 )       (  1.1138638 )
                  (  0.0000000  0.0000000  1.0000000 )       (  1.8777098 )


      isym =  8     inv. 180 deg rotation - cart. axis [1,0,0]   

 cryst.   s( 8) = (    -1          0          0      )    f =(  0.5000000 )
                  (     0          1          0      )       (  0.0000000 )
                  (     0          0          1      )       (  0.0000000 )

 cart.    s( 8) = ( -1.0000000  0.0000000  0.0000000 )    f =(  0.5000000 )
                  (  0.0000000  1.0000000  0.0000000 )       (  0.0000000 )
                  (  0.0000000  0.0000000  1.0000000 )       (  0.0000000 )


     point group D_2h (mmm) 
     there are  8 classes
     the character table:

       E     C2    C2'   C2''  i     s_v   s_v'  s_v''
A_g    1.00  1.00  1.00  1.00  1.00  1.00  1.00  1.00
B_1g   1.00  1.00 -1.00 -1.00  1.00  1.00 -1.00 -1.00
B_2g   1.00 -1.00  1.00 -1.00  1.00 -1.00  1.00 -1.00
B_3g   1.00 -1.00 -1.00  1.00  1.00 -1.00 -1.00  1.00
A_u    1.00  1.00  1.00  1.00 -1.00 -1.00 -1.00 -1.00
B_1u   1.00  1.00 -1.00 -1.00 -1.00 -1.00  1.00  1.00
B_2u   1.00 -1.00  1.00 -1.00 -1.00  1.00 -1.00  1.00
B_3u   1.00 -1.00 -1.00  1.00 -1.00  1.00  1.00 -1.00

     the symmetry operations in each class and the name of the first element:

     E        1
          identity                                               
     C2       2
          180 deg rotation - cart. axis [0,0,1]                  
     C2'      4
          180 deg rotation - cart. axis [1,0,0]                  
     C2''     3
          180 deg rotation - cart. axis [0,1,0]                  
     i        5
          inversion                                              
     s_v      6
          inv. 180 deg rotation - cart. axis [0,0,1]             
     s_v'     8
          inv. 180 deg rotation - cart. axis [1,0,0]             
     s_v''    7
          inv. 180 deg rotation - cart. axis [0,1,0]             

   Cartesian axes

     site n.     atom                  positions (alat units)
         1           Cs  tau(   1) = (   0.2500000   0.1859640   2.5168147  )
         2           Cs  tau(   2) = (   0.7500000   2.0417636   1.2386050  )
         3           Cs  tau(   3) = (   0.2500000   1.2998278   3.1163149  )
         4           Cs  tau(   4) = (   0.7500000   0.9278998   0.6391048  )
         5           Sn  tau(   5) = (   0.2500000   0.7615710   1.6485466  )
         6           Sn  tau(   6) = (   0.7500000   1.4661567   2.1068731  )
         7           Sn  tau(   7) = (   0.2500000   1.8754348   0.2291632  )
         8           Sn  tau(   8) = (   0.7500000   0.3522928   3.5262565  )
         9           I   tau(   9) = (   0.7500000   0.0581437   0.4202578  )
        10           I   tau(  10) = (   0.2500000   2.1695839   3.3351619  )
        11           I   tau(  11) = (   0.7500000   1.1720075   1.4574521  )
        12           I   tau(  12) = (   0.2500000   1.0557201   2.2979676  )
        13           I   tau(  13) = (   0.7500000   0.6531118   2.9738192  )
        14           I   tau(  14) = (   0.2500000   1.5746158   0.7816005  )
        15           I   tau(  15) = (   0.7500000   1.7669756   2.6593103  )
        16           I   tau(  16) = (   0.2500000   0.4607520   1.0961094  )
        17           I   tau(  17) = (   0.7500000   0.3753632   1.8734812  )
        18           I   tau(  18) = (   0.2500000   1.8523644   1.8819384  )
        19           I   tau(  19) = (   0.7500000   1.4892270   0.0042286  )
        20           I   tau(  20) = (   0.2500000   0.7385006   3.7511911  )

   Crystallographic axes

     site n.     atom                  positions (cryst. coord.)
         1           Cs  tau(   1) = (  0.2500000  0.0834770  0.6701820  )
         2           Cs  tau(   2) = (  0.7500000  0.9165230  0.3298180  )
         3           Cs  tau(   3) = (  0.2500000  0.5834770  0.8298180  )
         4           Cs  tau(   4) = (  0.7500000  0.4165230  0.1701820  )
         5           Sn  tau(   5) = (  0.2500000  0.3418600  0.4389780  )
         6           Sn  tau(   6) = (  0.7500000  0.6581400  0.5610220  )
         7           Sn  tau(   7) = (  0.2500000  0.8418600  0.0610220  )
         8           Sn  tau(   8) = (  0.7500000  0.1581400  0.9389780  )
         9           I   tau(   9) = (  0.7500000  0.0261000  0.1119070  )
        10           I   tau(  10) = (  0.2500000  0.9739000  0.8880930  )
        11           I   tau(  11) = (  0.7500000  0.5261000  0.3880930  )
        12           I   tau(  12) = (  0.2500000  0.4739000  0.6119070  )
        13           I   tau(  13) = (  0.7500000  0.2931740  0.7918740  )
        14           I   tau(  14) = (  0.2500000  0.7068260  0.2081260  )
        15           I   tau(  15) = (  0.7500000  0.7931740  0.7081260  )
        16           I   tau(  16) = (  0.2500000  0.2068260  0.2918740  )
        17           I   tau(  17) = (  0.7500000  0.1684960  0.4988740  )
        18           I   tau(  18) = (  0.2500000  0.8315040  0.5011260  )
        19           I   tau(  19) = (  0.7500000  0.6684960  0.0011260  )
        20           I   tau(  20) = (  0.2500000  0.3315040  0.9988740  )

     number of k points=     8
                       cart. coord. in units 2pi/alat
        k(    1) = (   0.0000000   0.0000000   0.0000000), wk =   0.2500000
        k(    2) = (   0.0000000   0.0000000  -0.1331409), wk =   0.2500000
        k(    3) = (   0.0000000  -0.2244440   0.0000000), wk =   0.2500000
        k(    4) = (   0.0000000  -0.2244440  -0.1331409), wk =   0.2500000
        k(    5) = (  -0.5000000   0.0000000   0.0000000), wk =   0.2500000
        k(    6) = (  -0.5000000   0.0000000  -0.1331409), wk =   0.2500000
        k(    7) = (  -0.5000000  -0.2244440   0.0000000), wk =   0.2500000
        k(    8) = (  -0.5000000  -0.2244440  -0.1331409), wk =   0.2500000

                       cryst. coord.
        k(    1) = (   0.0000000   0.0000000   0.0000000), wk =   0.2500000
        k(    2) = (   0.0000000   0.0000000  -0.5000000), wk =   0.2500000
        k(    3) = (   0.0000000  -0.5000000   0.0000000), wk =   0.2500000
        k(    4) = (   0.0000000  -0.5000000  -0.5000000), wk =   0.2500000
        k(    5) = (  -0.5000000   0.0000000   0.0000000), wk =   0.2500000
        k(    6) = (  -0.5000000   0.0000000  -0.5000000), wk =   0.2500000
        k(    7) = (  -0.5000000  -0.5000000   0.0000000), wk =   0.2500000
        k(    8) = (  -0.5000000  -0.5000000  -0.5000000), wk =   0.2500000

     Dense  grid:  1131365 G-vectors     FFT dimensions: (  64, 144, 240)

     Smooth grid:   615567 G-vectors     FFT dimensions: (  54, 120, 200)

     Dynamical RAM for                 wfc:       1.61 MB

     Dynamical RAM for     wfc (w. buffer):      14.53 MB

     Dynamical RAM for           str. fact:       0.81 MB

     Dynamical RAM for           local pot:       0.00 MB

     Dynamical RAM for          nlocal pot:       7.70 MB

     Dynamical RAM for                qrad:      15.82 MB

     Dynamical RAM for          rho,v,vnew:       1.65 MB

     Dynamical RAM for               rhoin:       0.55 MB

     Dynamical RAM for            rho*nmix:       4.32 MB

     Dynamical RAM for           G-vectors:       1.09 MB

     Dynamical RAM for          h,s,v(r/c):       1.42 MB

     Dynamical RAM for          <psi|beta>:       0.56 MB

     Dynamical RAM for                 psi:       3.23 MB

     Dynamical RAM for                hpsi:       3.23 MB

     Dynamical RAM for                spsi:       3.23 MB

     Dynamical RAM for      wfcinit/wfcrot:       4.06 MB

     Dynamical RAM for           addusdens:     161.89 MB

     Dynamical RAM for          addusforce:     168.12 MB

     Dynamical RAM for         addusstress:     165.94 MB

     Estimated static dynamical RAM per process >      48.95 MB

     Estimated max dynamical RAM per process >     217.07 MB

     Estimated total dynamical RAM >      13.57 GB

     Initial potential from superposition of free atoms

     starting charge  175.84071, renormalised to  176.00000
     Starting wfcs are  104 randomized atomic wfcs
     Checking if some PAW data can be deallocated... 
       PAW data deallocated on   52 nodes for type:  2
       PAW data deallocated on   28 nodes for type:  3

     total cpu time spent up to now is       16.7 secs

     Self-consistent Calculation

     iteration #  1     ecut=    80.00 Ry     beta= 0.50
     Davidson diagonalization with overlap
     ethr =  1.00E-02,  avg # of iterations =  1.1

     Threshold (ethr) on eigenvalues was too large:
     Diagonalizing with lowered threshold

     Davidson diagonalization with overlap
     ethr =  2.91E-04,  avg # of iterations =  4.6

     total cpu time spent up to now is       42.3 secs

     total energy              =   -6438.59294782 Ry
     estimated scf accuracy    <       0.41468117 Ry

     iteration #  2     ecut=    80.00 Ry     beta= 0.50
     Davidson diagonalization with overlap
     ethr =  2.36E-04,  avg # of iterations =  4.1

     total cpu time spent up to now is       57.4 secs

     total energy              =   -6438.73426747 Ry
     estimated scf accuracy    <       0.12061712 Ry

     iteration #  3     ecut=    80.00 Ry     beta= 0.50
     Davidson diagonalization with overlap
     ethr =  6.85E-05,  avg # of iterations =  2.1

     total cpu time spent up to now is       70.4 secs

     total energy              =   -6438.75214898 Ry
     estimated scf accuracy    <       0.01149530 Ry

     iteration #  4     ecut=    80.00 Ry     beta= 0.50
     Davidson diagonalization with overlap
     ethr =  6.53E-06,  avg # of iterations =  7.2

     total cpu time spent up to now is       89.0 secs

     total energy              =   -6438.75955916 Ry
     estimated scf accuracy    <       0.01054249 Ry

     iteration #  5     ecut=    80.00 Ry     beta= 0.50
     Davidson diagonalization with overlap
     ethr =  5.99E-06,  avg # of iterations =  5.2

     total cpu time spent up to now is      103.3 secs

     total energy              =   -6438.76227143 Ry
     estimated scf accuracy    <       0.00045146 Ry

     iteration #  6     ecut=    80.00 Ry     beta= 0.50
     Davidson diagonalization with overlap
     ethr =  2.57E-07,  avg # of iterations =  8.5

     total cpu time spent up to now is      122.1 secs

     total energy              =   -6438.76233968 Ry
     estimated scf accuracy    <       0.00091187 Ry

     iteration #  7     ecut=    80.00 Ry     beta= 0.50
     Davidson diagonalization with overlap
     ethr =  2.57E-07,  avg # of iterations =  5.1

     total cpu time spent up to now is      136.9 secs

     total energy              =   -6438.76249610 Ry
     estimated scf accuracy    <       0.00001331 Ry

     iteration #  8     ecut=    80.00 Ry     beta= 0.50
     Davidson diagonalization with overlap
     ethr =  7.56E-09,  avg # of iterations =  8.0

     total cpu time spent up to now is      157.0 secs

     total energy              =   -6438.76251354 Ry
     estimated scf accuracy    <       0.00001491 Ry

     iteration #  9     ecut=    80.00 Ry     beta= 0.50
     Davidson diagonalization with overlap
     ethr =  7.56E-09,  avg # of iterations =  2.0

     total cpu time spent up to now is      169.0 secs

     total energy              =   -6438.76251140 Ry
     estimated scf accuracy    <       0.00000599 Ry

     iteration # 10     ecut=    80.00 Ry     beta= 0.50
     Davidson diagonalization with overlap
     ethr =  3.40E-09,  avg # of iterations =  5.5

     total cpu time spent up to now is      184.9 secs

     End of self-consistent calculation

          k = 0.0000 0.0000 0.0000 ( 76865 PWs)   bands (ev):

   -17.9103 -17.9103 -17.9100 -17.9100 -17.9030 -17.9030 -17.9027 -17.9027
   -17.8992 -17.8992 -17.8986 -17.8985 -17.8886 -17.8884 -17.8874 -17.8870
   -17.8851 -17.8850 -17.8845 -17.8841 -17.8796 -17.8796 -17.8782 -17.8782
    -8.9559  -8.9314  -8.7482  -8.6861  -8.5988  -8.5888  -8.5690  -8.5585
    -8.4296  -8.4062  -8.3885  -8.3458  -4.6938  -4.6931  -4.6916  -4.6837
    -4.6742  -4.6482  -4.6256  -4.6238  -4.6204  -4.6171  -4.6171  -4.6155
    -3.0455  -3.0208  -2.9846  -2.9037  -0.0251   0.1773   0.6126   0.7582
     0.7726   0.8517   0.9776   0.9870   1.0808   1.1532   1.1922   1.1972
     1.2066   1.4264   1.5066   1.6056   1.6546   1.6730   1.6945   1.7007
     1.7056   1.7201   1.8605   1.9450   1.9540   2.0605   2.0922   2.1028
     2.1162   2.1234   2.1697   2.2045   2.2712   2.3437   2.4933   2.7959

     occupation numbers 
     1.0000   1.0000   1.0000   1.0000   1.0000   1.0000   1.0000   1.0000
     1.0000   1.0000   1.0000   1.0000   1.0000   1.0000   1.0000   1.0000
     1.0000   1.0000   1.0000   1.0000   1.0000   1.0000   1.0000   1.0000
     1.0000   1.0000   1.0000   1.0000   1.0000   1.0000   1.0000   1.0000
     1.0000   1.0000   1.0000   1.0000   1.0000   1.0000   1.0000   1.0000
     1.0000   1.0000   1.0000   1.0000   1.0000   1.0000   1.0000   1.0000
     1.0000   1.0000   1.0000   1.0000   1.0000   1.0000   1.0000   1.0000
     1.0000   1.0000   1.0000   1.0000   1.0000   1.0000   1.0000   1.0000
     1.0000   1.0000   1.0000   1.0000   1.0000   1.0000   1.0000   1.0000
     1.0000   1.0000   1.0000   1.0000   1.0000   1.0000   1.0000   1.0000
     1.0000   1.0000   1.0000   1.0000   1.0000   1.0000   1.0000   1.0000

          k = 0.0000 0.0000-0.1331 ( 76838 PWs)   bands (ev):

   -17.9103 -17.9103 -17.9100 -17.9100 -17.9030 -17.9030 -17.9027 -17.9027
   -17.8992 -17.8992 -17.8986 -17.8986 -17.8885 -17.8885 -17.8872 -17.8872
   -17.8850 -17.8850 -17.8843 -17.8843 -17.8796 -17.8796 -17.8782 -17.8782
    -8.9449  -8.9449  -8.7176  -8.7176  -8.5939  -8.5939  -8.5623  -8.5623
    -8.4227  -8.4227  -8.3620  -8.3620  -4.6998  -4.6998  -4.6821  -4.6821
    -4.6613  -4.6613  -4.6248  -4.6248  -4.6179  -4.6179  -4.6162  -4.6162
    -3.0381  -3.0381  -2.9394  -2.9394   0.0651   0.0651   0.7038   0.7038
     0.7651   0.7651   1.0078   1.0078   1.1509   1.1509   1.1797   1.1797
     1.3932   1.3932   1.4538   1.4538   1.6684   1.6684   1.7010   1.7010
     1.7101   1.7101   1.8662   1.8662   2.0035   2.0035   2.1029   2.1029
     2.1072   2.1072   2.2427   2.2427   2.3223   2.3223   2.6348   2.6348

     occupation numbers 
     1.0000   1.0000   1.0000   1.0000   1.0000   1.0000   1.0000   1.0000
     1.0000   1.0000   1.0000   1.0000   1.0000   1.0000   1.0000   1.0000
     1.0000   1.0000   1.0000   1.0000   1.0000   1.0000   1.0000   1.0000
     1.0000   1.0000   1.0000   1.0000   1.0000   1.0000   1.0000   1.0000
     1.0000   1.0000   1.0000   1.0000   1.0000   1.0000   1.0000   1.0000
     1.0000   1.0000   1.0000   1.0000   1.0000   1.0000   1.0000   1.0000
     1.0000   1.0000   1.0000   1.0000   1.0000   1.0000   1.0000   1.0000
     1.0000   1.0000   1.0000   1.0000   1.0000   1.0000   1.0000   1.0000
     1.0000   1.0000   1.0000   1.0000   1.0000   1.0000   1.0000   1.0000
     1.0000   1.0000   1.0000   1.0000   1.0000   1.0000   1.0000   1.0000
     1.0000   1.0000   1.0000   1.0000   1.0000   1.0000   1.0000   1.0000

          k = 0.0000-0.2244 0.0000 ( 76882 PWs)   bands (ev):

   -17.9103 -17.9103 -17.9101 -17.9101 -17.9030 -17.9030 -17.9027 -17.9027
   -17.8993 -17.8993 -17.8985 -17.8985 -17.8885 -17.8885 -17.8872 -17.8872
   -17.8848 -17.8848 -17.8845 -17.8845 -17.8796 -17.8796 -17.8782 -17.8782
    -8.9219  -8.9219  -8.7608  -8.7608  -8.6406  -8.6406  -8.4967  -8.4967
    -8.4051  -8.4051  -8.3757  -8.3757  -4.7012  -4.7012  -4.6800  -4.6800
    -4.6548  -4.6548  -4.6368  -4.6368  -4.6214  -4.6214  -4.6196  -4.6196
    -3.0549  -3.0549  -2.9109  -2.9109   0.1051   0.1051   0.6781   0.6781
     0.8180   0.8180   1.0516   1.0516   1.0735   1.0735   1.1804   1.1804
     1.2858   1.2858   1.4242   1.4242   1.6250   1.6250   1.6565   1.6565
     1.8525   1.8525   1.8915   1.8915   1.9526   1.9526   2.1194   2.1194
     2.1488   2.1488   2.1994   2.1994   2.2622   2.2622   2.8118   2.8118

     occupation numbers 
     1.0000   1.0000   1.0000   1.0000   1.0000   1.0000   1.0000   1.0000
     1.0000   1.0000   1.0000   1.0000   1.0000   1.0000   1.0000   1.0000
     1.0000   1.0000   1.0000   1.0000   1.0000   1.0000   1.0000   1.0000
     1.0000   1.0000   1.0000   1.0000   1.0000   1.0000   1.0000   1.0000
     1.0000   1.0000   1.0000   1.0000   1.0000   1.0000   1.0000   1.0000
     1.0000   1.0000   1.0000   1.0000   1.0000   1.0000   1.0000   1.0000
     1.0000   1.0000   1.0000   1.0000   1.0000   1.0000   1.0000   1.0000
     1.0000   1.0000   1.0000   1.0000   1.0000   1.0000   1.0000   1.0000
     1.0000   1.0000   1.0000   1.0000   1.0000   1.0000   1.0000   1.0000
     1.0000   1.0000   1.0000   1.0000   1.0000   1.0000   1.0000   1.0000
     1.0000   1.0000   1.0000   1.0000   1.0000   1.0000   1.0000   1.0000

          k = 0.0000-0.2244-0.1331 ( 76848 PWs)   bands (ev):

   -17.9103 -17.9103 -17.9101 -17.9101 -17.9030 -17.9030 -17.9027 -17.9027
   -17.8993 -17.8993 -17.8985 -17.8985 -17.8885 -17.8885 -17.8872 -17.8872
   -17.8849 -17.8849 -17.8845 -17.8845 -17.8796 -17.8796 -17.8782 -17.8782
    -8.9219  -8.9219  -8.7611  -8.7611  -8.6385  -8.6385  -8.5023  -8.5023
    -8.3901  -8.3901  -8.3868  -8.3868  -4.6981  -4.6981  -4.6875  -4.6875
    -4.6497  -4.6497  -4.6375  -4.6375  -4.6214  -4.6214  -4.6196  -4.6196
    -3.0536  -3.0536  -2.9125  -2.9125   0.1106   0.1106   0.6686   0.6686
     0.8180   0.8180   1.0736   1.0736   1.0763   1.0763   1.1832   1.1832
     1.2220   1.2220   1.4358   1.4358   1.6264   1.6264   1.7008   1.7008
     1.8481   1.8481   1.8789   1.8789   1.9655   1.9655   2.1047   2.1047
     2.1735   2.1735   2.1776   2.1776   2.2764   2.2764   2.7941   2.7941

     occupation numbers 
     1.0000   1.0000   1.0000   1.0000   1.0000   1.0000   1.0000   1.0000
     1.0000   1.0000   1.0000   1.0000   1.0000   1.0000   1.0000   1.0000
     1.0000   1.0000   1.0000   1.0000   1.0000   1.0000   1.0000   1.0000
     1.0000   1.0000   1.0000   1.0000   1.0000   1.0000   1.0000   1.0000
     1.0000   1.0000   1.0000   1.0000   1.0000   1.0000   1.0000   1.0000
     1.0000   1.0000   1.0000   1.0000   1.0000   1.0000   1.0000   1.0000
     1.0000   1.0000   1.0000   1.0000   1.0000   1.0000   1.0000   1.0000
     1.0000   1.0000   1.0000   1.0000   1.0000   1.0000   1.0000   1.0000
     1.0000   1.0000   1.0000   1.0000   1.0000   1.0000   1.0000   1.0000
     1.0000   1.0000   1.0000   1.0000   1.0000   1.0000   1.0000   1.0000
     1.0000   1.0000   1.0000   1.0000   1.0000   1.0000   1.0000   1.0000

          k =-0.5000 0.0000 0.0000 ( 77014 PWs)   bands (ev):

   -17.9096 -17.9096 -17.9096 -17.9096 -17.9063 -17.9063 -17.9062 -17.9062
   -17.8988 -17.8988 -17.8988 -17.8988 -17.8842 -17.8842 -17.8842 -17.8842
   -17.8796 -17.8796 -17.8796 -17.8796 -17.8736 -17.8736 -17.8731 -17.8731
    -8.6367  -8.6367  -8.6344  -8.6344  -8.4587  -8.4587  -8.4501  -8.4501
    -8.4373  -8.4373  -8.4169  -8.4169  -4.8698  -4.8698  -4.8012  -4.8012
    -4.6861  -4.6861  -4.6770  -4.6770  -4.6626  -4.6626  -4.6332  -4.6332
    -3.3603  -3.3603  -3.3228  -3.3228  -0.0715  -0.0715  -0.0705  -0.0705
     0.4237   0.4237   0.4825   0.4825   0.7559   0.7559   0.7749   0.7749
     1.1083   1.1083   1.5089   1.5089   1.5520   1.5520   1.6603   1.6603
     1.6750   1.6750   1.7360   1.7360   1.7876   1.7876   1.8101   1.8101
     1.9433   1.9433   1.9838   1.9838   2.3940   2.3940   2.7827   2.7827

     occupation numbers 
     1.0000   1.0000   1.0000   1.0000   1.0000   1.0000   1.0000   1.0000
     1.0000   1.0000   1.0000   1.0000   1.0000   1.0000   1.0000   1.0000
     1.0000   1.0000   1.0000   1.0000   1.0000   1.0000   1.0000   1.0000
     1.0000   1.0000   1.0000   1.0000   1.0000   1.0000   1.0000   1.0000
     1.0000   1.0000   1.0000   1.0000   1.0000   1.0000   1.0000   1.0000
     1.0000   1.0000   1.0000   1.0000   1.0000   1.0000   1.0000   1.0000
     1.0000   1.0000   1.0000   1.0000   1.0000   1.0000   1.0000   1.0000
     1.0000   1.0000   1.0000   1.0000   1.0000   1.0000   1.0000   1.0000
     1.0000   1.0000   1.0000   1.0000   1.0000   1.0000   1.0000   1.0000
     1.0000   1.0000   1.0000   1.0000   1.0000   1.0000   1.0000   1.0000
     1.0000   1.0000   1.0000   1.0000   1.0000   1.0000   1.0000   1.0000

          k =-0.5000 0.0000-0.1331 ( 76988 PWs)   bands (ev):

   -17.9096 -17.9096 -17.9096 -17.9096 -17.9063 -17.9063 -17.9062 -17.9062
   -17.8988 -17.8988 -17.8988 -17.8988 -17.8842 -17.8842 -17.8842 -17.8842
   -17.8796 -17.8796 -17.8796 -17.8796 -17.8736 -17.8736 -17.8731 -17.8731
    -8.6372  -8.6372  -8.6338  -8.6338  -8.4580  -8.4580  -8.4510  -8.4510
    -8.4370  -8.4370  -8.4169  -8.4169  -4.8697  -4.8697  -4.8012  -4.8012
    -4.6863  -4.6863  -4.6770  -4.6770  -4.6623  -4.6623  -4.6333  -4.6333
    -3.3533  -3.3533  -3.3299  -3.3299  -0.0849  -0.0849  -0.0515  -0.0515
     0.4429   0.4429   0.4893   0.4893   0.7015   0.7015   0.7422   0.7422
     1.1991   1.1991   1.4773   1.4773   1.5637   1.5637   1.6768   1.6768
     1.6797   1.6797   1.7076   1.7076   1.7160   1.7160   1.8423   1.8423
     1.9373   1.9373   2.0152   2.0152   2.4557   2.4557   2.7216   2.7216

     occupation numbers 
     1.0000   1.0000   1.0000   1.0000   1.0000   1.0000   1.0000   1.0000
     1.0000   1.0000   1.0000   1.0000   1.0000   1.0000   1.0000   1.0000
     1.0000   1.0000   1.0000   1.0000   1.0000   1.0000   1.0000   1.0000
     1.0000   1.0000   1.0000   1.0000   1.0000   1.0000   1.0000   1.0000
     1.0000   1.0000   1.0000   1.0000   1.0000   1.0000   1.0000   1.0000
     1.0000   1.0000   1.0000   1.0000   1.0000   1.0000   1.0000   1.0000
     1.0000   1.0000   1.0000   1.0000   1.0000   1.0000   1.0000   1.0000
     1.0000   1.0000   1.0000   1.0000   1.0000   1.0000   1.0000   1.0000
     1.0000   1.0000   1.0000   1.0000   1.0000   1.0000   1.0000   1.0000
     1.0000   1.0000   1.0000   1.0000   1.0000   1.0000   1.0000   1.0000
     1.0000   1.0000   1.0000   1.0000   1.0000   1.0000   1.0000   1.0000

          k =-0.5000-0.2244 0.0000 ( 77052 PWs)   bands (ev):

   -17.9096 -17.9096 -17.9096 -17.9096 -17.9063 -17.9063 -17.9063 -17.9063
   -17.8988 -17.8988 -17.8988 -17.8988 -17.8842 -17.8842 -17.8842 -17.8842
   -17.8796 -17.8796 -17.8796 -17.8796 -17.8733 -17.8733 -17.8733 -17.8733
    -8.6356  -8.6356  -8.6356  -8.6356  -8.4554  -8.4554  -8.4554  -8.4554
    -8.4261  -8.4261  -8.4261  -8.4261  -4.8356  -4.8356  -4.8356  -4.8356
    -4.6792  -4.6792  -4.6792  -4.6792  -4.6501  -4.6501  -4.6501  -4.6501
    -3.3422  -3.3422  -3.3422  -3.3422   0.0753   0.0753   0.0753   0.0753
     0.2948   0.2948   0.2948   0.2948   0.7059   0.7059   0.7059   0.7059
     1.3264   1.3264   1.3264   1.3264   1.5127   1.5127   1.5127   1.5127
     1.6789   1.6789   1.6789   1.6789   1.8061   1.8061   1.8061   1.8061
     2.0368   2.0368   2.0368   2.0368   2.7469   2.7469   2.7469   2.7469

     occupation numbers 
     1.0000   1.0000   1.0000   1.0000   1.0000   1.0000   1.0000   1.0000
     1.0000   1.0000   1.0000   1.0000   1.0000   1.0000   1.0000   1.0000
     1.0000   1.0000   1.0000   1.0000   1.0000   1.0000   1.0000   1.0000
     1.0000   1.0000   1.0000   1.0000   1.0000   1.0000   1.0000   1.0000
     1.0000   1.0000   1.0000   1.0000   1.0000   1.0000   1.0000   1.0000
     1.0000   1.0000   1.0000   1.0000   1.0000   1.0000   1.0000   1.0000
     1.0000   1.0000   1.0000   1.0000   1.0000   1.0000   1.0000   1.0000
     1.0000   1.0000   1.0000   1.0000   1.0000   1.0000   1.0000   1.0000
     1.0000   1.0000   1.0000   1.0000   1.0000   1.0000   1.0000   1.0000
     1.0000   1.0000   1.0000   1.0000   1.0000   1.0000   1.0000   1.0000
     1.0000   1.0000   1.0000   1.0000   1.0000   1.0000   1.0000   1.0000

          k =-0.5000-0.2244-0.1331 ( 77080 PWs)   bands (ev):

   -17.9096 -17.9096 -17.9096 -17.9096 -17.9063 -17.9063 -17.9063 -17.9063
   -17.8988 -17.8988 -17.8988 -17.8988 -17.8842 -17.8842 -17.8842 -17.8842
   -17.8796 -17.8796 -17.8796 -17.8796 -17.8733 -17.8733 -17.8733 -17.8733
    -8.6356  -8.6356  -8.6356  -8.6356  -8.4554  -8.4554  -8.4554  -8.4554
    -8.4262  -8.4262  -8.4262  -8.4262  -4.8356  -4.8356  -4.8356  -4.8356
    -4.6791  -4.6791  -4.6791  -4.6791  -4.6502  -4.6502  -4.6502  -4.6502
    -3.3422  -3.3422  -3.3422  -3.3422   0.0688   0.0688   0.0688   0.0688
     0.2979   0.2979   0.2979   0.2979   0.7327   0.7327   0.7327   0.7327
     1.2386   1.2386   1.2386   1.2386   1.5871   1.5871   1.5871   1.5871
     1.6817   1.6817   1.6817   1.6817   1.8266   1.8266   1.8266   1.8266
     1.9960   1.9960   1.9960   1.9960   2.7566   2.7566   2.7566   2.7566

     occupation numbers 
     1.0000   1.0000   1.0000   1.0000   1.0000   1.0000   1.0000   1.0000
     1.0000   1.0000   1.0000   1.0000   1.0000   1.0000   1.0000   1.0000
     1.0000   1.0000   1.0000   1.0000   1.0000   1.0000   1.0000   1.0000
     1.0000   1.0000   1.0000   1.0000   1.0000   1.0000   1.0000   1.0000
     1.0000   1.0000   1.0000   1.0000   1.0000   1.0000   1.0000   1.0000
     1.0000   1.0000   1.0000   1.0000   1.0000   1.0000   1.0000   1.0000
     1.0000   1.0000   1.0000   1.0000   1.0000   1.0000   1.0000   1.0000
     1.0000   1.0000   1.0000   1.0000   1.0000   1.0000   1.0000   1.0000
     1.0000   1.0000   1.0000   1.0000   1.0000   1.0000   1.0000   1.0000
     1.0000   1.0000   1.0000   1.0000   1.0000   1.0000   1.0000   1.0000
     1.0000   1.0000   1.0000   1.0000   1.0000   1.0000   1.0000   1.0000

     highest occupied level (ev):     2.8118

!    total energy              =   -6438.76251353 Ry
     estimated scf accuracy    <       0.00000082 Ry

     The total energy is the sum of the following terms:
     one-electron contribution =    -468.65830663 Ry
     hartree contribution      =     316.31413895 Ry
     xc contribution           =    -462.52434698 Ry
     ewald contribution        =    -633.56960439 Ry
     one-center paw contrib.   =   -5190.32439449 Ry
      -> PAW hartree energy AE =       0.00000000 Ry
      -> PAW hartree energy PS =       0.00000000 Ry
      -> PAW xc energy AE      =       0.00000000 Ry
      -> PAW xc energy PS      =       0.00000000 Ry
      -> total E_H with PAW    =     316.31413895 Ry
      -> total E_XC with PAW   =    -462.52434698 Ry

     convergence has been achieved in  10 iterations

     Forces acting on atoms (cartesian axes, Ry/au):

     atom    1 type  1   force =     0.00000000   -0.00097709    0.00072606
     atom    2 type  1   force =     0.00000000    0.00097709   -0.00072606
     atom    3 type  1   force =     0.00000000   -0.00097709   -0.00072606
     atom    4 type  1   force =     0.00000000    0.00097709    0.00072606
     atom    5 type  2   force =     0.00000000   -0.00170694   -0.00130695
     atom    6 type  2   force =     0.00000000    0.00170694    0.00130695
     atom    7 type  2   force =     0.00000000   -0.00170694    0.00130695
     atom    8 type  2   force =     0.00000000    0.00170694   -0.00130695
     atom    9 type  3   force =     0.00000000   -0.00695632   -0.00598372
     atom   10 type  3   force =     0.00000000    0.00695632    0.00598372
     atom   11 type  3   force =     0.00000000   -0.00695632    0.00598372
     atom   12 type  3   force =     0.00000000    0.00695632   -0.00598372
     atom   13 type  3   force =     0.00000000   -0.00280985    0.00446012
     atom   14 type  3   force =     0.00000000    0.00280985   -0.00446012
     atom   15 type  3   force =     0.00000000   -0.00280985   -0.00446012
     atom   16 type  3   force =     0.00000000    0.00280985    0.00446012
     atom   17 type  3   force =     0.00000000    0.00676298   -0.00445666
     atom   18 type  3   force =     0.00000000   -0.00676298    0.00445666
     atom   19 type  3   force =     0.00000000    0.00676298    0.00445666
     atom   20 type  3   force =    -0.00000000   -0.00676298   -0.00445666
     The non-local contrib.  to forces
     atom    1 type  1   force =     0.00000000    0.00222811   -0.00118595
     atom    2 type  1   force =     0.00000000   -0.00222811    0.00118595
     atom    3 type  1   force =    -0.00000000    0.00222811    0.00118595
     atom    4 type  1   force =     0.00000000   -0.00222811   -0.00118595
     atom    5 type  2   force =     0.00000000   -0.08497010   -0.12688669
     atom    6 type  2   force =    -0.00000000    0.08497010    0.12688669
     atom    7 type  2   force =     0.00000000   -0.08497010    0.12688669
     atom    8 type  2   force =     0.00000000    0.08497010   -0.12688669
     atom    9 type  3   force =     0.00000000   -0.04948066   -0.04878344
     atom   10 type  3   force =     0.00000000    0.04948066    0.04878344
     atom   11 type  3   force =     0.00000000   -0.04948066    0.04878344
     atom   12 type  3   force =     0.00000000    0.04948066   -0.04878344
     atom   13 type  3   force =    -0.00000000   -0.03343973    0.05681072
     atom   14 type  3   force =    -0.00000000    0.03343973   -0.05681072
     atom   15 type  3   force =     0.00000000   -0.03343973   -0.05681072
     atom   16 type  3   force =     0.00000000    0.03343973    0.05681072
     atom   17 type  3   force =    -0.00000000    0.05727631   -0.01809271
     atom   18 type  3   force =    -0.00000000   -0.05727631    0.01809271
     atom   19 type  3   force =     0.00000000    0.05727631    0.01809271
     atom   20 type  3   force =     0.00000000   -0.05727631   -0.01809271
     The ionic contribution  to forces
     atom    1 type  1   force =    -0.00000000    0.02273773    0.42856976
     atom    2 type  1   force =    -0.00000000   -0.02273773   -0.42856976
     atom    3 type  1   force =    -0.00000000    0.02273773   -0.42856976
     atom    4 type  1   force =    -0.00000000   -0.02273773    0.42856976
     atom    5 type  2   force =     0.00000000   -2.44382135   -1.60292983
     atom    6 type  2   force =     0.00000000    2.44382135    1.60292983
     atom    7 type  2   force =    -0.00000000   -2.44382135    1.60292983
     atom    8 type  2   force =     0.00000000    2.44382135   -1.60292983
     atom    9 type  3   force =    -0.00000000    3.00608891    5.13288893
     atom   10 type  3   force =     0.00000000   -3.00608891   -5.13288893
     atom   11 type  3   force =    -0.00000000    3.00608891   -5.13288893
     atom   12 type  3   force =    -0.00000000   -3.00608891    5.13288893
     atom   13 type  3   force =    -0.00000000    2.02422849   -3.75281499
     atom   14 type  3   force =     0.00000000   -2.02422849    3.75281499
     atom   15 type  3   force =    -0.00000000    2.02422849    3.75281499
     atom   16 type  3   force =     0.00000000   -2.02422849   -3.75281499
     atom   17 type  3   force =    -0.00000000   -4.20564473    2.10270404
     atom   18 type  3   force =     0.00000000    4.20564473   -2.10270404
     atom   19 type  3   force =    -0.00000000   -4.20564473   -2.10270404
     atom   20 type  3   force =     0.00000000    4.20564473    2.10270404
     The local contribution  to forces
     atom    1 type  1   force =    -0.00000000   -0.02592819   -0.42666986
     atom    2 type  1   force =     0.00000000    0.02592819    0.42666986
     atom    3 type  1   force =    -0.00000000   -0.02592819    0.42666986
     atom    4 type  1   force =     0.00000000    0.02592819   -0.42666986
     atom    5 type  2   force =    -0.00000000    2.52768639    1.72880747
     atom    6 type  2   force =    -0.00000000   -2.52768639   -1.72880747
     atom    7 type  2   force =    -0.00000000    2.52768639   -1.72880747
     atom    8 type  2   force =    -0.00000000   -2.52768639    1.72880747
     atom    9 type  3   force =     0.00000000   -2.96903757   -5.09603935
     atom   10 type  3   force =     0.00000000    2.96903757    5.09603935
     atom   11 type  3   force =     0.00000000   -2.96903757    5.09603935
     atom   12 type  3   force =     0.00000000    2.96903757   -5.09603935
     atom   13 type  3   force =     0.00000000   -1.99711851    3.70656056
     atom   14 type  3   force =    -0.00000000    1.99711851   -3.70656056
     atom   15 type  3   force =     0.00000000   -1.99711851   -3.70656056
     atom   16 type  3   force =    -0.00000000    1.99711851    3.70656056
     atom   17 type  3   force =    -0.00000000    4.16199293   -2.09139341
     atom   18 type  3   force =     0.00000000   -4.16199293    2.09139341
     atom   19 type  3   force =    -0.00000000    4.16199293    2.09139341
     atom   20 type  3   force =     0.00000000   -4.16199293   -2.09139341
     The core correction contribution to forces
     atom    1 type  1   force =     0.00000000   -0.00001940   -0.00004318
     atom    2 type  1   force =     0.00000000    0.00001940    0.00004318
     atom    3 type  1   force =    -0.00000000   -0.00001940    0.00004318
     atom    4 type  1   force =     0.00000000    0.00001940   -0.00004318
     atom    5 type  2   force =    -0.00000000    0.00014524   -0.00002140
     atom    6 type  2   force =    -0.00000000   -0.00014524    0.00002140
     atom    7 type  2   force =    -0.00000000    0.00014524    0.00002140
     atom    8 type  2   force =    -0.00000000   -0.00014524   -0.00002140
     atom    9 type  3   force =    -0.00000000    0.00519823    0.00540711
     atom   10 type  3   force =    -0.00000000   -0.00519823   -0.00540711
     atom   11 type  3   force =     0.00000000    0.00519823   -0.00540711
     atom   12 type  3   force =     0.00000000   -0.00519823    0.00540711
     atom   13 type  3   force =    -0.00000000    0.00330805   -0.00569425
     atom   14 type  3   force =     0.00000000   -0.00330805    0.00569425
     atom   15 type  3   force =    -0.00000000    0.00330805    0.00569425
     atom   16 type  3   force =     0.00000000   -0.00330805   -0.00569425
     atom   17 type  3   force =    -0.00000000   -0.00643754    0.00211730
     atom   18 type  3   force =     0.00000000    0.00643754   -0.00211730
     atom   19 type  3   force =    -0.00000000   -0.00643754   -0.00211730
     atom   20 type  3   force =     0.00000000    0.00643754    0.00211730
     The Hubbard contrib.    to forces
     atom    1 type  1   force =     0.00000000    0.00000000    0.00000000
     atom    2 type  1   force =     0.00000000    0.00000000    0.00000000
     atom    3 type  1   force =     0.00000000    0.00000000    0.00000000
     atom    4 type  1   force =     0.00000000    0.00000000    0.00000000
     atom    5 type  2   force =     0.00000000    0.00000000    0.00000000
     atom    6 type  2   force =     0.00000000    0.00000000    0.00000000
     atom    7 type  2   force =     0.00000000    0.00000000    0.00000000
     atom    8 type  2   force =     0.00000000    0.00000000    0.00000000
     atom    9 type  3   force =     0.00000000    0.00000000    0.00000000
     atom   10 type  3   force =     0.00000000    0.00000000    0.00000000
     atom   11 type  3   force =     0.00000000    0.00000000    0.00000000
     atom   12 type  3   force =     0.00000000    0.00000000    0.00000000
     atom   13 type  3   force =     0.00000000    0.00000000    0.00000000
     atom   14 type  3   force =     0.00000000    0.00000000    0.00000000
     atom   15 type  3   force =     0.00000000    0.00000000    0.00000000
     atom   16 type  3   force =     0.00000000    0.00000000    0.00000000
     atom   17 type  3   force =     0.00000000    0.00000000    0.00000000
     atom   18 type  3   force =     0.00000000    0.00000000    0.00000000
     atom   19 type  3   force =     0.00000000    0.00000000    0.00000000
     atom   20 type  3   force =     0.00000000    0.00000000    0.00000000
     The SCF correction term to forces
     atom    1 type  1   force =    -0.00000000    0.00000466    0.00005529
     atom    2 type  1   force =     0.00000000   -0.00000466   -0.00005529
     atom    3 type  1   force =     0.00000000    0.00000466   -0.00005529
     atom    4 type  1   force =    -0.00000000   -0.00000466    0.00005529
     atom    5 type  2   force =    -0.00000000   -0.00074712   -0.00027650
     atom    6 type  2   force =    -0.00000000    0.00074712    0.00027650
     atom    7 type  2   force =     0.00000000   -0.00074712    0.00027650
     atom    8 type  2   force =     0.00000000    0.00074712   -0.00027650
     atom    9 type  3   force =    -0.00000000    0.00027475    0.00054303
     atom   10 type  3   force =     0.00000000   -0.00027475   -0.00054303
     atom   11 type  3   force =     0.00000000    0.00027475   -0.00054303
     atom   12 type  3   force =     0.00000000   -0.00027475    0.00054303
     atom   13 type  3   force =    -0.00000000    0.00021184   -0.00040192
     atom   14 type  3   force =    -0.00000000   -0.00021184    0.00040192
     atom   15 type  3   force =    -0.00000000    0.00021184    0.00040192
     atom   16 type  3   force =     0.00000000   -0.00021184   -0.00040192
     atom   17 type  3   force =     0.00000000   -0.00042399    0.00020812
     atom   18 type  3   force =    -0.00000000    0.00042399   -0.00020812
     atom   19 type  3   force =     0.00000000   -0.00042399   -0.00020812
     atom   20 type  3   force =    -0.00000000    0.00042399    0.00020812

     Total force =     0.027106     Total SCF correction =     0.002398


     Computing stress (Cartesian axis) and pressure

          total   stress  (Ry/bohr**3)                   (kbar)     P=      -12.30
  -0.00005701   0.00000000   0.00000000           -8.39        0.00        0.00
   0.00000000  -0.00010070   0.00000000            0.00      -14.81        0.00
   0.00000000   0.00000000  -0.00009305            0.00        0.00      -13.69

     kinetic stress (kbar)   5524.06      0.00      0.00
                                0.00   5524.29      0.00
                                0.00      0.00   5520.31

     local   stress (kbar)  -4567.33      0.00     -0.00
                                0.00  -1923.57      0.00
                               -0.00      0.00  -1031.15

     nonloc. stress (kbar)   1168.04      0.00      0.00
                                0.00   1163.37      0.00
                                0.00      0.00   1166.63

     hartree stress (kbar)   3403.65     -0.00      0.00
                               -0.00   2185.15     -0.00
                                0.00     -0.00   1715.36

     exc-cor stress (kbar)   5446.12      0.00      0.00
                                0.00   5446.00      0.00
                                0.00      0.00   5446.25

     corecor stress (kbar)  -7198.12     -0.00     -0.00
                               -0.00  -7197.90      0.00
                               -0.00     -0.00  -7197.98

     ewald   stress (kbar)  -3784.80      0.00     -0.00
                                0.00  -5212.16      0.00
                               -0.00      0.00  -5633.09

     hubbard stress (kbar)      0.00      0.00      0.00
                                0.00      0.00      0.00
                                0.00      0.00      0.00

     DFT-D   stress (kbar)      0.00      0.00      0.00
                                0.00      0.00      0.00
                                0.00      0.00      0.00

     XDM     stress (kbar)      0.00      0.00      0.00
                                0.00      0.00      0.00
                                0.00      0.00      0.00

     dft-nl  stress (kbar)      0.00      0.00      0.00
                                0.00      0.00      0.00
                                0.00      0.00      0.00

     TS-vdW  stress (kbar)      0.00      0.00      0.00
                                0.00      0.00      0.00
                                0.00      0.00      0.00



     Writing output data file ./CsSnI3.save/
 
     init_run     :      8.97s CPU      9.58s WALL (       1 calls)
     electrons    :    159.76s CPU    168.36s WALL (       1 calls)
     forces       :      4.46s CPU      4.69s WALL (       1 calls)
     stress       :     25.87s CPU     26.48s WALL (       1 calls)

     Called by init_run:
     wfcinit      :      3.83s CPU      4.10s WALL (       1 calls)
     wfcinit:atom :      0.04s CPU      0.04s WALL (       8 calls)
     wfcinit:wfcr :      3.60s CPU      3.86s WALL (       8 calls)
     potinit      :      0.88s CPU      0.89s WALL (       1 calls)
     hinit0       :      1.87s CPU      1.94s WALL (       1 calls)

     Called by electrons:
     c_bands      :    121.16s CPU    123.84s WALL (      11 calls)
     sum_band     :     26.56s CPU     30.38s WALL (      11 calls)
     v_of_rho     :      1.12s CPU      1.14s WALL (      11 calls)
     v_h          :      0.09s CPU      0.09s WALL (      11 calls)
     v_xc         :      1.20s CPU      1.23s WALL (      13 calls)
     newd         :      9.74s CPU     11.90s WALL (      11 calls)
     PAW_pot      :      1.89s CPU      1.90s WALL (      11 calls)
     mix_rho      :      0.41s CPU      0.42s WALL (      11 calls)

     Called by c_bands:
     init_us_2    :      2.37s CPU      2.42s WALL (     200 calls)
     cegterg      :    111.66s CPU    114.27s WALL (      88 calls)

     Called by sum_band:
     sum_band:wei :      0.00s CPU      0.00s WALL (      11 calls)
     sum_band:loo :     15.30s CPU     15.82s WALL (      11 calls)
     sum_band:buf :      0.28s CPU      0.30s WALL (      88 calls)
     sum_band:ini :      1.08s CPU      1.10s WALL (      88 calls)
     sum_band:cal :      2.54s CPU      2.84s WALL (      88 calls)
     sum_band:bec :      0.11s CPU      0.11s WALL (      88 calls)
     addusdens    :     10.66s CPU     13.95s WALL (      11 calls)
     addusd:skk   :      0.07s CPU      0.08s WALL (      33 calls)
     addusd:dgemm :      4.54s CPU      7.74s WALL (      33 calls)
     addusd:qvan2 :      5.70s CPU      5.71s WALL (      33 calls)

     Called by *egterg:
     cdiaghg      :      6.38s CPU      6.72s WALL (     509 calls)
     cegterg:over :      7.06s CPU      7.15s WALL (     429 calls)
     cegterg:upda :      3.10s CPU      3.12s WALL (     429 calls)
     cegterg:last :      5.83s CPU      5.86s WALL (     226 calls)
     h_psi        :     79.88s CPU     82.16s WALL (     525 calls)
     s_psi        :      8.64s CPU      8.72s WALL (     525 calls)
     g_psi        :      0.18s CPU      0.18s WALL (     429 calls)

     Called by h_psi:
     h_psi:calbec :      9.21s CPU     10.36s WALL (     525 calls)
     vloc_psi     :     61.04s CPU     62.09s WALL (     525 calls)
     add_vuspsi   :      8.93s CPU      8.99s WALL (     525 calls)

     General routines
     calbec       :     13.61s CPU     15.05s WALL (     653 calls)
     fft          :      1.50s CPU      1.56s WALL (     167 calls)
     ffts         :      0.08s CPU      0.08s WALL (      22 calls)
     fftw         :     66.54s CPU     67.71s WALL (   56106 calls)
     interpolate  :      0.12s CPU      0.12s WALL (      11 calls)
 
     Parallel routines
     fft_scatt_xy :      6.15s CPU      6.23s WALL (   56295 calls)
     fft_scatt_yz :     38.96s CPU     39.70s WALL (   56295 calls)

     PAW routines
     PAW_pot      :      1.89s CPU      1.90s WALL (      11 calls)
     PAW_symme    :      0.03s CPU      0.03s WALL (      22 calls)
 
     PWSCF        :   3m27.35s CPU   3m39.30s WALL

 
   This run was terminated on:  21:54:21  24Jan2021            

=------------------------------------------------------------------------------=
   JOB DONE.
=------------------------------------------------------------------------------=
