
     Program PWSCF v.6.4.1 starts on 24Jan2021 at 17:56:14 

     This program is part of the open-source Quantum ESPRESSO suite
     for quantum simulation of materials; please cite
         "P. Giannozzi et al., J. Phys.:Condens. Matter 21 395502 (2009);
         "P. Giannozzi et al., J. Phys.:Condens. Matter 29 465901 (2017);
          URL http://www.quantum-espresso.org", 
     in publications or presentations arising from this work. More details at
     http://www.quantum-espresso.org/quote

     Parallel version (MPI & OpenMP), running on      48 processor cores
     Number of MPI processes:                24
     Threads/MPI process:                     2

     MPI processes distributed on     1 nodes
     R & G space division:  proc/nbgrp/npool/nimage =      24
     Waiting for input...
     Reading input from standard input

     Current dimensions of program PWSCF are:
     Max number of different atomic species (ntypx) = 10
     Max number of k-points (npk) =  40000
     Max angular momentum in pseudopotentials (lmaxx) =  3
               file Cs.rel-pbesol-spn-kjpaw_psl.1.0.0.UPF: wavefunction(s)  5S 6S renormalized
               file I.rel-pbesol-n-kjpaw_psl.1.0.0.UPF: wavefunction(s)  5S renormalized

     Subspace diagonalization in iterative solution of the eigenvalue problem:
     one sub-group per band group will be used
     scalapack distributed-memory algorithm (size of sub-group:  3*  3 procs)

     Found symmetry operation: I + (  0.0000 -0.5000 -0.5000)
     This is a supercell, fractional translations are disabled
 
     Parallelization info
     --------------------
     sticks:   dense  smooth     PW     G-vecs:    dense   smooth      PW
     Min         123      82     23                 5059     2762     407
     Max         124      84     24                 5064     2763     410
     Sum        2965    1993    553               121481    66299    9795
 

     Title: 
     CsIsalt                                                                    


     bravais-lattice index     =            1
     lattice parameter (alat)  =       8.8160  a.u.
     unit-cell volume          =     685.1896 (a.u.)^3
     number of atoms/cell      =            8
     number of atomic types    =            2
     number of electrons       =        64.00
     number of Kohn-Sham states=           64
     kinetic-energy cutoff     =      80.0000  Ry
     charge density cutoff     =     480.0000  Ry
     convergence threshold     =      1.0E-06
     mixing beta               =       0.5000
     number of iterations used =            8  plain     mixing
     Exchange-correlation      = SLA PW PSX PSC ( 1  4 10  8 0 0)
     Non magnetic calculation with spin-orbit


     celldm(1)=   8.815973  celldm(2)=   0.000000  celldm(3)=   0.000000
     celldm(4)=   0.000000  celldm(5)=   0.000000  celldm(6)=   0.000000

     crystal axes: (cart. coord. in units of alat)
               a(1) = (   1.000000   0.000000   0.000000 )  
               a(2) = (   0.000000   1.000000   0.000000 )  
               a(3) = (   0.000000   0.000000   1.000000 )  

     reciprocal axes: (cart. coord. in units 2 pi/alat)
               b(1) = (  1.000000  0.000000  0.000000 )  
               b(2) = (  0.000000  1.000000  0.000000 )  
               b(3) = (  0.000000  0.000000  1.000000 )  


     PseudoPot. # 1 for Cs read from file:
     /marconi_scratch/userexternal/cmalosso/degironcoli/pseudo/Cs.rel-pbesol-spn-kjpaw_psl.1.0.0.UPF
     MD5 check sum: 2adfb289dd462649b099d7edbec69378
     Pseudo is Projector augmented-wave + core cor, Zval =  9.0
     Generated using "atomic" code by A. Dal Corso v.6.4.1
     Shape of augmentation charge: PSQ
     Using radial grid of 1251 points, 15 beta functions with: 
                l(1) =   0
                l(2) =   0
                l(3) =   0
                l(4) =   1
                l(5) =   1
                l(6) =   1
                l(7) =   1
                l(8) =   2
                l(9) =   2
               l(10) =   2
               l(11) =   2
               l(12) =   3
               l(13) =   3
               l(14) =   3
               l(15) =   3
     Q(r) pseudized with 0 coefficients 


     PseudoPot. # 2 for I  read from file:
     /marconi_scratch/userexternal/cmalosso/degironcoli/pseudo/I.rel-pbesol-n-kjpaw_psl.1.0.0.UPF
     MD5 check sum: 4478c427bd443f303eca1937a163b991
     Pseudo is Projector augmented-wave + core cor, Zval =  7.0
     Generated using "atomic" code by A. Dal Corso v.6.3
     Shape of augmentation charge: PSQ
     Using radial grid of 1247 points, 10 beta functions with: 
                l(1) =   0
                l(2) =   0
                l(3) =   1
                l(4) =   1
                l(5) =   1
                l(6) =   1
                l(7) =   2
                l(8) =   2
                l(9) =   2
               l(10) =   2
     Q(r) pseudized with 0 coefficients 


     atomic species   valence    mass     pseudopotential
        Cs             9.00   132.90000     Cs( 1.00)
        I              7.00   126.90000     I ( 1.00)

     48 Sym. Ops., with inversion, found


                                    s                        frac. trans.

      isym =  1     identity                                     

 cryst.   s( 1) = (     1          0          0      )
                  (     0          1          0      )
                  (     0          0          1      )

 cart.    s( 1) = (  1.0000000  0.0000000  0.0000000 )
                  (  0.0000000  1.0000000  0.0000000 )
                  (  0.0000000  0.0000000  1.0000000 )


      isym =  2     180 deg rotation - cart. axis [0,0,1]        

 cryst.   s( 2) = (    -1          0          0      )
                  (     0         -1          0      )
                  (     0          0          1      )

 cart.    s( 2) = ( -1.0000000  0.0000000  0.0000000 )
                  (  0.0000000 -1.0000000  0.0000000 )
                  (  0.0000000  0.0000000  1.0000000 )


      isym =  3     180 deg rotation - cart. axis [0,1,0]        

 cryst.   s( 3) = (    -1          0          0      )
                  (     0          1          0      )
                  (     0          0         -1      )

 cart.    s( 3) = ( -1.0000000  0.0000000  0.0000000 )
                  (  0.0000000  1.0000000  0.0000000 )
                  (  0.0000000  0.0000000 -1.0000000 )


      isym =  4     180 deg rotation - cart. axis [1,0,0]        

 cryst.   s( 4) = (     1          0          0      )
                  (     0         -1          0      )
                  (     0          0         -1      )

 cart.    s( 4) = (  1.0000000  0.0000000  0.0000000 )
                  (  0.0000000 -1.0000000  0.0000000 )
                  (  0.0000000  0.0000000 -1.0000000 )


      isym =  5     180 deg rotation - cart. axis [1,1,0]        

 cryst.   s( 5) = (     0          1          0      )
                  (     1          0          0      )
                  (     0          0         -1      )

 cart.    s( 5) = (  0.0000000  1.0000000  0.0000000 )
                  (  1.0000000  0.0000000  0.0000000 )
                  (  0.0000000  0.0000000 -1.0000000 )


      isym =  6     180 deg rotation - cart. axis [1,-1,0]       

 cryst.   s( 6) = (     0         -1          0      )
                  (    -1          0          0      )
                  (     0          0         -1      )

 cart.    s( 6) = (  0.0000000 -1.0000000  0.0000000 )
                  ( -1.0000000  0.0000000  0.0000000 )
                  (  0.0000000  0.0000000 -1.0000000 )


      isym =  7      90 deg rotation - cart. axis [0,0,-1]       

 cryst.   s( 7) = (     0         -1          0      )
                  (     1          0          0      )
                  (     0          0          1      )

 cart.    s( 7) = (  0.0000000  1.0000000  0.0000000 )
                  ( -1.0000000  0.0000000  0.0000000 )
                  (  0.0000000  0.0000000  1.0000000 )


      isym =  8      90 deg rotation - cart. axis [0,0,1]        

 cryst.   s( 8) = (     0          1          0      )
                  (    -1          0          0      )
                  (     0          0          1      )

 cart.    s( 8) = (  0.0000000 -1.0000000  0.0000000 )
                  (  1.0000000  0.0000000  0.0000000 )
                  (  0.0000000  0.0000000  1.0000000 )


      isym =  9     180 deg rotation - cart. axis [1,0,1]        

 cryst.   s( 9) = (     0          0          1      )
                  (     0         -1          0      )
                  (     1          0          0      )

 cart.    s( 9) = (  0.0000000  0.0000000  1.0000000 )
                  (  0.0000000 -1.0000000  0.0000000 )
                  (  1.0000000  0.0000000  0.0000000 )


      isym = 10     180 deg rotation - cart. axis [-1,0,1]       

 cryst.   s(10) = (     0          0         -1      )
                  (     0         -1          0      )
                  (    -1          0          0      )

 cart.    s(10) = (  0.0000000  0.0000000 -1.0000000 )
                  (  0.0000000 -1.0000000  0.0000000 )
                  ( -1.0000000  0.0000000  0.0000000 )


      isym = 11      90 deg rotation - cart. axis [0,1,0]        

 cryst.   s(11) = (     0          0         -1      )
                  (     0          1          0      )
                  (     1          0          0      )

 cart.    s(11) = (  0.0000000  0.0000000  1.0000000 )
                  (  0.0000000  1.0000000  0.0000000 )
                  ( -1.0000000  0.0000000  0.0000000 )


      isym = 12      90 deg rotation - cart. axis [0,-1,0]       

 cryst.   s(12) = (     0          0          1      )
                  (     0          1          0      )
                  (    -1          0          0      )

 cart.    s(12) = (  0.0000000  0.0000000 -1.0000000 )
                  (  0.0000000  1.0000000  0.0000000 )
                  (  1.0000000  0.0000000  0.0000000 )


      isym = 13     180 deg rotation - cart. axis [0,1,1]        

 cryst.   s(13) = (    -1          0          0      )
                  (     0          0          1      )
                  (     0          1          0      )

 cart.    s(13) = ( -1.0000000  0.0000000  0.0000000 )
                  (  0.0000000  0.0000000  1.0000000 )
                  (  0.0000000  1.0000000  0.0000000 )


      isym = 14     180 deg rotation - cart. axis [0,1,-1]       

 cryst.   s(14) = (    -1          0          0      )
                  (     0          0         -1      )
                  (     0         -1          0      )

 cart.    s(14) = ( -1.0000000  0.0000000  0.0000000 )
                  (  0.0000000  0.0000000 -1.0000000 )
                  (  0.0000000 -1.0000000  0.0000000 )


      isym = 15      90 deg rotation - cart. axis [-1,0,0]       

 cryst.   s(15) = (     1          0          0      )
                  (     0          0         -1      )
                  (     0          1          0      )

 cart.    s(15) = (  1.0000000  0.0000000  0.0000000 )
                  (  0.0000000  0.0000000  1.0000000 )
                  (  0.0000000 -1.0000000  0.0000000 )


      isym = 16      90 deg rotation - cart. axis [1,0,0]        

 cryst.   s(16) = (     1          0          0      )
                  (     0          0          1      )
                  (     0         -1          0      )

 cart.    s(16) = (  1.0000000  0.0000000  0.0000000 )
                  (  0.0000000  0.0000000 -1.0000000 )
                  (  0.0000000  1.0000000  0.0000000 )


      isym = 17     120 deg rotation - cart. axis [-1,-1,-1]     

 cryst.   s(17) = (     0          0          1      )
                  (     1          0          0      )
                  (     0          1          0      )

 cart.    s(17) = (  0.0000000  1.0000000  0.0000000 )
                  (  0.0000000  0.0000000  1.0000000 )
                  (  1.0000000  0.0000000  0.0000000 )


      isym = 18     120 deg rotation - cart. axis [-1,1,1]       

 cryst.   s(18) = (     0          0         -1      )
                  (    -1          0          0      )
                  (     0          1          0      )

 cart.    s(18) = (  0.0000000 -1.0000000  0.0000000 )
                  (  0.0000000  0.0000000  1.0000000 )
                  ( -1.0000000  0.0000000  0.0000000 )


      isym = 19     120 deg rotation - cart. axis [1,1,-1]       

 cryst.   s(19) = (     0          0         -1      )
                  (     1          0          0      )
                  (     0         -1          0      )

 cart.    s(19) = (  0.0000000  1.0000000  0.0000000 )
                  (  0.0000000  0.0000000 -1.0000000 )
                  ( -1.0000000  0.0000000  0.0000000 )


      isym = 20     120 deg rotation - cart. axis [1,-1,1]       

 cryst.   s(20) = (     0          0          1      )
                  (    -1          0          0      )
                  (     0         -1          0      )

 cart.    s(20) = (  0.0000000 -1.0000000  0.0000000 )
                  (  0.0000000  0.0000000 -1.0000000 )
                  (  1.0000000  0.0000000  0.0000000 )


      isym = 21     120 deg rotation - cart. axis [1,1,1]        

 cryst.   s(21) = (     0          1          0      )
                  (     0          0          1      )
                  (     1          0          0      )

 cart.    s(21) = (  0.0000000  0.0000000  1.0000000 )
                  (  1.0000000  0.0000000  0.0000000 )
                  (  0.0000000  1.0000000  0.0000000 )


      isym = 22     120 deg rotation - cart. axis [-1,1,-1]      

 cryst.   s(22) = (     0         -1          0      )
                  (     0          0         -1      )
                  (     1          0          0      )

 cart.    s(22) = (  0.0000000  0.0000000  1.0000000 )
                  ( -1.0000000  0.0000000  0.0000000 )
                  (  0.0000000 -1.0000000  0.0000000 )


      isym = 23     120 deg rotation - cart. axis [1,-1,-1]      

 cryst.   s(23) = (     0         -1          0      )
                  (     0          0          1      )
                  (    -1          0          0      )

 cart.    s(23) = (  0.0000000  0.0000000 -1.0000000 )
                  ( -1.0000000  0.0000000  0.0000000 )
                  (  0.0000000  1.0000000  0.0000000 )


      isym = 24     120 deg rotation - cart. axis [-1,-1,1]      

 cryst.   s(24) = (     0          1          0      )
                  (     0          0         -1      )
                  (    -1          0          0      )

 cart.    s(24) = (  0.0000000  0.0000000 -1.0000000 )
                  (  1.0000000  0.0000000  0.0000000 )
                  (  0.0000000 -1.0000000  0.0000000 )


      isym = 25     inversion                                    

 cryst.   s(25) = (    -1          0          0      )
                  (     0         -1          0      )
                  (     0          0         -1      )

 cart.    s(25) = ( -1.0000000  0.0000000  0.0000000 )
                  (  0.0000000 -1.0000000  0.0000000 )
                  (  0.0000000  0.0000000 -1.0000000 )


      isym = 26     inv. 180 deg rotation - cart. axis [0,0,1]   

 cryst.   s(26) = (     1          0          0      )
                  (     0          1          0      )
                  (     0          0         -1      )

 cart.    s(26) = (  1.0000000  0.0000000  0.0000000 )
                  (  0.0000000  1.0000000  0.0000000 )
                  (  0.0000000  0.0000000 -1.0000000 )


      isym = 27     inv. 180 deg rotation - cart. axis [0,1,0]   

 cryst.   s(27) = (     1          0          0      )
                  (     0         -1          0      )
                  (     0          0          1      )

 cart.    s(27) = (  1.0000000  0.0000000  0.0000000 )
                  (  0.0000000 -1.0000000  0.0000000 )
                  (  0.0000000  0.0000000  1.0000000 )


      isym = 28     inv. 180 deg rotation - cart. axis [1,0,0]   

 cryst.   s(28) = (    -1          0          0      )
                  (     0          1          0      )
                  (     0          0          1      )

 cart.    s(28) = ( -1.0000000  0.0000000  0.0000000 )
                  (  0.0000000  1.0000000  0.0000000 )
                  (  0.0000000  0.0000000  1.0000000 )


      isym = 29     inv. 180 deg rotation - cart. axis [1,1,0]   

 cryst.   s(29) = (     0         -1          0      )
                  (    -1          0          0      )
                  (     0          0          1      )

 cart.    s(29) = (  0.0000000 -1.0000000  0.0000000 )
                  ( -1.0000000  0.0000000  0.0000000 )
                  (  0.0000000  0.0000000  1.0000000 )


      isym = 30     inv. 180 deg rotation - cart. axis [1,-1,0]  

 cryst.   s(30) = (     0          1          0      )
                  (     1          0          0      )
                  (     0          0          1      )

 cart.    s(30) = (  0.0000000  1.0000000  0.0000000 )
                  (  1.0000000  0.0000000  0.0000000 )
                  (  0.0000000  0.0000000  1.0000000 )


      isym = 31     inv.  90 deg rotation - cart. axis [0,0,-1]  

 cryst.   s(31) = (     0          1          0      )
                  (    -1          0          0      )
                  (     0          0         -1      )

 cart.    s(31) = (  0.0000000 -1.0000000  0.0000000 )
                  (  1.0000000  0.0000000  0.0000000 )
                  (  0.0000000  0.0000000 -1.0000000 )


      isym = 32     inv.  90 deg rotation - cart. axis [0,0,1]   

 cryst.   s(32) = (     0         -1          0      )
                  (     1          0          0      )
                  (     0          0         -1      )

 cart.    s(32) = (  0.0000000  1.0000000  0.0000000 )
                  ( -1.0000000  0.0000000  0.0000000 )
                  (  0.0000000  0.0000000 -1.0000000 )


      isym = 33     inv. 180 deg rotation - cart. axis [1,0,1]   

 cryst.   s(33) = (     0          0         -1      )
                  (     0          1          0      )
                  (    -1          0          0      )

 cart.    s(33) = (  0.0000000  0.0000000 -1.0000000 )
                  (  0.0000000  1.0000000  0.0000000 )
                  ( -1.0000000  0.0000000  0.0000000 )


      isym = 34     inv. 180 deg rotation - cart. axis [-1,0,1]  

 cryst.   s(34) = (     0          0          1      )
                  (     0          1          0      )
                  (     1          0          0      )

 cart.    s(34) = (  0.0000000  0.0000000  1.0000000 )
                  (  0.0000000  1.0000000  0.0000000 )
                  (  1.0000000  0.0000000  0.0000000 )


      isym = 35     inv.  90 deg rotation - cart. axis [0,1,0]   

 cryst.   s(35) = (     0          0          1      )
                  (     0         -1          0      )
                  (    -1          0          0      )

 cart.    s(35) = (  0.0000000  0.0000000 -1.0000000 )
                  (  0.0000000 -1.0000000  0.0000000 )
                  (  1.0000000  0.0000000  0.0000000 )


      isym = 36     inv.  90 deg rotation - cart. axis [0,-1,0]  

 cryst.   s(36) = (     0          0         -1      )
                  (     0         -1          0      )
                  (     1          0          0      )

 cart.    s(36) = (  0.0000000  0.0000000  1.0000000 )
                  (  0.0000000 -1.0000000  0.0000000 )
                  ( -1.0000000  0.0000000  0.0000000 )


      isym = 37     inv. 180 deg rotation - cart. axis [0,1,1]   

 cryst.   s(37) = (     1          0          0      )
                  (     0          0         -1      )
                  (     0         -1          0      )

 cart.    s(37) = (  1.0000000  0.0000000  0.0000000 )
                  (  0.0000000  0.0000000 -1.0000000 )
                  (  0.0000000 -1.0000000  0.0000000 )


      isym = 38     inv. 180 deg rotation - cart. axis [0,1,-1]  

 cryst.   s(38) = (     1          0          0      )
                  (     0          0          1      )
                  (     0          1          0      )

 cart.    s(38) = (  1.0000000  0.0000000  0.0000000 )
                  (  0.0000000  0.0000000  1.0000000 )
                  (  0.0000000  1.0000000  0.0000000 )


      isym = 39     inv.  90 deg rotation - cart. axis [-1,0,0]  

 cryst.   s(39) = (    -1          0          0      )
                  (     0          0          1      )
                  (     0         -1          0      )

 cart.    s(39) = ( -1.0000000  0.0000000  0.0000000 )
                  (  0.0000000  0.0000000 -1.0000000 )
                  (  0.0000000  1.0000000  0.0000000 )


      isym = 40     inv.  90 deg rotation - cart. axis [1,0,0]   

 cryst.   s(40) = (    -1          0          0      )
                  (     0          0         -1      )
                  (     0          1          0      )

 cart.    s(40) = ( -1.0000000  0.0000000  0.0000000 )
                  (  0.0000000  0.0000000  1.0000000 )
                  (  0.0000000 -1.0000000  0.0000000 )


      isym = 41     inv. 120 deg rotation - cart. axis [-1,-1,-1]

 cryst.   s(41) = (     0          0         -1      )
                  (    -1          0          0      )
                  (     0         -1          0      )

 cart.    s(41) = (  0.0000000 -1.0000000  0.0000000 )
                  (  0.0000000  0.0000000 -1.0000000 )
                  ( -1.0000000  0.0000000  0.0000000 )


      isym = 42     inv. 120 deg rotation - cart. axis [-1,1,1]  

 cryst.   s(42) = (     0          0          1      )
                  (     1          0          0      )
                  (     0         -1          0      )

 cart.    s(42) = (  0.0000000  1.0000000  0.0000000 )
                  (  0.0000000  0.0000000 -1.0000000 )
                  (  1.0000000  0.0000000  0.0000000 )


      isym = 43     inv. 120 deg rotation - cart. axis [1,1,-1]  

 cryst.   s(43) = (     0          0          1      )
                  (    -1          0          0      )
                  (     0          1          0      )

 cart.    s(43) = (  0.0000000 -1.0000000  0.0000000 )
                  (  0.0000000  0.0000000  1.0000000 )
                  (  1.0000000  0.0000000  0.0000000 )


      isym = 44     inv. 120 deg rotation - cart. axis [1,-1,1]  

 cryst.   s(44) = (     0          0         -1      )
                  (     1          0          0      )
                  (     0          1          0      )

 cart.    s(44) = (  0.0000000  1.0000000  0.0000000 )
                  (  0.0000000  0.0000000  1.0000000 )
                  ( -1.0000000  0.0000000  0.0000000 )


      isym = 45     inv. 120 deg rotation - cart. axis [1,1,1]   

 cryst.   s(45) = (     0         -1          0      )
                  (     0          0         -1      )
                  (    -1          0          0      )

 cart.    s(45) = (  0.0000000  0.0000000 -1.0000000 )
                  ( -1.0000000  0.0000000  0.0000000 )
                  (  0.0000000 -1.0000000  0.0000000 )


      isym = 46     inv. 120 deg rotation - cart. axis [-1,1,-1] 

 cryst.   s(46) = (     0          1          0      )
                  (     0          0          1      )
                  (    -1          0          0      )

 cart.    s(46) = (  0.0000000  0.0000000 -1.0000000 )
                  (  1.0000000  0.0000000  0.0000000 )
                  (  0.0000000  1.0000000  0.0000000 )


      isym = 47     inv. 120 deg rotation - cart. axis [1,-1,-1] 

 cryst.   s(47) = (     0          1          0      )
                  (     0          0         -1      )
                  (     1          0          0      )

 cart.    s(47) = (  0.0000000  0.0000000  1.0000000 )
                  (  1.0000000  0.0000000  0.0000000 )
                  (  0.0000000 -1.0000000  0.0000000 )


      isym = 48     inv. 120 deg rotation - cart. axis [-1,-1,1] 

 cryst.   s(48) = (     0         -1          0      )
                  (     0          0          1      )
                  (     1          0          0      )

 cart.    s(48) = (  0.0000000  0.0000000  1.0000000 )
                  ( -1.0000000  0.0000000  0.0000000 )
                  (  0.0000000  1.0000000  0.0000000 )


     double point group O_h (m-3m) 
     there are 16 classes and  6 irreducible representations
     the character table:

       E     -E    8C3   -8C3   3C2  6C4   -6C4   6C2' i     -i    8S6   -8S6 
                               -3C2              -6C2'                        
G_6+   2.00 -2.00  1.00 -1.00  0.00  1.41 -1.41  0.00  2.00 -2.00  1.00 -1.00
G_7+   2.00 -2.00  1.00 -1.00  0.00 -1.41  1.41  0.00  2.00 -2.00  1.00 -1.00
G_8+   4.00 -4.00 -1.00  1.00  0.00  0.00  0.00  0.00  4.00 -4.00 -1.00  1.00
G_6-   2.00 -2.00  1.00 -1.00  0.00  1.41 -1.41  0.00 -2.00  2.00 -1.00  1.00
G_7-   2.00 -2.00  1.00 -1.00  0.00 -1.41  1.41  0.00 -2.00  2.00 -1.00  1.00
G_8-   4.00 -4.00 -1.00  1.00  0.00  0.00  0.00  0.00 -4.00  4.00  1.00 -1.00

        3s_h 6S4   -6S4   6s_d
       -3s_h             -6s_d
G_6+   0.00  1.41 -1.41  0.00
G_7+   0.00 -1.41  1.41  0.00
G_8+   0.00  0.00  0.00  0.00
G_6-   0.00 -1.41  1.41  0.00
G_7-   0.00  1.41 -1.41  0.00
G_8-   0.00  0.00  0.00  0.00

     the symmetry operations in each class and the name of the first element:

     E             1
          identity                                               
     -E           -1
          identity E                                             
     8C3          17   19   20   18   24   21   22   23
          120 deg rotation - cart. axis [-1,-1,-1]               
     -8C3        -17  -19  -20  -18  -24  -21  -22  -23
          120 deg rotation - cart. axis [-1,-1,-1] E             
      3C2 -3C2     2   -2    4   -4    3   -3
          180 deg rotation - cart. axis [0,0,1]                  
     6C4           7    8   15   16   12   11
           90 deg rotation - cart. axis [0,0,-1]                 
     -6C4         -7   -8  -15  -16  -12  -11
           90 deg rotation - cart. axis [0,0,-1] E               
      6C2'-6C2'    5   -5   -6    6   14  -13  -14   13   10   -9  -10    9
          180 deg rotation - cart. axis [1,1,0]                  
     i            25
          inversion                                              
     -i          -25
          inversion E                                            
     8S6          41   43   44   42   48   45   46   47
          inv. 120 deg rotation - cart. axis [-1,-1,-1]          
     -8S6        -41  -43  -44  -42  -48  -45  -46  -47
          inv. 120 deg rotation - cart. axis [-1,-1,-1] E        
      3s_h-3s_h   26  -26   28  -28   27  -27
          inv. 180 deg rotation - cart. axis [0,0,1]             
     6S4          31   32   39   40   36   35
          inv.  90 deg rotation - cart. axis [0,0,-1]            
     -6S4        -31  -32  -39  -40  -36  -35
          inv.  90 deg rotation - cart. axis [0,0,-1] E          
      6s_d-6s_d   29  -29  -30   30   38  -37  -38   37   34  -33  -34   33
          inv. 180 deg rotation - cart. axis [1,1,0]             

   Cartesian axes

     site n.     atom                  positions (alat units)
         1           Cs  tau(   1) = (   0.0000000   0.0000000   0.0000000  )
         2           Cs  tau(   2) = (   0.0000000   0.5000000   0.5000000  )
         3           Cs  tau(   3) = (   0.5000000   0.0000000   0.5000000  )
         4           Cs  tau(   4) = (   0.5000000   0.5000000   0.0000000  )
         5           I   tau(   5) = (   0.5000000   0.0000000   0.0000000  )
         6           I   tau(   6) = (   0.5000000   0.5000000   0.5000000  )
         7           I   tau(   7) = (   0.0000000   0.0000000   0.5000000  )
         8           I   tau(   8) = (   0.0000000   0.5000000   0.0000000  )

   Crystallographic axes

     site n.     atom                  positions (cryst. coord.)
         1           Cs  tau(   1) = (  0.0000000  0.0000000  0.0000000  )
         2           Cs  tau(   2) = (  0.0000000  0.5000000  0.5000000  )
         3           Cs  tau(   3) = (  0.5000000  0.0000000  0.5000000  )
         4           Cs  tau(   4) = (  0.5000000  0.5000000  0.0000000  )
         5           I   tau(   5) = (  0.5000000  0.0000000  0.0000000  )
         6           I   tau(   6) = (  0.5000000  0.5000000  0.5000000  )
         7           I   tau(   7) = (  0.0000000  0.0000000  0.5000000  )
         8           I   tau(   8) = (  0.0000000  0.5000000  0.0000000  )

     number of k points=    10
                       cart. coord. in units 2pi/alat
        k(    1) = (   0.0833333   0.0833333   0.0833333), wk =   0.0370370
        k(    2) = (   0.0833333   0.0833333   0.2500000), wk =   0.1111111
        k(    3) = (   0.0833333   0.0833333   0.4166667), wk =   0.1111111
        k(    4) = (   0.0833333   0.2500000   0.2500000), wk =   0.1111111
        k(    5) = (   0.0833333   0.2500000   0.4166667), wk =   0.2222222
        k(    6) = (   0.0833333   0.4166667   0.4166667), wk =   0.1111111
        k(    7) = (   0.2500000   0.2500000   0.2500000), wk =   0.0370370
        k(    8) = (   0.2500000   0.2500000   0.4166667), wk =   0.1111111
        k(    9) = (   0.2500000   0.4166667   0.4166667), wk =   0.1111111
        k(   10) = (   0.4166667   0.4166667   0.4166667), wk =   0.0370370

                       cryst. coord.
        k(    1) = (   0.0833333   0.0833333   0.0833333), wk =   0.0370370
        k(    2) = (   0.0833333   0.0833333   0.2500000), wk =   0.1111111
        k(    3) = (   0.0833333   0.0833333   0.4166667), wk =   0.1111111
        k(    4) = (   0.0833333   0.2500000   0.2500000), wk =   0.1111111
        k(    5) = (   0.0833333   0.2500000   0.4166667), wk =   0.2222222
        k(    6) = (   0.0833333   0.4166667   0.4166667), wk =   0.1111111
        k(    7) = (   0.2500000   0.2500000   0.2500000), wk =   0.0370370
        k(    8) = (   0.2500000   0.2500000   0.4166667), wk =   0.1111111
        k(    9) = (   0.2500000   0.4166667   0.4166667), wk =   0.1111111
        k(   10) = (   0.4166667   0.4166667   0.4166667), wk =   0.0370370

     Dense  grid:   121481 G-vectors     FFT dimensions: (  64,  64,  64)

     Smooth grid:    66299 G-vectors     FFT dimensions: (  54,  54,  54)

     Dynamical RAM for                 wfc:       0.67 MB

     Dynamical RAM for     wfc (w. buffer):       7.39 MB

     Dynamical RAM for           str. fact:       0.15 MB

     Dynamical RAM for           local pot:       0.00 MB

     Dynamical RAM for          nlocal pot:       2.04 MB

     Dynamical RAM for                qrad:      39.45 MB

     Dynamical RAM for          rho,v,vnew:       2.05 MB

     Dynamical RAM for               rhoin:       0.68 MB

     Dynamical RAM for            rho*nmix:       4.94 MB

     Dynamical RAM for           G-vectors:       0.31 MB

     Dynamical RAM for          h,s,v(r/c):       0.33 MB

     Dynamical RAM for          <psi|beta>:       0.76 MB

     Dynamical RAM for                 psi:       2.69 MB

     Dynamical RAM for                hpsi:       2.69 MB

     Dynamical RAM for                spsi:       2.69 MB

     Dynamical RAM for      wfcinit/wfcrot:       1.25 MB

     Dynamical RAM for           addusdens:     158.08 MB

     Dynamical RAM for          addusforce:     159.88 MB

     Dynamical RAM for         addusstress:     160.09 MB

     Estimated static dynamical RAM per process >      58.00 MB

     Estimated max dynamical RAM per process >     218.09 MB

     Estimated total dynamical RAM >       5.11 GB

     Initial potential from superposition of free atoms

     starting charge   63.84620, renormalised to   64.00000
     Starting wfcs are   72 randomized atomic wfcs
     Checking if some PAW data can be deallocated... 
       PAW data deallocated on   12 nodes for type:  1
       PAW data deallocated on   12 nodes for type:  2

     total cpu time spent up to now is       17.8 secs

     Self-consistent Calculation

     iteration #  1     ecut=    80.00 Ry     beta= 0.50
     Davidson diagonalization with overlap
     ethr =  1.00E-02,  avg # of iterations =  6.9

     Threshold (ethr) on eigenvalues was too large:
     Diagonalizing with lowered threshold

     Davidson diagonalization with overlap
     c_bands:  1 eigenvalues not converged
     ethr =  1.66E-04,  avg # of iterations =  9.2

     total cpu time spent up to now is       98.1 secs

     total energy              =   -3131.16086032 Ry
     Harris-Foulkes estimate   =   -3131.20311476 Ry
     estimated scf accuracy    <       0.12181029 Ry

     iteration #  2     ecut=    80.00 Ry     beta= 0.50
     Davidson diagonalization with overlap
     ethr =  1.90E-04,  avg # of iterations =  2.1

     total cpu time spent up to now is      123.2 secs

     total energy              =   -3131.16368280 Ry
     Harris-Foulkes estimate   =   -3131.16804062 Ry
     estimated scf accuracy    <       0.02036621 Ry

     iteration #  3     ecut=    80.00 Ry     beta= 0.50
     Davidson diagonalization with overlap
     ethr =  3.18E-05,  avg # of iterations =  5.6

     total cpu time spent up to now is      168.9 secs

     total energy              =   -3131.17957369 Ry
     Harris-Foulkes estimate   =   -3131.18161500 Ry
     estimated scf accuracy    <       0.00617022 Ry

     iteration #  4     ecut=    80.00 Ry     beta= 0.50
     Davidson diagonalization with overlap
     c_bands:  1 eigenvalues not converged
     ethr =  9.64E-06,  avg # of iterations =  4.2

     total cpu time spent up to now is      197.3 secs

     total energy              =   -3131.17840965 Ry
     Harris-Foulkes estimate   =   -3131.17996579 Ry
     estimated scf accuracy    <       0.00302527 Ry

     iteration #  5     ecut=    80.00 Ry     beta= 0.50
     Davidson diagonalization with overlap
     ethr =  4.73E-06,  avg # of iterations =  5.1

     total cpu time spent up to now is      236.8 secs

     total energy              =   -3131.17949031 Ry
     Harris-Foulkes estimate   =   -3131.17946064 Ry
     estimated scf accuracy    <       0.00008557 Ry

     iteration #  6     ecut=    80.00 Ry     beta= 0.50
     Davidson diagonalization with overlap
     c_bands:  2 eigenvalues not converged
     c_bands:  2 eigenvalues not converged
     ethr =  1.34E-07,  avg # of iterations =  8.6

     total cpu time spent up to now is      282.1 secs

     total energy              =   -3131.17947732 Ry
     Harris-Foulkes estimate   =   -3131.17957249 Ry
     estimated scf accuracy    <       0.00018521 Ry

     iteration #  7     ecut=    80.00 Ry     beta= 0.50
     Davidson diagonalization with overlap
     ethr =  1.34E-07,  avg # of iterations =  5.5

     total cpu time spent up to now is      314.2 secs

     total energy              =   -3131.17947049 Ry
     Harris-Foulkes estimate   =   -3131.17949649 Ry
     estimated scf accuracy    <       0.00003393 Ry

     iteration #  8     ecut=    80.00 Ry     beta= 0.50
     Davidson diagonalization with overlap
     ethr =  5.30E-08,  avg # of iterations =  5.9

     total cpu time spent up to now is      364.8 secs

     total energy              =   -3131.17948489 Ry
     Harris-Foulkes estimate   =   -3131.17948760 Ry
     estimated scf accuracy    <       0.00000620 Ry

     iteration #  9     ecut=    80.00 Ry     beta= 0.50
     Davidson diagonalization with overlap
     ethr =  9.69E-09,  avg # of iterations =  6.5

     total cpu time spent up to now is      396.8 secs

     End of self-consistent calculation

          k = 0.0833 0.0833 0.0833 (  8289 PWs)   bands (ev):

    -1.7981  -1.7981   2.5116   2.5116   2.5116   2.5116   2.5118   2.5118
     8.9151   8.9151   8.9153   8.9153   8.9153   8.9153  10.3837  10.3837
    10.3841  10.3841  10.3841  10.3841  12.5526  12.5526  12.5527  12.5527
    12.5529  12.5529  13.7602  13.7602  13.7605  13.7605  13.7606  13.7606
    14.1582  14.1582  15.7755  15.7755  16.6403  16.6403  19.6376  19.6376
    22.5781  22.5781  22.5781  22.5781  22.5781  22.5781  24.7857  24.7857
    26.0399  26.0399  26.1701  26.1701  26.8643  26.8643  27.0329  27.0329
    27.1371  27.1371  29.1074  29.1074  29.1075  29.1075  29.1076  29.1076

     occupation numbers 
     1.0000   1.0000   1.0000   1.0000   1.0000   1.0000   1.0000   1.0000
     1.0000   1.0000   1.0000   1.0000   1.0000   1.0000   1.0000   1.0000
     1.0000   1.0000   1.0000   1.0000   1.0000   1.0000   1.0000   1.0000
     1.0000   1.0000   1.0000   1.0000   1.0000   1.0000   1.0000   1.0000
     1.0000   1.0000   1.0000   1.0000   1.0000   1.0000   1.0000   1.0000
     1.0000   1.0000   1.0000   1.0000   1.0000   1.0000   1.0000   1.0000
     1.0000   1.0000   1.0000   1.0000   1.0000   1.0000   1.0000   1.0000
     1.0000   1.0000   1.0000   1.0000   1.0000   1.0000   1.0000   1.0000

          k = 0.0833 0.0833 0.2500 (  8296 PWs)   bands (ev):

    -1.4363  -1.4363   1.5080   1.5080   2.6747   2.6747   2.6748   2.6748
     8.4330   8.4330   8.4334   8.4334   9.4737   9.4737   9.7237   9.7237
     9.7238   9.7238  11.8233  11.8233  12.1322  12.1322  12.1323  12.1323
    12.7777  12.7777  12.9765  12.9765  14.2230  14.2230  15.1343  15.1343
    15.9866  15.9866  15.9869  15.9869  16.2294  16.2294  21.2384  21.2384
    22.6284  22.6284  22.8924  22.8924  23.9174  23.9174  23.9174  23.9174
    25.4084  25.4084  25.7550  25.7550  26.4202  26.4202  26.4205  26.4205
    26.6273  26.6273  28.2456  28.2456  28.2624  28.2624  28.4592  28.4592

     occupation numbers 
     1.0000   1.0000   1.0000   1.0000   1.0000   1.0000   1.0000   1.0000
     1.0000   1.0000   1.0000   1.0000   1.0000   1.0000   1.0000   1.0000
     1.0000   1.0000   1.0000   1.0000   1.0000   1.0000   1.0000   1.0000
     1.0000   1.0000   1.0000   1.0000   1.0000   1.0000   1.0000   1.0000
     1.0000   1.0000   1.0000   1.0000   1.0000   1.0000   1.0000   1.0000
     1.0000   1.0000   1.0000   1.0000   1.0000   1.0000   1.0000   1.0000
     1.0000   1.0000   1.0000   1.0000   1.0000   1.0000   1.0000   1.0000
     1.0000   1.0000   1.0000   1.0000   1.0000   1.0000   1.0000   1.0000

          k = 0.0833 0.0833 0.4167 (  8271 PWs)   bands (ev):

    -0.7244  -0.7244   0.2983   0.2983   2.8658   2.8658   2.8659   2.8659
     7.6263   7.6263   7.6268   7.6268  10.2333  10.2333  10.2334  10.2334
    10.2749  10.2749  11.2061  11.2061  11.2063  11.2063  11.3833  11.3833
    13.2823  13.2823  14.1473  14.1473  14.2288  14.2288  15.2889  15.2889
    15.6507  15.6507  18.6042  18.6042  18.9361  18.9361  18.9364  18.9364
    22.9765  22.9765  22.9769  22.9769  23.5114  23.5114  24.3198  24.3198
    24.8230  24.8230  26.1544  26.1544  26.1544  26.1544  26.2331  26.2331
    27.1005  27.1005  27.3110  27.3110  27.8664  27.8664  28.7066  28.7066

     occupation numbers 
     1.0000   1.0000   1.0000   1.0000   1.0000   1.0000   1.0000   1.0000
     1.0000   1.0000   1.0000   1.0000   1.0000   1.0000   1.0000   1.0000
     1.0000   1.0000   1.0000   1.0000   1.0000   1.0000   1.0000   1.0000
     1.0000   1.0000   1.0000   1.0000   1.0000   1.0000   1.0000   1.0000
     1.0000   1.0000   1.0000   1.0000   1.0000   1.0000   1.0000   1.0000
     1.0000   1.0000   1.0000   1.0000   1.0000   1.0000   1.0000   1.0000
     1.0000   1.0000   1.0000   1.0000   1.0000   1.0000   1.0000   1.0000
     1.0000   1.0000   1.0000   1.0000   1.0000   1.0000   1.0000   1.0000

          k = 0.0833 0.2500 0.2500 (  8290 PWs)   bands (ev):

    -1.0797  -1.0797   1.7659   1.7659   1.7659   1.7659   2.7108   2.7108
     7.4188   7.4188   8.3232   8.3232   8.3237   8.3237   9.9273   9.9273
    11.2904  11.2904  11.7469  11.7469  11.7470  11.7470  12.5851  12.5851
    12.5852  12.5852  13.5300  13.5300  14.7828  14.7828  16.0957  16.0957
    16.3850  16.3850  16.3853  16.3853  16.9121  16.9121  21.8192  21.8192
    22.2165  22.2165  23.3144  23.3144  24.2020  24.2020  24.2020  24.2020
    25.2505  25.2505  25.4490  25.4490  25.4490  25.4490  25.9071  25.9071
    25.9200  25.9200  27.2952  27.2952  27.6125  27.6125  28.3182  28.3182

     occupation numbers 
     1.0000   1.0000   1.0000   1.0000   1.0000   1.0000   1.0000   1.0000
     1.0000   1.0000   1.0000   1.0000   1.0000   1.0000   1.0000   1.0000
     1.0000   1.0000   1.0000   1.0000   1.0000   1.0000   1.0000   1.0000
     1.0000   1.0000   1.0000   1.0000   1.0000   1.0000   1.0000   1.0000
     1.0000   1.0000   1.0000   1.0000   1.0000   1.0000   1.0000   1.0000
     1.0000   1.0000   1.0000   1.0000   1.0000   1.0000   1.0000   1.0000
     1.0000   1.0000   1.0000   1.0000   1.0000   1.0000   1.0000   1.0000
     1.0000   1.0000   1.0000   1.0000   1.0000   1.0000   1.0000   1.0000

          k = 0.0833 0.2500 0.4167 (  8275 PWs)   bands (ev):

    -0.3806  -0.3806   0.6146   0.6146   2.1982   2.1982   2.5878   2.5878
     6.8802   6.8802   7.2601   7.2601   8.8799   8.8799   9.9055   9.9055
    10.5564  10.5564  11.4001  11.4001  12.5367  12.5367  13.0001  13.0001
    13.2650  13.2650  13.8985  13.8985  14.5907  14.5907  16.4903  16.4903
    17.2935  17.2935  18.2723  18.2723  19.1903  19.1903  19.3511  19.3511
    22.1050  22.1050  23.0759  23.0759  23.2881  23.2881  23.9929  23.9929
    24.2081  24.2081  24.8261  24.8261  25.7060  25.7060  26.3839  26.3839
    27.0855  27.0855  27.2315  27.2315  27.4030  27.4030  28.4290  28.4290

     occupation numbers 
     1.0000   1.0000   1.0000   1.0000   1.0000   1.0000   1.0000   1.0000
     1.0000   1.0000   1.0000   1.0000   1.0000   1.0000   1.0000   1.0000
     1.0000   1.0000   1.0000   1.0000   1.0000   1.0000   1.0000   1.0000
     1.0000   1.0000   1.0000   1.0000   1.0000   1.0000   1.0000   1.0000
     1.0000   1.0000   1.0000   1.0000   1.0000   1.0000   1.0000   1.0000
     1.0000   1.0000   1.0000   1.0000   1.0000   1.0000   1.0000   1.0000
     1.0000   1.0000   1.0000   1.0000   1.0000   1.0000   1.0000   1.0000
     1.0000   1.0000   1.0000   1.0000   1.0000   1.0000   1.0000   1.0000

          k = 0.0833 0.4167 0.4167 (  8278 PWs)   bands (ev):

     0.2860   0.2860   1.2081   1.2081   1.2082   1.2082   1.9567   1.9567
     6.8592   6.8592   7.6126   7.6126   7.6130   7.6130   8.5504   8.5504
    11.2129  11.2129  12.0987  12.0987  12.0990  12.0990  12.9884  12.9884
    15.1753  15.1753  15.1755  15.1755  15.2008  15.2008  16.9955  16.9955
    18.1904  18.1904  19.5602  19.5602  19.5604  19.5604  20.4085  20.4085
    20.8967  20.8967  21.3158  21.3158  21.3159  21.3159  22.6892  22.6892
    23.6699  23.6699  25.6283  25.6283  25.6974  25.6974  25.6975  25.6975
    26.9538  26.9538  27.1186  27.1186  27.1186  27.1186  28.7202  28.7202

     occupation numbers 
     1.0000   1.0000   1.0000   1.0000   1.0000   1.0000   1.0000   1.0000
     1.0000   1.0000   1.0000   1.0000   1.0000   1.0000   1.0000   1.0000
     1.0000   1.0000   1.0000   1.0000   1.0000   1.0000   1.0000   1.0000
     1.0000   1.0000   1.0000   1.0000   1.0000   1.0000   1.0000   1.0000
     1.0000   1.0000   1.0000   1.0000   1.0000   1.0000   1.0000   1.0000
     1.0000   1.0000   1.0000   1.0000   1.0000   1.0000   1.0000   1.0000
     1.0000   1.0000   1.0000   1.0000   1.0000   1.0000   1.0000   1.0000
     1.0000   1.0000   1.0000   1.0000   1.0000   1.0000   1.0000   1.0000

          k = 0.2500 0.2500 0.2500 (  8279 PWs)   bands (ev):

    -0.7302  -0.7302   1.9579   1.9579   1.9579   1.9579   1.9581   1.9581
     7.1670   7.1670   7.1676   7.1676   7.1676   7.1676   9.8952   9.8952
    11.9945  11.9945  11.9945  11.9945  11.9947  11.9947  13.8871  13.8871
    13.8872  13.8872  13.8873  13.8873  15.6498  15.6498  16.5152  16.5152
    16.5157  16.5157  16.5157  16.5157  16.7821  16.7821  21.4682  21.4682
    22.1196  22.1196  22.9761  22.9761  24.4007  24.4007  24.9562  24.9562
    24.9563  24.9563  24.9565  24.9565  25.4426  25.4426  25.4426  25.4426
    25.4427  25.4427  27.1172  27.1172  27.1172  27.1172  27.1172  27.1172

     occupation numbers 
     1.0000   1.0000   1.0000   1.0000   1.0000   1.0000   1.0000   1.0000
     1.0000   1.0000   1.0000   1.0000   1.0000   1.0000   1.0000   1.0000
     1.0000   1.0000   1.0000   1.0000   1.0000   1.0000   1.0000   1.0000
     1.0000   1.0000   1.0000   1.0000   1.0000   1.0000   1.0000   1.0000
     1.0000   1.0000   1.0000   1.0000   1.0000   1.0000   1.0000   1.0000
     1.0000   1.0000   1.0000   1.0000   1.0000   1.0000   1.0000   1.0000
     1.0000   1.0000   1.0000   1.0000   1.0000   1.0000   1.0000   1.0000
     1.0000   1.0000   1.0000   1.0000   1.0000   1.0000   1.0000   1.0000

          k = 0.2500 0.2500 0.4167 (  8274 PWs)   bands (ev):

    -0.0494  -0.0494   0.9037   0.9037   2.1918   2.1918   2.1920   2.1920
     6.2949   6.2949   6.2954   6.2954   7.5944   7.5944   8.5566   8.5566
    12.5025  12.5025  12.5027  12.5027  13.7301  13.7301  13.7304  13.7304
    14.1837  14.1837  14.8675  14.8675  15.1406  15.1406  16.4756  16.4756
    17.4942  17.4942  18.5970  18.5970  18.5973  18.5973  19.6099  19.6099
    22.1992  22.1992  22.1995  22.1995  22.6077  22.6077  23.1420  23.1420
    23.9194  23.9194  24.6135  24.6135  24.9376  24.9376  26.2597  26.2597
    26.2599  26.2599  26.5866  26.5866  26.9612  26.9612  27.5660  27.5660

     occupation numbers 
     1.0000   1.0000   1.0000   1.0000   1.0000   1.0000   1.0000   1.0000
     1.0000   1.0000   1.0000   1.0000   1.0000   1.0000   1.0000   1.0000
     1.0000   1.0000   1.0000   1.0000   1.0000   1.0000   1.0000   1.0000
     1.0000   1.0000   1.0000   1.0000   1.0000   1.0000   1.0000   1.0000
     1.0000   1.0000   1.0000   1.0000   1.0000   1.0000   1.0000   1.0000
     1.0000   1.0000   1.0000   1.0000   1.0000   1.0000   1.0000   1.0000
     1.0000   1.0000   1.0000   1.0000   1.0000   1.0000   1.0000   1.0000
     1.0000   1.0000   1.0000   1.0000   1.0000   1.0000   1.0000   1.0000

          k = 0.2500 0.4167 0.4167 (  8262 PWs)   bands (ev):

     0.5822   0.5822   1.4145   1.4145   1.4146   1.4146   1.9442   1.9442
     5.9048   5.9048   6.4362   6.4362   6.4366   6.4366   7.2727   7.2727
    13.2105  13.2105  13.9550  13.9550  13.9553  13.9553  14.8011  14.8011
    15.5016  15.5016  15.5018  15.5018  15.5204  15.5204  17.0146  17.0146
    18.5543  18.5543  19.2193  19.2193  19.2196  19.2196  20.2968  20.2968
    20.9022  20.9022  21.2697  21.2697  21.2698  21.2698  21.9399  21.9399
    22.3358  22.3358  24.1187  24.1187  24.1842  24.1842  24.1843  24.1843
    25.0372  25.0372  26.2279  26.2279  26.2282  26.2282  27.0159  27.0159

     occupation numbers 
     1.0000   1.0000   1.0000   1.0000   1.0000   1.0000   1.0000   1.0000
     1.0000   1.0000   1.0000   1.0000   1.0000   1.0000   1.0000   1.0000
     1.0000   1.0000   1.0000   1.0000   1.0000   1.0000   1.0000   1.0000
     1.0000   1.0000   1.0000   1.0000   1.0000   1.0000   1.0000   1.0000
     1.0000   1.0000   1.0000   1.0000   1.0000   1.0000   1.0000   1.0000
     1.0000   1.0000   1.0000   1.0000   1.0000   1.0000   1.0000   1.0000
     1.0000   1.0000   1.0000   1.0000   1.0000   1.0000   1.0000   1.0000
     1.0000   1.0000   1.0000   1.0000   1.0000   1.0000   1.0000   1.0000

          k = 0.4167 0.4167 0.4167 (  8267 PWs)   bands (ev):

     1.1104   1.1104   1.6707   1.6707   1.6707   1.6707   1.6709   1.6709
     5.5403   5.5403   5.5410   5.5410   5.5410   5.5410   6.1019   6.1019
    15.4016  15.4016  15.4017  15.4017  15.4019  15.4019  16.0493  16.0493
    16.2962  16.2962  16.2963  16.2963  16.2965  16.2965  17.1717  17.1717
    19.2562  19.2562  19.2568  19.2568  19.2568  19.2568  20.0381  20.0381
    20.8357  20.8357  21.0590  21.0590  21.0591  21.0591  21.0593  21.0593
    21.5594  21.5594  22.4973  22.4973  22.4974  22.4974  22.4976  22.4976
    23.1470  23.1470  24.2808  24.2808  24.2813  24.2813  24.2813  24.2813

     occupation numbers 
     1.0000   1.0000   1.0000   1.0000   1.0000   1.0000   1.0000   1.0000
     1.0000   1.0000   1.0000   1.0000   1.0000   1.0000   1.0000   1.0000
     1.0000   1.0000   1.0000   1.0000   1.0000   1.0000   1.0000   1.0000
     1.0000   1.0000   1.0000   1.0000   1.0000   1.0000   1.0000   1.0000
     1.0000   1.0000   1.0000   1.0000   1.0000   1.0000   1.0000   1.0000
     1.0000   1.0000   1.0000   1.0000   1.0000   1.0000   1.0000   1.0000
     1.0000   1.0000   1.0000   1.0000   1.0000   1.0000   1.0000   1.0000
     1.0000   1.0000   1.0000   1.0000   1.0000   1.0000   1.0000   1.0000

     highest occupied level (ev):    29.1076

!    total energy              =   -3131.17948522 Ry
     Harris-Foulkes estimate   =   -3131.17948590 Ry
     estimated scf accuracy    <       0.00000076 Ry

     total all-electron energy =   -119218.235613 Ry

     The total energy is the sum of the following terms:

     one-electron contribution =     153.66394904 Ry
     hartree contribution      =       5.43426897 Ry
     xc contribution           =    -157.42472474 Ry
     ewald contribution        =    -332.73169529 Ry
     one-center paw contrib.   =   -2800.12128319 Ry
      -> PAW hartree energy AE =      42.88691134 Ry
      -> PAW hartree energy PS =     -42.77370352 Ry
      -> PAW xc energy AE      =    -381.08418399 Ry
      -> PAW xc energy PS      =      22.83825800 Ry
      -> total E_H with PAW    =       5.54747679 Ry
      -> total E_XC with PAW   =    -515.67065073 Ry

     convergence has been achieved in   9 iterations

     Forces acting on atoms (cartesian axes, Ry/au):

     atom    1 type  1   force =     0.00000000    0.00000000    0.00000000
     atom    2 type  1   force =     0.00000000    0.00000000    0.00000000
     atom    3 type  1   force =     0.00000000    0.00000000    0.00000000
     atom    4 type  1   force =     0.00000000    0.00000000    0.00000000
     atom    5 type  2   force =     0.00000000    0.00000000    0.00000000
     atom    6 type  2   force =     0.00000000    0.00000000    0.00000000
     atom    7 type  2   force =     0.00000000    0.00000000   -0.00000000
     atom    8 type  2   force =     0.00000000    0.00000000    0.00000000
     The non-local contrib.  to forces
     atom    1 type  1   force =     0.00000000    0.00000000    0.00000000
     atom    2 type  1   force =     0.00000000    0.00000000    0.00000000
     atom    3 type  1   force =     0.00000000    0.00000000    0.00000000
     atom    4 type  1   force =     0.00000000    0.00000000    0.00000000
     atom    5 type  2   force =     0.00000000   -0.00000000    0.00000000
     atom    6 type  2   force =     0.00000000    0.00000000    0.00000000
     atom    7 type  2   force =     0.00000000    0.00000000    0.00000000
     atom    8 type  2   force =     0.00000000    0.00000000    0.00000000
     The ionic contribution  to forces
     atom    1 type  1   force =    -0.00000000   -0.00000000   -0.00000000
     atom    2 type  1   force =    -0.00000000    0.00000000    0.00000000
     atom    3 type  1   force =     0.00000000   -0.00000000    0.00000000
     atom    4 type  1   force =     0.00000000    0.00000000   -0.00000000
     atom    5 type  2   force =     0.00000000   -0.00000000   -0.00000000
     atom    6 type  2   force =     0.00000000    0.00000000    0.00000000
     atom    7 type  2   force =    -0.00000000   -0.00000000    0.00000000
     atom    8 type  2   force =    -0.00000000    0.00000000   -0.00000000
     The local contribution  to forces
     atom    1 type  1   force =    -0.00000000   -0.00000000   -0.00000000
     atom    2 type  1   force =    -0.00000000    0.00000000    0.00000000
     atom    3 type  1   force =     0.00000000   -0.00000000    0.00000000
     atom    4 type  1   force =     0.00000000    0.00000000   -0.00000000
     atom    5 type  2   force =     0.00000000   -0.00000000    0.00000000
     atom    6 type  2   force =     0.00000000    0.00000000    0.00000000
     atom    7 type  2   force =    -0.00000000   -0.00000000    0.00000000
     atom    8 type  2   force =    -0.00000000    0.00000000   -0.00000000
     The core correction contribution to forces
     atom    1 type  1   force =    -0.00000000   -0.00000000   -0.00000000
     atom    2 type  1   force =    -0.00000000   -0.00000000   -0.00000000
     atom    3 type  1   force =    -0.00000000    0.00000000    0.00000000
     atom    4 type  1   force =    -0.00000000   -0.00000000   -0.00000000
     atom    5 type  2   force =     0.00000000   -0.00000000   -0.00000000
     atom    6 type  2   force =    -0.00000000   -0.00000000    0.00000000
     atom    7 type  2   force =    -0.00000000    0.00000000    0.00000000
     atom    8 type  2   force =    -0.00000000   -0.00000000   -0.00000000
     The Hubbard contrib.    to forces
     atom    1 type  1   force =     0.00000000    0.00000000    0.00000000
     atom    2 type  1   force =     0.00000000    0.00000000    0.00000000
     atom    3 type  1   force =     0.00000000    0.00000000    0.00000000
     atom    4 type  1   force =     0.00000000    0.00000000    0.00000000
     atom    5 type  2   force =     0.00000000    0.00000000    0.00000000
     atom    6 type  2   force =     0.00000000    0.00000000    0.00000000
     atom    7 type  2   force =     0.00000000    0.00000000    0.00000000
     atom    8 type  2   force =     0.00000000    0.00000000    0.00000000
     The SCF correction term to forces
     atom    1 type  1   force =    -0.00000000    0.00000000    0.00000000
     atom    2 type  1   force =    -0.00000000   -0.00000000   -0.00000000
     atom    3 type  1   force =     0.00000000    0.00000000   -0.00000000
     atom    4 type  1   force =     0.00000000    0.00000000    0.00000000
     atom    5 type  2   force =     0.00000000   -0.00000000   -0.00000000
     atom    6 type  2   force =     0.00000000    0.00000000    0.00000000
     atom    7 type  2   force =    -0.00000000    0.00000000   -0.00000000
     atom    8 type  2   force =     0.00000000   -0.00000000   -0.00000000

     Total force =     0.000000     Total SCF correction =     0.000000


     Computing stress (Cartesian axis) and pressure

     Message from routine stres:
     noncollinear stress + GGA not implemented

     Writing output data file CsIsalt.save/
 
     init_run     :      7.08s CPU     10.30s WALL (       1 calls)
     electrons    :    242.16s CPU    379.22s WALL (       1 calls)
     forces       :      5.60s CPU      8.01s WALL (       1 calls)

     Called by init_run:
     wfcinit      :      3.75s CPU      5.91s WALL (       1 calls)
     wfcinit:atom :      0.00s CPU      0.00s WALL (      10 calls)
     wfcinit:wfcr :      3.70s CPU      5.85s WALL (      10 calls)
     potinit      :      1.10s CPU      1.37s WALL (       1 calls)
     hinit0       :      0.85s CPU      1.27s WALL (       1 calls)

     Called by electrons:
     c_bands      :    187.20s CPU    299.32s WALL (      10 calls)
     sum_band     :     28.94s CPU     46.14s WALL (      10 calls)
     v_of_rho     :      1.44s CPU      2.47s WALL (      10 calls)
     v_h          :      0.05s CPU      0.05s WALL (      10 calls)
     v_xc         :      1.48s CPU      2.56s WALL (      11 calls)
     newd         :     12.57s CPU     14.78s WALL (      10 calls)
     PAW_pot      :      7.42s CPU      9.29s WALL (      10 calls)
     mix_rho      :      2.30s CPU      3.60s WALL (      10 calls)

     Called by c_bands:
     init_us_2    :      0.37s CPU      0.64s WALL (     220 calls)
     cegterg      :    179.45s CPU    289.42s WALL (     100 calls)

     Called by sum_band:
     sum_band:bec :      4.82s CPU      7.22s WALL (     100 calls)
     addusdens    :      4.25s CPU      5.49s WALL (      10 calls)

     Called by *egterg:
     h_psi        :     98.78s CPU    165.09s WALL (     706 calls)
     s_psi        :      4.76s CPU      6.52s WALL (     706 calls)
     g_psi        :      0.14s CPU      0.15s WALL (     596 calls)
     cdiaghg      :     29.94s CPU     47.38s WALL (     686 calls)
     cegterg:over :     17.04s CPU     25.16s WALL (     596 calls)
     cegterg:upda :     15.37s CPU     23.80s WALL (     596 calls)
     cegterg:last :      2.76s CPU      3.91s WALL (     126 calls)
     cdiaghg:chol :      2.50s CPU      3.27s WALL (     686 calls)
     cdiaghg:inve :      0.98s CPU      1.60s WALL (     686 calls)
     cdiaghg:para :      7.97s CPU     12.10s WALL (    1372 calls)

     Called by h_psi:
     h_psi:pot    :     98.26s CPU    164.46s WALL (     706 calls)
     h_psi:calbec :      2.70s CPU      3.57s WALL (     706 calls)
     vloc_psi     :     90.38s CPU    153.87s WALL (     706 calls)
     add_vuspsi   :      5.17s CPU      7.02s WALL (     706 calls)

     General routines
     calbec       :      4.51s CPU      6.16s WALL (     846 calls)
     fft          :      5.85s CPU      9.16s WALL (     221 calls)
     ffts         :      2.22s CPU      3.17s WALL (      80 calls)
     fftw         :    105.50s CPU    180.80s WALL (  100480 calls)
     interpolate  :      3.48s CPU      4.90s WALL (      40 calls)
 
     Parallel routines
     fft_scatt_xy :      3.33s CPU      4.26s WALL (  100781 calls)
     fft_scatt_yz :     94.76s CPU    170.15s WALL (  100781 calls)

     PAW routines
     PAW_pot      :      7.42s CPU      9.29s WALL (      10 calls)
     PAW_symme    :      0.30s CPU      0.40s WALL (      20 calls)
 
     PWSCF        :   4m23.07s CPU   6m47.34s WALL

 
   This run was terminated on:  18: 3: 1  24Jan2021            

=------------------------------------------------------------------------------=
   JOB DONE.
=------------------------------------------------------------------------------=
