
     Program PWSCF v.6.7MaX starts on 15Jan2021 at 12:20:58 

     This program is part of the open-source Quantum ESPRESSO suite
     for quantum simulation of materials; please cite
         "P. Giannozzi et al., J. Phys.:Condens. Matter 21 395502 (2009);
         "P. Giannozzi et al., J. Phys.:Condens. Matter 29 465901 (2017);
          URL http://www.quantum-espresso.org", 
     in publications or presentations arising from this work. More details at
     http://www.quantum-espresso.org/quote

     Parallel version (MPI), running on    32 processors

     MPI processes distributed on     1 nodes
     R & G space division:  proc/nbgrp/npool/nimage =      32
     Waiting for input...
     Reading input from standard input

     Current dimensions of program PWSCF are:
     Max number of different atomic species (ntypx) = 10
     Max number of k-points (npk) =  40000
     Max angular momentum in pseudopotentials (lmaxx) =  3
     file Sn.pbe-dn-kjpaw_psl.1.0.0.UPF: wavefunction(s)  5S 5P 4D renormalized
     file I.pbe-n-kjpaw_psl.1.0.0.UPF: wavefunction(s)  5S renormalized

     Subspace diagonalization in iterative solution of the eigenvalue problem:
     a serial algorithm will be used

     Message from routine setup:
     using ibrav=0 with symmetry is DISCOURAGED, use correct ibrav instead

     Parallelization info
     --------------------
     sticks:   dense  smooth     PW     G-vecs:    dense   smooth      PW
     Min         186     186     51                 6652     6652     957
     Max         187     187     52                 6655     6655     959
     Sum        5957    5957   1649               212897   212897   30669


     Title: 
     SnI2tetr                                                                   


     bravais-lattice index     =            0
     lattice parameter (alat)  =      14.4199  a.u.
     unit-cell volume          =    1845.1511 (a.u.)^3
     number of atoms/cell      =            6
     number of atomic types    =            2
     number of electrons       =        56.00
     number of Kohn-Sham states=           29
     kinetic-energy cutoff     =      90.0000  Ry
     charge density cutoff     =     360.0000  Ry
     scf convergence threshold =      1.0E-06
     mixing beta               =       0.7000
     number of iterations used =            8  plain     mixing
     Exchange-correlation= SLA  PW   PBX  PBC
                           (   1   4   3   4   0   0   0)

     celldm(1)=  14.419944  celldm(2)=   0.000000  celldm(3)=   0.000000
     celldm(4)=   0.000000  celldm(5)=   0.000000  celldm(6)=   0.000000

     crystal axes: (cart. coord. in units of alat)
               a(1) = (   1.000000   0.000000   0.000000 )  
               a(2) = (   0.000000   1.000000   0.000000 )  
               a(3) = (   0.000000   0.000000   0.615377 )  

     reciprocal axes: (cart. coord. in units 2 pi/alat)
               b(1) = (  1.000000  0.000000  0.000000 )  
               b(2) = (  0.000000  1.000000  0.000000 )  
               b(3) = (  0.000000  0.000000  1.625020 )  


     PseudoPot. # 1 for Sn read from file:
     ../../../pseudo/Sn.pbe-dn-kjpaw_psl.1.0.0.UPF
     MD5 check sum: 67f11dec737d427557dc41ea34975807
     Pseudo is Projector augmented-wave + core cor, Zval = 14.0
     Generated using &quot;atomic&quot; code by A. Dal Corso  v.6.3
     Shape of augmentation charge: PSQ
     Using radial grid of 1243 points,  6 beta functions with: 
                l(1) =   0
                l(2) =   0
                l(3) =   1
                l(4) =   1
                l(5) =   2
                l(6) =   2
     Q(r) pseudized with 0 coefficients 


     PseudoPot. # 2 for I  read from file:
     ../../../pseudo/I.pbe-n-kjpaw_psl.1.0.0.UPF
     MD5 check sum: cd3d296c3308a581e1559a0c8a554cb5
     Pseudo is Projector augmented-wave + core cor, Zval =  7.0
     Generated using &quot;atomic&quot; code by A. Dal Corso  v.6.3
     Shape of augmentation charge: PSQ
     Using radial grid of 1247 points,  6 beta functions with: 
                l(1) =   0
                l(2) =   0
                l(3) =   1
                l(4) =   1
                l(5) =   2
                l(6) =   2
     Q(r) pseudized with 0 coefficients 


     atomic species   valence    mass     pseudopotential
        Sn            14.00   118.70000     Sn( 1.00)
        I              7.00   126.90000     I ( 1.00)

     16 Sym. Ops., with inversion, found ( 8 have fractional translation)


                                    s                        frac. trans.

      isym =  1     identity                                     

 cryst.   s( 1) = (     1          0          0      )
                  (     0          1          0      )
                  (     0          0          1      )

 cart.    s( 1) = (  1.0000000  0.0000000  0.0000000 )
                  (  0.0000000  1.0000000  0.0000000 )
                  (  0.0000000  0.0000000  1.0000000 )


      isym =  2     180 deg rotation - cart. axis [0,0,1]        

 cryst.   s( 2) = (    -1          0          0      )
                  (     0         -1          0      )
                  (     0          0          1      )

 cart.    s( 2) = ( -1.0000000  0.0000000  0.0000000 )
                  (  0.0000000 -1.0000000  0.0000000 )
                  (  0.0000000  0.0000000  1.0000000 )


      isym =  3     180 deg rotation - cart. axis [0,1,0]        

 cryst.   s( 3) = (    -1          0          0      )    f =(  0.5000000 )
                  (     0          1          0      )       ( -0.5000000 )
                  (     0          0         -1      )       (  0.5000000 )

 cart.    s( 3) = ( -1.0000000  0.0000000  0.0000000 )    f =(  0.5000000 )
                  (  0.0000000  1.0000000  0.0000000 )       ( -0.5000000 )
                  (  0.0000000  0.0000000 -1.0000000 )       (  0.3076884 )


      isym =  4     180 deg rotation - cart. axis [1,0,0]        

 cryst.   s( 4) = (     1          0          0      )    f =( -0.5000000 )
                  (     0         -1          0      )       (  0.5000000 )
                  (     0          0         -1      )       (  0.5000000 )

 cart.    s( 4) = (  1.0000000  0.0000000  0.0000000 )    f =( -0.5000000 )
                  (  0.0000000 -1.0000000  0.0000000 )       (  0.5000000 )
                  (  0.0000000  0.0000000 -1.0000000 )       (  0.3076884 )


      isym =  5     180 deg rotation - cart. axis [1,1,0]        

 cryst.   s( 5) = (     0          1          0      )
                  (     1          0          0      )
                  (     0          0         -1      )

 cart.    s( 5) = (  0.0000000  1.0000000  0.0000000 )
                  (  1.0000000  0.0000000  0.0000000 )
                  (  0.0000000  0.0000000 -1.0000000 )


      isym =  6     180 deg rotation - cart. axis [1,-1,0]       

 cryst.   s( 6) = (     0         -1          0      )
                  (    -1          0          0      )
                  (     0          0         -1      )

 cart.    s( 6) = (  0.0000000 -1.0000000  0.0000000 )
                  ( -1.0000000  0.0000000  0.0000000 )
                  (  0.0000000  0.0000000 -1.0000000 )


      isym =  7      90 deg rotation - cart. axis [0,0,-1]       

 cryst.   s( 7) = (     0         -1          0      )    f =( -0.5000000 )
                  (     1          0          0      )       (  0.5000000 )
                  (     0          0          1      )       ( -0.5000000 )

 cart.    s( 7) = (  0.0000000  1.0000000  0.0000000 )    f =( -0.5000000 )
                  ( -1.0000000  0.0000000  0.0000000 )       (  0.5000000 )
                  (  0.0000000  0.0000000  1.0000000 )       ( -0.3076884 )


      isym =  8      90 deg rotation - cart. axis [0,0,1]        

 cryst.   s( 8) = (     0          1          0      )    f =(  0.5000000 )
                  (    -1          0          0      )       ( -0.5000000 )
                  (     0          0          1      )       ( -0.5000000 )

 cart.    s( 8) = (  0.0000000 -1.0000000  0.0000000 )    f =(  0.5000000 )
                  (  1.0000000  0.0000000  0.0000000 )       ( -0.5000000 )
                  (  0.0000000  0.0000000  1.0000000 )       ( -0.3076884 )


      isym =  9     inversion                                    

 cryst.   s( 9) = (    -1          0          0      )
                  (     0         -1          0      )
                  (     0          0         -1      )

 cart.    s( 9) = ( -1.0000000  0.0000000  0.0000000 )
                  (  0.0000000 -1.0000000  0.0000000 )
                  (  0.0000000  0.0000000 -1.0000000 )


      isym = 10     inv. 180 deg rotation - cart. axis [0,0,1]   

 cryst.   s(10) = (     1          0          0      )
                  (     0          1          0      )
                  (     0          0         -1      )

 cart.    s(10) = (  1.0000000  0.0000000  0.0000000 )
                  (  0.0000000  1.0000000  0.0000000 )
                  (  0.0000000  0.0000000 -1.0000000 )


      isym = 11     inv. 180 deg rotation - cart. axis [0,1,0]   

 cryst.   s(11) = (     1          0          0      )    f =( -0.5000000 )
                  (     0         -1          0      )       (  0.5000000 )
                  (     0          0          1      )       ( -0.5000000 )

 cart.    s(11) = (  1.0000000  0.0000000  0.0000000 )    f =( -0.5000000 )
                  (  0.0000000 -1.0000000  0.0000000 )       (  0.5000000 )
                  (  0.0000000  0.0000000  1.0000000 )       ( -0.3076884 )


      isym = 12     inv. 180 deg rotation - cart. axis [1,0,0]   

 cryst.   s(12) = (    -1          0          0      )    f =(  0.5000000 )
                  (     0          1          0      )       ( -0.5000000 )
                  (     0          0          1      )       ( -0.5000000 )

 cart.    s(12) = ( -1.0000000  0.0000000  0.0000000 )    f =(  0.5000000 )
                  (  0.0000000  1.0000000  0.0000000 )       ( -0.5000000 )
                  (  0.0000000  0.0000000  1.0000000 )       ( -0.3076884 )


      isym = 13     inv. 180 deg rotation - cart. axis [1,1,0]   

 cryst.   s(13) = (     0         -1          0      )
                  (    -1          0          0      )
                  (     0          0          1      )

 cart.    s(13) = (  0.0000000 -1.0000000  0.0000000 )
                  ( -1.0000000  0.0000000  0.0000000 )
                  (  0.0000000  0.0000000  1.0000000 )


      isym = 14     inv. 180 deg rotation - cart. axis [1,-1,0]  

 cryst.   s(14) = (     0          1          0      )
                  (     1          0          0      )
                  (     0          0          1      )

 cart.    s(14) = (  0.0000000  1.0000000  0.0000000 )
                  (  1.0000000  0.0000000  0.0000000 )
                  (  0.0000000  0.0000000  1.0000000 )


      isym = 15     inv.  90 deg rotation - cart. axis [0,0,-1]  

 cryst.   s(15) = (     0          1          0      )    f =(  0.5000000 )
                  (    -1          0          0      )       ( -0.5000000 )
                  (     0          0         -1      )       (  0.5000000 )

 cart.    s(15) = (  0.0000000 -1.0000000  0.0000000 )    f =(  0.5000000 )
                  (  1.0000000  0.0000000  0.0000000 )       ( -0.5000000 )
                  (  0.0000000  0.0000000 -1.0000000 )       (  0.3076884 )


      isym = 16     inv.  90 deg rotation - cart. axis [0,0,1]   

 cryst.   s(16) = (     0         -1          0      )    f =( -0.5000000 )
                  (     1          0          0      )       (  0.5000000 )
                  (     0          0         -1      )       (  0.5000000 )

 cart.    s(16) = (  0.0000000  1.0000000  0.0000000 )    f =( -0.5000000 )
                  ( -1.0000000  0.0000000  0.0000000 )       (  0.5000000 )
                  (  0.0000000  0.0000000 -1.0000000 )       (  0.3076884 )


   Cartesian axes

     site n.     atom                  positions (alat units)
         1           Sn  tau(   1) = (   0.0000000   0.0000000   0.0000000  )
         2           Sn  tau(   2) = (   0.5000000   0.5000000   0.3076884  )
         3           I   tau(   3) = (   0.2985210   0.2985210   0.0000000  )
         4           I   tau(   4) = (   0.7014790   0.7014790   0.0000000  )
         5           I   tau(   5) = (   0.7985210   0.2014790   0.3076884  )
         6           I   tau(   6) = (   0.2014790   0.7985210   0.3076884  )

   Crystallographic axes

     site n.     atom                  positions (cryst. coord.)
         1           Sn  tau(   1) = (  0.0000000  0.0000000  0.0000000  )
         2           Sn  tau(   2) = (  0.5000000  0.5000000  0.5000000  )
         3           I   tau(   3) = (  0.2985210  0.2985210  0.0000000  )
         4           I   tau(   4) = (  0.7014790  0.7014790  0.0000000  )
         5           I   tau(   5) = (  0.7985210  0.2014790  0.5000000  )
         6           I   tau(   6) = (  0.2014790  0.7985210  0.5000000  )

     number of k points=     6
                       cart. coord. in units 2pi/alat
        k(    1) = (   0.0000000   0.0000000   0.0000000), wk =   0.2500000
        k(    2) = (   0.0000000   0.0000000  -0.8125102), wk =   0.2500000
        k(    3) = (   0.0000000  -0.5000000   0.0000000), wk =   0.5000000
        k(    4) = (   0.0000000  -0.5000000  -0.8125102), wk =   0.5000000
        k(    5) = (  -0.5000000  -0.5000000   0.0000000), wk =   0.2500000
        k(    6) = (  -0.5000000  -0.5000000  -0.8125102), wk =   0.2500000

                       cryst. coord.
        k(    1) = (   0.0000000   0.0000000   0.0000000), wk =   0.2500000
        k(    2) = (   0.0000000   0.0000000  -0.5000000), wk =   0.2500000
        k(    3) = (   0.0000000  -0.5000000   0.0000000), wk =   0.5000000
        k(    4) = (   0.0000000  -0.5000000  -0.5000000), wk =   0.5000000
        k(    5) = (  -0.5000000  -0.5000000   0.0000000), wk =   0.2500000
        k(    6) = (  -0.5000000  -0.5000000  -0.5000000), wk =   0.2500000

     Dense  grid:   212897 G-vectors     FFT dimensions: (  90,  90,  54)

     Dynamical RAM for                 wfc:       0.37 MB

     Dynamical RAM for     wfc (w. buffer):       2.57 MB

     Dynamical RAM for           str. fact:       0.20 MB

     Dynamical RAM for           local pot:       0.00 MB

     Dynamical RAM for          nlocal pot:       1.37 MB

     Dynamical RAM for                qrad:       3.05 MB

     Dynamical RAM for          rho,v,vnew:       0.68 MB

     Dynamical RAM for               rhoin:       0.23 MB

     Dynamical RAM for            rho*nmix:       1.62 MB

     Dynamical RAM for           G-vectors:       0.43 MB

     Dynamical RAM for          h,s,v(r/c):       0.15 MB

     Dynamical RAM for          <psi|beta>:       0.05 MB

     Dynamical RAM for                 psi:       0.74 MB

     Dynamical RAM for                hpsi:       0.74 MB

     Dynamical RAM for                spsi:       0.74 MB

     Dynamical RAM for      wfcinit/wfcrot:       0.89 MB

     Dynamical RAM for           addusdens:      19.29 MB

     Dynamical RAM for          addusforce:      19.97 MB

     Dynamical RAM for         addusstress:      20.41 MB

     Estimated static dynamical RAM per process >      11.07 MB

     Estimated max dynamical RAM per process >      31.48 MB

     Estimated total dynamical RAM >    1007.34 MB

     Initial potential from superposition of free atoms

     starting charge   55.99693, renormalised to   56.00000
     Starting wfcs are   34 randomized atomic wfcs
     Checking if some PAW data can be deallocated... 
       PAW data deallocated on   20 nodes for type:  1
       PAW data deallocated on   12 nodes for type:  2

     total cpu time spent up to now is       13.8 secs

     Self-consistent Calculation

     iteration #  1     ecut=    90.00 Ry     beta= 0.70
     Davidson diagonalization with overlap
     ethr =  1.00E-02,  avg # of iterations =  2.0

     Threshold (ethr) on eigenvalues was too large:
     Diagonalizing with lowered threshold

     Davidson diagonalization with overlap
     ethr =  2.56E-04,  avg # of iterations =  2.2

     total cpu time spent up to now is       36.5 secs

     total energy              =   -2399.92749049 Ry
     estimated scf accuracy    <       0.12953767 Ry

     iteration #  2     ecut=    90.00 Ry     beta= 0.70
     Davidson diagonalization with overlap
     ethr =  2.31E-04,  avg # of iterations =  3.5

     total cpu time spent up to now is       51.0 secs

     total energy              =   -2399.96959513 Ry
     estimated scf accuracy    <       0.05199519 Ry

     iteration #  3     ecut=    90.00 Ry     beta= 0.70
     Davidson diagonalization with overlap
     ethr =  9.28E-05,  avg # of iterations =  2.5

     total cpu time spent up to now is       64.0 secs

     total energy              =   -2399.97902734 Ry
     estimated scf accuracy    <       0.00086786 Ry

     iteration #  4     ecut=    90.00 Ry     beta= 0.70
     Davidson diagonalization with overlap
     ethr =  1.55E-06,  avg # of iterations =  5.7

     total cpu time spent up to now is       83.2 secs

     total energy              =   -2399.97971892 Ry
     estimated scf accuracy    <       0.00056589 Ry

     iteration #  5     ecut=    90.00 Ry     beta= 0.70
     Davidson diagonalization with overlap
     ethr =  1.01E-06,  avg # of iterations =  2.2

     total cpu time spent up to now is       95.9 secs

     total energy              =   -2399.97978680 Ry
     estimated scf accuracy    <       0.00002463 Ry

     iteration #  6     ecut=    90.00 Ry     beta= 0.70
     Davidson diagonalization with overlap
     ethr =  4.40E-08,  avg # of iterations =  5.2

     total cpu time spent up to now is      112.6 secs

     total energy              =   -2399.97980278 Ry
     estimated scf accuracy    <       0.00001047 Ry

     iteration #  7     ecut=    90.00 Ry     beta= 0.70
     Davidson diagonalization with overlap
     ethr =  1.87E-08,  avg # of iterations =  2.0

     total cpu time spent up to now is      125.2 secs

     End of self-consistent calculation

          k = 0.0000 0.0000 0.0000 ( 26691 PWs)   bands (ev):

   -18.3906 -18.3877 -18.3807 -18.3804 -18.3697 -18.3697 -18.3660 -18.3660
   -18.3655 -18.3655  -9.3195  -8.8064  -8.8064  -8.6872  -4.1428  -2.2924
    -0.1044  -0.1044   0.4393   0.7560   1.2610   1.3638   1.6183   1.6183
     2.0262   2.0262   2.4032   2.8720   4.5270

     occupation numbers 
     1.0000   1.0000   1.0000   1.0000   1.0000   1.0000   1.0000   1.0000
     1.0000   1.0000   1.0000   1.0000   1.0000   1.0000   1.0000   1.0000
     1.0000   1.0000   1.0000   1.0000   1.0000   1.0000   1.0000   1.0000
     1.0000   1.0000   1.0000   1.0000   0.0000

          k = 0.0000 0.0000-0.8125 ( 26570 PWs)   bands (ev):

   -18.3878 -18.3878 -18.3804 -18.3804 -18.3707 -18.3707 -18.3700 -18.3700
   -18.3616 -18.3616  -8.8564  -8.8564  -8.6831  -8.6831  -3.6889  -3.6889
    -0.0410  -0.0410  -0.0148  -0.0148   0.5290   0.5290   1.5857   1.5857
     1.6390   1.6390   2.3743   2.3743   6.0964

     occupation numbers 
     1.0000   1.0000   1.0000   1.0000   1.0000   1.0000   1.0000   1.0000
     1.0000   1.0000   1.0000   1.0000   1.0000   1.0000   1.0000   1.0000
     1.0000   1.0000   1.0000   1.0000   1.0000   1.0000   1.0000   1.0000
     1.0000   1.0000   1.0000   1.0000   0.0000

          k = 0.0000-0.5000 0.0000 ( 26640 PWs)   bands (ev):

   -18.3892 -18.3892 -18.3805 -18.3805 -18.3697 -18.3697 -18.3660 -18.3660
   -18.3655 -18.3655  -9.1067  -9.1067  -8.7199  -8.7199  -3.3989  -3.3989
     0.3842   0.3842   0.7837   0.7837   1.0833   1.0833   1.7076   1.7076
     1.8469   1.8469   2.1965   2.1965   5.2180

     occupation numbers 
     1.0000   1.0000   1.0000   1.0000   1.0000   1.0000   1.0000   1.0000
     1.0000   1.0000   1.0000   1.0000   1.0000   1.0000   1.0000   1.0000
     1.0000   1.0000   1.0000   1.0000   1.0000   1.0000   1.0000   1.0000
     1.0000   1.0000   1.0000   1.0000   0.0000

          k = 0.0000-0.5000-0.8125 ( 26628 PWs)   bands (ev):

   -18.3879 -18.3879 -18.3804 -18.3804 -18.3707 -18.3707 -18.3700 -18.3700
   -18.3616 -18.3616  -8.8349  -8.8349  -8.7052  -8.7052  -3.6704  -3.6704
    -0.6411  -0.6411   0.0276   0.0276   1.1874   1.1874   1.7073   1.7073
     1.8291   1.8291   2.6198   2.6198   4.2988

     occupation numbers 
     1.0000   1.0000   1.0000   1.0000   1.0000   1.0000   1.0000   1.0000
     1.0000   1.0000   1.0000   1.0000   1.0000   1.0000   1.0000   1.0000
     1.0000   1.0000   1.0000   1.0000   1.0000   1.0000   1.0000   1.0000
     1.0000   1.0000   1.0000   1.0000   0.0000

          k =-0.5000-0.5000 0.0000 ( 26556 PWs)   bands (ev):

   -18.3892 -18.3892 -18.3805 -18.3805 -18.3697 -18.3697 -18.3660 -18.3660
   -18.3654 -18.3654  -9.0234  -9.0234  -8.8194  -8.8194  -3.3060  -3.3060
     0.0743   0.0743   0.8520   0.8520   1.3626   1.3626   1.5935   1.5935
     1.7082   1.7082   2.2038   2.2038   5.1755

     occupation numbers 
     1.0000   1.0000   1.0000   1.0000   1.0000   1.0000   1.0000   1.0000
     1.0000   1.0000   1.0000   1.0000   1.0000   1.0000   1.0000   1.0000
     1.0000   1.0000   1.0000   1.0000   1.0000   1.0000   1.0000   1.0000
     1.0000   1.0000   1.0000   1.0000   0.0000

          k =-0.5000-0.5000-0.8125 ( 26544 PWs)   bands (ev):

   -18.3878 -18.3878 -18.3804 -18.3804 -18.3707 -18.3707 -18.3700 -18.3700
   -18.3616 -18.3616  -8.8420  -8.8420  -8.6937  -8.6937  -3.7527  -3.7527
    -0.2306  -0.2306   0.2770   0.2770   0.5573   0.5573   1.8424   1.8424
     1.8592   1.8592   2.0280   2.0280   5.9935

     occupation numbers 
     1.0000   1.0000   1.0000   1.0000   1.0000   1.0000   1.0000   1.0000
     1.0000   1.0000   1.0000   1.0000   1.0000   1.0000   1.0000   1.0000
     1.0000   1.0000   1.0000   1.0000   1.0000   1.0000   1.0000   1.0000
     1.0000   1.0000   1.0000   1.0000   0.0000

     highest occupied, lowest unoccupied level (ev):     2.8720    4.2988

!    total energy              =   -2399.97980410 Ry

     total all-electron energy =    -81641.225152 Ry
     estimated scf accuracy    <       0.00000031 Ry

     The total energy is the sum of the following terms:
     one-electron contribution =    -203.72003920 Ry
     hartree contribution      =     130.11133369 Ry
     xc contribution           =    -159.03570283 Ry
     ewald contribution        =    -219.54274838 Ry
     one-center paw contrib.   =   -1947.79264738 Ry
      -> PAW hartree energy AE =     108.30348559 Ry
      -> PAW hartree energy PS =    -107.53686092 Ry
      -> PAW xc energy AE      =    -328.95809418 Ry
      -> PAW xc energy PS      =      47.25619851 Ry
      -> total E_H with PAW    =     130.87795836 Ry
      -> total E_XC with PAW   =    -440.73759851 Ry

     convergence has been achieved in   7 iterations

     Forces acting on atoms (cartesian axes, Ry/au):

     atom    1 type  1   force =     0.00000000    0.00000000    0.00000000
     atom    2 type  1   force =     0.00000000    0.00000000    0.00000000
     atom    3 type  2   force =     0.00284295    0.00284295    0.00000000
     atom    4 type  2   force =    -0.00284295   -0.00284295    0.00000000
     atom    5 type  2   force =     0.00284295   -0.00284295   -0.00000000
     atom    6 type  2   force =    -0.00284295    0.00284295   -0.00000000
     The non-local contrib.  to forces
     atom    1 type  1   force =     0.00000000    0.00000000    0.00000000
     atom    2 type  1   force =     0.00000000    0.00000000    0.00000000
     atom    3 type  2   force =     0.01540278    0.01540278   -0.00000000
     atom    4 type  2   force =    -0.01540278   -0.01540278   -0.00000000
     atom    5 type  2   force =     0.01540278   -0.01540278    0.00000000
     atom    6 type  2   force =    -0.01540278    0.01540278   -0.00000000
     The ionic contribution  to forces
     atom    1 type  1   force =    -0.00000000   -0.00000000    0.00000000
     atom    2 type  1   force =    -0.00000000   -0.00000000   -0.00000000
     atom    3 type  2   force =    -0.90990984   -0.90990984   -0.00000000
     atom    4 type  2   force =     0.90990984    0.90990984   -0.00000000
     atom    5 type  2   force =    -0.90990984    0.90990984   -0.00000000
     atom    6 type  2   force =     0.90990984   -0.90990984   -0.00000000
     The local contribution  to forces
     atom    1 type  1   force =     0.00000000    0.00000000    0.00000000
     atom    2 type  1   force =     0.00000000    0.00000000    0.00000000
     atom    3 type  2   force =     0.89937112    0.89937112    0.00000000
     atom    4 type  2   force =    -0.89937112   -0.89937112    0.00000000
     atom    5 type  2   force =     0.89937112   -0.89937112    0.00000000
     atom    6 type  2   force =    -0.89937112    0.89937112    0.00000000
     The core correction contribution to forces
     atom    1 type  1   force =     0.00000000    0.00000000    0.00000000
     atom    2 type  1   force =     0.00000000    0.00000000    0.00000000
     atom    3 type  2   force =    -0.00197993   -0.00197993    0.00000000
     atom    4 type  2   force =     0.00197993    0.00197993    0.00000000
     atom    5 type  2   force =    -0.00197993    0.00197993   -0.00000000
     atom    6 type  2   force =     0.00197993   -0.00197993   -0.00000000
     The Hubbard contrib.    to forces
     atom    1 type  1   force =     0.00000000    0.00000000    0.00000000
     atom    2 type  1   force =     0.00000000    0.00000000    0.00000000
     atom    3 type  2   force =     0.00000000    0.00000000    0.00000000
     atom    4 type  2   force =     0.00000000    0.00000000    0.00000000
     atom    5 type  2   force =     0.00000000    0.00000000    0.00000000
     atom    6 type  2   force =     0.00000000    0.00000000    0.00000000
     The SCF correction term to forces
     atom    1 type  1   force =    -0.00000000   -0.00000000    0.00000000
     atom    2 type  1   force =     0.00000000    0.00000000    0.00000000
     atom    3 type  2   force =    -0.00004118   -0.00004118   -0.00000000
     atom    4 type  2   force =     0.00004118    0.00004118    0.00000000
     atom    5 type  2   force =    -0.00004118    0.00004118   -0.00000000
     atom    6 type  2   force =     0.00004118   -0.00004118   -0.00000000

     Total force =     0.008041     Total SCF correction =     0.000116


     Computing stress (Cartesian axis) and pressure

          total   stress  (Ry/bohr**3)                   (kbar)     P=        1.75
  -0.00000833   0.00000000   0.00000000           -1.23        0.00        0.00
   0.00000000  -0.00000833   0.00000000            0.00       -1.23        0.00
   0.00000000   0.00000000   0.00005227            0.00        0.00        7.69

     kinetic stress (kbar)   7312.47      0.00      0.00
                                0.00   7312.47      0.00
                                0.00      0.00   7300.41

     local   stress (kbar)  -1439.81      0.00     -0.00
                                0.00  -1439.81     -0.00
                               -0.00     -0.00  -5858.11

     nonloc. stress (kbar)    116.99      0.00      0.00
                                0.00    116.99      0.00
                                0.00      0.00    120.57

     hartree stress (kbar)   2826.16      0.00      0.00
                                0.00   2826.16      0.00
                                0.00      0.00   4720.84

     exc-cor stress (kbar)   6160.86      0.00      0.00
                                0.00   6160.86      0.00
                                0.00      0.00   6162.06

     corecor stress (kbar)  -8297.13      0.00      0.00
                                0.00  -8297.13     -0.00
                                0.00     -0.00  -8296.51

     ewald   stress (kbar)  -6680.77      0.00     -0.00
                                0.00  -6680.77     -0.00
                               -0.00     -0.00  -4141.56

     hubbard stress (kbar)      0.00      0.00      0.00
                                0.00      0.00      0.00
                                0.00      0.00      0.00

     DFT-D   stress (kbar)      0.00      0.00      0.00
                                0.00      0.00      0.00
                                0.00      0.00      0.00

     XDM     stress (kbar)      0.00      0.00      0.00
                                0.00      0.00      0.00
                                0.00      0.00      0.00

     dft-nl  stress (kbar)      0.00      0.00      0.00
                                0.00      0.00      0.00
                                0.00      0.00      0.00

     TS-vdW  stress (kbar)      0.00      0.00      0.00
                                0.00      0.00      0.00
                                0.00      0.00      0.00



     Writing output data file ./out/SnI2tetr.save/

     init_run     :     10.84s CPU     11.28s WALL (       1 calls)
     electrons    :    108.87s CPU    111.67s WALL (       1 calls)
     forces       :      6.20s CPU      6.28s WALL (       1 calls)
     stress       :     14.86s CPU     15.04s WALL (       1 calls)

     Called by init_run:
     wfcinit      :      4.03s CPU      4.17s WALL (       1 calls)
     wfcinit:atom :      0.03s CPU      0.03s WALL (       6 calls)
     wfcinit:wfcr :      3.81s CPU      3.93s WALL (       6 calls)
     potinit      :      2.26s CPU      2.40s WALL (       1 calls)
     hinit0       :      3.06s CPU      3.10s WALL (       1 calls)

     Called by electrons:
     c_bands      :     81.03s CPU     82.98s WALL (       8 calls)
     sum_band     :     16.36s CPU     16.76s WALL (       8 calls)
     v_of_rho     :      1.32s CPU      1.36s WALL (       8 calls)
     v_h          :      0.09s CPU      0.10s WALL (       8 calls)
     v_xc         :      1.53s CPU      1.58s WALL (      10 calls)
     newd         :      5.68s CPU      5.87s WALL (       8 calls)
     PAW_pot      :      5.60s CPU      5.81s WALL (       8 calls)
     mix_rho      :      0.19s CPU      0.20s WALL (       8 calls)

     Called by c_bands:
     init_us_2    :      0.99s CPU      1.05s WALL (     114 calls)
     cegterg      :     78.57s CPU     80.28s WALL (      48 calls)

     Called by sum_band:
     sum_band:wei :      0.00s CPU      0.00s WALL (       8 calls)
     sum_band:loo :     10.85s CPU     11.12s WALL (       8 calls)
     sum_band:buf :      0.09s CPU      0.10s WALL (      48 calls)
     sum_band:ini :      0.42s CPU      0.43s WALL (      48 calls)
     sum_band:cal :      3.17s CPU      3.22s WALL (      48 calls)
     sum_band:bec :      0.05s CPU      0.05s WALL (      48 calls)
     addusdens    :      4.98s CPU      5.11s WALL (       8 calls)
     addusd:skk   :      0.03s CPU      0.03s WALL (      16 calls)
     addusd:dgemm :      1.64s CPU      1.71s WALL (      16 calls)
     addusd:qvan2 :      2.87s CPU      2.92s WALL (      16 calls)

     Called by *egterg:
     cdiaghg      :      2.07s CPU      2.10s WALL (     193 calls)
     cegterg:over :      4.54s CPU      4.61s WALL (     151 calls)
     cegterg:upda :      2.35s CPU      2.41s WALL (     151 calls)
     cegterg:last :      6.00s CPU      6.08s WALL (     110 calls)
     h_psi        :     56.09s CPU     57.50s WALL (     205 calls)
     s_psi        :      8.69s CPU      8.85s WALL (     205 calls)
     g_psi        :      0.13s CPU      0.13s WALL (     151 calls)

     Called by h_psi:
     h_psi:calbec :      9.42s CPU      9.60s WALL (     205 calls)
     vloc_psi     :     37.98s CPU     39.03s WALL (     205 calls)
     add_vuspsi   :      8.50s CPU      8.66s WALL (     205 calls)

     General routines
     calbec       :     14.49s CPU     14.75s WALL (     283 calls)
     fft          :      1.07s CPU      1.11s WALL (     114 calls)
     ffts         :      0.07s CPU      0.07s WALL (       8 calls)
     fftw         :     42.65s CPU     43.79s WALL (    9396 calls)

     Parallel routines
     fft_scatt_xy :      3.47s CPU      3.58s WALL (    9518 calls)
     fft_scatt_yz :     11.39s CPU     11.77s WALL (    9518 calls)

     PAW routines
     PAW_pot      :      5.60s CPU      5.81s WALL (       8 calls)
     PAW_symme    :      0.03s CPU      0.03s WALL (      16 calls)

     PWSCF        :   2m24.47s CPU   2m29.51s WALL


   This run was terminated on:  12:23:27  15Jan2021            

=------------------------------------------------------------------------------=
   JOB DONE.
=------------------------------------------------------------------------------=
