
     Program PWSCF v.6.7MaX starts on 14Jan2021 at 13:53:51 

     This program is part of the open-source Quantum ESPRESSO suite
     for quantum simulation of materials; please cite
         "P. Giannozzi et al., J. Phys.:Condens. Matter 21 395502 (2009);
         "P. Giannozzi et al., J. Phys.:Condens. Matter 29 465901 (2017);
          URL http://www.quantum-espresso.org", 
     in publications or presentations arising from this work. More details at
     http://www.quantum-espresso.org/quote

     Parallel version (MPI), running on    19 processors

     MPI processes distributed on     1 nodes
     R & G space division:  proc/nbgrp/npool/nimage =      19
     Waiting for input...
     Reading input from standard input

     Current dimensions of program PWSCF are:
     Max number of different atomic species (ntypx) = 10
     Max number of k-points (npk) =  40000
     Max angular momentum in pseudopotentials (lmaxx) =  3
     file Sn.pbe-dn-kjpaw_psl.1.0.0.UPF: wavefunction(s)  5S 5P 4D renormalized
     file I.pbe-n-kjpaw_psl.1.0.0.UPF: wavefunction(s)  5S renormalized

     Subspace diagonalization in iterative solution of the eigenvalue problem:
     a serial algorithm will be used

     Message from routine setup:
     using ibrav=0 with symmetry is DISCOURAGED, use correct ibrav instead

     Parallelization info
     --------------------
     sticks:   dense  smooth     PW     G-vecs:    dense   smooth      PW
     Min         313     313     86                11203    11203    1614
     Max         314     314     88                11208    11208    1615
     Sum        5957    5957   1649               212897   212897   30669


     Title: 
     SnI2tetr                                                                   


     bravais-lattice index     =            0
     lattice parameter (alat)  =      14.4199  a.u.
     unit-cell volume          =    1845.1511 (a.u.)^3
     number of atoms/cell      =            6
     number of atomic types    =            2
     number of electrons       =        56.00
     number of Kohn-Sham states=           28
     kinetic-energy cutoff     =      90.0000  Ry
     charge density cutoff     =     360.0000  Ry
     scf convergence threshold =      1.0E-06
     mixing beta               =       0.5000
     number of iterations used =            8  plain     mixing
     energy convergence thresh.=      1.0E-04
     force convergence thresh. =      1.0E-04
     press convergence thresh. =      5.0E-01
     Exchange-correlation= SLA  PW   PBX  PBC
                           (   1   4   3   4   0   0   0)
     nstep                     =           50


     celldm(1)=  14.419944  celldm(2)=   0.000000  celldm(3)=   0.000000
     celldm(4)=   0.000000  celldm(5)=   0.000000  celldm(6)=   0.000000

     crystal axes: (cart. coord. in units of alat)
               a(1) = (   1.000000   0.000000   0.000000 )  
               a(2) = (   0.000000   1.000000   0.000000 )  
               a(3) = (   0.000000   0.000000   0.615377 )  

     reciprocal axes: (cart. coord. in units 2 pi/alat)
               b(1) = (  1.000000  0.000000  0.000000 )  
               b(2) = (  0.000000  1.000000  0.000000 )  
               b(3) = (  0.000000  0.000000  1.625020 )  


     PseudoPot. # 1 for Sn read from file:
     ../../../pseudo/Sn.pbe-dn-kjpaw_psl.1.0.0.UPF
     MD5 check sum: 67f11dec737d427557dc41ea34975807
     Pseudo is Projector augmented-wave + core cor, Zval = 14.0
     Generated using &quot;atomic&quot; code by A. Dal Corso  v.6.3
     Shape of augmentation charge: PSQ
     Using radial grid of 1243 points,  6 beta functions with: 
                l(1) =   0
                l(2) =   0
                l(3) =   1
                l(4) =   1
                l(5) =   2
                l(6) =   2
     Q(r) pseudized with 0 coefficients 


     PseudoPot. # 2 for I  read from file:
     ../../../pseudo/I.pbe-n-kjpaw_psl.1.0.0.UPF
     MD5 check sum: cd3d296c3308a581e1559a0c8a554cb5
     Pseudo is Projector augmented-wave + core cor, Zval =  7.0
     Generated using &quot;atomic&quot; code by A. Dal Corso  v.6.3
     Shape of augmentation charge: PSQ
     Using radial grid of 1247 points,  6 beta functions with: 
                l(1) =   0
                l(2) =   0
                l(3) =   1
                l(4) =   1
                l(5) =   2
                l(6) =   2
     Q(r) pseudized with 0 coefficients 


     atomic species   valence    mass     pseudopotential
        Sn            14.00   118.70000     Sn( 1.00)
        I              7.00   126.90000     I ( 1.00)

     16 Sym. Ops., with inversion, found ( 8 have fractional translation)


                                    s                        frac. trans.

      isym =  1     identity                                     

 cryst.   s( 1) = (     1          0          0      )
                  (     0          1          0      )
                  (     0          0          1      )

 cart.    s( 1) = (  1.0000000  0.0000000  0.0000000 )
                  (  0.0000000  1.0000000  0.0000000 )
                  (  0.0000000  0.0000000  1.0000000 )


      isym =  2     180 deg rotation - cart. axis [0,0,1]        

 cryst.   s( 2) = (    -1          0          0      )
                  (     0         -1          0      )
                  (     0          0          1      )

 cart.    s( 2) = ( -1.0000000  0.0000000  0.0000000 )
                  (  0.0000000 -1.0000000  0.0000000 )
                  (  0.0000000  0.0000000  1.0000000 )


      isym =  3     180 deg rotation - cart. axis [0,1,0]        

 cryst.   s( 3) = (    -1          0          0      )    f =(  0.5000000 )
                  (     0          1          0      )       ( -0.5000000 )
                  (     0          0         -1      )       (  0.5000000 )

 cart.    s( 3) = ( -1.0000000  0.0000000  0.0000000 )    f =(  0.5000000 )
                  (  0.0000000  1.0000000  0.0000000 )       ( -0.5000000 )
                  (  0.0000000  0.0000000 -1.0000000 )       (  0.3076884 )


      isym =  4     180 deg rotation - cart. axis [1,0,0]        

 cryst.   s( 4) = (     1          0          0      )    f =( -0.5000000 )
                  (     0         -1          0      )       (  0.5000000 )
                  (     0          0         -1      )       (  0.5000000 )

 cart.    s( 4) = (  1.0000000  0.0000000  0.0000000 )    f =( -0.5000000 )
                  (  0.0000000 -1.0000000  0.0000000 )       (  0.5000000 )
                  (  0.0000000  0.0000000 -1.0000000 )       (  0.3076884 )


      isym =  5     180 deg rotation - cart. axis [1,1,0]        

 cryst.   s( 5) = (     0          1          0      )
                  (     1          0          0      )
                  (     0          0         -1      )

 cart.    s( 5) = (  0.0000000  1.0000000  0.0000000 )
                  (  1.0000000  0.0000000  0.0000000 )
                  (  0.0000000  0.0000000 -1.0000000 )


      isym =  6     180 deg rotation - cart. axis [1,-1,0]       

 cryst.   s( 6) = (     0         -1          0      )
                  (    -1          0          0      )
                  (     0          0         -1      )

 cart.    s( 6) = (  0.0000000 -1.0000000  0.0000000 )
                  ( -1.0000000  0.0000000  0.0000000 )
                  (  0.0000000  0.0000000 -1.0000000 )


      isym =  7      90 deg rotation - cart. axis [0,0,-1]       

 cryst.   s( 7) = (     0         -1          0      )    f =( -0.5000000 )
                  (     1          0          0      )       (  0.5000000 )
                  (     0          0          1      )       ( -0.5000000 )

 cart.    s( 7) = (  0.0000000  1.0000000  0.0000000 )    f =( -0.5000000 )
                  ( -1.0000000  0.0000000  0.0000000 )       (  0.5000000 )
                  (  0.0000000  0.0000000  1.0000000 )       ( -0.3076884 )


      isym =  8      90 deg rotation - cart. axis [0,0,1]        

 cryst.   s( 8) = (     0          1          0      )    f =(  0.5000000 )
                  (    -1          0          0      )       ( -0.5000000 )
                  (     0          0          1      )       ( -0.5000000 )

 cart.    s( 8) = (  0.0000000 -1.0000000  0.0000000 )    f =(  0.5000000 )
                  (  1.0000000  0.0000000  0.0000000 )       ( -0.5000000 )
                  (  0.0000000  0.0000000  1.0000000 )       ( -0.3076884 )


      isym =  9     inversion                                    

 cryst.   s( 9) = (    -1          0          0      )
                  (     0         -1          0      )
                  (     0          0         -1      )

 cart.    s( 9) = ( -1.0000000  0.0000000  0.0000000 )
                  (  0.0000000 -1.0000000  0.0000000 )
                  (  0.0000000  0.0000000 -1.0000000 )


      isym = 10     inv. 180 deg rotation - cart. axis [0,0,1]   

 cryst.   s(10) = (     1          0          0      )
                  (     0          1          0      )
                  (     0          0         -1      )

 cart.    s(10) = (  1.0000000  0.0000000  0.0000000 )
                  (  0.0000000  1.0000000  0.0000000 )
                  (  0.0000000  0.0000000 -1.0000000 )


      isym = 11     inv. 180 deg rotation - cart. axis [0,1,0]   

 cryst.   s(11) = (     1          0          0      )    f =( -0.5000000 )
                  (     0         -1          0      )       (  0.5000000 )
                  (     0          0          1      )       ( -0.5000000 )

 cart.    s(11) = (  1.0000000  0.0000000  0.0000000 )    f =( -0.5000000 )
                  (  0.0000000 -1.0000000  0.0000000 )       (  0.5000000 )
                  (  0.0000000  0.0000000  1.0000000 )       ( -0.3076884 )


      isym = 12     inv. 180 deg rotation - cart. axis [1,0,0]   

 cryst.   s(12) = (    -1          0          0      )    f =(  0.5000000 )
                  (     0          1          0      )       ( -0.5000000 )
                  (     0          0          1      )       ( -0.5000000 )

 cart.    s(12) = ( -1.0000000  0.0000000  0.0000000 )    f =(  0.5000000 )
                  (  0.0000000  1.0000000  0.0000000 )       ( -0.5000000 )
                  (  0.0000000  0.0000000  1.0000000 )       ( -0.3076884 )


      isym = 13     inv. 180 deg rotation - cart. axis [1,1,0]   

 cryst.   s(13) = (     0         -1          0      )
                  (    -1          0          0      )
                  (     0          0          1      )

 cart.    s(13) = (  0.0000000 -1.0000000  0.0000000 )
                  ( -1.0000000  0.0000000  0.0000000 )
                  (  0.0000000  0.0000000  1.0000000 )


      isym = 14     inv. 180 deg rotation - cart. axis [1,-1,0]  

 cryst.   s(14) = (     0          1          0      )
                  (     1          0          0      )
                  (     0          0          1      )

 cart.    s(14) = (  0.0000000  1.0000000  0.0000000 )
                  (  1.0000000  0.0000000  0.0000000 )
                  (  0.0000000  0.0000000  1.0000000 )


      isym = 15     inv.  90 deg rotation - cart. axis [0,0,-1]  

 cryst.   s(15) = (     0          1          0      )    f =(  0.5000000 )
                  (    -1          0          0      )       ( -0.5000000 )
                  (     0          0         -1      )       (  0.5000000 )

 cart.    s(15) = (  0.0000000 -1.0000000  0.0000000 )    f =(  0.5000000 )
                  (  1.0000000  0.0000000  0.0000000 )       ( -0.5000000 )
                  (  0.0000000  0.0000000 -1.0000000 )       (  0.3076884 )


      isym = 16     inv.  90 deg rotation - cart. axis [0,0,1]   

 cryst.   s(16) = (     0         -1          0      )    f =( -0.5000000 )
                  (     1          0          0      )       (  0.5000000 )
                  (     0          0         -1      )       (  0.5000000 )

 cart.    s(16) = (  0.0000000  1.0000000  0.0000000 )    f =( -0.5000000 )
                  ( -1.0000000  0.0000000  0.0000000 )       (  0.5000000 )
                  (  0.0000000  0.0000000 -1.0000000 )       (  0.3076884 )


   Cartesian axes

     site n.     atom                  positions (alat units)
         1           Sn  tau(   1) = (   0.0000000   0.0000000   0.0000000  )
         2           Sn  tau(   2) = (   0.5000000   0.5000000   0.3076884  )
         3           I   tau(   3) = (   0.2985210   0.2985210   0.0000000  )
         4           I   tau(   4) = (   0.7014790   0.7014790   0.0000000  )
         5           I   tau(   5) = (   0.7985210   0.2014790   0.3076884  )
         6           I   tau(   6) = (   0.2014790   0.7985210   0.3076884  )

   Crystallographic axes

     site n.     atom                  positions (cryst. coord.)
         1           Sn  tau(   1) = (  0.0000000  0.0000000  0.0000000  )
         2           Sn  tau(   2) = (  0.5000000  0.5000000  0.5000000  )
         3           I   tau(   3) = (  0.2985210  0.2985210  0.0000000  )
         4           I   tau(   4) = (  0.7014790  0.7014790  0.0000000  )
         5           I   tau(   5) = (  0.7985210  0.2014790  0.5000000  )
         6           I   tau(   6) = (  0.2014790  0.7985210  0.5000000  )

     number of k points=     6
                       cart. coord. in units 2pi/alat
        k(    1) = (   0.0000000   0.0000000   0.0000000), wk =   0.2500000
        k(    2) = (   0.0000000   0.0000000  -0.8125102), wk =   0.2500000
        k(    3) = (   0.0000000  -0.5000000   0.0000000), wk =   0.5000000
        k(    4) = (   0.0000000  -0.5000000  -0.8125102), wk =   0.5000000
        k(    5) = (  -0.5000000  -0.5000000   0.0000000), wk =   0.2500000
        k(    6) = (  -0.5000000  -0.5000000  -0.8125102), wk =   0.2500000

                       cryst. coord.
        k(    1) = (   0.0000000   0.0000000   0.0000000), wk =   0.2500000
        k(    2) = (   0.0000000   0.0000000  -0.5000000), wk =   0.2500000
        k(    3) = (   0.0000000  -0.5000000   0.0000000), wk =   0.5000000
        k(    4) = (   0.0000000  -0.5000000  -0.5000000), wk =   0.5000000
        k(    5) = (  -0.5000000  -0.5000000   0.0000000), wk =   0.2500000
        k(    6) = (  -0.5000000  -0.5000000  -0.5000000), wk =   0.2500000

     Dense  grid:   212897 G-vectors     FFT dimensions: (  90,  90,  54)

     Dynamical RAM for                 wfc:       0.60 MB

     Dynamical RAM for     wfc (w. buffer):       4.19 MB

     Dynamical RAM for           str. fact:       0.34 MB

     Dynamical RAM for           local pot:       0.00 MB

     Dynamical RAM for          nlocal pot:       2.31 MB

     Dynamical RAM for                qrad:       6.09 MB

     Dynamical RAM for          rho,v,vnew:       1.07 MB

     Dynamical RAM for               rhoin:       0.36 MB

     Dynamical RAM for            rho*nmix:       2.74 MB

     Dynamical RAM for           G-vectors:       0.73 MB

     Dynamical RAM for          h,s,v(r/c):       0.14 MB

     Dynamical RAM for          <psi|beta>:       0.05 MB

     Dynamical RAM for                 psi:       1.20 MB

     Dynamical RAM for                hpsi:       1.20 MB

     Dynamical RAM for                spsi:       1.20 MB

     Dynamical RAM for      wfcinit/wfcrot:       1.48 MB

     Dynamical RAM for           addusdens:      32.49 MB

     Dynamical RAM for          addusforce:      33.61 MB

     Dynamical RAM for         addusstress:      34.37 MB

     Estimated static dynamical RAM per process >      19.26 MB

     Estimated max dynamical RAM per process >      53.62 MB

     Estimated total dynamical RAM >    1018.80 MB

     Initial potential from superposition of free atoms

     starting charge   55.99693, renormalised to   56.00000
     Starting wfcs are   34 randomized atomic wfcs
     Checking if some PAW data can be deallocated... 
       PAW data deallocated on   12 nodes for type:  1
       PAW data deallocated on    7 nodes for type:  2

     total cpu time spent up to now is        5.6 secs

     Self-consistent Calculation

     iteration #  1     ecut=    90.00 Ry     beta= 0.50
     Davidson diagonalization with overlap
     ethr =  1.00E-02,  avg # of iterations =  1.5

     Threshold (ethr) on eigenvalues was too large:
     Diagonalizing with lowered threshold

     Davidson diagonalization with overlap
     ethr =  2.57E-04,  avg # of iterations =  2.3

     total cpu time spent up to now is       11.1 secs

     total energy              =   -2399.94247970 Ry
     estimated scf accuracy    <       0.12991241 Ry

     iteration #  2     ecut=    90.00 Ry     beta= 0.50
     Davidson diagonalization with overlap
     ethr =  2.32E-04,  avg # of iterations =  3.2

     total cpu time spent up to now is       14.5 secs

     total energy              =   -2399.97811452 Ry
     estimated scf accuracy    <       0.00721339 Ry

     iteration #  3     ecut=    90.00 Ry     beta= 0.50
     Davidson diagonalization with overlap
     ethr =  1.29E-05,  avg # of iterations =  3.5

     total cpu time spent up to now is       17.9 secs

     total energy              =   -2399.97932460 Ry
     estimated scf accuracy    <       0.00160406 Ry

     iteration #  4     ecut=    90.00 Ry     beta= 0.50
     Davidson diagonalization with overlap
     ethr =  2.86E-06,  avg # of iterations =  3.7

     total cpu time spent up to now is       21.4 secs

     total energy              =   -2399.97972127 Ry
     estimated scf accuracy    <       0.00035894 Ry

     iteration #  5     ecut=    90.00 Ry     beta= 0.50
     Davidson diagonalization with overlap
     ethr =  6.41E-07,  avg # of iterations =  3.8

     total cpu time spent up to now is       24.7 secs

     total energy              =   -2399.97979910 Ry
     estimated scf accuracy    <       0.00000552 Ry

     iteration #  6     ecut=    90.00 Ry     beta= 0.50
     Davidson diagonalization with overlap
     ethr =  9.85E-09,  avg # of iterations =  6.0

     total cpu time spent up to now is       29.3 secs

     total energy              =   -2399.97980377 Ry
     estimated scf accuracy    <       0.00000301 Ry

     iteration #  7     ecut=    90.00 Ry     beta= 0.50
     Davidson diagonalization with overlap
     ethr =  5.38E-09,  avg # of iterations =  3.0

     total cpu time spent up to now is       32.6 secs

     End of self-consistent calculation

          k = 0.0000 0.0000 0.0000 ( 26691 PWs)   bands (ev):

   -18.3890 -18.3861 -18.3790 -18.3788 -18.3681 -18.3681 -18.3644 -18.3643
   -18.3638 -18.3638  -9.3198  -8.8068  -8.8068  -8.6877  -4.1423  -2.2917
    -0.1044  -0.1044   0.4392   0.7557   1.2609   1.3637   1.6179   1.6179
     2.0258   2.0258   2.4028   2.8720

     occupation numbers 
     1.0000   1.0000   1.0000   1.0000   1.0000   1.0000   1.0000   1.0000
     1.0000   1.0000   1.0000   1.0000   1.0000   1.0000   1.0000   1.0000
     1.0000   1.0000   1.0000   1.0000   1.0000   1.0000   1.0000   1.0000
     1.0000   1.0000   1.0000   1.0000

          k = 0.0000 0.0000-0.8125 ( 26570 PWs)   bands (ev):

   -18.3862 -18.3862 -18.3788 -18.3788 -18.3691 -18.3691 -18.3684 -18.3684
   -18.3600 -18.3600  -8.8568  -8.8568  -8.6836  -8.6836  -3.6883  -3.6883
    -0.0410  -0.0410  -0.0149  -0.0149   0.5289   0.5289   1.5853   1.5853
     1.6386   1.6386   2.3742   2.3742

     occupation numbers 
     1.0000   1.0000   1.0000   1.0000   1.0000   1.0000   1.0000   1.0000
     1.0000   1.0000   1.0000   1.0000   1.0000   1.0000   1.0000   1.0000
     1.0000   1.0000   1.0000   1.0000   1.0000   1.0000   1.0000   1.0000
     1.0000   1.0000   1.0000   1.0000

          k = 0.0000-0.5000 0.0000 ( 26640 PWs)   bands (ev):

   -18.3876 -18.3876 -18.3789 -18.3789 -18.3681 -18.3681 -18.3644 -18.3644
   -18.3638 -18.3638  -9.1071  -9.1071  -8.7204  -8.7204  -3.3983  -3.3983
     0.3841   0.3841   0.7836   0.7836   1.0831   1.0831   1.7073   1.7073
     1.8468   1.8468   2.1962   2.1962

     occupation numbers 
     1.0000   1.0000   1.0000   1.0000   1.0000   1.0000   1.0000   1.0000
     1.0000   1.0000   1.0000   1.0000   1.0000   1.0000   1.0000   1.0000
     1.0000   1.0000   1.0000   1.0000   1.0000   1.0000   1.0000   1.0000
     1.0000   1.0000   1.0000   1.0000

          k = 0.0000-0.5000-0.8125 ( 26628 PWs)   bands (ev):

   -18.3863 -18.3863 -18.3788 -18.3788 -18.3691 -18.3691 -18.3683 -18.3683
   -18.3600 -18.3600  -8.8354  -8.8354  -8.7056  -8.7056  -3.6698  -3.6698
    -0.6411  -0.6411   0.0275   0.0275   1.1871   1.1871   1.7070   1.7070
     1.8287   1.8287   2.6197   2.6197

     occupation numbers 
     1.0000   1.0000   1.0000   1.0000   1.0000   1.0000   1.0000   1.0000
     1.0000   1.0000   1.0000   1.0000   1.0000   1.0000   1.0000   1.0000
     1.0000   1.0000   1.0000   1.0000   1.0000   1.0000   1.0000   1.0000
     1.0000   1.0000   1.0000   1.0000

          k =-0.5000-0.5000 0.0000 ( 26556 PWs)   bands (ev):

   -18.3876 -18.3876 -18.3789 -18.3789 -18.3681 -18.3681 -18.3644 -18.3644
   -18.3638 -18.3638  -9.0238  -9.0238  -8.8198  -8.8198  -3.3054  -3.3054
     0.0743   0.0743   0.8519   0.8519   1.3623   1.3623   1.5932   1.5932
     1.7077   1.7077   2.2038   2.2038

     occupation numbers 
     1.0000   1.0000   1.0000   1.0000   1.0000   1.0000   1.0000   1.0000
     1.0000   1.0000   1.0000   1.0000   1.0000   1.0000   1.0000   1.0000
     1.0000   1.0000   1.0000   1.0000   1.0000   1.0000   1.0000   1.0000
     1.0000   1.0000   1.0000   1.0000

          k =-0.5000-0.5000-0.8125 ( 26544 PWs)   bands (ev):

   -18.3862 -18.3862 -18.3788 -18.3788 -18.3691 -18.3691 -18.3684 -18.3684
   -18.3600 -18.3600  -8.8424  -8.8424  -8.6942  -8.6942  -3.7521  -3.7521
    -0.2308  -0.2308   0.2770   0.2770   0.5573   0.5573   1.8421   1.8421
     1.8588   1.8588   2.0279   2.0279

     occupation numbers 
     1.0000   1.0000   1.0000   1.0000   1.0000   1.0000   1.0000   1.0000
     1.0000   1.0000   1.0000   1.0000   1.0000   1.0000   1.0000   1.0000
     1.0000   1.0000   1.0000   1.0000   1.0000   1.0000   1.0000   1.0000
     1.0000   1.0000   1.0000   1.0000

     highest occupied level (ev):     2.8720

!    total energy              =   -2399.97980448 Ry

     total all-electron energy =    -81641.225152 Ry
     estimated scf accuracy    <       0.00000004 Ry

     The total energy is the sum of the following terms:
     one-electron contribution =    -203.71525435 Ry
     hartree contribution      =     130.10700142 Ry
     xc contribution           =    -159.03593370 Ry
     ewald contribution        =    -219.54274838 Ry
     one-center paw contrib.   =   -1947.79286946 Ry
      -> PAW hartree energy AE =     108.29783645 Ry
      -> PAW hartree energy PS =    -107.53123251 Ry
      -> PAW xc energy AE      =    -328.95751344 Ry
      -> PAW xc energy PS      =      47.25568239 Ry
      -> total E_H with PAW    =     130.87360536 Ry
      -> total E_XC with PAW   =    -440.73776475 Ry

     convergence has been achieved in   7 iterations

     Forces acting on atoms (cartesian axes, Ry/au):

     atom    1 type  1   force =     0.00000000    0.00000000    0.00000000
     atom    2 type  1   force =     0.00000000    0.00000000    0.00000000
     atom    3 type  2   force =     0.00282581    0.00282581    0.00000000
     atom    4 type  2   force =    -0.00282581   -0.00282581   -0.00000000
     atom    5 type  2   force =     0.00282581   -0.00282581    0.00000000
     atom    6 type  2   force =    -0.00282581    0.00282581    0.00000000
     The non-local contrib.  to forces
     atom    1 type  1   force =     0.00000000    0.00000000    0.00000000
     atom    2 type  1   force =     0.00000000    0.00000000    0.00000000
     atom    3 type  2   force =     0.01538523    0.01538523    0.00000000
     atom    4 type  2   force =    -0.01538523   -0.01538523    0.00000000
     atom    5 type  2   force =     0.01538523   -0.01538523    0.00000000
     atom    6 type  2   force =    -0.01538523    0.01538523    0.00000000
     The ionic contribution  to forces
     atom    1 type  1   force =    -0.00000000   -0.00000000    0.00000000
     atom    2 type  1   force =    -0.00000000   -0.00000000   -0.00000000
     atom    3 type  2   force =    -0.90990984   -0.90990984   -0.00000000
     atom    4 type  2   force =     0.90990984    0.90990984   -0.00000000
     atom    5 type  2   force =    -0.90990984    0.90990984   -0.00000000
     atom    6 type  2   force =     0.90990984   -0.90990984    0.00000000
     The local contribution  to forces
     atom    1 type  1   force =     0.00000000    0.00000000    0.00000000
     atom    2 type  1   force =     0.00000000    0.00000000    0.00000000
     atom    3 type  2   force =     0.89935651    0.89935651    0.00000000
     atom    4 type  2   force =    -0.89935651   -0.89935651    0.00000000
     atom    5 type  2   force =     0.89935651   -0.89935651    0.00000000
     atom    6 type  2   force =    -0.89935651    0.89935651    0.00000000
     The core correction contribution to forces
     atom    1 type  1   force =     0.00000000    0.00000000    0.00000000
     atom    2 type  1   force =     0.00000000    0.00000000    0.00000000
     atom    3 type  2   force =    -0.00197609   -0.00197609    0.00000000
     atom    4 type  2   force =     0.00197609    0.00197609    0.00000000
     atom    5 type  2   force =    -0.00197609    0.00197609   -0.00000000
     atom    6 type  2   force =     0.00197609   -0.00197609    0.00000000
     The Hubbard contrib.    to forces
     atom    1 type  1   force =     0.00000000    0.00000000    0.00000000
     atom    2 type  1   force =     0.00000000    0.00000000    0.00000000
     atom    3 type  2   force =     0.00000000    0.00000000    0.00000000
     atom    4 type  2   force =     0.00000000    0.00000000    0.00000000
     atom    5 type  2   force =     0.00000000    0.00000000    0.00000000
     atom    6 type  2   force =     0.00000000    0.00000000    0.00000000
     The SCF correction term to forces
     atom    1 type  1   force =    -0.00000000   -0.00000000    0.00000000
     atom    2 type  1   force =     0.00000000    0.00000000    0.00000000
     atom    3 type  2   force =    -0.00003000   -0.00003000    0.00000000
     atom    4 type  2   force =     0.00003000    0.00003000   -0.00000000
     atom    5 type  2   force =    -0.00003000    0.00003000   -0.00000000
     atom    6 type  2   force =     0.00003000   -0.00003000    0.00000000

     Total force =     0.007993     Total SCF correction =     0.000085


     Computing stress (Cartesian axis) and pressure

          total   stress  (Ry/bohr**3)                   (kbar)     P=        1.18
  -0.00001221   0.00000000   0.00000000           -1.80        0.00        0.00
   0.00000000  -0.00001221   0.00000000            0.00       -1.80        0.00
   0.00000000   0.00000000   0.00004842            0.00        0.00        7.12

     kinetic stress (kbar)   7312.51      0.00      0.00
                                0.00   7312.51      0.00
                                0.00      0.00   7300.47

     local   stress (kbar)  -1439.77      0.00     -0.00
                                0.00  -1439.77     -0.00
                               -0.00     -0.00  -5858.00

     nonloc. stress (kbar)    116.43      0.00      0.00
                                0.00    116.43      0.00
                                0.00      0.00    120.02

     hartree stress (kbar)   2826.08      0.00      0.00
                                0.00   2826.08      0.00
                                0.00      0.00   4720.65

     exc-cor stress (kbar)   6160.86      0.00     -0.00
                                0.00   6160.86      0.00
                               -0.00      0.00   6162.06

     corecor stress (kbar)  -8297.15      0.00      0.00
                                0.00  -8297.15      0.00
                                0.00      0.00  -8296.53

     ewald   stress (kbar)  -6680.77      0.00     -0.00
                                0.00  -6680.77     -0.00
                               -0.00     -0.00  -4141.56

     hubbard stress (kbar)      0.00      0.00      0.00
                                0.00      0.00      0.00
                                0.00      0.00      0.00

     DFT-D   stress (kbar)      0.00      0.00      0.00
                                0.00      0.00      0.00
                                0.00      0.00      0.00

     XDM     stress (kbar)      0.00      0.00      0.00
                                0.00      0.00      0.00
                                0.00      0.00      0.00

     dft-nl  stress (kbar)      0.00      0.00      0.00
                                0.00      0.00      0.00
                                0.00      0.00      0.00

     TS-vdW  stress (kbar)      0.00      0.00      0.00
                                0.00      0.00      0.00
                                0.00      0.00      0.00



     BFGS Geometry Optimization
     Energy error            =      0.0E+00
     Gradient error          =      2.8E-03
     Cell gradient error     =      4.8E-05


     number of scf cycles    =   1
     number of bfgs steps    =   0

     enthalpy new            =   -2399.9798044802 Ry

     new trust radius        =       0.0103984128 bohr
     new conv_thr            =       0.0000010000 Ry

     new unit-cell volume =   1846.25651 a.u.^3 (   273.58699 Ang^3 )
     density =      4.52179 g/cm^3

CELL_PARAMETERS (angstrom)
   7.628376182   0.000000000   0.000000000
   0.000000000   7.628376182   0.000000000
   0.000000000   0.000000000   4.701443646

ATOMIC_POSITIONS (crystal)
Sn            0.0000000000        0.0000000000        0.0000000000
Sn            0.5000000000        0.5000000000        0.5000000000
I             0.2987169654        0.2987169654        0.0000000000
I             0.7012830346        0.7012830346       -0.0000000000
I             0.7987169654        0.2012830346        0.5000000000
I             0.2012830346        0.7987169654        0.5000000000



     Writing output data file ./out/SnI2tetr.save/
     NEW-OLD atomic charge density approx. for the potential
     extrapolated charge   56.03353, renormalised to   56.00000

     total cpu time spent up to now is       45.3 secs

     Self-consistent Calculation

     iteration #  1     ecut=    90.00 Ry     beta= 0.50
     Davidson diagonalization with overlap
     ethr =  1.00E-06,  avg # of iterations =  3.2

     Threshold (ethr) on eigenvalues was too large:
     Diagonalizing with lowered threshold

     Davidson diagonalization with overlap
     ethr =  8.65E-08,  avg # of iterations =  4.0

     total cpu time spent up to now is       52.1 secs

     total energy              =   -2399.97990633 Ry
     estimated scf accuracy    <       0.00005922 Ry

     iteration #  2     ecut=    90.00 Ry     beta= 0.50
     Davidson diagonalization with overlap
     ethr =  1.06E-07,  avg # of iterations =  4.0

     total cpu time spent up to now is       56.5 secs

     total energy              =   -2399.97998520 Ry
     estimated scf accuracy    <       0.00004864 Ry

     iteration #  3     ecut=    90.00 Ry     beta= 0.50
     Davidson diagonalization with overlap
     ethr =  8.69E-08,  avg # of iterations =  2.0

     total cpu time spent up to now is       59.3 secs

     total energy              =   -2399.97998223 Ry
     estimated scf accuracy    <       0.00001469 Ry

     iteration #  4     ecut=    90.00 Ry     beta= 0.50
     Davidson diagonalization with overlap
     ethr =  2.62E-08,  avg # of iterations =  3.3

     total cpu time spent up to now is       62.8 secs

     total energy              =   -2399.97998611 Ry
     estimated scf accuracy    <       0.00000130 Ry

     iteration #  5     ecut=    90.00 Ry     beta= 0.50
     Davidson diagonalization with overlap
     ethr =  2.32E-09,  avg # of iterations =  3.7

     total cpu time spent up to now is       65.8 secs

     total energy              =   -2399.97998626 Ry
     estimated scf accuracy    <       0.00000108 Ry

     iteration #  6     ecut=    90.00 Ry     beta= 0.50
     Davidson diagonalization with overlap
     ethr =  1.93E-09,  avg # of iterations =  1.0

     total cpu time spent up to now is       68.5 secs

     total energy              =   -2399.97998617 Ry
     estimated scf accuracy    <       0.00000108 Ry

     iteration #  7     ecut=    90.00 Ry     beta= 0.50
     Davidson diagonalization with overlap
     ethr =  1.93E-09,  avg # of iterations =  1.0

     total cpu time spent up to now is       71.1 secs

     total energy              =   -2399.97998632 Ry
     estimated scf accuracy    <       0.00000105 Ry

     iteration #  8     ecut=    90.00 Ry     beta= 0.50
     Davidson diagonalization with overlap
     ethr =  1.88E-09,  avg # of iterations =  1.3

     total cpu time spent up to now is       73.8 secs

     total energy              =   -2399.97998713 Ry
     estimated scf accuracy    <       0.00000204 Ry

     iteration #  9     ecut=    90.00 Ry     beta= 0.50
     Davidson diagonalization with overlap
     ethr =  1.88E-09,  avg # of iterations =  3.0

     total cpu time spent up to now is       77.6 secs

     End of self-consistent calculation

          k = 0.0000 0.0000 0.0000 ( 26691 PWs)   bands (ev):

   -18.3999 -18.3970 -18.3902 -18.3899 -18.3787 -18.3787 -18.3749 -18.3749
   -18.3745 -18.3745  -9.3225  -8.8090  -8.8090  -8.6915  -4.1448  -2.2986
    -0.1034  -0.1034   0.4276   0.7545   1.2533   1.3514   1.6100   1.6100
     2.0226   2.0226   2.3981   2.8579

     occupation numbers 
     1.0000   1.0000   1.0000   1.0000   1.0000   1.0000   1.0000   1.0000
     1.0000   1.0000   1.0000   1.0000   1.0000   1.0000   1.0000   1.0000
     1.0000   1.0000   1.0000   1.0000   1.0000   1.0000   1.0000   1.0000
     1.0000   1.0000   1.0000   1.0000

          k = 0.0000 0.0000-0.8115 ( 26570 PWs)   bands (ev):

   -18.3971 -18.3971 -18.3899 -18.3899 -18.3796 -18.3796 -18.3790 -18.3790
   -18.3705 -18.3705  -8.8609  -8.8609  -8.6867  -8.6867  -3.6961  -3.6961
    -0.0443  -0.0443  -0.0173  -0.0173   0.5282   0.5282   1.5816   1.5816
     1.6344   1.6344   2.3723   2.3723

     occupation numbers 
     1.0000   1.0000   1.0000   1.0000   1.0000   1.0000   1.0000   1.0000
     1.0000   1.0000   1.0000   1.0000   1.0000   1.0000   1.0000   1.0000
     1.0000   1.0000   1.0000   1.0000   1.0000   1.0000   1.0000   1.0000
     1.0000   1.0000   1.0000   1.0000

          k = 0.0000-0.5002 0.0000 ( 26640 PWs)   bands (ev):

   -18.3985 -18.3985 -18.3900 -18.3900 -18.3786 -18.3786 -18.3749 -18.3749
   -18.3745 -18.3745  -9.1098  -9.1098  -8.7230  -8.7230  -3.4019  -3.4019
     0.3800   0.3800   0.7721   0.7721   1.0826   1.0826   1.6991   1.6991
     1.8439   1.8439   2.1906   2.1906

     occupation numbers 
     1.0000   1.0000   1.0000   1.0000   1.0000   1.0000   1.0000   1.0000
     1.0000   1.0000   1.0000   1.0000   1.0000   1.0000   1.0000   1.0000
     1.0000   1.0000   1.0000   1.0000   1.0000   1.0000   1.0000   1.0000
     1.0000   1.0000   1.0000   1.0000

          k = 0.0000-0.5002-0.8115 ( 26628 PWs)   bands (ev):

   -18.3972 -18.3972 -18.3899 -18.3899 -18.3796 -18.3796 -18.3790 -18.3790
   -18.3705 -18.3705  -8.8394  -8.8394  -8.7087  -8.7087  -3.6775  -3.6775
    -0.6439  -0.6439   0.0245   0.0245   1.1851   1.1851   1.7042   1.7042
     1.8251   1.8251   2.6182   2.6182

     occupation numbers 
     1.0000   1.0000   1.0000   1.0000   1.0000   1.0000   1.0000   1.0000
     1.0000   1.0000   1.0000   1.0000   1.0000   1.0000   1.0000   1.0000
     1.0000   1.0000   1.0000   1.0000   1.0000   1.0000   1.0000   1.0000
     1.0000   1.0000   1.0000   1.0000

          k =-0.5002-0.5002 0.0000 ( 26556 PWs)   bands (ev):

   -18.3985 -18.3985 -18.3900 -18.3900 -18.3786 -18.3786 -18.3749 -18.3749
   -18.3745 -18.3745  -9.0269  -9.0269  -8.8220  -8.8220  -3.3098  -3.3098
     0.0749   0.0749   0.8401   0.8401   1.3597   1.3597   1.5852   1.5852
     1.7057   1.7057   2.1927   2.1927

     occupation numbers 
     1.0000   1.0000   1.0000   1.0000   1.0000   1.0000   1.0000   1.0000
     1.0000   1.0000   1.0000   1.0000   1.0000   1.0000   1.0000   1.0000
     1.0000   1.0000   1.0000   1.0000   1.0000   1.0000   1.0000   1.0000
     1.0000   1.0000   1.0000   1.0000

          k =-0.5002-0.5002-0.8115 ( 26544 PWs)   bands (ev):

   -18.3972 -18.3972 -18.3899 -18.3899 -18.3796 -18.3796 -18.3790 -18.3790
   -18.3705 -18.3705  -8.8464  -8.8464  -8.6973  -8.6973  -3.7597  -3.7597
    -0.2334  -0.2334   0.2721   0.2721   0.5565   0.5565   1.8372   1.8372
     1.8555   1.8555   2.0280   2.0280

     occupation numbers 
     1.0000   1.0000   1.0000   1.0000   1.0000   1.0000   1.0000   1.0000
     1.0000   1.0000   1.0000   1.0000   1.0000   1.0000   1.0000   1.0000
     1.0000   1.0000   1.0000   1.0000   1.0000   1.0000   1.0000   1.0000
     1.0000   1.0000   1.0000   1.0000

     highest occupied level (ev):     2.8579

!    total energy              =   -2399.97998675 Ry

     total all-electron energy =    -81641.225334 Ry
     estimated scf accuracy    <       0.00000090 Ry

     The total energy is the sum of the following terms:
     one-electron contribution =    -203.76736835 Ry
     hartree contribution      =     130.12545270 Ry
     xc contribution           =    -159.03511306 Ry
     ewald contribution        =    -219.51055710 Ry
     one-center paw contrib.   =   -1947.79240095 Ry
      -> PAW hartree energy AE =     108.29336285 Ry
      -> PAW hartree energy PS =    -107.52650272 Ry
      -> PAW xc energy AE      =    -328.95769744 Ry
      -> PAW xc energy PS      =      47.25566136 Ry
      -> total E_H with PAW    =     130.89231283 Ry
      -> total E_XC with PAW   =    -440.73714914 Ry

     convergence has been achieved in   9 iterations

     Forces acting on atoms (cartesian axes, Ry/au):

     atom    1 type  1   force =     0.00000000    0.00000000    0.00000000
     atom    2 type  1   force =     0.00000000    0.00000000   -0.00000000
     atom    3 type  2   force =     0.00261789    0.00261789    0.00000000
     atom    4 type  2   force =    -0.00261789   -0.00261789    0.00000000
     atom    5 type  2   force =     0.00261789   -0.00261789    0.00000000
     atom    6 type  2   force =    -0.00261789    0.00261789    0.00000000
     The non-local contrib.  to forces
     atom    1 type  1   force =     0.00000000    0.00000000    0.00000000
     atom    2 type  1   force =     0.00000000    0.00000000    0.00000000
     atom    3 type  2   force =     0.01508412    0.01508412    0.00000000
     atom    4 type  2   force =    -0.01508412   -0.01508412    0.00000000
     atom    5 type  2   force =     0.01508412   -0.01508412    0.00000000
     atom    6 type  2   force =    -0.01508412    0.01508412    0.00000000
     The ionic contribution  to forces
     atom    1 type  1   force =    -0.00000000   -0.00000000   -0.00000000
     atom    2 type  1   force =     0.00000000    0.00000000    0.00000000
     atom    3 type  2   force =    -0.91044549   -0.91044549   -0.00000000
     atom    4 type  2   force =     0.91044549    0.91044549   -0.00000000
     atom    5 type  2   force =    -0.91044549    0.91044549    0.00000000
     atom    6 type  2   force =     0.91044549   -0.91044549    0.00000000
     The local contribution  to forces
     atom    1 type  1   force =     0.00000000    0.00000000    0.00000000
     atom    2 type  1   force =     0.00000000    0.00000000    0.00000000
     atom    3 type  2   force =     0.89997406    0.89997406    0.00000000
     atom    4 type  2   force =    -0.89997406   -0.89997406    0.00000000
     atom    5 type  2   force =     0.89997406   -0.89997406    0.00000000
     atom    6 type  2   force =    -0.89997406    0.89997406    0.00000000
     The core correction contribution to forces
     atom    1 type  1   force =     0.00000000    0.00000000    0.00000000
     atom    2 type  1   force =     0.00000000    0.00000000    0.00000000
     atom    3 type  2   force =    -0.00196651   -0.00196651    0.00000000
     atom    4 type  2   force =     0.00196651    0.00196651    0.00000000
     atom    5 type  2   force =    -0.00196651    0.00196651    0.00000000
     atom    6 type  2   force =     0.00196651   -0.00196651    0.00000000
     The Hubbard contrib.    to forces
     atom    1 type  1   force =     0.00000000    0.00000000    0.00000000
     atom    2 type  1   force =     0.00000000    0.00000000    0.00000000
     atom    3 type  2   force =     0.00000000    0.00000000    0.00000000
     atom    4 type  2   force =     0.00000000    0.00000000    0.00000000
     atom    5 type  2   force =     0.00000000    0.00000000    0.00000000
     atom    6 type  2   force =     0.00000000    0.00000000    0.00000000
     The SCF correction term to forces
     atom    1 type  1   force =    -0.00000000    0.00000000    0.00000000
     atom    2 type  1   force =    -0.00000000   -0.00000000   -0.00000000
     atom    3 type  2   force =    -0.00002829   -0.00002829    0.00000000
     atom    4 type  2   force =     0.00002829    0.00002829   -0.00000000
     atom    5 type  2   force =    -0.00002829    0.00002829   -0.00000000
     atom    6 type  2   force =     0.00002829   -0.00002829   -0.00000000

     Total force =     0.007405     Total SCF correction =     0.000080


     Computing stress (Cartesian axis) and pressure

          total   stress  (Ry/bohr**3)                   (kbar)     P=        2.35
  -0.00000360   0.00000000   0.00000000           -0.53        0.00        0.00
   0.00000000  -0.00000360   0.00000000            0.00       -0.53        0.00
   0.00000000   0.00000000   0.00005506            0.00        0.00        8.10

     kinetic stress (kbar)   7308.21      0.00      0.00
                                0.00   7308.21      0.00
                                0.00      0.00   7295.59

     local   stress (kbar)  -1437.53      0.00      0.00
                                0.00  -1437.53      0.00
                                0.00      0.00  -5860.95

     nonloc. stress (kbar)    117.50      0.00      0.00
                                0.00    117.50      0.00
                                0.00      0.00    121.12

     hartree stress (kbar)   2824.23      0.00      0.00
                                0.00   2824.23     -0.00
                                0.00     -0.00   4719.61

     exc-cor stress (kbar)   6157.18     -0.00     -0.00
                               -0.00   6157.18     -0.00
                               -0.00     -0.00   6158.41

     corecor stress (kbar)  -8292.17      0.00     -0.00
                                0.00  -8292.17     -0.00
                               -0.00     -0.00  -8291.54

     ewald   stress (kbar)  -6677.96     -0.00     -0.00
                               -0.00  -6677.96     -0.00
                               -0.00     -0.00  -4134.14

     hubbard stress (kbar)      0.00      0.00      0.00
                                0.00      0.00      0.00
                                0.00      0.00      0.00

     DFT-D   stress (kbar)      0.00      0.00      0.00
                                0.00      0.00      0.00
                                0.00      0.00      0.00

     XDM     stress (kbar)      0.00      0.00      0.00
                                0.00      0.00      0.00
                                0.00      0.00      0.00

     dft-nl  stress (kbar)      0.00      0.00      0.00
                                0.00      0.00      0.00
                                0.00      0.00      0.00

     TS-vdW  stress (kbar)      0.00      0.00      0.00
                                0.00      0.00      0.00
                                0.00      0.00      0.00


     Energy error            =      1.8E-04
     Gradient error          =      2.6E-03
     Cell gradient error     =      5.5E-05


     number of scf cycles    =   2
     number of bfgs steps    =   1

     enthalpy old            =   -2399.9798044802 Ry
     enthalpy new            =   -2399.9799867515 Ry

     CASE: enthalpy_new < enthalpy_old


     WARNING: bfgs curvature condition failed, Theta= 0.799
     new trust radius        =       0.0155834289 bohr
     new conv_thr            =       0.0000000182 Ry

     new unit-cell volume =   1847.88131 a.u.^3 (   273.82776 Ang^3 )
     density =      4.51781 g/cm^3

CELL_PARAMETERS (angstrom)
   7.624821945   0.000000000   0.000000000
   0.000000000   7.624821945   0.000000000
   0.000000000   0.000000000   4.709969114

ATOMIC_POSITIONS (crystal)
Sn            0.0000000000        0.0000000000        0.0000000000
Sn            0.5000000000        0.5000000000        0.5000000000
I             0.2990121642        0.2990121642        0.0000000000
I             0.7009878358        0.7009878358       -0.0000000000
I             0.7990121642        0.2009878358        0.5000000000
I             0.2009878358        0.7990121642        0.5000000000



     Writing output data file ./out/SnI2tetr.save/
     NEW-OLD atomic charge density approx. for the potential
     extrapolated charge   56.04924, renormalised to   56.00000

     total cpu time spent up to now is       90.3 secs

     Self-consistent Calculation

     iteration #  1     ecut=    90.00 Ry     beta= 0.50
     Davidson diagonalization with overlap
     ethr =  1.00E-06,  avg # of iterations =  4.8

     total cpu time spent up to now is       94.7 secs

     total energy              =   -2399.98007304 Ry
     estimated scf accuracy    <       0.00013501 Ry

     iteration #  2     ecut=    90.00 Ry     beta= 0.50
     Davidson diagonalization with overlap
     ethr =  2.41E-07,  avg # of iterations =  3.8

     total cpu time spent up to now is       99.0 secs

     total energy              =   -2399.98024293 Ry
     estimated scf accuracy    <       0.00009041 Ry

     iteration #  3     ecut=    90.00 Ry     beta= 0.50
     Davidson diagonalization with overlap
     ethr =  1.61E-07,  avg # of iterations =  1.8

     total cpu time spent up to now is      101.8 secs

     total energy              =   -2399.98023929 Ry
     estimated scf accuracy    <       0.00002720 Ry

     iteration #  4     ecut=    90.00 Ry     beta= 0.50
     Davidson diagonalization with overlap
     ethr =  4.86E-08,  avg # of iterations =  3.0

     total cpu time spent up to now is      105.3 secs

     total energy              =   -2399.98024605 Ry
     estimated scf accuracy    <       0.00000339 Ry

     iteration #  5     ecut=    90.00 Ry     beta= 0.50
     Davidson diagonalization with overlap
     ethr =  6.06E-09,  avg # of iterations =  2.7

     total cpu time spent up to now is      108.3 secs

     total energy              =   -2399.98024784 Ry
     estimated scf accuracy    <       0.00000276 Ry

     iteration #  6     ecut=    90.00 Ry     beta= 0.50
     Davidson diagonalization with overlap
     ethr =  4.93E-09,  avg # of iterations =  2.0

     total cpu time spent up to now is      111.2 secs

     total energy              =   -2399.98024772 Ry
     estimated scf accuracy    <       0.00000244 Ry

     iteration #  7     ecut=    90.00 Ry     beta= 0.50
     Davidson diagonalization with overlap
     ethr =  4.36E-09,  avg # of iterations =  1.0

     total cpu time spent up to now is      113.8 secs

     total energy              =   -2399.98024775 Ry
     estimated scf accuracy    <       0.00000171 Ry

     iteration #  8     ecut=    90.00 Ry     beta= 0.50
     Davidson diagonalization with overlap
     ethr =  3.06E-09,  avg # of iterations =  5.0

     total cpu time spent up to now is      117.9 secs

     total energy              =   -2399.98024857 Ry
     estimated scf accuracy    <       0.00000047 Ry

     iteration #  9     ecut=    90.00 Ry     beta= 0.50
     Davidson diagonalization with overlap
     ethr =  8.46E-10,  avg # of iterations =  2.3

     total cpu time spent up to now is      120.8 secs

     total energy              =   -2399.98024860 Ry
     estimated scf accuracy    <       0.00000028 Ry

     iteration # 10     ecut=    90.00 Ry     beta= 0.50
     Davidson diagonalization with overlap
     ethr =  5.03E-10,  avg # of iterations =  1.0

     total cpu time spent up to now is      123.5 secs

     total energy              =   -2399.98024850 Ry
     estimated scf accuracy    <       0.00000029 Ry

     iteration # 11     ecut=    90.00 Ry     beta= 0.50
     Davidson diagonalization with overlap
     ethr =  5.03E-10,  avg # of iterations =  2.0

     total cpu time spent up to now is      126.4 secs

     total energy              =   -2399.98024847 Ry
     estimated scf accuracy    <       0.00000008 Ry

     iteration # 12     ecut=    90.00 Ry     beta= 0.50
     Davidson diagonalization with overlap
     ethr =  1.36E-10,  avg # of iterations =  4.2

     total cpu time spent up to now is      130.1 secs

     End of self-consistent calculation

          k = 0.0000 0.0000 0.0000 ( 26691 PWs)   bands (ev):

   -18.4038 -18.4009 -18.3942 -18.3939 -18.3826 -18.3826 -18.3789 -18.3788
   -18.3785 -18.3785  -9.3285  -8.8148  -8.8148  -8.6999  -4.1443  -2.3036
    -0.1018  -0.1018   0.4101   0.7505   1.2408   1.3328   1.5968   1.5968
     2.0156   2.0156   2.3884   2.8374

     occupation numbers 
     1.0000   1.0000   1.0000   1.0000   1.0000   1.0000   1.0000   1.0000
     1.0000   1.0000   1.0000   1.0000   1.0000   1.0000   1.0000   1.0000
     1.0000   1.0000   1.0000   1.0000   1.0000   1.0000   1.0000   1.0000
     1.0000   1.0000   1.0000   1.0000

          k = 0.0000 0.0000-0.8101 ( 26570 PWs)   bands (ev):

   -18.4011 -18.4011 -18.3939 -18.3939 -18.3835 -18.3835 -18.3830 -18.3830
   -18.3745 -18.3745  -8.8694  -8.8694  -8.6939  -8.6939  -3.7029  -3.7029
    -0.0494  -0.0494  -0.0207  -0.0207   0.5272   0.5272   1.5738   1.5738
     1.6257   1.6257   2.3696   2.3696

     occupation numbers 
     1.0000   1.0000   1.0000   1.0000   1.0000   1.0000   1.0000   1.0000
     1.0000   1.0000   1.0000   1.0000   1.0000   1.0000   1.0000   1.0000
     1.0000   1.0000   1.0000   1.0000   1.0000   1.0000   1.0000   1.0000
     1.0000   1.0000   1.0000   1.0000

          k = 0.0000-0.5004 0.0000 ( 26640 PWs)   bands (ev):

   -18.4023 -18.4023 -18.3940 -18.3940 -18.3826 -18.3826 -18.3788 -18.3788
   -18.3785 -18.3785  -9.1160  -9.1160  -8.7296  -8.7296  -3.4031  -3.4031
     0.3735   0.3735   0.7546   0.7546   1.0806   1.0806   1.6855   1.6855
     1.8391   1.8391   2.1805   2.1805

     occupation numbers 
     1.0000   1.0000   1.0000   1.0000   1.0000   1.0000   1.0000   1.0000
     1.0000   1.0000   1.0000   1.0000   1.0000   1.0000   1.0000   1.0000
     1.0000   1.0000   1.0000   1.0000   1.0000   1.0000   1.0000   1.0000
     1.0000   1.0000   1.0000   1.0000

          k = 0.0000-0.5004-0.8101 ( 26628 PWs)   bands (ev):

   -18.4011 -18.4011 -18.3939 -18.3939 -18.3835 -18.3835 -18.3829 -18.3829
   -18.3745 -18.3745  -8.8480  -8.8480  -8.7158  -8.7158  -3.6842  -3.6842
    -0.6480  -0.6480   0.0203   0.0203   1.1806   1.1806   1.6984   1.6984
     1.8173   1.8173   2.6157   2.6157

     occupation numbers 
     1.0000   1.0000   1.0000   1.0000   1.0000   1.0000   1.0000   1.0000
     1.0000   1.0000   1.0000   1.0000   1.0000   1.0000   1.0000   1.0000
     1.0000   1.0000   1.0000   1.0000   1.0000   1.0000   1.0000   1.0000
     1.0000   1.0000   1.0000   1.0000

          k =-0.5004-0.5004 0.0000 ( 26556 PWs)   bands (ev):

   -18.4023 -18.4023 -18.3940 -18.3940 -18.3826 -18.3826 -18.3788 -18.3788
   -18.3785 -18.3785  -9.0338  -9.0338  -8.8278  -8.8278  -3.3121  -3.3121
     0.0759   0.0759   0.8224   0.8224   1.3540   1.3540   1.5719   1.5719
     1.7003   1.7003   2.1763   2.1763

     occupation numbers 
     1.0000   1.0000   1.0000   1.0000   1.0000   1.0000   1.0000   1.0000
     1.0000   1.0000   1.0000   1.0000   1.0000   1.0000   1.0000   1.0000
     1.0000   1.0000   1.0000   1.0000   1.0000   1.0000   1.0000   1.0000
     1.0000   1.0000   1.0000   1.0000

          k =-0.5004-0.5004-0.8101 ( 26544 PWs)   bands (ev):

   -18.4011 -18.4011 -18.3939 -18.3939 -18.3835 -18.3835 -18.3830 -18.3830
   -18.3745 -18.3745  -8.8549  -8.8549  -8.7046  -8.7046  -3.7663  -3.7663
    -0.2374  -0.2374   0.2650   0.2650   0.5555   0.5555   1.8278   1.8278
     1.8482   1.8482   2.0281   2.0281

     occupation numbers 
     1.0000   1.0000   1.0000   1.0000   1.0000   1.0000   1.0000   1.0000
     1.0000   1.0000   1.0000   1.0000   1.0000   1.0000   1.0000   1.0000
     1.0000   1.0000   1.0000   1.0000   1.0000   1.0000   1.0000   1.0000
     1.0000   1.0000   1.0000   1.0000

     highest occupied level (ev):     2.8374

!    total energy              =   -2399.98024849 Ry

     total all-electron energy =    -81641.225596 Ry
     estimated scf accuracy    <       0.00000002 Ry

     The total energy is the sum of the following terms:
     one-electron contribution =    -203.82774257 Ry
     hartree contribution      =     130.13722129 Ry
     xc contribution           =    -159.03339771 Ry
     ewald contribution        =    -219.46376666 Ry
     one-center paw contrib.   =   -1947.79256285 Ry
      -> PAW hartree energy AE =     108.28994078 Ry
      -> PAW hartree energy PS =    -107.52326522 Ry
      -> PAW xc energy AE      =    -328.95703995 Ry
      -> PAW xc energy PS      =      47.25517942 Ry
      -> total E_H with PAW    =     130.90389685 Ry
      -> total E_XC with PAW   =    -440.73525824 Ry

     convergence has been achieved in  12 iterations

     Forces acting on atoms (cartesian axes, Ry/au):

     atom    1 type  1   force =     0.00000000    0.00000000    0.00000000
     atom    2 type  1   force =     0.00000000    0.00000000    0.00000000
     atom    3 type  2   force =     0.00251211    0.00251211    0.00000000
     atom    4 type  2   force =    -0.00251211   -0.00251211   -0.00000000
     atom    5 type  2   force =     0.00251211   -0.00251211    0.00000000
     atom    6 type  2   force =    -0.00251211    0.00251211    0.00000000
     The non-local contrib.  to forces
     atom    1 type  1   force =     0.00000000    0.00000000   -0.00000000
     atom    2 type  1   force =     0.00000000    0.00000000    0.00000000
     atom    3 type  2   force =     0.01534196    0.01534196   -0.00000000
     atom    4 type  2   force =    -0.01534196   -0.01534196   -0.00000000
     atom    5 type  2   force =     0.01534196   -0.01534196    0.00000000
     atom    6 type  2   force =    -0.01534196    0.01534196    0.00000000
     The ionic contribution  to forces
     atom    1 type  1   force =    -0.00000000   -0.00000000   -0.00000000
     atom    2 type  1   force =    -0.00000000   -0.00000000   -0.00000000
     atom    3 type  2   force =    -0.91123691   -0.91123691   -0.00000000
     atom    4 type  2   force =     0.91123691    0.91123691   -0.00000000
     atom    5 type  2   force =    -0.91123691    0.91123691   -0.00000000
     atom    6 type  2   force =     0.91123691   -0.91123691   -0.00000000
     The local contribution  to forces
     atom    1 type  1   force =     0.00000000    0.00000000    0.00000000
     atom    2 type  1   force =     0.00000000    0.00000000    0.00000000
     atom    3 type  2   force =     0.90039408    0.90039408    0.00000000
     atom    4 type  2   force =    -0.90039408   -0.90039408    0.00000000
     atom    5 type  2   force =     0.90039408   -0.90039408    0.00000000
     atom    6 type  2   force =    -0.90039408    0.90039408    0.00000000
     The core correction contribution to forces
     atom    1 type  1   force =     0.00000000    0.00000000    0.00000000
     atom    2 type  1   force =     0.00000000    0.00000000    0.00000000
     atom    3 type  2   force =    -0.00197501   -0.00197501    0.00000000
     atom    4 type  2   force =     0.00197501    0.00197501    0.00000000
     atom    5 type  2   force =    -0.00197501    0.00197501    0.00000000
     atom    6 type  2   force =     0.00197501   -0.00197501    0.00000000
     The Hubbard contrib.    to forces
     atom    1 type  1   force =     0.00000000    0.00000000    0.00000000
     atom    2 type  1   force =     0.00000000    0.00000000    0.00000000
     atom    3 type  2   force =     0.00000000    0.00000000    0.00000000
     atom    4 type  2   force =     0.00000000    0.00000000    0.00000000
     atom    5 type  2   force =     0.00000000    0.00000000    0.00000000
     atom    6 type  2   force =     0.00000000    0.00000000    0.00000000
     The SCF correction term to forces
     atom    1 type  1   force =     0.00000000    0.00000000   -0.00000000
     atom    2 type  1   force =     0.00000000   -0.00000000   -0.00000000
     atom    3 type  2   force =    -0.00001200   -0.00001200   -0.00000000
     atom    4 type  2   force =     0.00001200    0.00001200    0.00000000
     atom    5 type  2   force =    -0.00001200    0.00001200    0.00000000
     atom    6 type  2   force =     0.00001200   -0.00001200   -0.00000000

     Total force =     0.007105     Total SCF correction =     0.000034


     Computing stress (Cartesian axis) and pressure

          total   stress  (Ry/bohr**3)                   (kbar)     P=        1.12
  -0.00001101   0.00000000   0.00000000           -1.62        0.00        0.00
   0.00000000  -0.00001101   0.00000000            0.00       -1.62        0.00
   0.00000000   0.00000000   0.00004491            0.00        0.00        6.61

     kinetic stress (kbar)   7301.92      0.00      0.00
                                0.00   7301.92      0.00
                                0.00      0.00   7288.46

     local   stress (kbar)  -1433.93      0.00     -0.00
                                0.00  -1433.93     -0.00
                               -0.00     -0.00  -5865.31

     nonloc. stress (kbar)    116.32      0.00      0.00
                                0.00    116.32      0.00
                                0.00      0.00    120.01

     hartree stress (kbar)   2821.11      0.00      0.00
                                0.00   2821.11     -0.00
                                0.00     -0.00   4717.67

     exc-cor stress (kbar)   6151.78     -0.00     -0.00
                               -0.00   6151.78      0.00
                               -0.00      0.00   6153.05

     corecor stress (kbar)  -8284.88      0.00     -0.00
                                0.00  -8284.88     -0.00
                               -0.00     -0.00  -8284.23

     ewald   stress (kbar)  -6673.95      0.00      0.00
                                0.00  -6673.95     -0.00
                                0.00     -0.00  -4123.05

     hubbard stress (kbar)      0.00      0.00      0.00
                                0.00      0.00      0.00
                                0.00      0.00      0.00

     DFT-D   stress (kbar)      0.00      0.00      0.00
                                0.00      0.00      0.00
                                0.00      0.00      0.00

     XDM     stress (kbar)      0.00      0.00      0.00
                                0.00      0.00      0.00
                                0.00      0.00      0.00

     dft-nl  stress (kbar)      0.00      0.00      0.00
                                0.00      0.00      0.00
                                0.00      0.00      0.00

     TS-vdW  stress (kbar)      0.00      0.00      0.00
                                0.00      0.00      0.00
                                0.00      0.00      0.00


     Energy error            =      2.6E-04
     Gradient error          =      2.5E-03
     Cell gradient error     =      4.5E-05


     number of scf cycles    =   3
     number of bfgs steps    =   2

     enthalpy old            =   -2399.9799867515 Ry
     enthalpy new            =   -2399.9802484934 Ry

     CASE: enthalpy_new < enthalpy_old

     new trust radius        =       0.0233430970 bohr
     new conv_thr            =       0.0000000262 Ry

     new unit-cell volume =   1849.62883 a.u.^3 (   274.08671 Ang^3 )
     density =      4.51354 g/cm^3

CELL_PARAMETERS (angstrom)
   7.618091377   0.000000000   0.000000000
   0.000000000   7.618091377   0.000000000
   0.000000000   0.000000000   4.722757316

ATOMIC_POSITIONS (crystal)
Sn            0.0000000000        0.0000000000        0.0000000000
Sn            0.5000000000        0.5000000000        0.5000000000
I             0.2994752866        0.2994752866        0.0000000000
I             0.7005247134        0.7005247134       -0.0000000000
I             0.7994752866        0.2005247134        0.5000000000
I             0.2005247134        0.7994752866        0.5000000000



     Writing output data file ./out/SnI2tetr.save/
     NEW-OLD atomic charge density approx. for the potential
     extrapolated charge   56.05291, renormalised to   56.00000

     total cpu time spent up to now is      142.7 secs

     Self-consistent Calculation

     iteration #  1     ecut=    90.00 Ry     beta= 0.50
     Davidson diagonalization with overlap
     ethr =  1.00E-06,  avg # of iterations =  5.5

     total cpu time spent up to now is      147.6 secs

     total energy              =   -2399.98041661 Ry
     estimated scf accuracy    <       0.00016534 Ry

     iteration #  2     ecut=    90.00 Ry     beta= 0.50
     Davidson diagonalization with overlap
     ethr =  2.95E-07,  avg # of iterations =  4.3

     total cpu time spent up to now is      151.9 secs

     total energy              =   -2399.98060853 Ry
     estimated scf accuracy    <       0.00011350 Ry

     iteration #  3     ecut=    90.00 Ry     beta= 0.50
     Davidson diagonalization with overlap
     ethr =  2.03E-07,  avg # of iterations =  2.0

     total cpu time spent up to now is      154.8 secs

     total energy              =   -2399.98060922 Ry
     estimated scf accuracy    <       0.00003047 Ry

     iteration #  4     ecut=    90.00 Ry     beta= 0.50
     Davidson diagonalization with overlap
     ethr =  5.44E-08,  avg # of iterations =  3.5

     total cpu time spent up to now is      158.5 secs

     total energy              =   -2399.98061870 Ry
     estimated scf accuracy    <       0.00000370 Ry

     iteration #  5     ecut=    90.00 Ry     beta= 0.50
     Davidson diagonalization with overlap
     ethr =  6.61E-09,  avg # of iterations =  2.2

     total cpu time spent up to now is      161.4 secs

     total energy              =   -2399.98062200 Ry
     estimated scf accuracy    <       0.00000350 Ry

     iteration #  6     ecut=    90.00 Ry     beta= 0.50
     Davidson diagonalization with overlap
     ethr =  6.25E-09,  avg # of iterations =  2.3

     total cpu time spent up to now is      164.4 secs

     total energy              =   -2399.98062196 Ry
     estimated scf accuracy    <       0.00000363 Ry

     iteration #  7     ecut=    90.00 Ry     beta= 0.50
     Davidson diagonalization with overlap
     ethr =  6.25E-09,  avg # of iterations =  2.2

     total cpu time spent up to now is      167.5 secs

     total energy              =   -2399.98062333 Ry
     estimated scf accuracy    <       0.00000094 Ry

     iteration #  8     ecut=    90.00 Ry     beta= 0.50
     Davidson diagonalization with overlap
     ethr =  1.67E-09,  avg # of iterations =  5.2

     total cpu time spent up to now is      171.6 secs

     total energy              =   -2399.98062367 Ry
     estimated scf accuracy    <       0.00000053 Ry

     iteration #  9     ecut=    90.00 Ry     beta= 0.50
     Davidson diagonalization with overlap
     ethr =  9.39E-10,  avg # of iterations =  2.2

     total cpu time spent up to now is      174.6 secs

     total energy              =   -2399.98062370 Ry
     estimated scf accuracy    <       0.00000007 Ry

     iteration # 10     ecut=    90.00 Ry     beta= 0.50
     Davidson diagonalization with overlap
     ethr =  1.25E-10,  avg # of iterations =  4.3

     total cpu time spent up to now is      178.4 secs

     End of self-consistent calculation

          k = 0.0000 0.0000 0.0000 ( 26691 PWs)   bands (ev):

   -18.4118 -18.4089 -18.4025 -18.4022 -18.3903 -18.3903 -18.3866 -18.3865
   -18.3865 -18.3865  -9.3344  -8.8194  -8.8194  -8.7084  -4.1431  -2.3092
    -0.0968  -0.0968   0.3857   0.7480   1.2251   1.3073   1.5806   1.5806
     2.0095   2.0095   2.3786   2.8098

     occupation numbers 
     1.0000   1.0000   1.0000   1.0000   1.0000   1.0000   1.0000   1.0000
     1.0000   1.0000   1.0000   1.0000   1.0000   1.0000   1.0000   1.0000
     1.0000   1.0000   1.0000   1.0000   1.0000   1.0000   1.0000   1.0000
     1.0000   1.0000   1.0000   1.0000

          k = 0.0000 0.0000-0.8079 ( 26570 PWs)   bands (ev):

   -18.4091 -18.4091 -18.4022 -18.4022 -18.3912 -18.3912 -18.3909 -18.3909
   -18.3823 -18.3823  -8.8784  -8.8784  -8.7005  -8.7005  -3.7128  -3.7128
    -0.0546  -0.0546  -0.0236  -0.0236   0.5286   0.5286   1.5659   1.5659
     1.6165   1.6165   2.3699   2.3699

     occupation numbers 
     1.0000   1.0000   1.0000   1.0000   1.0000   1.0000   1.0000   1.0000
     1.0000   1.0000   1.0000   1.0000   1.0000   1.0000   1.0000   1.0000
     1.0000   1.0000   1.0000   1.0000   1.0000   1.0000   1.0000   1.0000
     1.0000   1.0000   1.0000   1.0000

          k = 0.0000-0.5008 0.0000 ( 26640 PWs)   bands (ev):

   -18.4103 -18.4103 -18.4023 -18.4023 -18.3902 -18.3902 -18.3866 -18.3866
   -18.3865 -18.3865  -9.1220  -9.1220  -8.7353  -8.7353  -3.4036  -3.4036
     0.3663   0.3663   0.7305   0.7305   1.0813   1.0813   1.6688   1.6688
     1.8361   1.8361   2.1695   2.1695

     occupation numbers 
     1.0000   1.0000   1.0000   1.0000   1.0000   1.0000   1.0000   1.0000
     1.0000   1.0000   1.0000   1.0000   1.0000   1.0000   1.0000   1.0000
     1.0000   1.0000   1.0000   1.0000   1.0000   1.0000   1.0000   1.0000
     1.0000   1.0000   1.0000   1.0000

          k = 0.0000-0.5008-0.8079 ( 26628 PWs)   bands (ev):

   -18.4092 -18.4092 -18.4022 -18.4022 -18.3912 -18.3912 -18.3908 -18.3908
   -18.3823 -18.3823  -8.8572  -8.8572  -8.7224  -8.7224  -3.6939  -3.6939
    -0.6523  -0.6523   0.0162   0.0162   1.1773   1.1773   1.6940   1.6940
     1.8099   1.8099   2.6167   2.6167

     occupation numbers 
     1.0000   1.0000   1.0000   1.0000   1.0000   1.0000   1.0000   1.0000
     1.0000   1.0000   1.0000   1.0000   1.0000   1.0000   1.0000   1.0000
     1.0000   1.0000   1.0000   1.0000   1.0000   1.0000   1.0000   1.0000
     1.0000   1.0000   1.0000   1.0000

          k =-0.5008-0.5008 0.0000 ( 26556 PWs)   bands (ev):

   -18.4103 -18.4103 -18.4023 -18.4023 -18.3902 -18.3902 -18.3866 -18.3866
   -18.3865 -18.3865  -9.0406  -9.0406  -8.8325  -8.8325  -3.3141  -3.3141
     0.0800   0.0800   0.7979   0.7979   1.3491   1.3491   1.5554   1.5554
     1.6964   1.6964   2.1548   2.1548

     occupation numbers 
     1.0000   1.0000   1.0000   1.0000   1.0000   1.0000   1.0000   1.0000
     1.0000   1.0000   1.0000   1.0000   1.0000   1.0000   1.0000   1.0000
     1.0000   1.0000   1.0000   1.0000   1.0000   1.0000   1.0000   1.0000
     1.0000   1.0000   1.0000   1.0000

          k =-0.5008-0.5008-0.8079 ( 26544 PWs)   bands (ev):

   -18.4091 -18.4091 -18.4022 -18.4022 -18.3912 -18.3912 -18.3909 -18.3909
   -18.3823 -18.3823  -8.8639  -8.8639  -8.7113  -8.7113  -3.7760  -3.7760
    -0.2413  -0.2413   0.2570   0.2570   0.5569   0.5569   1.8176   1.8176
     1.8414   1.8414   2.0322   2.0322

     occupation numbers 
     1.0000   1.0000   1.0000   1.0000   1.0000   1.0000   1.0000   1.0000
     1.0000   1.0000   1.0000   1.0000   1.0000   1.0000   1.0000   1.0000
     1.0000   1.0000   1.0000   1.0000   1.0000   1.0000   1.0000   1.0000
     1.0000   1.0000   1.0000   1.0000

     highest occupied level (ev):     2.8098

!    total energy              =   -2399.98062372 Ry

     total all-electron energy =    -81641.225971 Ry
     estimated scf accuracy    <       0.00000002 Ry

     The total energy is the sum of the following terms:
     one-electron contribution =    -203.88108689 Ry
     hartree contribution      =     130.14756201 Ry
     xc contribution           =    -159.03176217 Ry
     ewald contribution        =    -219.42297932 Ry
     one-center paw contrib.   =   -1947.79235736 Ry
      -> PAW hartree energy AE =     108.28548833 Ry
      -> PAW hartree energy PS =    -107.51877845 Ry
      -> PAW xc energy AE      =    -328.95673412 Ry
      -> PAW xc energy PS      =      47.25487409 Ry
      -> total E_H with PAW    =     130.91427190 Ry
      -> total E_XC with PAW   =    -440.73362220 Ry

     convergence has been achieved in  10 iterations

     Forces acting on atoms (cartesian axes, Ry/au):

     atom    1 type  1   force =     0.00000000    0.00000000    0.00000000
     atom    2 type  1   force =     0.00000000    0.00000000   -0.00000000
     atom    3 type  2   force =     0.00221654    0.00221654   -0.00000000
     atom    4 type  2   force =    -0.00221654   -0.00221654   -0.00000000
     atom    5 type  2   force =     0.00221654   -0.00221654   -0.00000000
     atom    6 type  2   force =    -0.00221654    0.00221654    0.00000000
     The non-local contrib.  to forces
     atom    1 type  1   force =     0.00000000    0.00000000    0.00000000
     atom    2 type  1   force =     0.00000000    0.00000000   -0.00000000
     atom    3 type  2   force =     0.01528154    0.01528154    0.00000000
     atom    4 type  2   force =    -0.01528154   -0.01528154   -0.00000000
     atom    5 type  2   force =     0.01528154   -0.01528154    0.00000000
     atom    6 type  2   force =    -0.01528154    0.01528154    0.00000000
     The ionic contribution  to forces
     atom    1 type  1   force =    -0.00000000   -0.00000000   -0.00000000
     atom    2 type  1   force =    -0.00000000   -0.00000000   -0.00000000
     atom    3 type  2   force =    -0.91249210   -0.91249210   -0.00000000
     atom    4 type  2   force =     0.91249210    0.91249210   -0.00000000
     atom    5 type  2   force =    -0.91249210    0.91249210   -0.00000000
     atom    6 type  2   force =     0.91249210   -0.91249210   -0.00000000
     The local contribution  to forces
     atom    1 type  1   force =     0.00000000    0.00000000    0.00000000
     atom    2 type  1   force =     0.00000000    0.00000000    0.00000000
     atom    3 type  2   force =     0.90142235    0.90142235    0.00000000
     atom    4 type  2   force =    -0.90142235   -0.90142235    0.00000000
     atom    5 type  2   force =     0.90142235   -0.90142235    0.00000000
     atom    6 type  2   force =    -0.90142235    0.90142235    0.00000000
     The core correction contribution to forces
     atom    1 type  1   force =     0.00000000    0.00000000    0.00000000
     atom    2 type  1   force =     0.00000000    0.00000000    0.00000000
     atom    3 type  2   force =    -0.00196907   -0.00196907    0.00000000
     atom    4 type  2   force =     0.00196907    0.00196907    0.00000000
     atom    5 type  2   force =    -0.00196907    0.00196907    0.00000000
     atom    6 type  2   force =     0.00196907   -0.00196907    0.00000000
     The Hubbard contrib.    to forces
     atom    1 type  1   force =     0.00000000    0.00000000    0.00000000
     atom    2 type  1   force =     0.00000000    0.00000000    0.00000000
     atom    3 type  2   force =     0.00000000    0.00000000    0.00000000
     atom    4 type  2   force =     0.00000000    0.00000000    0.00000000
     atom    5 type  2   force =     0.00000000    0.00000000    0.00000000
     atom    6 type  2   force =     0.00000000    0.00000000    0.00000000
     The SCF correction term to forces
     atom    1 type  1   force =     0.00000000    0.00000000   -0.00000000
     atom    2 type  1   force =    -0.00000000   -0.00000000   -0.00000000
     atom    3 type  2   force =    -0.00002618   -0.00002618   -0.00000000
     atom    4 type  2   force =     0.00002618    0.00002618   -0.00000000
     atom    5 type  2   force =    -0.00002618    0.00002618   -0.00000000
     atom    6 type  2   force =     0.00002618   -0.00002618    0.00000000

     Total force =     0.006269     Total SCF correction =     0.000074


     Computing stress (Cartesian axis) and pressure

          total   stress  (Ry/bohr**3)                   (kbar)     P=        0.92
  -0.00001093   0.00000000   0.00000000           -1.61        0.00        0.00
   0.00000000  -0.00001093   0.00000000            0.00       -1.61        0.00
   0.00000000   0.00000000   0.00004071            0.00        0.00        5.99

     kinetic stress (kbar)   7295.31      0.00      0.00
                                0.00   7295.31      0.00
                                0.00      0.00   7280.53

     local   stress (kbar)  -1427.52     -0.00     -0.00
                               -0.00  -1427.52     -0.00
                               -0.00     -0.00  -5873.88

     nonloc. stress (kbar)    116.08      0.00      0.00
                                0.00    116.08      0.00
                                0.00      0.00    119.88

     hartree stress (kbar)   2817.15      0.00     -0.00
                                0.00   2817.15      0.00
                               -0.00      0.00   4716.63

     exc-cor stress (kbar)   6145.98     -0.00      0.00
                               -0.00   6145.98     -0.00
                                0.00     -0.00   6147.30

     corecor stress (kbar)  -8277.05      0.00     -0.00
                                0.00  -8277.05     -0.00
                               -0.00     -0.00  -8276.38

     ewald   stress (kbar)  -6671.55     -0.00     -0.00
                               -0.00  -6671.55     -0.00
                               -0.00     -0.00  -4108.09

     hubbard stress (kbar)      0.00      0.00      0.00
                                0.00      0.00      0.00
                                0.00      0.00      0.00

     DFT-D   stress (kbar)      0.00      0.00      0.00
                                0.00      0.00      0.00
                                0.00      0.00      0.00

     XDM     stress (kbar)      0.00      0.00      0.00
                                0.00      0.00      0.00
                                0.00      0.00      0.00

     dft-nl  stress (kbar)      0.00      0.00      0.00
                                0.00      0.00      0.00
                                0.00      0.00      0.00

     TS-vdW  stress (kbar)      0.00      0.00      0.00
                                0.00      0.00      0.00
                                0.00      0.00      0.00


     Energy error            =      3.8E-04
     Gradient error          =      2.2E-03
     Cell gradient error     =      4.1E-05


     number of scf cycles    =   4
     number of bfgs steps    =   3

     enthalpy old            =   -2399.9802484934 Ry
     enthalpy new            =   -2399.9806237197 Ry

     CASE: enthalpy_new < enthalpy_old

     new trust radius        =       0.0349363411 bohr
     new conv_thr            =       0.0000000375 Ry

     new unit-cell volume =   1852.13879 a.u.^3 (   274.45865 Ang^3 )
     density =      4.50742 g/cm^3

CELL_PARAMETERS (angstrom)
   7.607823944   0.000000000   0.000000000
   0.000000000   7.607823944   0.000000000
   0.000000000   0.000000000   4.741939620

ATOMIC_POSITIONS (crystal)
Sn            0.0000000000        0.0000000000        0.0000000000
Sn            0.5000000000        0.5000000000        0.5000000000
I             0.3001605115        0.3001605115        0.0000000000
I             0.6998394885        0.6998394885       -0.0000000000
I             0.8001605115        0.1998394885        0.5000000000
I             0.1998394885        0.8001605115        0.5000000000



     Writing output data file ./out/SnI2tetr.save/
     NEW-OLD atomic charge density approx. for the potential
     extrapolated charge   56.07589, renormalised to   56.00000

     total cpu time spent up to now is      191.1 secs

     Self-consistent Calculation

     iteration #  1     ecut=    90.00 Ry     beta= 0.50
     Davidson diagonalization with overlap
     ethr =  1.00E-06,  avg # of iterations =  6.0

     total cpu time spent up to now is      196.6 secs

     total energy              =   -2399.98068524 Ry
     estimated scf accuracy    <       0.00034500 Ry

     iteration #  2     ecut=    90.00 Ry     beta= 0.50
     Davidson diagonalization with overlap
     ethr =  6.16E-07,  avg # of iterations =  4.2

     total cpu time spent up to now is      200.9 secs

     total energy              =   -2399.98108460 Ry
     estimated scf accuracy    <       0.00023285 Ry

     iteration #  3     ecut=    90.00 Ry     beta= 0.50
     Davidson diagonalization with overlap
     ethr =  4.16E-07,  avg # of iterations =  2.0

     total cpu time spent up to now is      203.7 secs

     total energy              =   -2399.98108488 Ry
     estimated scf accuracy    <       0.00006470 Ry

     iteration #  4     ecut=    90.00 Ry     beta= 0.50
     Davidson diagonalization with overlap
     ethr =  1.16E-07,  avg # of iterations =  3.3

     total cpu time spent up to now is      207.4 secs

     total energy              =   -2399.98110522 Ry
     estimated scf accuracy    <       0.00000744 Ry

     iteration #  5     ecut=    90.00 Ry     beta= 0.50
     Davidson diagonalization with overlap
     ethr =  1.33E-08,  avg # of iterations =  2.7

     total cpu time spent up to now is      210.4 secs

     total energy              =   -2399.98111090 Ry
     estimated scf accuracy    <       0.00000707 Ry

     iteration #  6     ecut=    90.00 Ry     beta= 0.50
     Davidson diagonalization with overlap
     ethr =  1.26E-08,  avg # of iterations =  2.0

     total cpu time spent up to now is      213.2 secs

     total energy              =   -2399.98111189 Ry
     estimated scf accuracy    <       0.00000707 Ry

     iteration #  7     ecut=    90.00 Ry     beta= 0.50
     Davidson diagonalization with overlap
     ethr =  1.26E-08,  avg # of iterations =  2.3

     total cpu time spent up to now is      216.8 secs

     total energy              =   -2399.98111535 Ry
     estimated scf accuracy    <       0.00000172 Ry

     iteration #  8     ecut=    90.00 Ry     beta= 0.50
     Davidson diagonalization with overlap
     ethr =  3.07E-09,  avg # of iterations =  4.0

     total cpu time spent up to now is      220.5 secs

     total energy              =   -2399.98111564 Ry
     estimated scf accuracy    <       0.00000061 Ry

     iteration #  9     ecut=    90.00 Ry     beta= 0.50
     Davidson diagonalization with overlap
     ethr =  1.10E-09,  avg # of iterations =  3.5

     total cpu time spent up to now is      224.2 secs

     total energy              =   -2399.98111590 Ry
     estimated scf accuracy    <       0.00000013 Ry

     iteration # 10     ecut=    90.00 Ry     beta= 0.50
     Davidson diagonalization with overlap
     ethr =  2.40E-10,  avg # of iterations =  1.8

     total cpu time spent up to now is      227.0 secs

     total energy              =   -2399.98111585 Ry
     estimated scf accuracy    <       0.00000010 Ry

     iteration # 11     ecut=    90.00 Ry     beta= 0.50
     Davidson diagonalization with overlap
     ethr =  1.75E-10,  avg # of iterations =  3.3

     total cpu time spent up to now is      230.7 secs

     End of self-consistent calculation

          k = 0.0000 0.0000 0.0000 ( 26691 PWs)   bands (ev):

   -18.4225 -18.4197 -18.4136 -18.4133 -18.4004 -18.4004 -18.3971 -18.3971
   -18.3969 -18.3968  -9.3431  -8.8261  -8.8261  -8.7208  -4.1407  -2.3168
[...]
        k(    6) = (  -0.5073370  -0.5073370  -0.7853131), wk =   0.2500000

                       cryst. coord.
        k(    1) = (   0.0000000   0.0000000   0.0000000), wk =   0.2500000
        k(    2) = (   0.0000000   0.0000000  -0.5000000), wk =   0.2500000
        k(    3) = (   0.0000000  -0.5000000   0.0000000), wk =   0.5000000
        k(    4) = (   0.0000000  -0.5000000  -0.5000000), wk =   0.5000000
        k(    5) = (  -0.5000000  -0.5000000   0.0000000), wk =   0.2500000
        k(    6) = (  -0.5000000  -0.5000000  -0.5000000), wk =   0.2500000

     Dense  grid:   213831 G-vectors     FFT dimensions: (  90,  90,  60)

     Dynamical RAM for                 wfc:       0.60 MB

     Dynamical RAM for     wfc (w. buffer):       4.21 MB

     Dynamical RAM for           str. fact:       0.34 MB

     Dynamical RAM for           local pot:       0.17 MB

     Dynamical RAM for          nlocal pot:       2.32 MB

     Dynamical RAM for                qrad:       6.09 MB

     Dynamical RAM for          rho,v,vnew:       1.26 MB

     Dynamical RAM for               rhoin:       0.42 MB

     Dynamical RAM for            rho*nmix:       2.75 MB

     Dynamical RAM for           G-vectors:       0.73 MB

     Dynamical RAM for          h,s,v(r/c):       0.14 MB

     Dynamical RAM for          <psi|beta>:       0.05 MB

     Dynamical RAM for                 psi:       1.20 MB

     Dynamical RAM for                hpsi:       1.20 MB

     Dynamical RAM for                spsi:       1.20 MB

     Dynamical RAM for      wfcinit/wfcrot:       1.49 MB

     Dynamical RAM for           addusdens:      32.63 MB

     Dynamical RAM for          addusforce:      33.76 MB

     Dynamical RAM for         addusstress:      34.52 MB

     Estimated static dynamical RAM per process >      20.04 MB

     Estimated max dynamical RAM per process >      54.56 MB

     Estimated total dynamical RAM >       1.01 GB

     Initial potential from superposition of free atoms

     starting charge   55.99693, renormalised to   56.00000
     Starting wfcs are   34 randomized atomic wfcs
     Checking if some PAW data can be deallocated... 
       PAW data deallocated on   12 nodes for type:  1
       PAW data deallocated on    7 nodes for type:  2

     total cpu time spent up to now is      852.8 secs

     Self-consistent Calculation

     iteration #  1     ecut=    90.00 Ry     beta= 0.50
     Davidson diagonalization with overlap
     ethr =  1.00E-06,  avg # of iterations =  8.7

     total cpu time spent up to now is      861.3 secs

     total energy              =   -2399.95216717 Ry
     estimated scf accuracy    <       0.12148589 Ry

     iteration #  2     ecut=    90.00 Ry     beta= 0.50
     Davidson diagonalization with overlap
     ethr =  2.17E-04,  avg # of iterations =  2.3

     total cpu time spent up to now is      864.8 secs

     total energy              =   -2399.98125640 Ry
     estimated scf accuracy    <       0.00653174 Ry

     iteration #  3     ecut=    90.00 Ry     beta= 0.50
     Davidson diagonalization with overlap
     ethr =  1.17E-05,  avg # of iterations =  2.2

     total cpu time spent up to now is      868.3 secs

     total energy              =   -2399.98215693 Ry
     estimated scf accuracy    <       0.00123769 Ry

     iteration #  4     ecut=    90.00 Ry     beta= 0.50
     Davidson diagonalization with overlap
     ethr =  2.21E-06,  avg # of iterations =  4.2

     total cpu time spent up to now is      872.1 secs

     total energy              =   -2399.98239248 Ry
     estimated scf accuracy    <       0.00024766 Ry

     iteration #  5     ecut=    90.00 Ry     beta= 0.50
     Davidson diagonalization with overlap
     ethr =  4.42E-07,  avg # of iterations =  3.7

     total cpu time spent up to now is      875.7 secs

     total energy              =   -2399.98245013 Ry
     estimated scf accuracy    <       0.00000549 Ry

     iteration #  6     ecut=    90.00 Ry     beta= 0.50
     Davidson diagonalization with overlap
     ethr =  9.80E-09,  avg # of iterations =  4.7

     total cpu time spent up to now is      879.9 secs

     total energy              =   -2399.98245197 Ry
     estimated scf accuracy    <       0.00000286 Ry

     iteration #  7     ecut=    90.00 Ry     beta= 0.50
     Davidson diagonalization with overlap
     ethr =  5.10E-09,  avg # of iterations =  3.2

     total cpu time spent up to now is      883.4 secs

     total energy              =   -2399.98245251 Ry
     estimated scf accuracy    <       0.00000005 Ry

     iteration #  8     ecut=    90.00 Ry     beta= 0.50
     Davidson diagonalization with overlap
     ethr =  9.17E-11,  avg # of iterations =  7.0

     total cpu time spent up to now is      888.7 secs

     total energy              =   -2399.98245253 Ry
     estimated scf accuracy    <       0.00000014 Ry

     iteration #  9     ecut=    90.00 Ry     beta= 0.50
     Davidson diagonalization with overlap
     ethr =  9.17E-11,  avg # of iterations =  4.0

     total cpu time spent up to now is      892.7 secs

     total energy              =   -2399.98245257 Ry
     estimated scf accuracy    <       0.00000001 Ry

     iteration # 10     ecut=    90.00 Ry     beta= 0.50
     Davidson diagonalization with overlap
     ethr =  2.37E-11,  avg # of iterations =  2.3

     total cpu time spent up to now is      895.9 secs

     End of self-consistent calculation

          k = 0.0000 0.0000 0.0000 ( 26787 PWs)   bands (ev):

   -18.4258 -18.4231 -18.4187 -18.4184 -18.4025 -18.4025 -18.4006 -18.4006
   -18.4000 -18.3997  -9.3480  -8.8095  -8.8095  -8.7285  -4.1006  -2.2892
    -0.0101  -0.0101   0.1916   0.7650   1.1079   1.1349   1.4822   1.4822
     2.0136   2.0136   2.3482   2.6093

     occupation numbers 
     1.0000   1.0000   1.0000   1.0000   1.0000   1.0000   1.0000   1.0000
     1.0000   1.0000   1.0000   1.0000   1.0000   1.0000   1.0000   1.0000
     1.0000   1.0000   1.0000   1.0000   1.0000   1.0000   1.0000   1.0000
     1.0000   1.0000   1.0000   1.0000

          k = 0.0000 0.0000-0.7853 ( 26708 PWs)   bands (ev):

   -18.4238 -18.4238 -18.4184 -18.4184 -18.4062 -18.4062 -18.4013 -18.4013
   -18.3962 -18.3962  -8.9161  -8.9161  -8.7102  -8.7102  -3.7519  -3.7519
    -0.0456  -0.0456   0.0144   0.0144   0.5762   0.5762   1.5391   1.5391
     1.5824   1.5824   2.4339   2.4339

     occupation numbers 
     1.0000   1.0000   1.0000   1.0000   1.0000   1.0000   1.0000   1.0000
     1.0000   1.0000   1.0000   1.0000   1.0000   1.0000   1.0000   1.0000
     1.0000   1.0000   1.0000   1.0000   1.0000   1.0000   1.0000   1.0000
     1.0000   1.0000   1.0000   1.0000

          k = 0.0000-0.5073 0.0000 ( 26710 PWs)   bands (ev):

   -18.4244 -18.4244 -18.4185 -18.4185 -18.4025 -18.4025 -18.4006 -18.4006
   -18.3998 -18.3998  -9.1311  -9.1311  -8.7328  -8.7328  -3.3621  -3.3621
     0.3198   0.3198   0.5483   0.5483   1.1406   1.1406   1.5707   1.5707
     1.8927   1.8927   2.1128   2.1128

     occupation numbers 
     1.0000   1.0000   1.0000   1.0000   1.0000   1.0000   1.0000   1.0000
     1.0000   1.0000   1.0000   1.0000   1.0000   1.0000   1.0000   1.0000
     1.0000   1.0000   1.0000   1.0000   1.0000   1.0000   1.0000   1.0000
     1.0000   1.0000   1.0000   1.0000

          k = 0.0000-0.5073-0.7853 ( 26744 PWs)   bands (ev):

   -18.4239 -18.4239 -18.4184 -18.4184 -18.4061 -18.4061 -18.4013 -18.4013
   -18.3961 -18.3961  -8.8940  -8.8940  -8.7332  -8.7332  -3.7289  -3.7289
    -0.6570  -0.6570   0.0402   0.0402   1.1825   1.1825   1.7262   1.7262
     1.7982   1.7982   2.6980   2.6980

     occupation numbers 
     1.0000   1.0000   1.0000   1.0000   1.0000   1.0000   1.0000   1.0000
     1.0000   1.0000   1.0000   1.0000   1.0000   1.0000   1.0000   1.0000
     1.0000   1.0000   1.0000   1.0000   1.0000   1.0000   1.0000   1.0000
     1.0000   1.0000   1.0000   1.0000

          k =-0.5073-0.5073 0.0000 ( 26700 PWs)   bands (ev):

   -18.4244 -18.4244 -18.4185 -18.4185 -18.4025 -18.4025 -18.4006 -18.4006
   -18.3998 -18.3998  -9.0550  -9.0550  -8.8240  -8.8240  -3.2859  -3.2859
     0.1605   0.1605   0.6155   0.6155   1.3475   1.3475   1.4530   1.4530
     1.7190   1.7190   2.0043   2.0043

     occupation numbers 
     1.0000   1.0000   1.0000   1.0000   1.0000   1.0000   1.0000   1.0000
     1.0000   1.0000   1.0000   1.0000   1.0000   1.0000   1.0000   1.0000
     1.0000   1.0000   1.0000   1.0000   1.0000   1.0000   1.0000   1.0000
     1.0000   1.0000   1.0000   1.0000

          k =-0.5073-0.5073-0.7853 ( 26728 PWs)   bands (ev):

   -18.4238 -18.4238 -18.4184 -18.4184 -18.4062 -18.4062 -18.4013 -18.4013
   -18.3962 -18.3962  -8.8999  -8.8999  -8.7225  -8.7225  -3.8167  -3.8167
    -0.2261  -0.2261   0.2584   0.2584   0.6056   0.6056   1.7869   1.7869
     1.8372   1.8372   2.1140   2.1140

     occupation numbers 
     1.0000   1.0000   1.0000   1.0000   1.0000   1.0000   1.0000   1.0000
     1.0000   1.0000   1.0000   1.0000   1.0000   1.0000   1.0000   1.0000
     1.0000   1.0000   1.0000   1.0000   1.0000   1.0000   1.0000   1.0000
     1.0000   1.0000   1.0000   1.0000

     highest occupied level (ev):     2.6980

!    total energy              =   -2399.98245257 Ry

     total all-electron energy =    -81641.227800 Ry
     estimated scf accuracy    <          2.5E-09 Ry

     The total energy is the sum of the following terms:
     one-electron contribution =    -203.18044363 Ry
     hartree contribution      =     129.76356422 Ry
     xc contribution           =    -159.02545587 Ry
     ewald contribution        =    -219.74856801 Ry
     one-center paw contrib.   =   -1947.79154929 Ry
      -> PAW hartree energy AE =     108.26244531 Ry
      -> PAW hartree energy PS =    -107.49556053 Ry
      -> PAW xc energy AE      =    -328.95519823 Ry
      -> PAW xc energy PS      =      47.25333047 Ry
      -> total E_H with PAW    =     130.53044901 Ry
      -> total E_XC with PAW   =    -440.72732362 Ry

     convergence has been achieved in  10 iterations

     Forces acting on atoms (cartesian axes, Ry/au):

     atom    1 type  1   force =     0.00000000    0.00000000   -0.00000000
     atom    2 type  1   force =     0.00000000    0.00000000   -0.00000000
     atom    3 type  2   force =     0.00003868    0.00003868    0.00000000
     atom    4 type  2   force =    -0.00003868   -0.00003868    0.00000000
     atom    5 type  2   force =     0.00003868   -0.00003868    0.00000000
     atom    6 type  2   force =    -0.00003868    0.00003868    0.00000000
     The non-local contrib.  to forces
     atom    1 type  1   force =     0.00000000    0.00000000   -0.00000000
     atom    2 type  1   force =     0.00000000    0.00000000    0.00000000
     atom    3 type  2   force =     0.01425159    0.01425159    0.00000000
     atom    4 type  2   force =    -0.01425159   -0.01425159   -0.00000000
     atom    5 type  2   force =     0.01425159   -0.01425159   -0.00000000
     atom    6 type  2   force =    -0.01425159    0.01425159   -0.00000000
     The ionic contribution  to forces
     atom    1 type  1   force =    -0.00000000   -0.00000000   -0.00000000
     atom    2 type  1   force =     0.00000000    0.00000000    0.00000000
     atom    3 type  2   force =    -0.85314386   -0.85314386   -0.00000000
     atom    4 type  2   force =     0.85314386    0.85314386   -0.00000000
     atom    5 type  2   force =    -0.85314386    0.85314386    0.00000000
     atom    6 type  2   force =     0.85314386   -0.85314386    0.00000000
     The local contribution  to forces
     atom    1 type  1   force =     0.00000000    0.00000000    0.00000000
     atom    2 type  1   force =     0.00000000    0.00000000    0.00000000
     atom    3 type  2   force =     0.84081369    0.84081369    0.00000000
     atom    4 type  2   force =    -0.84081369   -0.84081369    0.00000000
     atom    5 type  2   force =     0.84081369   -0.84081369    0.00000000
     atom    6 type  2   force =    -0.84081369    0.84081369    0.00000000
     The core correction contribution to forces
     atom    1 type  1   force =     0.00000000    0.00000000    0.00000000
     atom    2 type  1   force =     0.00000000    0.00000000    0.00000000
     atom    3 type  2   force =    -0.00187694   -0.00187694    0.00000000
     atom    4 type  2   force =     0.00187694    0.00187694    0.00000000
     atom    5 type  2   force =    -0.00187694    0.00187694   -0.00000000
     atom    6 type  2   force =     0.00187694   -0.00187694   -0.00000000
     The Hubbard contrib.    to forces
     atom    1 type  1   force =     0.00000000    0.00000000    0.00000000
     atom    2 type  1   force =     0.00000000    0.00000000    0.00000000
     atom    3 type  2   force =     0.00000000    0.00000000    0.00000000
     atom    4 type  2   force =     0.00000000    0.00000000    0.00000000
     atom    5 type  2   force =     0.00000000    0.00000000    0.00000000
     atom    6 type  2   force =     0.00000000    0.00000000    0.00000000
     The SCF correction term to forces
     atom    1 type  1   force =     0.00000000    0.00000000    0.00000000
     atom    2 type  1   force =    -0.00000000   -0.00000000   -0.00000000
     atom    3 type  2   force =    -0.00000580   -0.00000580   -0.00000000
     atom    4 type  2   force =     0.00000580    0.00000580   -0.00000000
     atom    5 type  2   force =    -0.00000580    0.00000580   -0.00000000
     atom    6 type  2   force =     0.00000580   -0.00000580   -0.00000000

     Total force =     0.000109     Total SCF correction =     0.000016
     SCF correction compared to forces is large: reduce conv_thr to get better values


     Computing stress (Cartesian axis) and pressure

          total   stress  (Ry/bohr**3)                   (kbar)     P=        0.03
   0.00000037   0.00000000   0.00000000            0.05        0.00        0.00
   0.00000000   0.00000037   0.00000000            0.00        0.05        0.00
   0.00000000   0.00000000  -0.00000012            0.00        0.00       -0.02

     kinetic stress (kbar)   7280.88      0.00      0.00
                                0.00   7280.88      0.00
                                0.00      0.00   7252.98

     local   stress (kbar)  -1388.64      0.00     -0.00
                                0.00  -1388.64     -0.00
                               -0.00     -0.00  -5873.46

     nonloc. stress (kbar)    115.38      0.00      0.00
                                0.00    115.38      0.00
                                0.00      0.00    119.15

     hartree stress (kbar)   2802.60     -0.00     -0.00
                               -0.00   2802.60     -0.00
                               -0.00     -0.00   4689.55

     exc-cor stress (kbar)   6130.67     -0.00      0.00
                               -0.00   6130.67      0.00
                                0.00      0.00   6132.46

     corecor stress (kbar)  -8256.55     -0.00     -0.00
                               -0.00  -8256.55     -0.00
                               -0.00     -0.00  -8255.59

     ewald   stress (kbar)  -6684.28     -0.00      0.00
                               -0.00  -6684.28      0.00
                                0.00      0.00  -4065.11

     hubbard stress (kbar)      0.00      0.00      0.00
                                0.00      0.00      0.00
                                0.00      0.00      0.00

     DFT-D   stress (kbar)      0.00      0.00      0.00
                                0.00      0.00      0.00
                                0.00      0.00      0.00

     XDM     stress (kbar)      0.00      0.00      0.00
                                0.00      0.00      0.00
                                0.00      0.00      0.00

     dft-nl  stress (kbar)      0.00      0.00      0.00
                                0.00      0.00      0.00
                                0.00      0.00      0.00

     TS-vdW  stress (kbar)      0.00      0.00      0.00
                                0.00      0.00      0.00
                                0.00      0.00      0.00



     Writing output data file ./out/SnI2tetr.save/

     init_run     :      8.74s CPU      8.95s WALL (       2 calls)
     electrons    :    667.51s CPU    675.02s WALL (      18 calls)
     update_pot   :     54.69s CPU     54.82s WALL (      16 calls)
     forces       :     43.92s CPU     44.06s WALL (      18 calls)
     stress       :    112.71s CPU    113.01s WALL (      18 calls)

     Called by init_run:
     wfcinit      :      2.09s CPU      2.12s WALL (       2 calls)
     wfcinit:atom :      0.02s CPU      0.02s WALL (      12 calls)
     wfcinit:wfcr :      1.97s CPU      1.99s WALL (      12 calls)
     potinit      :      2.04s CPU      2.15s WALL (       2 calls)
     hinit0       :      3.59s CPU      3.60s WALL (       2 calls)

     Called by electrons:
     c_bands      :    490.08s CPU    495.43s WALL (     198 calls)
     sum_band     :    103.72s CPU    104.46s WALL (     198 calls)
     v_of_rho     :      8.78s CPU      8.89s WALL (     207 calls)
     v_h          :      0.64s CPU      0.65s WALL (     207 calls)
     v_xc         :      9.55s CPU      9.65s WALL (     243 calls)
     newd         :     37.49s CPU     37.63s WALL (     207 calls)
     PAW_pot      :     34.10s CPU     34.25s WALL (     223 calls)
     mix_rho      :      1.81s CPU      1.83s WALL (     198 calls)

     Called by c_bands:
     init_us_2    :      5.89s CPU      6.09s WALL (    2700 calls)
     cegterg      :    473.35s CPU    476.63s WALL (    1188 calls)

     Called by sum_band:
     sum_band:wei :      0.00s CPU      0.00s WALL (     198 calls)
     sum_band:loo :     66.13s CPU     66.68s WALL (     198 calls)
     sum_band:buf :      0.53s CPU      0.55s WALL (    1188 calls)
     sum_band:ini :      2.61s CPU      2.64s WALL (    1188 calls)
     sum_band:cal :     20.72s CPU     20.79s WALL (    1284 calls)
     sum_band:bec :      0.19s CPU      0.19s WALL (    1284 calls)
     addusdens    :     33.19s CPU     33.33s WALL (     198 calls)
     addusd:skk   :      0.16s CPU      0.16s WALL (     396 calls)
     addusd:dgemm :     10.47s CPU     10.55s WALL (     396 calls)
     addusd:qvan2 :     19.11s CPU     19.17s WALL (     396 calls)

     Called by *egterg:
     cdiaghg      :      7.28s CPU      7.31s WALL (    4639 calls)
     cegterg:over :     29.27s CPU     29.39s WALL (    3601 calls)
     cegterg:upda :     14.65s CPU     14.72s WALL (    3601 calls)
     cegterg:last :     36.00s CPU     36.12s WALL (    2620 calls)
     h_psi        :    325.37s CPU    328.10s WALL (    4801 calls)
     s_psi        :     48.59s CPU     48.75s WALL (    4801 calls)
     g_psi        :      0.95s CPU      0.96s WALL (    3601 calls)

     Called by h_psi:
     h_psi:calbec :     54.98s CPU     55.14s WALL (    4801 calls)
     vloc_psi     :    220.60s CPU    223.01s WALL (    4801 calls)
     add_vuspsi   :     48.87s CPU     49.04s WALL (    4801 calls)

     General routines
     calbec       :     84.45s CPU     84.72s WALL (    6625 calls)
     fft          :      7.74s CPU      7.80s WALL (    2752 calls)
     ffts         :      0.41s CPU      0.42s WALL (     198 calls)
     fftw         :    248.57s CPU    251.28s WALL (  215764 calls)

     Parallel routines
     fft_scatt_xy :     21.59s CPU     21.82s WALL (  218714 calls)
     fft_scatt_yz :     48.37s CPU     48.91s WALL (  218714 calls)

     PAW routines
     PAW_pot      :     34.10s CPU     34.25s WALL (     223 calls)
     PAW_symme    :      0.18s CPU      0.18s WALL (     421 calls)

     PWSCF        :  14m55.84s CPU  15m 5.02s WALL


   This run was terminated on:  14: 8:56  14Jan2021            

=------------------------------------------------------------------------------=
   JOB DONE.
=------------------------------------------------------------------------------=
