
     Program PWSCF v.6.4.1 starts on 23Jan2021 at 18:48:56 

     This program is part of the open-source Quantum ESPRESSO suite
     for quantum simulation of materials; please cite
         "P. Giannozzi et al., J. Phys.:Condens. Matter 21 395502 (2009);
         "P. Giannozzi et al., J. Phys.:Condens. Matter 29 465901 (2017);
          URL http://www.quantum-espresso.org", 
     in publications or presentations arising from this work. More details at
     http://www.quantum-espresso.org/quote

     Parallel version (MPI & OpenMP), running on      48 processor cores
     Number of MPI processes:                24
     Threads/MPI process:                     2

     MPI processes distributed on     1 nodes
     R & G space division:  proc/nbgrp/npool/nimage =      24
     Waiting for input...
     Reading input from standard input

     Current dimensions of program PWSCF are:
     Max number of different atomic species (ntypx) = 10
     Max number of k-points (npk) =  40000
     Max angular momentum in pseudopotentials (lmaxx) =  3
               file Sn.rel-pbesol-dn-kjpaw_psl.1.0.0.UPF: wavefunction(s)  5S 5P 5P 4D 4D renormalized
               file I.rel-pbesol-n-kjpaw_psl.1.0.0.UPF: wavefunction(s)  5S renormalized

     Subspace diagonalization in iterative solution of the eigenvalue problem:
     one sub-group per band group will be used
     scalapack distributed-memory algorithm (size of sub-group:  3*  3 procs)

 
     Parallelization info
     --------------------
     sticks:   dense  smooth     PW     G-vecs:    dense   smooth      PW
     Min         206     137     36                10960     5975     842
     Max         207     139     37                10965     5980     849
     Sum        4957    3313    885               263115   143473   20341
 

     Title: 
     SnI2                                                                       


     bravais-lattice index     =            1
     lattice parameter (alat)  =      14.4199  a.u.
     unit-cell volume          =    2998.4083 (a.u.)^3
     number of atoms/cell      =            6
     number of atomic types    =            2
     number of electrons       =        56.00
     number of Kohn-Sham states=           56
     kinetic-energy cutoff     =      50.0000  Ry
     charge density cutoff     =     300.0000  Ry
     convergence threshold     =      1.0E-06
     mixing beta               =       0.3500
     number of iterations used =            8  plain     mixing
     Exchange-correlation      = SLA PW PSX PSC ( 1  4 10  8 0 0)
     Non magnetic calculation with spin-orbit


     celldm(1)=  14.419945  celldm(2)=   0.000000  celldm(3)=   0.000000
     celldm(4)=   0.000000  celldm(5)=   0.000000  celldm(6)=   0.000000

     crystal axes: (cart. coord. in units of alat)
               a(1) = (   1.000000   0.000000   0.000000 )  
               a(2) = (   0.000000   1.000000   0.000000 )  
               a(3) = (   0.000000   0.000000   1.000000 )  

     reciprocal axes: (cart. coord. in units 2 pi/alat)
               b(1) = (  1.000000  0.000000  0.000000 )  
               b(2) = (  0.000000  1.000000  0.000000 )  
               b(3) = (  0.000000  0.000000  1.000000 )  


     PseudoPot. # 1 for Sn read from file:
     /marconi_scratch/userexternal/cmalosso/degironcoli/pseudo/Sn.rel-pbesol-dn-kjpaw_psl.1.0.0.UPF
     MD5 check sum: e69eff64f15ae39ad43ef58bacbfdf88
     Pseudo is Projector augmented-wave + core cor, Zval = 14.0
     Generated using "atomic" code by A. Dal Corso v.6.3
     Shape of augmentation charge: PSQ
     Using radial grid of 1243 points, 10 beta functions with: 
                l(1) =   0
                l(2) =   0
                l(3) =   1
                l(4) =   1
                l(5) =   1
                l(6) =   1
                l(7) =   2
                l(8) =   2
                l(9) =   2
               l(10) =   2
     Q(r) pseudized with 0 coefficients 


     PseudoPot. # 2 for I  read from file:
     /marconi_scratch/userexternal/cmalosso/degironcoli/pseudo/I.rel-pbesol-n-kjpaw_psl.1.0.0.UPF
     MD5 check sum: 4478c427bd443f303eca1937a163b991
     Pseudo is Projector augmented-wave + core cor, Zval =  7.0
     Generated using "atomic" code by A. Dal Corso v.6.3
     Shape of augmentation charge: PSQ
     Using radial grid of 1247 points, 10 beta functions with: 
                l(1) =   0
                l(2) =   0
                l(3) =   1
                l(4) =   1
                l(5) =   1
                l(6) =   1
                l(7) =   2
                l(8) =   2
                l(9) =   2
               l(10) =   2
     Q(r) pseudized with 0 coefficients 


     atomic species   valence    mass     pseudopotential
        Sn            14.00   118.70000     Sn( 1.00)
        I              7.00   126.90000     I ( 1.00)

     16 Sym. Ops., with inversion, found ( 8 have fractional translation)


                                    s                        frac. trans.

      isym =  1     identity                                     

 cryst.   s( 1) = (     1          0          0      )
                  (     0          1          0      )
                  (     0          0          1      )

 cart.    s( 1) = (  1.0000000  0.0000000  0.0000000 )
                  (  0.0000000  1.0000000  0.0000000 )
                  (  0.0000000  0.0000000  1.0000000 )


      isym =  2     180 deg rotation - cart. axis [0,0,1]        

 cryst.   s( 2) = (    -1          0          0      )
                  (     0         -1          0      )
                  (     0          0          1      )

 cart.    s( 2) = ( -1.0000000  0.0000000  0.0000000 )
                  (  0.0000000 -1.0000000  0.0000000 )
                  (  0.0000000  0.0000000  1.0000000 )


      isym =  3     180 deg rotation - cart. axis [0,1,0]        

 cryst.   s( 3) = (    -1          0          0      )    f =(  0.5000000 )
                  (     0          1          0      )       ( -0.5000000 )
                  (     0          0         -1      )       (  0.5000000 )

 cart.    s( 3) = ( -1.0000000  0.0000000  0.0000000 )    f =(  0.5000000 )
                  (  0.0000000  1.0000000  0.0000000 )       ( -0.5000000 )
                  (  0.0000000  0.0000000 -1.0000000 )       (  0.5000000 )


      isym =  4     180 deg rotation - cart. axis [1,0,0]        

 cryst.   s( 4) = (     1          0          0      )    f =( -0.5000000 )
                  (     0         -1          0      )       (  0.5000000 )
                  (     0          0         -1      )       (  0.5000000 )

 cart.    s( 4) = (  1.0000000  0.0000000  0.0000000 )    f =( -0.5000000 )
                  (  0.0000000 -1.0000000  0.0000000 )       (  0.5000000 )
                  (  0.0000000  0.0000000 -1.0000000 )       (  0.5000000 )


      isym =  5     180 deg rotation - cart. axis [1,1,0]        

 cryst.   s( 5) = (     0          1          0      )
                  (     1          0          0      )
                  (     0          0         -1      )

 cart.    s( 5) = (  0.0000000  1.0000000  0.0000000 )
                  (  1.0000000  0.0000000  0.0000000 )
                  (  0.0000000  0.0000000 -1.0000000 )


      isym =  6     180 deg rotation - cart. axis [1,-1,0]       

 cryst.   s( 6) = (     0         -1          0      )
                  (    -1          0          0      )
                  (     0          0         -1      )

 cart.    s( 6) = (  0.0000000 -1.0000000  0.0000000 )
                  ( -1.0000000  0.0000000  0.0000000 )
                  (  0.0000000  0.0000000 -1.0000000 )


      isym =  7      90 deg rotation - cart. axis [0,0,-1]       

 cryst.   s( 7) = (     0         -1          0      )    f =( -0.5000000 )
                  (     1          0          0      )       (  0.5000000 )
                  (     0          0          1      )       ( -0.5000000 )

 cart.    s( 7) = (  0.0000000  1.0000000  0.0000000 )    f =( -0.5000000 )
                  ( -1.0000000  0.0000000  0.0000000 )       (  0.5000000 )
                  (  0.0000000  0.0000000  1.0000000 )       ( -0.5000000 )


      isym =  8      90 deg rotation - cart. axis [0,0,1]        

 cryst.   s( 8) = (     0          1          0      )    f =(  0.5000000 )
                  (    -1          0          0      )       ( -0.5000000 )
                  (     0          0          1      )       ( -0.5000000 )

 cart.    s( 8) = (  0.0000000 -1.0000000  0.0000000 )    f =(  0.5000000 )
                  (  1.0000000  0.0000000  0.0000000 )       ( -0.5000000 )
                  (  0.0000000  0.0000000  1.0000000 )       ( -0.5000000 )


      isym =  9     inversion                                    

 cryst.   s( 9) = (    -1          0          0      )
                  (     0         -1          0      )
                  (     0          0         -1      )

 cart.    s( 9) = ( -1.0000000  0.0000000  0.0000000 )
                  (  0.0000000 -1.0000000  0.0000000 )
                  (  0.0000000  0.0000000 -1.0000000 )


      isym = 10     inv. 180 deg rotation - cart. axis [0,0,1]   

 cryst.   s(10) = (     1          0          0      )
                  (     0          1          0      )
                  (     0          0         -1      )

 cart.    s(10) = (  1.0000000  0.0000000  0.0000000 )
                  (  0.0000000  1.0000000  0.0000000 )
                  (  0.0000000  0.0000000 -1.0000000 )


      isym = 11     inv. 180 deg rotation - cart. axis [0,1,0]   

 cryst.   s(11) = (     1          0          0      )    f =( -0.5000000 )
                  (     0         -1          0      )       (  0.5000000 )
                  (     0          0          1      )       ( -0.5000000 )

 cart.    s(11) = (  1.0000000  0.0000000  0.0000000 )    f =( -0.5000000 )
                  (  0.0000000 -1.0000000  0.0000000 )       (  0.5000000 )
                  (  0.0000000  0.0000000  1.0000000 )       ( -0.5000000 )


      isym = 12     inv. 180 deg rotation - cart. axis [1,0,0]   

 cryst.   s(12) = (    -1          0          0      )    f =(  0.5000000 )
                  (     0          1          0      )       ( -0.5000000 )
                  (     0          0          1      )       ( -0.5000000 )

 cart.    s(12) = ( -1.0000000  0.0000000  0.0000000 )    f =(  0.5000000 )
                  (  0.0000000  1.0000000  0.0000000 )       ( -0.5000000 )
                  (  0.0000000  0.0000000  1.0000000 )       ( -0.5000000 )


      isym = 13     inv. 180 deg rotation - cart. axis [1,1,0]   

 cryst.   s(13) = (     0         -1          0      )
                  (    -1          0          0      )
                  (     0          0          1      )

 cart.    s(13) = (  0.0000000 -1.0000000  0.0000000 )
                  ( -1.0000000  0.0000000  0.0000000 )
                  (  0.0000000  0.0000000  1.0000000 )


      isym = 14     inv. 180 deg rotation - cart. axis [1,-1,0]  

 cryst.   s(14) = (     0          1          0      )
                  (     1          0          0      )
                  (     0          0          1      )

 cart.    s(14) = (  0.0000000  1.0000000  0.0000000 )
                  (  1.0000000  0.0000000  0.0000000 )
                  (  0.0000000  0.0000000  1.0000000 )


      isym = 15     inv.  90 deg rotation - cart. axis [0,0,-1]  

 cryst.   s(15) = (     0          1          0      )    f =(  0.5000000 )
                  (    -1          0          0      )       ( -0.5000000 )
                  (     0          0         -1      )       (  0.5000000 )

 cart.    s(15) = (  0.0000000 -1.0000000  0.0000000 )    f =(  0.5000000 )
                  (  1.0000000  0.0000000  0.0000000 )       ( -0.5000000 )
                  (  0.0000000  0.0000000 -1.0000000 )       (  0.5000000 )


      isym = 16     inv.  90 deg rotation - cart. axis [0,0,1]   

 cryst.   s(16) = (     0         -1          0      )    f =( -0.5000000 )
                  (     1          0          0      )       (  0.5000000 )
                  (     0          0         -1      )       (  0.5000000 )

 cart.    s(16) = (  0.0000000  1.0000000  0.0000000 )    f =( -0.5000000 )
                  ( -1.0000000  0.0000000  0.0000000 )       (  0.5000000 )
                  (  0.0000000  0.0000000 -1.0000000 )       (  0.5000000 )


     double point group D_4h(4/mmm)
     there are 14 classes and  4 irreducible representations
     the character table:

       E     -E    2C4   -2C4   C2    2C2' 2C2'' i     -i    2S4   -2S4   s_h 
                               -C2   -2C2' -2C2'                         -s_h 
G_6+   2.00 -2.00  1.41 -1.41  0.00  0.00  0.00  2.00 -2.00  1.41 -1.41  0.00
G_7+   2.00 -2.00 -1.41  1.41  0.00  0.00  0.00  2.00 -2.00 -1.41  1.41  0.00
G_6-   2.00 -2.00  1.41 -1.41  0.00  0.00  0.00 -2.00  2.00 -1.41  1.41  0.00
G_7-   2.00 -2.00 -1.41  1.41  0.00  0.00  0.00 -2.00  2.00  1.41 -1.41  0.00

        2s_v  2s_d
       -2s_v -2s_d
G_6+   0.00  0.00
G_7+   0.00  0.00
G_6-   0.00  0.00
G_7-   0.00  0.00

     the symmetry operations in each class and the name of the first element:

     E             1
          identity                                               
     -E           -1
          identity E                                             
     2C4           7    8
           90 deg rotation - cart. axis [0,0,-1]                 
     -2C4         -7   -8
           90 deg rotation - cart. axis [0,0,-1] E               
      C2  -C2      2   -2
          180 deg rotation - cart. axis [0,0,1]                  
      2C2'-2C2'    3   -3    4   -4
          180 deg rotation - cart. axis [0,1,0]                  
     2C2''-2C2'    5   -5   -6    6
          180 deg rotation - cart. axis [1,1,0]                  
     i             9
          inversion                                              
     -i           -9
          inversion E                                            
     2S4          15   16
          inv.  90 deg rotation - cart. axis [0,0,-1]            
     -2S4        -15  -16
          inv.  90 deg rotation - cart. axis [0,0,-1] E          
      s_h -s_h    10  -10
          inv. 180 deg rotation - cart. axis [0,0,1]             
      2s_v-2s_v   11  -11   12  -12
          inv. 180 deg rotation - cart. axis [0,1,0]             
      2s_d-2s_d   13  -13  -14   14
          inv. 180 deg rotation - cart. axis [1,1,0]             

   Cartesian axes

     site n.     atom                  positions (alat units)
         1           Sn  tau(   1) = (   0.0000000   0.0000000   0.0000000  )
         2           Sn  tau(   2) = (   0.5000000   0.5000000   0.5000000  )
         3           I   tau(   3) = (   0.2985210   0.2985210   0.0000000  )
         4           I   tau(   4) = (   0.7014790   0.7014790   0.0000000  )
         5           I   tau(   5) = (   0.7985210   0.2014790   0.5000000  )
         6           I   tau(   6) = (   0.2014790   0.7985210   0.5000000  )

   Crystallographic axes

     site n.     atom                  positions (cryst. coord.)
         1           Sn  tau(   1) = (  0.0000000  0.0000000  0.0000000  )
         2           Sn  tau(   2) = (  0.5000000  0.5000000  0.5000000  )
         3           I   tau(   3) = (  0.2985210  0.2985210  0.0000000  )
         4           I   tau(   4) = (  0.7014790  0.7014790  0.0000000  )
         5           I   tau(   5) = (  0.7985210  0.2014790  0.5000000  )
         6           I   tau(   6) = (  0.2014790  0.7985210  0.5000000  )

     number of k points=    18
                       cart. coord. in units 2pi/alat
        k(    1) = (   0.0833333   0.0833333   0.0833333), wk =   0.0370370
        k(    2) = (   0.0833333   0.0833333   0.2500000), wk =   0.0370370
        k(    3) = (   0.0833333   0.0833333   0.4166667), wk =   0.0370370
        k(    4) = (   0.0833333   0.2500000   0.2500000), wk =   0.0740741
        k(    5) = (   0.0833333   0.2500000   0.4166667), wk =   0.0740741
        k(    6) = (   0.0833333   0.4166667   0.4166667), wk =   0.0740741
        k(    7) = (   0.2500000   0.2500000   0.2500000), wk =   0.0370370
        k(    8) = (   0.2500000   0.2500000   0.4166667), wk =   0.0370370
        k(    9) = (   0.2500000   0.4166667   0.4166667), wk =   0.0740741
        k(   10) = (   0.4166667   0.4166667   0.4166667), wk =   0.0370370
        k(   11) = (   0.0833333   0.2500000   0.0833333), wk =   0.0740741
        k(   12) = (   0.0833333   0.4166667   0.0833333), wk =   0.0740741
        k(   13) = (   0.2500000   0.2500000   0.0833333), wk =   0.0370370
        k(   14) = (   0.2500000   0.4166667   0.0833333), wk =   0.0740741
        k(   15) = (   0.4166667   0.0833333   0.2500000), wk =   0.0740741
        k(   16) = (   0.4166667   0.4166667   0.0833333), wk =   0.0370370
        k(   17) = (   0.2500000   0.4166667   0.2500000), wk =   0.0740741
        k(   18) = (   0.4166667   0.4166667   0.2500000), wk =   0.0370370

                       cryst. coord.
        k(    1) = (   0.0833333   0.0833333   0.0833333), wk =   0.0370370
        k(    2) = (   0.0833333   0.0833333   0.2500000), wk =   0.0370370
        k(    3) = (   0.0833333   0.0833333   0.4166667), wk =   0.0370370
        k(    4) = (   0.0833333   0.2500000   0.2500000), wk =   0.0740741
        k(    5) = (   0.0833333   0.2500000   0.4166667), wk =   0.0740741
        k(    6) = (   0.0833333   0.4166667   0.4166667), wk =   0.0740741
        k(    7) = (   0.2500000   0.2500000   0.2500000), wk =   0.0370370
        k(    8) = (   0.2500000   0.2500000   0.4166667), wk =   0.0370370
        k(    9) = (   0.2500000   0.4166667   0.4166667), wk =   0.0740741
        k(   10) = (   0.4166667   0.4166667   0.4166667), wk =   0.0370370
        k(   11) = (   0.0833333   0.2500000   0.0833333), wk =   0.0740741
        k(   12) = (   0.0833333   0.4166667   0.0833333), wk =   0.0740741
        k(   13) = (   0.2500000   0.2500000   0.0833333), wk =   0.0370370
        k(   14) = (   0.2500000   0.4166667   0.0833333), wk =   0.0740741
        k(   15) = (   0.4166667   0.0833333   0.2500000), wk =   0.0740741
        k(   16) = (   0.4166667   0.4166667   0.0833333), wk =   0.0370370
        k(   17) = (   0.2500000   0.4166667   0.2500000), wk =   0.0740741
        k(   18) = (   0.4166667   0.4166667   0.2500000), wk =   0.0370370

     Dense  grid:   263115 G-vectors     FFT dimensions: (  80,  80,  80)

     Smooth grid:   143473 G-vectors     FFT dimensions: (  72,  72,  72)

     Dynamical RAM for                 wfc:       1.27 MB

     Dynamical RAM for     wfc (w. buffer):      24.19 MB

     Dynamical RAM for           str. fact:       0.33 MB

     Dynamical RAM for           local pot:       0.00 MB

     Dynamical RAM for          nlocal pot:       2.32 MB

     Dynamical RAM for                qrad:      16.70 MB

     Dynamical RAM for          rho,v,vnew:       4.35 MB

     Dynamical RAM for               rhoin:       1.45 MB

     Dynamical RAM for            rho*nmix:      10.71 MB

     Dynamical RAM for           G-vectors:       0.67 MB

     Dynamical RAM for          h,s,v(r/c):       0.25 MB

     Dynamical RAM for          <psi|beta>:       0.35 MB

     Dynamical RAM for                 psi:       5.09 MB

     Dynamical RAM for                hpsi:       5.09 MB

     Dynamical RAM for                spsi:       5.09 MB

     Dynamical RAM for      wfcinit/wfcrot:       2.43 MB

     Dynamical RAM for           addusdens:     102.70 MB

     Dynamical RAM for          addusforce:     104.87 MB

     Dynamical RAM for         addusstress:     105.04 MB

     Estimated static dynamical RAM per process >      62.78 MB

     Estimated max dynamical RAM per process >     167.83 MB

     Estimated total dynamical RAM >       3.93 GB

     Initial potential from superposition of free atoms

     starting charge   55.99771, renormalised to   56.00000
     Starting wfcs are   68 randomized atomic wfcs
     Checking if some PAW data can be deallocated... 
       PAW data deallocated on   16 nodes for type:  1
       PAW data deallocated on    8 nodes for type:  2

     total cpu time spent up to now is       17.4 secs

     Self-consistent Calculation

     iteration #  1     ecut=    50.00 Ry     beta= 0.35
     Davidson diagonalization with overlap
     ethr =  1.00E-02,  avg # of iterations =  1.0

     total cpu time spent up to now is       47.6 secs

     total energy              =   -2370.81456670 Ry
     Harris-Foulkes estimate   =   -2371.09846591 Ry
     estimated scf accuracy    <       0.58742958 Ry

     iteration #  2     ecut=    50.00 Ry     beta= 0.35
     Davidson diagonalization with overlap
     ethr =  1.05E-03,  avg # of iterations =  3.0

     total cpu time spent up to now is       88.8 secs

     total energy              =   -2370.91723708 Ry
     Harris-Foulkes estimate   =   -2370.92799684 Ry
     estimated scf accuracy    <       0.04011540 Ry

     iteration #  3     ecut=    50.00 Ry     beta= 0.35
     Davidson diagonalization with overlap
     ethr =  7.16E-05,  avg # of iterations =  3.4

     total cpu time spent up to now is      126.2 secs

     total energy              =   -2370.92067121 Ry
     Harris-Foulkes estimate   =   -2370.92295621 Ry
     estimated scf accuracy    <       0.00910301 Ry

     iteration #  4     ecut=    50.00 Ry     beta= 0.35
     Davidson diagonalization with overlap
     ethr =  1.63E-05,  avg # of iterations =  3.0

     total cpu time spent up to now is      168.7 secs

     total energy              =   -2370.92188860 Ry
     Harris-Foulkes estimate   =   -2370.92183450 Ry
     estimated scf accuracy    <       0.00056491 Ry

     iteration #  5     ecut=    50.00 Ry     beta= 0.35
     Davidson diagonalization with overlap
     ethr =  1.01E-06,  avg # of iterations =  5.1

     total cpu time spent up to now is      217.5 secs

     total energy              =   -2370.92204986 Ry
     Harris-Foulkes estimate   =   -2370.92209830 Ry
     estimated scf accuracy    <       0.00010129 Ry

     iteration #  6     ecut=    50.00 Ry     beta= 0.35
     Davidson diagonalization with overlap
     ethr =  1.81E-07,  avg # of iterations =  3.3

     total cpu time spent up to now is      260.4 secs

     total energy              =   -2370.92207939 Ry
     Harris-Foulkes estimate   =   -2370.92207288 Ry
     estimated scf accuracy    <       0.00001325 Ry

     iteration #  7     ecut=    50.00 Ry     beta= 0.35
     Davidson diagonalization with overlap
     ethr =  2.37E-08,  avg # of iterations =  2.0

     total cpu time spent up to now is      295.2 secs

     End of self-consistent calculation

          k = 0.0833 0.0833 0.0833 ( 17869 PWs)   bands (ev):

   -23.2711 -23.2711 -23.2711 -23.2711 -23.1385 -23.1385 -23.1384 -23.1384
   -22.2524 -22.2524 -22.2524 -22.2524 -22.1369 -22.1369 -22.1369 -22.1369
   -22.0831 -22.0831 -22.0830 -22.0830 -11.6242 -11.6242 -11.5337 -11.5337
   -11.4841 -11.4841 -11.4798 -11.4798  -7.0743  -7.0743  -6.8750  -6.8750
    -2.6885  -2.6885  -2.5268  -2.5268  -2.1408  -2.1408  -2.0296  -2.0296
    -1.8822  -1.8822  -1.5304  -1.5304  -1.2270  -1.2270  -1.1338  -1.1338
    -1.1090  -1.1090  -0.9966  -0.9966  -0.9250  -0.9250  -0.8844  -0.8844

     occupation numbers 
     1.0000   1.0000   1.0000   1.0000   1.0000   1.0000   1.0000   1.0000
     1.0000   1.0000   1.0000   1.0000   1.0000   1.0000   1.0000   1.0000
     1.0000   1.0000   1.0000   1.0000   1.0000   1.0000   1.0000   1.0000
     1.0000   1.0000   1.0000   1.0000   1.0000   1.0000   1.0000   1.0000
     1.0000   1.0000   1.0000   1.0000   1.0000   1.0000   1.0000   1.0000
     1.0000   1.0000   1.0000   1.0000   1.0000   1.0000   1.0000   1.0000
     1.0000   1.0000   1.0000   1.0000   1.0000   1.0000   1.0000   1.0000

          k = 0.0833 0.0833 0.2500 ( 17894 PWs)   bands (ev):

   -23.2711 -23.2711 -23.2711 -23.2711 -23.1385 -23.1385 -23.1384 -23.1384
   -22.2524 -22.2524 -22.2524 -22.2524 -22.1369 -22.1369 -22.1369 -22.1369
   -22.0831 -22.0831 -22.0830 -22.0830 -11.6119 -11.6119 -11.5455 -11.5455
   -11.4840 -11.4840 -11.4796 -11.4796  -7.0543  -7.0543  -6.9087  -6.9087
    -2.6757  -2.6757  -2.5241  -2.5241  -2.1293  -2.1293  -2.0080  -2.0080
    -1.8567  -1.8567  -1.5549  -1.5549  -1.2248  -1.2248  -1.1750  -1.1750
    -1.1324  -1.1324  -1.0246  -1.0246  -0.9353  -0.9353  -0.8978  -0.8978

     occupation numbers 
     1.0000   1.0000   1.0000   1.0000   1.0000   1.0000   1.0000   1.0000
     1.0000   1.0000   1.0000   1.0000   1.0000   1.0000   1.0000   1.0000
     1.0000   1.0000   1.0000   1.0000   1.0000   1.0000   1.0000   1.0000
     1.0000   1.0000   1.0000   1.0000   1.0000   1.0000   1.0000   1.0000
     1.0000   1.0000   1.0000   1.0000   1.0000   1.0000   1.0000   1.0000
     1.0000   1.0000   1.0000   1.0000   1.0000   1.0000   1.0000   1.0000
     1.0000   1.0000   1.0000   1.0000   1.0000   1.0000   1.0000   1.0000

          k = 0.0833 0.0833 0.4167 ( 17910 PWs)   bands (ev):

   -23.2711 -23.2711 -23.2711 -23.2711 -23.1385 -23.1385 -23.1384 -23.1384
   -22.2524 -22.2524 -22.2524 -22.2524 -22.1369 -22.1369 -22.1369 -22.1369
   -22.0831 -22.0831 -22.0830 -22.0830 -11.5907 -11.5907 -11.5661 -11.5661
   -11.4840 -11.4840 -11.4794 -11.4794  -7.0150  -7.0150  -6.9616  -6.9616
    -2.6635  -2.6635  -2.5201  -2.5201  -2.1281  -2.1281  -1.9906  -1.9906
    -1.7902  -1.7902  -1.6118  -1.6118  -1.2236  -1.2236  -1.2038  -1.2038
    -1.1361  -1.1361  -1.0593  -1.0593  -0.9623  -0.9623  -0.9119  -0.9119

     occupation numbers 
     1.0000   1.0000   1.0000   1.0000   1.0000   1.0000   1.0000   1.0000
     1.0000   1.0000   1.0000   1.0000   1.0000   1.0000   1.0000   1.0000
     1.0000   1.0000   1.0000   1.0000   1.0000   1.0000   1.0000   1.0000
     1.0000   1.0000   1.0000   1.0000   1.0000   1.0000   1.0000   1.0000
     1.0000   1.0000   1.0000   1.0000   1.0000   1.0000   1.0000   1.0000
     1.0000   1.0000   1.0000   1.0000   1.0000   1.0000   1.0000   1.0000
     1.0000   1.0000   1.0000   1.0000   1.0000   1.0000   1.0000   1.0000

          k = 0.0833 0.2500 0.2500 ( 17893 PWs)   bands (ev):

   -23.2711 -23.2711 -23.2711 -23.2711 -23.1385 -23.1385 -23.1384 -23.1384
   -22.2524 -22.2524 -22.2524 -22.2524 -22.1369 -22.1369 -22.1369 -22.1369
   -22.0831 -22.0831 -22.0830 -22.0830 -11.5969 -11.5969 -11.5407 -11.5407
   -11.4985 -11.4985 -11.4857 -11.4857  -7.0312  -7.0312  -6.9239  -6.9239
    -2.8230  -2.8230  -2.6489  -2.6489  -2.0993  -2.0993  -1.9419  -1.9419
    -1.8147  -1.8147  -1.5768  -1.5768  -1.2503  -1.2503  -1.1827  -1.1827
    -1.0531  -1.0531  -0.9646  -0.9646  -0.8998  -0.8998  -0.7158  -0.7158

     occupation numbers 
     1.0000   1.0000   1.0000   1.0000   1.0000   1.0000   1.0000   1.0000
     1.0000   1.0000   1.0000   1.0000   1.0000   1.0000   1.0000   1.0000
     1.0000   1.0000   1.0000   1.0000   1.0000   1.0000   1.0000   1.0000
     1.0000   1.0000   1.0000   1.0000   1.0000   1.0000   1.0000   1.0000
     1.0000   1.0000   1.0000   1.0000   1.0000   1.0000   1.0000   1.0000
     1.0000   1.0000   1.0000   1.0000   1.0000   1.0000   1.0000   1.0000
     1.0000   1.0000   1.0000   1.0000   1.0000   1.0000   1.0000   1.0000

          k = 0.0833 0.2500 0.4167 ( 17902 PWs)   bands (ev):

   -23.2711 -23.2711 -23.2711 -23.2711 -23.1384 -23.1384 -23.1384 -23.1384
   -22.2524 -22.2524 -22.2524 -22.2524 -22.1369 -22.1369 -22.1369 -22.1369
   -22.0831 -22.0831 -22.0830 -22.0830 -11.5794 -11.5794 -11.5564 -11.5564
   -11.4984 -11.4984 -11.4866 -11.4866  -7.0044  -7.0044  -6.9638  -6.9638
    -2.8355  -2.8355  -2.6529  -2.6529  -2.0655  -2.0655  -1.8874  -1.8874
    -1.8351  -1.8351  -1.5849  -1.5849  -1.2573  -1.2573  -1.1785  -1.1785
    -1.0685  -1.0685  -0.9806  -0.9806  -0.8931  -0.8931  -0.7151  -0.7151

     occupation numbers 
     1.0000   1.0000   1.0000   1.0000   1.0000   1.0000   1.0000   1.0000
     1.0000   1.0000   1.0000   1.0000   1.0000   1.0000   1.0000   1.0000
     1.0000   1.0000   1.0000   1.0000   1.0000   1.0000   1.0000   1.0000
     1.0000   1.0000   1.0000   1.0000   1.0000   1.0000   1.0000   1.0000
     1.0000   1.0000   1.0000   1.0000   1.0000   1.0000   1.0000   1.0000
     1.0000   1.0000   1.0000   1.0000   1.0000   1.0000   1.0000   1.0000
     1.0000   1.0000   1.0000   1.0000   1.0000   1.0000   1.0000   1.0000

          k = 0.0833 0.4167 0.4167 ( 17901 PWs)   bands (ev):

   -23.2711 -23.2711 -23.2711 -23.2711 -23.1384 -23.1384 -23.1384 -23.1384
   -22.2524 -22.2524 -22.2524 -22.2524 -22.1369 -22.1369 -22.1369 -22.1369
   -22.0831 -22.0831 -22.0831 -22.0831 -11.5607 -11.5607 -11.5475 -11.5475
   -11.5115 -11.5115 -11.5019 -11.5019  -6.9881  -6.9881  -6.9717  -6.9717
    -2.9027  -2.9027  -2.8259  -2.8259  -2.0203  -2.0203  -1.9104  -1.9104
    -1.7863  -1.7863  -1.5868  -1.5868  -1.2447  -1.2447  -1.1981  -1.1981
    -0.9692  -0.9692  -0.9359  -0.9359  -0.7189  -0.7189  -0.5760  -0.5760

     occupation numbers 
     1.0000   1.0000   1.0000   1.0000   1.0000   1.0000   1.0000   1.0000
     1.0000   1.0000   1.0000   1.0000   1.0000   1.0000   1.0000   1.0000
     1.0000   1.0000   1.0000   1.0000   1.0000   1.0000   1.0000   1.0000
     1.0000   1.0000   1.0000   1.0000   1.0000   1.0000   1.0000   1.0000
     1.0000   1.0000   1.0000   1.0000   1.0000   1.0000   1.0000   1.0000
     1.0000   1.0000   1.0000   1.0000   1.0000   1.0000   1.0000   1.0000
     1.0000   1.0000   1.0000   1.0000   1.0000   1.0000   1.0000   1.0000

          k = 0.2500 0.2500 0.2500 ( 17911 PWs)   bands (ev):

   -23.2711 -23.2711 -23.2711 -23.2711 -23.1385 -23.1385 -23.1384 -23.1384
   -22.2524 -22.2524 -22.2524 -22.2524 -22.1369 -22.1369 -22.1369 -22.1369
   -22.0831 -22.0831 -22.0830 -22.0830 -11.5884 -11.5884 -11.5406 -11.5406
   -11.5077 -11.5077 -11.4846 -11.4846  -7.0212  -7.0212  -6.9406  -6.9406
    -2.8813  -2.8813  -2.5361  -2.5361  -2.0967  -2.0967  -1.9276  -1.9276
    -1.8734  -1.8734  -1.6044  -1.6044  -1.2965  -1.2965  -1.2289  -1.2289
    -1.1222  -1.1222  -0.9342  -0.9342  -0.8791  -0.8791  -0.5892  -0.5892

     occupation numbers 
     1.0000   1.0000   1.0000   1.0000   1.0000   1.0000   1.0000   1.0000
     1.0000   1.0000   1.0000   1.0000   1.0000   1.0000   1.0000   1.0000
     1.0000   1.0000   1.0000   1.0000   1.0000   1.0000   1.0000   1.0000
     1.0000   1.0000   1.0000   1.0000   1.0000   1.0000   1.0000   1.0000
     1.0000   1.0000   1.0000   1.0000   1.0000   1.0000   1.0000   1.0000
     1.0000   1.0000   1.0000   1.0000   1.0000   1.0000   1.0000   1.0000
     1.0000   1.0000   1.0000   1.0000   1.0000   1.0000   1.0000   1.0000

          k = 0.2500 0.2500 0.4167 ( 17903 PWs)   bands (ev):

   -23.2711 -23.2711 -23.2711 -23.2711 -23.1384 -23.1384 -23.1384 -23.1384
   -22.2524 -22.2524 -22.2524 -22.2524 -22.1369 -22.1369 -22.1369 -22.1369
   -22.0831 -22.0831 -22.0830 -22.0830 -11.5772 -11.5772 -11.5478 -11.5478
   -11.5107 -11.5107 -11.4844 -11.4844  -7.0053  -7.0053  -6.9698  -6.9698
    -2.8991  -2.8991  -2.5214  -2.5214  -2.1174  -2.1174  -1.8882  -1.8882
    -1.8742  -1.8742  -1.5839  -1.5839  -1.3089  -1.3089  -1.2072  -1.2072
    -1.1217  -1.1217  -0.9285  -0.9285  -0.8688  -0.8688  -0.5787  -0.5787

     occupation numbers 
     1.0000   1.0000   1.0000   1.0000   1.0000   1.0000   1.0000   1.0000
     1.0000   1.0000   1.0000   1.0000   1.0000   1.0000   1.0000   1.0000
     1.0000   1.0000   1.0000   1.0000   1.0000   1.0000   1.0000   1.0000
     1.0000   1.0000   1.0000   1.0000   1.0000   1.0000   1.0000   1.0000
     1.0000   1.0000   1.0000   1.0000   1.0000   1.0000   1.0000   1.0000
     1.0000   1.0000   1.0000   1.0000   1.0000   1.0000   1.0000   1.0000
     1.0000   1.0000   1.0000   1.0000   1.0000   1.0000   1.0000   1.0000

          k = 0.2500 0.4167 0.4167 ( 17891 PWs)   bands (ev):

   -23.2711 -23.2711 -23.2711 -23.2711 -23.1384 -23.1384 -23.1384 -23.1384
   -22.2524 -22.2524 -22.2524 -22.2524 -22.1369 -22.1369 -22.1369 -22.1369
   -22.0831 -22.0831 -22.0830 -22.0830 -11.5677 -11.5677 -11.5534 -11.5534
   -11.5061 -11.5061 -11.4923 -11.4923  -6.9988  -6.9988  -6.9835  -6.9835
    -2.8246  -2.8246  -2.6479  -2.6479  -2.0802  -2.0802  -1.9409  -1.9409
    -1.8235  -1.8235  -1.5898  -1.5898  -1.2933  -1.2933  -1.2366  -1.2366
    -1.0303  -1.0303  -0.8989  -0.8989  -0.8327  -0.8327  -0.7228  -0.7228

     occupation numbers 
     1.0000   1.0000   1.0000   1.0000   1.0000   1.0000   1.0000   1.0000
     1.0000   1.0000   1.0000   1.0000   1.0000   1.0000   1.0000   1.0000
     1.0000   1.0000   1.0000   1.0000   1.0000   1.0000   1.0000   1.0000
     1.0000   1.0000   1.0000   1.0000   1.0000   1.0000   1.0000   1.0000
     1.0000   1.0000   1.0000   1.0000   1.0000   1.0000   1.0000   1.0000
     1.0000   1.0000   1.0000   1.0000   1.0000   1.0000   1.0000   1.0000
     1.0000   1.0000   1.0000   1.0000   1.0000   1.0000   1.0000   1.0000

          k = 0.4167 0.4167 0.4167 ( 17898 PWs)   bands (ev):

   -23.2711 -23.2711 -23.2711 -23.2711 -23.1384 -23.1384 -23.1384 -23.1384
   -22.2524 -22.2524 -22.2524 -22.2524 -22.1369 -22.1369 -22.1369 -22.1369
   -22.0831 -22.0831 -22.0830 -22.0830 -11.5693 -11.5693 -11.5636 -11.5636
   -11.4950 -11.4950 -11.4893 -11.4893  -7.0056  -7.0056  -6.9989  -6.9989
    -2.6453  -2.6453  -2.5230  -2.5230  -2.1160  -2.1160  -1.9825  -1.9825
    -1.8680  -1.8680  -1.6649  -1.6649  -1.3334  -1.3334  -1.2819  -1.2819
    -1.0943  -1.0943  -1.0120  -1.0120  -0.8112  -0.8112  -0.7964  -0.7964

     occupation numbers 
     1.0000   1.0000   1.0000   1.0000   1.0000   1.0000   1.0000   1.0000
     1.0000   1.0000   1.0000   1.0000   1.0000   1.0000   1.0000   1.0000
     1.0000   1.0000   1.0000   1.0000   1.0000   1.0000   1.0000   1.0000
     1.0000   1.0000   1.0000   1.0000   1.0000   1.0000   1.0000   1.0000
     1.0000   1.0000   1.0000   1.0000   1.0000   1.0000   1.0000   1.0000
     1.0000   1.0000   1.0000   1.0000   1.0000   1.0000   1.0000   1.0000
     1.0000   1.0000   1.0000   1.0000   1.0000   1.0000   1.0000   1.0000

          k = 0.0833 0.2500 0.0833 ( 17894 PWs)   bands (ev):

   -23.2711 -23.2711 -23.2711 -23.2711 -23.1385 -23.1385 -23.1384 -23.1384
   -22.2524 -22.2524 -22.2524 -22.2524 -22.1369 -22.1369 -22.1369 -22.1369
   -22.0831 -22.0831 -22.0830 -22.0830 -11.6075 -11.6075 -11.5324 -11.5324
   -11.4981 -11.4981 -11.4849 -11.4849  -7.0443  -7.0443  -6.8977  -6.8977
    -2.8074  -2.8074  -2.6440  -2.6440  -2.1565  -2.1565  -1.9722  -1.9722
    -1.8030  -1.8030  -1.5557  -1.5557  -1.2433  -1.2433  -1.1868  -1.1868
    -1.0394  -1.0394  -0.9568  -0.9568  -0.9024  -0.9024  -0.7157  -0.7157

     occupation numbers 
     1.0000   1.0000   1.0000   1.0000   1.0000   1.0000   1.0000   1.0000
     1.0000   1.0000   1.0000   1.0000   1.0000   1.0000   1.0000   1.0000
     1.0000   1.0000   1.0000   1.0000   1.0000   1.0000   1.0000   1.0000
     1.0000   1.0000   1.0000   1.0000   1.0000   1.0000   1.0000   1.0000
     1.0000   1.0000   1.0000   1.0000   1.0000   1.0000   1.0000   1.0000
     1.0000   1.0000   1.0000   1.0000   1.0000   1.0000   1.0000   1.0000
     1.0000   1.0000   1.0000   1.0000   1.0000   1.0000   1.0000   1.0000

          k = 0.0833 0.4167 0.0833 ( 17910 PWs)   bands (ev):

   -23.2711 -23.2711 -23.2711 -23.2711 -23.1385 -23.1385 -23.1384 -23.1384
   -22.2524 -22.2524 -22.2524 -22.2524 -22.1369 -22.1369 -22.1369 -22.1369
   -22.0831 -22.0831 -22.0831 -22.0831 -11.5787 -11.5787 -11.5472 -11.5472
   -11.5034 -11.5034 -11.4946 -11.4946  -6.9943  -6.9943  -6.9404  -6.9404
    -2.8601  -2.8601  -2.7932  -2.7932  -2.1013  -2.1013  -2.0135  -2.0135
    -1.7064  -1.7064  -1.6065  -1.6065  -1.2694  -1.2694  -1.2450  -1.2450
    -0.9977  -0.9977  -0.9492  -0.9492  -0.7249  -0.7249  -0.5969  -0.5969

     occupation numbers 
     1.0000   1.0000   1.0000   1.0000   1.0000   1.0000   1.0000   1.0000
     1.0000   1.0000   1.0000   1.0000   1.0000   1.0000   1.0000   1.0000
     1.0000   1.0000   1.0000   1.0000   1.0000   1.0000   1.0000   1.0000
     1.0000   1.0000   1.0000   1.0000   1.0000   1.0000   1.0000   1.0000
     1.0000   1.0000   1.0000   1.0000   1.0000   1.0000   1.0000   1.0000
     1.0000   1.0000   1.0000   1.0000   1.0000   1.0000   1.0000   1.0000
     1.0000   1.0000   1.0000   1.0000   1.0000   1.0000   1.0000   1.0000

          k = 0.2500 0.2500 0.0833 ( 17893 PWs)   bands (ev):

   -23.2711 -23.2711 -23.2711 -23.2711 -23.1385 -23.1385 -23.1384 -23.1384
   -22.2524 -22.2524 -22.2524 -22.2524 -22.1369 -22.1369 -22.1369 -22.1369
   -22.0831 -22.0831 -22.0830 -22.0830 -11.5965 -11.5965 -11.5370 -11.5370
   -11.5042 -11.5042 -11.4848 -11.4848  -7.0285  -7.0285  -6.9200  -6.9200
    -2.8597  -2.8597  -2.5523  -2.5523  -2.0859  -2.0859  -1.9808  -1.9808
    -1.8697  -1.8697  -1.5874  -1.5874  -1.2958  -1.2958  -1.2502  -1.2502
    -1.1223  -1.1223  -0.9335  -0.9335  -0.8985  -0.8985  -0.5984  -0.5984

     occupation numbers 
     1.0000   1.0000   1.0000   1.0000   1.0000   1.0000   1.0000   1.0000
     1.0000   1.0000   1.0000   1.0000   1.0000   1.0000   1.0000   1.0000
     1.0000   1.0000   1.0000   1.0000   1.0000   1.0000   1.0000   1.0000
     1.0000   1.0000   1.0000   1.0000   1.0000   1.0000   1.0000   1.0000
     1.0000   1.0000   1.0000   1.0000   1.0000   1.0000   1.0000   1.0000
     1.0000   1.0000   1.0000   1.0000   1.0000   1.0000   1.0000   1.0000
     1.0000   1.0000   1.0000   1.0000   1.0000   1.0000   1.0000   1.0000

          k = 0.2500 0.4167 0.0833 ( 17902 PWs)   bands (ev):

   -23.2711 -23.2711 -23.2711 -23.2711 -23.1384 -23.1384 -23.1384 -23.1384
   -22.2524 -22.2524 -22.2524 -22.2524 -22.1369 -22.1369 -22.1369 -22.1369
   -22.0831 -22.0831 -22.0830 -22.0830 -11.5772 -11.5772 -11.5546 -11.5546
   -11.4997 -11.4997 -11.4907 -11.4907  -6.9976  -6.9976  -6.9574  -6.9574
    -2.7905  -2.7905  -2.6401  -2.6401  -2.0659  -2.0659  -2.0077  -2.0077
    -1.7676  -1.7676  -1.6412  -1.6412  -1.3500  -1.3500  -1.3223  -1.3223
    -1.0344  -1.0344  -0.9329  -0.9329  -0.8585  -0.8585  -0.7088  -0.7088

     occupation numbers 
     1.0000   1.0000   1.0000   1.0000   1.0000   1.0000   1.0000   1.0000
     1.0000   1.0000   1.0000   1.0000   1.0000   1.0000   1.0000   1.0000
     1.0000   1.0000   1.0000   1.0000   1.0000   1.0000   1.0000   1.0000
     1.0000   1.0000   1.0000   1.0000   1.0000   1.0000   1.0000   1.0000
     1.0000   1.0000   1.0000   1.0000   1.0000   1.0000   1.0000   1.0000
     1.0000   1.0000   1.0000   1.0000   1.0000   1.0000   1.0000   1.0000
     1.0000   1.0000   1.0000   1.0000   1.0000   1.0000   1.0000   1.0000

          k = 0.4167 0.0833 0.2500 ( 17902 PWs)   bands (ev):

   -23.2711 -23.2711 -23.2711 -23.2711 -23.1385 -23.1385 -23.1384 -23.1384
   -22.2524 -22.2524 -22.2524 -22.2524 -22.1369 -22.1369 -22.1369 -22.1369
   -22.0831 -22.0831 -22.0831 -22.0831 -11.5714 -11.5714 -11.5458 -11.5458
   -11.5077 -11.5077 -11.4977 -11.4977  -6.9935  -6.9935  -6.9538  -6.9538
    -2.8835  -2.8835  -2.8107  -2.8107  -2.0491  -2.0491  -1.9610  -1.9610
    -1.7564  -1.7564  -1.5938  -1.5938  -1.2601  -1.2601  -1.2256  -1.2256
    -0.9992  -0.9992  -0.9276  -0.9276  -0.7257  -0.7257  -0.5893  -0.5893

     occupation numbers 
     1.0000   1.0000   1.0000   1.0000   1.0000   1.0000   1.0000   1.0000
     1.0000   1.0000   1.0000   1.0000   1.0000   1.0000   1.0000   1.0000
     1.0000   1.0000   1.0000   1.0000   1.0000   1.0000   1.0000   1.0000
     1.0000   1.0000   1.0000   1.0000   1.0000   1.0000   1.0000   1.0000
     1.0000   1.0000   1.0000   1.0000   1.0000   1.0000   1.0000   1.0000
     1.0000   1.0000   1.0000   1.0000   1.0000   1.0000   1.0000   1.0000
     1.0000   1.0000   1.0000   1.0000   1.0000   1.0000   1.0000   1.0000

          k = 0.4167 0.4167 0.0833 ( 17901 PWs)   bands (ev):

   -23.2711 -23.2711 -23.2711 -23.2711 -23.1384 -23.1384 -23.1384 -23.1384
   -22.2524 -22.2524 -22.2524 -22.2524 -22.1369 -22.1369 -22.1369 -22.1369
   -22.0831 -22.0831 -22.0830 -22.0830 -11.5727 -11.5727 -11.5646 -11.5646
   -11.4935 -11.4935 -11.4897 -11.4897  -6.9950  -6.9950  -6.9801  -6.9801
    -2.6355  -2.6355  -2.5420  -2.5420  -2.0234  -2.0234  -1.9612  -1.9612
    -1.8496  -1.8496  -1.7234  -1.7234  -1.4110  -1.4110  -1.4014  -1.4014
    -1.1222  -1.1222  -1.0277  -1.0277  -0.8411  -0.8411  -0.8170  -0.8170

     occupation numbers 
     1.0000   1.0000   1.0000   1.0000   1.0000   1.0000   1.0000   1.0000
     1.0000   1.0000   1.0000   1.0000   1.0000   1.0000   1.0000   1.0000
     1.0000   1.0000   1.0000   1.0000   1.0000   1.0000   1.0000   1.0000
     1.0000   1.0000   1.0000   1.0000   1.0000   1.0000   1.0000   1.0000
     1.0000   1.0000   1.0000   1.0000   1.0000   1.0000   1.0000   1.0000
     1.0000   1.0000   1.0000   1.0000   1.0000   1.0000   1.0000   1.0000
     1.0000   1.0000   1.0000   1.0000   1.0000   1.0000   1.0000   1.0000

          k = 0.2500 0.4167 0.2500 ( 17903 PWs)   bands (ev):

   -23.2711 -23.2711 -23.2711 -23.2711 -23.1385 -23.1385 -23.1384 -23.1384
   -22.2524 -22.2524 -22.2524 -22.2524 -22.1369 -22.1369 -22.1369 -22.1369
   -22.0831 -22.0831 -22.0830 -22.0830 -11.5728 -11.5728 -11.5538 -11.5538
   -11.5027 -11.5027 -11.4915 -11.4915  -6.9995  -6.9995  -6.9692  -6.9692
    -2.8091  -2.8091  -2.6442  -2.6442  -2.0667  -2.0667  -1.9625  -1.9625
    -1.8075  -1.8075  -1.6259  -1.6259  -1.3203  -1.3203  -1.2842  -1.2842
    -1.0283  -1.0283  -0.9167  -0.9167  -0.8466  -0.8466  -0.7143  -0.7143

     occupation numbers 
     1.0000   1.0000   1.0000   1.0000   1.0000   1.0000   1.0000   1.0000
     1.0000   1.0000   1.0000   1.0000   1.0000   1.0000   1.0000   1.0000
     1.0000   1.0000   1.0000   1.0000   1.0000   1.0000   1.0000   1.0000
     1.0000   1.0000   1.0000   1.0000   1.0000   1.0000   1.0000   1.0000
     1.0000   1.0000   1.0000   1.0000   1.0000   1.0000   1.0000   1.0000
     1.0000   1.0000   1.0000   1.0000   1.0000   1.0000   1.0000   1.0000
     1.0000   1.0000   1.0000   1.0000   1.0000   1.0000   1.0000   1.0000

          k = 0.4167 0.4167 0.2500 ( 17891 PWs)   bands (ev):

   -23.2711 -23.2711 -23.2711 -23.2711 -23.1384 -23.1384 -23.1384 -23.1384
   -22.2524 -22.2524 -22.2524 -22.2524 -22.1369 -22.1369 -22.1369 -22.1369
   -22.0831 -22.0831 -22.0830 -22.0830 -11.5710 -11.5710 -11.5641 -11.5641
   -11.4943 -11.4943 -11.4895 -11.4895  -7.0007  -7.0007  -6.9891  -6.9891
    -2.6409  -2.6409  -2.5321  -2.5321  -2.0703  -2.0703  -1.9631  -1.9631
    -1.8644  -1.8644  -1.7012  -1.7012  -1.3733  -1.3733  -1.3535  -1.3535
    -1.0993  -1.0993  -1.0094  -1.0094  -0.8269  -0.8269  -0.8102  -0.8102

     occupation numbers 
     1.0000   1.0000   1.0000   1.0000   1.0000   1.0000   1.0000   1.0000
     1.0000   1.0000   1.0000   1.0000   1.0000   1.0000   1.0000   1.0000
     1.0000   1.0000   1.0000   1.0000   1.0000   1.0000   1.0000   1.0000
     1.0000   1.0000   1.0000   1.0000   1.0000   1.0000   1.0000   1.0000
     1.0000   1.0000   1.0000   1.0000   1.0000   1.0000   1.0000   1.0000
     1.0000   1.0000   1.0000   1.0000   1.0000   1.0000   1.0000   1.0000
     1.0000   1.0000   1.0000   1.0000   1.0000   1.0000   1.0000   1.0000

     highest occupied level (ev):    -0.5760

!    total energy              =   -2370.92208145 Ry
     Harris-Foulkes estimate   =   -2370.92208156 Ry
     estimated scf accuracy    <       0.00000066 Ry

     total all-electron energy =    -81634.444287 Ry

     The total energy is the sum of the following terms:

     one-electron contribution =    -248.65480760 Ry
     hartree contribution      =     145.41465804 Ry
     xc contribution           =    -157.08633834 Ry
     ewald contribution        =    -190.25175950 Ry
     one-center paw contrib.   =   -1920.34383406 Ry
      -> PAW hartree energy AE =     107.03985287 Ry
      -> PAW hartree energy PS =    -106.25405689 Ry
      -> PAW xc energy AE      =    -324.20890380 Ry
      -> PAW xc energy PS      =      46.57176653 Ry
      -> total E_H with PAW    =     146.20045402 Ry
      -> total E_XC with PAW   =    -434.72347561 Ry

     convergence has been achieved in   7 iterations

     Forces acting on atoms (cartesian axes, Ry/au):

     atom    1 type  1   force =     0.00000000    0.00000000    0.00000000
     atom    2 type  1   force =     0.00000000    0.00000000   -0.00000000
     atom    3 type  2   force =    -0.01790137   -0.01790137   -0.00000000
     atom    4 type  2   force =     0.01790137    0.01790137   -0.00000000
     atom    5 type  2   force =    -0.01790137    0.01790137   -0.00000000
     atom    6 type  2   force =     0.01790137   -0.01790137   -0.00000000
     The non-local contrib.  to forces
     atom    1 type  1   force =     0.00000000    0.00000000    0.00000000
     atom    2 type  1   force =     0.00000000    0.00000000    0.00000000
     atom    3 type  2   force =    -0.04126501   -0.04126501   -0.00000000
     atom    4 type  2   force =     0.04126501    0.04126501   -0.00000000
     atom    5 type  2   force =    -0.04126501    0.04126501   -0.00000000
     atom    6 type  2   force =     0.04126501   -0.04126501   -0.00000000
     The ionic contribution  to forces
     atom    1 type  1   force =    -0.00000000   -0.00000000   -0.00000000
     atom    2 type  1   force =     0.00000000    0.00000000    0.00000000
     atom    3 type  2   force =     1.38633657    1.38633657   -0.00000000
     atom    4 type  2   force =    -1.38633657   -1.38633657    0.00000000
     atom    5 type  2   force =     1.38633657   -1.38633657   -0.00000000
     atom    6 type  2   force =    -1.38633657    1.38633657   -0.00000000
     The local contribution  to forces
     atom    1 type  1   force =    -0.00000000   -0.00000000   -0.00000000
     atom    2 type  1   force =     0.00000000    0.00000000    0.00000000
     atom    3 type  2   force =    -1.36658693   -1.36658693   -0.00000000
     atom    4 type  2   force =     1.36658693    1.36658693   -0.00000000
     atom    5 type  2   force =    -1.36658693    1.36658693    0.00000000
     atom    6 type  2   force =     1.36658693   -1.36658693    0.00000000
     The core correction contribution to forces
     atom    1 type  1   force =     0.00000000    0.00000000    0.00000000
     atom    2 type  1   force =     0.00000000    0.00000000    0.00000000
     atom    3 type  2   force =     0.00391164    0.00391164   -0.00000000
     atom    4 type  2   force =    -0.00391164   -0.00391164    0.00000000
     atom    5 type  2   force =     0.00391164   -0.00391164   -0.00000000
     atom    6 type  2   force =    -0.00391164    0.00391164   -0.00000000
     The Hubbard contrib.    to forces
     atom    1 type  1   force =     0.00000000    0.00000000    0.00000000
     atom    2 type  1   force =     0.00000000    0.00000000    0.00000000
     atom    3 type  2   force =     0.00000000    0.00000000    0.00000000
     atom    4 type  2   force =     0.00000000    0.00000000    0.00000000
     atom    5 type  2   force =     0.00000000    0.00000000    0.00000000
     atom    6 type  2   force =     0.00000000    0.00000000    0.00000000
     The SCF correction term to forces
     atom    1 type  1   force =     0.00000000    0.00000000   -0.00000000
     atom    2 type  1   force =    -0.00000000    0.00000000    0.00000000
     atom    3 type  2   force =    -0.00029764   -0.00029764   -0.00000000
     atom    4 type  2   force =     0.00029764    0.00029764    0.00000000
     atom    5 type  2   force =    -0.00029764    0.00029764   -0.00000000
     atom    6 type  2   force =     0.00029764   -0.00029764   -0.00000000

     Total force =     0.050633     Total SCF correction =     0.000842


     Computing stress (Cartesian axis) and pressure

     Message from routine stres:
     noncollinear stress + GGA not implemented

     Writing output data file SnI2.save/
 
     init_run     :      7.99s CPU     12.44s WALL (       1 calls)
     electrons    :    173.64s CPU    278.01s WALL (       1 calls)
     forces       :      3.36s CPU      4.95s WALL (       1 calls)

     Called by init_run:
     wfcinit      :      6.18s CPU      9.84s WALL (       1 calls)
     wfcinit:atom :      0.02s CPU      0.02s WALL (      18 calls)
     wfcinit:wfcr :      6.01s CPU      9.61s WALL (      18 calls)
     potinit      :      0.57s CPU      0.79s WALL (       1 calls)
     hinit0       :      0.49s CPU      0.77s WALL (       1 calls)

     Called by electrons:
     c_bands      :    138.62s CPU    221.03s WALL (       7 calls)
     sum_band     :     27.32s CPU     45.75s WALL (       7 calls)
     v_of_rho     :      0.38s CPU      0.60s WALL (       8 calls)
     v_h          :      0.01s CPU      0.02s WALL (       8 calls)
     v_xc         :      0.75s CPU      1.13s WALL (       9 calls)
     newd         :      3.94s CPU      5.45s WALL (       8 calls)
     PAW_pot      :      2.39s CPU      3.38s WALL (       8 calls)
     mix_rho      :      0.49s CPU      0.89s WALL (       7 calls)

     Called by c_bands:
     init_us_2    :      0.55s CPU      0.94s WALL (     288 calls)
     cegterg      :    131.54s CPU    212.25s WALL (     126 calls)

     Called by sum_band:
     sum_band:bec :      1.31s CPU      1.86s WALL (     126 calls)
     addusdens    :      2.72s CPU      3.34s WALL (       7 calls)

     Called by *egterg:
     h_psi        :     76.63s CPU    128.89s WALL (     518 calls)
     s_psi        :      2.29s CPU      2.80s WALL (     518 calls)
     g_psi        :      0.16s CPU      0.16s WALL (     374 calls)
     cdiaghg      :     13.75s CPU     23.35s WALL (     500 calls)
     cegterg:over :     20.29s CPU     28.09s WALL (     374 calls)
     cegterg:upda :     13.03s CPU     20.17s WALL (     374 calls)
     cegterg:last :      2.37s CPU      3.77s WALL (     126 calls)
     cdiaghg:chol :      0.90s CPU      1.33s WALL (     500 calls)
     cdiaghg:inve :      0.39s CPU      0.61s WALL (     500 calls)
     cdiaghg:para :      2.42s CPU      4.08s WALL (    1000 calls)

     Called by h_psi:
     h_psi:pot    :     76.39s CPU    128.55s WALL (     518 calls)
     h_psi:calbec :      2.52s CPU      3.14s WALL (     518 calls)
     vloc_psi     :     71.37s CPU    122.27s WALL (     518 calls)
     add_vuspsi   :      2.49s CPU      3.14s WALL (     518 calls)

     General routines
     calbec       :      4.74s CPU      6.28s WALL (     716 calls)
     fft          :      1.60s CPU      2.72s WALL (     176 calls)
     ffts         :      0.39s CPU      0.64s WALL (      60 calls)
     fftw         :     89.60s CPU    156.09s WALL (   93040 calls)
     interpolate  :      0.69s CPU      1.15s WALL (      32 calls)
 
     Parallel routines
     fft_scatt_xy :      2.38s CPU      3.28s WALL (   93276 calls)
     fft_scatt_yz :     77.88s CPU    140.42s WALL (   93276 calls)

     PAW routines
     PAW_pot      :      2.39s CPU      3.38s WALL (       8 calls)
     PAW_symme    :      0.06s CPU      0.12s WALL (      15 calls)
 
     PWSCF        :   3m11.78s CPU   5m 4.73s WALL

 
   This run was terminated on:  18:54: 1  23Jan2021            

=------------------------------------------------------------------------------=
   JOB DONE.
=------------------------------------------------------------------------------=
