
     Program PWSCF v.6.7MaX starts on 31Jan2021 at 10:54:55 

     This program is part of the open-source Quantum ESPRESSO suite
     for quantum simulation of materials; please cite
         "P. Giannozzi et al., J. Phys.:Condens. Matter 21 395502 (2009);
         "P. Giannozzi et al., J. Phys.:Condens. Matter 29 465901 (2017);
          URL http://www.quantum-espresso.org", 
     in publications or presentations arising from this work. More details at
     http://www.quantum-espresso.org/quote

     Parallel version (MPI & OpenMP), running on      96 processor cores
     Number of MPI processes:                48
     Threads/MPI process:                     2

     MPI processes distributed on     2 nodes
     R & G space division:  proc/nbgrp/npool/nimage =      48
     Waiting for input...
     Reading input from standard input

     Current dimensions of program PWSCF are:
     Max number of different atomic species (ntypx) = 10
     Max number of k-points (npk) =  40000
     Max angular momentum in pseudopotentials (lmaxx) =  3
     file Sn.rel-pbesol-dn-rrkjus_psl.1.0.0.UPF: wavefunction(s)  5S 4D 4D renormalized
     file I.rel-pbesol-n-rrkjus_psl.1.0.0.UPF: wavefunction(s)  5S renormalized

     Subspace diagonalization in iterative solution of the eigenvalue problem:
     a serial algorithm will be used


     Parallelization info
     --------------------
     sticks:   dense  smooth     PW     G-vecs:    dense   smooth      PW
     Min         120      96     26                 6900     4938     704
     Max         121      97     27                 6907     4943     708
     Sum        5761    4637   1265               331237   237129   33833


     Title: 
     SnI2                                                                       


     bravais-lattice index     =            1
     lattice parameter (alat)  =      14.4199  a.u.
     unit-cell volume          =    2998.4083 (a.u.)^3
     number of atoms/cell      =            6
     number of atomic types    =            2
     number of electrons       =        56.00
     number of Kohn-Sham states=           56
     kinetic-energy cutoff     =      70.0000  Ry
     charge density cutoff     =     350.0000  Ry
     scf convergence threshold =      1.0E-06
     mixing beta               =       0.3500
     number of iterations used =            8  plain     mixing
     Exchange-correlation= PBESOL
                           (   1   4  10   8   0   0   0)
     Non magnetic calculation with spin-orbit


     celldm(1)=  14.419944  celldm(2)=   0.000000  celldm(3)=   0.000000
     celldm(4)=   0.000000  celldm(5)=   0.000000  celldm(6)=   0.000000

     crystal axes: (cart. coord. in units of alat)
               a(1) = (   1.000000   0.000000   0.000000 )  
               a(2) = (   0.000000   1.000000   0.000000 )  
               a(3) = (   0.000000   0.000000   1.000000 )  

     reciprocal axes: (cart. coord. in units 2 pi/alat)
               b(1) = (  1.000000  0.000000  0.000000 )  
               b(2) = (  0.000000  1.000000  0.000000 )  
               b(3) = (  0.000000  0.000000  1.000000 )  


     PseudoPot. # 1 for Sn read from file:
     /scratch/cmalosso/degironcoli/pseudo/pseudo-usp/Sn.rel-pbesol-dn-rrkjus_psl.1.0.0.UPF
     MD5 check sum: c1cf6ea56b96a3656bdf0d1db379e093
     Pseudo is Ultrasoft + core correction, Zval = 14.0
     Generated using &quot;atomic&quot; code by A. Dal Corso  v.6.3
     Using radial grid of 1243 points, 10 beta functions with: 
                l(1) =   0
                l(2) =   0
                l(3) =   1
                l(4) =   1
                l(5) =   1
                l(6) =   1
                l(7) =   2
                l(8) =   2
                l(9) =   2
               l(10) =   2
     Q(r) pseudized with 0 coefficients 


     PseudoPot. # 2 for I  read from file:
     /scratch/cmalosso/degironcoli/pseudo/pseudo-usp/I.rel-pbesol-n-rrkjus_psl.1.0.0.UPF
     MD5 check sum: 0f96c6bfb1b448f280658f96eb466b08
     Pseudo is Ultrasoft + core correction, Zval =  7.0
     Generated using &quot;atomic&quot; code by A. Dal Corso  v.6.3
     Using radial grid of 1247 points, 10 beta functions with: 
                l(1) =   0
                l(2) =   0
                l(3) =   1
                l(4) =   1
                l(5) =   1
                l(6) =   1
                l(7) =   2
                l(8) =   2
                l(9) =   2
               l(10) =   2
     Q(r) pseudized with 0 coefficients 


     atomic species   valence    mass     pseudopotential
        Sn            14.00   118.70000     Sn( 1.00)
        I              7.00   126.90000     I ( 1.00)

     16 Sym. Ops., with inversion, found ( 8 have fractional translation)


                                    s                        frac. trans.

      isym =  1     identity                                     

 cryst.   s( 1) = (     1          0          0      )
                  (     0          1          0      )
                  (     0          0          1      )

 cart.    s( 1) = (  1.0000000  0.0000000  0.0000000 )
                  (  0.0000000  1.0000000  0.0000000 )
                  (  0.0000000  0.0000000  1.0000000 )


      isym =  2     180 deg rotation - cart. axis [0,0,1]        

 cryst.   s( 2) = (    -1          0          0      )
                  (     0         -1          0      )
                  (     0          0          1      )

 cart.    s( 2) = ( -1.0000000  0.0000000  0.0000000 )
                  (  0.0000000 -1.0000000  0.0000000 )
                  (  0.0000000  0.0000000  1.0000000 )


      isym =  3     180 deg rotation - cart. axis [0,1,0]        

 cryst.   s( 3) = (    -1          0          0      )    f =(  0.5000000 )
                  (     0          1          0      )       ( -0.5000000 )
                  (     0          0         -1      )       (  0.5000000 )

 cart.    s( 3) = ( -1.0000000  0.0000000  0.0000000 )    f =(  0.5000000 )
                  (  0.0000000  1.0000000  0.0000000 )       ( -0.5000000 )
                  (  0.0000000  0.0000000 -1.0000000 )       (  0.5000000 )


      isym =  4     180 deg rotation - cart. axis [1,0,0]        

 cryst.   s( 4) = (     1          0          0      )    f =( -0.5000000 )
                  (     0         -1          0      )       (  0.5000000 )
                  (     0          0         -1      )       (  0.5000000 )

 cart.    s( 4) = (  1.0000000  0.0000000  0.0000000 )    f =( -0.5000000 )
                  (  0.0000000 -1.0000000  0.0000000 )       (  0.5000000 )
                  (  0.0000000  0.0000000 -1.0000000 )       (  0.5000000 )


      isym =  5     180 deg rotation - cart. axis [1,1,0]        

 cryst.   s( 5) = (     0          1          0      )
                  (     1          0          0      )
                  (     0          0         -1      )

 cart.    s( 5) = (  0.0000000  1.0000000  0.0000000 )
                  (  1.0000000  0.0000000  0.0000000 )
                  (  0.0000000  0.0000000 -1.0000000 )


      isym =  6     180 deg rotation - cart. axis [1,-1,0]       

 cryst.   s( 6) = (     0         -1          0      )
                  (    -1          0          0      )
                  (     0          0         -1      )

 cart.    s( 6) = (  0.0000000 -1.0000000  0.0000000 )
                  ( -1.0000000  0.0000000  0.0000000 )
                  (  0.0000000  0.0000000 -1.0000000 )


      isym =  7      90 deg rotation - cart. axis [0,0,-1]       

 cryst.   s( 7) = (     0         -1          0      )    f =( -0.5000000 )
                  (     1          0          0      )       (  0.5000000 )
                  (     0          0          1      )       ( -0.5000000 )

 cart.    s( 7) = (  0.0000000  1.0000000  0.0000000 )    f =( -0.5000000 )
                  ( -1.0000000  0.0000000  0.0000000 )       (  0.5000000 )
                  (  0.0000000  0.0000000  1.0000000 )       ( -0.5000000 )


      isym =  8      90 deg rotation - cart. axis [0,0,1]        

 cryst.   s( 8) = (     0          1          0      )    f =(  0.5000000 )
                  (    -1          0          0      )       ( -0.5000000 )
                  (     0          0          1      )       ( -0.5000000 )

 cart.    s( 8) = (  0.0000000 -1.0000000  0.0000000 )    f =(  0.5000000 )
                  (  1.0000000  0.0000000  0.0000000 )       ( -0.5000000 )
                  (  0.0000000  0.0000000  1.0000000 )       ( -0.5000000 )


      isym =  9     inversion                                    

 cryst.   s( 9) = (    -1          0          0      )
                  (     0         -1          0      )
                  (     0          0         -1      )

 cart.    s( 9) = ( -1.0000000  0.0000000  0.0000000 )
                  (  0.0000000 -1.0000000  0.0000000 )
                  (  0.0000000  0.0000000 -1.0000000 )


      isym = 10     inv. 180 deg rotation - cart. axis [0,0,1]   

 cryst.   s(10) = (     1          0          0      )
                  (     0          1          0      )
                  (     0          0         -1      )

 cart.    s(10) = (  1.0000000  0.0000000  0.0000000 )
                  (  0.0000000  1.0000000  0.0000000 )
                  (  0.0000000  0.0000000 -1.0000000 )


      isym = 11     inv. 180 deg rotation - cart. axis [0,1,0]   

 cryst.   s(11) = (     1          0          0      )    f =( -0.5000000 )
                  (     0         -1          0      )       (  0.5000000 )
                  (     0          0          1      )       ( -0.5000000 )

 cart.    s(11) = (  1.0000000  0.0000000  0.0000000 )    f =( -0.5000000 )
                  (  0.0000000 -1.0000000  0.0000000 )       (  0.5000000 )
                  (  0.0000000  0.0000000  1.0000000 )       ( -0.5000000 )


      isym = 12     inv. 180 deg rotation - cart. axis [1,0,0]   

 cryst.   s(12) = (    -1          0          0      )    f =(  0.5000000 )
                  (     0          1          0      )       ( -0.5000000 )
                  (     0          0          1      )       ( -0.5000000 )

 cart.    s(12) = ( -1.0000000  0.0000000  0.0000000 )    f =(  0.5000000 )
                  (  0.0000000  1.0000000  0.0000000 )       ( -0.5000000 )
                  (  0.0000000  0.0000000  1.0000000 )       ( -0.5000000 )


      isym = 13     inv. 180 deg rotation - cart. axis [1,1,0]   

 cryst.   s(13) = (     0         -1          0      )
                  (    -1          0          0      )
                  (     0          0          1      )

 cart.    s(13) = (  0.0000000 -1.0000000  0.0000000 )
                  ( -1.0000000  0.0000000  0.0000000 )
                  (  0.0000000  0.0000000  1.0000000 )


      isym = 14     inv. 180 deg rotation - cart. axis [1,-1,0]  

 cryst.   s(14) = (     0          1          0      )
                  (     1          0          0      )
                  (     0          0          1      )

 cart.    s(14) = (  0.0000000  1.0000000  0.0000000 )
                  (  1.0000000  0.0000000  0.0000000 )
                  (  0.0000000  0.0000000  1.0000000 )


      isym = 15     inv.  90 deg rotation - cart. axis [0,0,-1]  

 cryst.   s(15) = (     0          1          0      )    f =(  0.5000000 )
                  (    -1          0          0      )       ( -0.5000000 )
                  (     0          0         -1      )       (  0.5000000 )

 cart.    s(15) = (  0.0000000 -1.0000000  0.0000000 )    f =(  0.5000000 )
                  (  1.0000000  0.0000000  0.0000000 )       ( -0.5000000 )
                  (  0.0000000  0.0000000 -1.0000000 )       (  0.5000000 )


      isym = 16     inv.  90 deg rotation - cart. axis [0,0,1]   

 cryst.   s(16) = (     0         -1          0      )    f =( -0.5000000 )
                  (     1          0          0      )       (  0.5000000 )
                  (     0          0         -1      )       (  0.5000000 )

 cart.    s(16) = (  0.0000000  1.0000000  0.0000000 )    f =( -0.5000000 )
                  ( -1.0000000  0.0000000  0.0000000 )       (  0.5000000 )
                  (  0.0000000  0.0000000 -1.0000000 )       (  0.5000000 )


     double point group D_4h(4/mmm)
     there are 14 classes and  4 irreducible representations
     the character table:

       E     -E    2C4   -2C4   C2    2C2' 2C2'' i     -i    2S4   -2S4   s_h 
                               -C2   -2C2' -2C2'                         -s_h 
G_6+   2.00 -2.00  1.41 -1.41  0.00  0.00  0.00  2.00 -2.00  1.41 -1.41  0.00
G_7+   2.00 -2.00 -1.41  1.41  0.00  0.00  0.00  2.00 -2.00 -1.41  1.41  0.00
G_6-   2.00 -2.00  1.41 -1.41  0.00  0.00  0.00 -2.00  2.00 -1.41  1.41  0.00
G_7-   2.00 -2.00 -1.41  1.41  0.00  0.00  0.00 -2.00  2.00  1.41 -1.41  0.00

        2s_v  2s_d
       -2s_v -2s_d
G_6+   0.00  0.00
G_7+   0.00  0.00
G_6-   0.00  0.00
G_7-   0.00  0.00

     the symmetry operations in each class and the name of the first element:

     E             1
          identity                                               
     -E           -1
          identity E                                             
     2C4           7    8
           90 deg rotation - cart. axis [0,0,-1]                 
     -2C4         -7   -8
           90 deg rotation - cart. axis [0,0,-1] E               
      C2  -C2      2   -2
          180 deg rotation - cart. axis [0,0,1]                  
      2C2'-2C2'    3   -3    4   -4
          180 deg rotation - cart. axis [0,1,0]                  
     2C2''-2C2'    5   -5   -6    6
          180 deg rotation - cart. axis [1,1,0]                  
     i             9
          inversion                                              
     -i           -9
          inversion E                                            
     2S4          15   16
          inv.  90 deg rotation - cart. axis [0,0,-1]            
     -2S4        -15  -16
          inv.  90 deg rotation - cart. axis [0,0,-1] E          
      s_h -s_h    10  -10
          inv. 180 deg rotation - cart. axis [0,0,1]             
      2s_v-2s_v   11  -11   12  -12
          inv. 180 deg rotation - cart. axis [0,1,0]             
      2s_d-2s_d   13  -13  -14   14
          inv. 180 deg rotation - cart. axis [1,1,0]             

   Cartesian axes

     site n.     atom                  positions (alat units)
         1           Sn  tau(   1) = (   0.0000000   0.0000000   0.0000000  )
         2           Sn  tau(   2) = (   0.5000000   0.5000000   0.5000000  )
         3           I   tau(   3) = (   0.2985210   0.2985210   0.0000000  )
         4           I   tau(   4) = (   0.7014790   0.7014790   0.0000000  )
         5           I   tau(   5) = (   0.7985210   0.2014790   0.5000000  )
         6           I   tau(   6) = (   0.2014790   0.7985210   0.5000000  )

   Crystallographic axes

     site n.     atom                  positions (cryst. coord.)
         1           Sn  tau(   1) = (  0.0000000  0.0000000  0.0000000  )
         2           Sn  tau(   2) = (  0.5000000  0.5000000  0.5000000  )
         3           I   tau(   3) = (  0.2985210  0.2985210  0.0000000  )
         4           I   tau(   4) = (  0.7014790  0.7014790  0.0000000  )
         5           I   tau(   5) = (  0.7985210  0.2014790  0.5000000  )
         6           I   tau(   6) = (  0.2014790  0.7985210  0.5000000  )

     number of k points=     6
                       cart. coord. in units 2pi/alat
        k(    1) = (   0.1666667   0.1666667   0.1666667), wk =   0.2962963
        k(    2) = (   0.1666667   0.1666667  -0.5000000), wk =   0.1481481
        k(    3) = (   0.1666667  -0.5000000  -0.5000000), wk =   0.1481481
        k(    4) = (  -0.5000000  -0.5000000  -0.5000000), wk =   0.0370370
        k(    5) = (   0.1666667  -0.5000000   0.1666667), wk =   0.2962963
        k(    6) = (  -0.5000000  -0.5000000   0.1666667), wk =   0.0740741

                       cryst. coord.
        k(    1) = (   0.1666667   0.1666667   0.1666667), wk =   0.2962963
        k(    2) = (   0.1666667   0.1666667  -0.5000000), wk =   0.1481481
        k(    3) = (   0.1666667  -0.5000000  -0.5000000), wk =   0.1481481
        k(    4) = (  -0.5000000  -0.5000000  -0.5000000), wk =   0.0370370
        k(    5) = (   0.1666667  -0.5000000   0.1666667), wk =   0.2962963
        k(    6) = (  -0.5000000  -0.5000000   0.1666667), wk =   0.0740741

     Dense  grid:   331237 G-vectors     FFT dimensions: (  90,  90,  90)

     Smooth grid:   237129 G-vectors     FFT dimensions: (  80,  80,  80)

     Dynamical RAM for                 wfc:       1.05 MB

     Dynamical RAM for     wfc (w. buffer):       7.38 MB

     Dynamical RAM for           str. fact:       0.21 MB

     Dynamical RAM for           local pot:       0.00 MB

     Dynamical RAM for          nlocal pot:       1.92 MB

     Dynamical RAM for                qrad:       7.86 MB

     Dynamical RAM for          rho,v,vnew:       2.75 MB

     Dynamical RAM for               rhoin:       0.92 MB

     Dynamical RAM for            rho*nmix:       6.74 MB

     Dynamical RAM for           G-vectors:       0.43 MB

     Dynamical RAM for          h,s,v(r/c):       0.57 MB

     Dynamical RAM for          <psi|beta>:       0.35 MB

     Dynamical RAM for                 psi:       2.11 MB

     Dynamical RAM for                hpsi:       2.11 MB

     Dynamical RAM for                spsi:       2.11 MB

     Dynamical RAM for      wfcinit/wfcrot:       2.03 MB

     Dynamical RAM for           addusdens:      64.66 MB

     Dynamical RAM for          addusforce:      65.40 MB

     Dynamical RAM for         addusstress:      66.14 MB

     Estimated static dynamical RAM per process >      29.52 MB

     Estimated max dynamical RAM per process >      95.65 MB

     Estimated total dynamical RAM >       4.48 GB

     Initial potential from superposition of free atoms

     starting charge   55.99772, renormalised to   56.00000
     Starting wfcs are   68 randomized atomic wfcs

     total cpu time spent up to now is        3.7 secs

     Self-consistent Calculation

     iteration #  1     ecut=    70.00 Ry     beta= 0.35
     Davidson diagonalization with overlap
     ethr =  1.00E-02,  avg # of iterations =  1.0

     total cpu time spent up to now is        7.2 secs

     total energy              =    -458.29945284 Ry
     estimated scf accuracy    <       0.58826612 Ry

     iteration #  2     ecut=    70.00 Ry     beta= 0.35
     Davidson diagonalization with overlap
     ethr =  1.05E-03,  avg # of iterations =  3.0

     total cpu time spent up to now is       11.6 secs

     total energy              =    -458.37668237 Ry
     estimated scf accuracy    <       0.06205655 Ry

     iteration #  3     ecut=    70.00 Ry     beta= 0.35
     Davidson diagonalization with overlap
     ethr =  1.11E-04,  avg # of iterations =  6.0

     total cpu time spent up to now is       16.9 secs

     total energy              =    -458.39059387 Ry
     estimated scf accuracy    <       0.04665375 Ry

     iteration #  4     ecut=    70.00 Ry     beta= 0.35
     Davidson diagonalization with overlap
     ethr =  8.33E-05,  avg # of iterations =  5.3

     total cpu time spent up to now is       21.7 secs

     total energy              =    -458.40021385 Ry
     estimated scf accuracy    <       0.03350717 Ry

     iteration #  5     ecut=    70.00 Ry     beta= 0.35
     Davidson diagonalization with overlap
     ethr =  5.98E-05,  avg # of iterations =  5.2

     total cpu time spent up to now is       26.1 secs

     total energy              =    -458.40794318 Ry
     estimated scf accuracy    <       0.00142483 Ry

     iteration #  6     ecut=    70.00 Ry     beta= 0.35
     Davidson diagonalization with overlap
     ethr =  2.54E-06,  avg # of iterations =  9.0

     total cpu time spent up to now is       31.9 secs

     total energy              =    -458.40595671 Ry
     estimated scf accuracy    <       0.00795236 Ry

     iteration #  7     ecut=    70.00 Ry     beta= 0.35
     Davidson diagonalization with overlap
     ethr =  2.54E-06,  avg # of iterations =  6.8

     total cpu time spent up to now is       37.2 secs

     total energy              =    -458.40772054 Ry
     estimated scf accuracy    <       0.00022835 Ry

     iteration #  8     ecut=    70.00 Ry     beta= 0.35
     Davidson diagonalization with overlap
     ethr =  4.08E-07,  avg # of iterations =  4.7

     total cpu time spent up to now is       41.7 secs

     total energy              =    -458.40777675 Ry
     estimated scf accuracy    <       0.00000390 Ry

     iteration #  9     ecut=    70.00 Ry     beta= 0.35
     Davidson diagonalization with overlap
     ethr =  6.96E-09,  avg # of iterations =  7.7

     total cpu time spent up to now is       47.0 secs

     total energy              =    -458.40777811 Ry
     estimated scf accuracy    <       0.00000431 Ry

     iteration # 10     ecut=    70.00 Ry     beta= 0.35
     Davidson diagonalization with overlap
     ethr =  6.96E-09,  avg # of iterations =  5.0

     total cpu time spent up to now is       51.9 secs

     total energy              =    -458.40777978 Ry
     estimated scf accuracy    <       0.00000179 Ry

     iteration # 11     ecut=    70.00 Ry     beta= 0.35
     Davidson diagonalization with overlap
     ethr =  3.20E-09,  avg # of iterations =  2.0

     total cpu time spent up to now is       55.7 secs

     End of self-consistent calculation

          k = 0.1667 0.1667 0.1667 ( 29605 PWs)   bands (ev):

   -23.2571 -23.2571 -23.2571 -23.2571 -23.1320 -23.1320 -23.1320 -23.1320
   -22.2368 -22.2368 -22.2368 -22.2368 -22.1277 -22.1277 -22.1277 -22.1277
   -22.0768 -22.0768 -22.0767 -22.0767 -11.6069 -11.6069 -11.5346 -11.5346
   -11.4955 -11.4955 -11.4807 -11.4807  -7.0463  -7.0463  -6.9018  -6.9018
    -2.8152  -2.8152  -2.5477  -2.5477  -2.1197  -2.1197  -1.9847  -1.9847
    -1.8553  -1.8553  -1.5631  -1.5631  -1.2370  -1.2370  -1.1854  -1.1854
    -1.1323  -1.1323  -0.9629  -0.9629  -0.9070  -0.9070  -0.7197  -0.7197

     occupation numbers 
     1.0000   1.0000   1.0000   1.0000   1.0000   1.0000   1.0000   1.0000
     1.0000   1.0000   1.0000   1.0000   1.0000   1.0000   1.0000   1.0000
     1.0000   1.0000   1.0000   1.0000   1.0000   1.0000   1.0000   1.0000
     1.0000   1.0000   1.0000   1.0000   1.0000   1.0000   1.0000   1.0000
     1.0000   1.0000   1.0000   1.0000   1.0000   1.0000   1.0000   1.0000
     1.0000   1.0000   1.0000   1.0000   1.0000   1.0000   1.0000   1.0000
     1.0000   1.0000   1.0000   1.0000   1.0000   1.0000   1.0000   1.0000

          k = 0.1667 0.1667-0.5000 ( 29660 PWs)   bands (ev):

   -23.2571 -23.2571 -23.2571 -23.2571 -23.1320 -23.1320 -23.1320 -23.1320
   -22.2368 -22.2368 -22.2368 -22.2368 -22.1277 -22.1277 -22.1277 -22.1277
   -22.0768 -22.0768 -22.0767 -22.0767 -11.5770 -11.5770 -11.5622 -11.5622
   -11.4965 -11.4965 -11.4804 -11.4804  -6.9937  -6.9937  -6.9775  -6.9775
    -2.8380  -2.8380  -2.5201  -2.5201  -2.1260  -2.1260  -1.8975  -1.8975
    -1.8360  -1.8360  -1.5906  -1.5906  -1.2765  -1.2765  -1.1955  -1.1955
    -1.1257  -1.1257  -0.9927  -0.9927  -0.9133  -0.9133  -0.7183  -0.7183

     occupation numbers 
     1.0000   1.0000   1.0000   1.0000   1.0000   1.0000   1.0000   1.0000
     1.0000   1.0000   1.0000   1.0000   1.0000   1.0000   1.0000   1.0000
     1.0000   1.0000   1.0000   1.0000   1.0000   1.0000   1.0000   1.0000
     1.0000   1.0000   1.0000   1.0000   1.0000   1.0000   1.0000   1.0000
     1.0000   1.0000   1.0000   1.0000   1.0000   1.0000   1.0000   1.0000
     1.0000   1.0000   1.0000   1.0000   1.0000   1.0000   1.0000   1.0000
     1.0000   1.0000   1.0000   1.0000   1.0000   1.0000   1.0000   1.0000

          k = 0.1667-0.5000-0.5000 ( 29684 PWs)   bands (ev):

   -23.2571 -23.2571 -23.2571 -23.2571 -23.1320 -23.1320 -23.1320 -23.1320
   -22.2368 -22.2368 -22.2368 -22.2368 -22.1278 -22.1278 -22.1278 -22.1278
   -22.0768 -22.0768 -22.0767 -22.0767 -11.5543 -11.5543 -11.5540 -11.5540
   -11.5039 -11.5039 -11.5039 -11.5039  -6.9870  -6.9870  -6.9810  -6.9810
    -2.8435  -2.8435  -2.8159  -2.8159  -2.0417  -2.0417  -1.9311  -1.9311
    -1.7851  -1.7851  -1.5828  -1.5828  -1.2510  -1.2510  -1.2154  -1.2154
    -0.9338  -0.9338  -0.9178  -0.9178  -0.7235  -0.7235  -0.7166  -0.7166

     occupation numbers 
     1.0000   1.0000   1.0000   1.0000   1.0000   1.0000   1.0000   1.0000
     1.0000   1.0000   1.0000   1.0000   1.0000   1.0000   1.0000   1.0000
     1.0000   1.0000   1.0000   1.0000   1.0000   1.0000   1.0000   1.0000
     1.0000   1.0000   1.0000   1.0000   1.0000   1.0000   1.0000   1.0000
     1.0000   1.0000   1.0000   1.0000   1.0000   1.0000   1.0000   1.0000
     1.0000   1.0000   1.0000   1.0000   1.0000   1.0000   1.0000   1.0000
     1.0000   1.0000   1.0000   1.0000   1.0000   1.0000   1.0000   1.0000

          k =-0.5000-0.5000-0.5000 ( 29464 PWs)   bands (ev):

   -23.2570 -23.2570 -23.2570 -23.2570 -23.1319 -23.1319 -23.1319 -23.1319
   -22.2367 -22.2367 -22.2367 -22.2367 -22.1277 -22.1277 -22.1277 -22.1277
   -22.0767 -22.0767 -22.0767 -22.0767 -11.5671 -11.5671 -11.5671 -11.5671
   -11.4889 -11.4889 -11.4889 -11.4889  -7.0055  -7.0055  -7.0055  -7.0055
    -2.5233  -2.5233  -2.5233  -2.5233  -2.0829  -2.0829  -2.0829  -2.0829
    -1.7874  -1.7874  -1.7874  -1.7874  -1.3098  -1.3098  -1.3098  -1.3098
    -1.0945  -1.0945  -1.0945  -1.0945  -0.7907  -0.7907  -0.7907  -0.7907

     occupation numbers 
     1.0000   1.0000   1.0000   1.0000   1.0000   1.0000   1.0000   1.0000
     1.0000   1.0000   1.0000   1.0000   1.0000   1.0000   1.0000   1.0000
     1.0000   1.0000   1.0000   1.0000   1.0000   1.0000   1.0000   1.0000
     1.0000   1.0000   1.0000   1.0000   1.0000   1.0000   1.0000   1.0000
     1.0000   1.0000   1.0000   1.0000   1.0000   1.0000   1.0000   1.0000
     1.0000   1.0000   1.0000   1.0000   1.0000   1.0000   1.0000   1.0000
     1.0000   1.0000   1.0000   1.0000   1.0000   1.0000   1.0000   1.0000

          k = 0.1667-0.5000 0.1667 ( 29660 PWs)   bands (ev):

   -23.2571 -23.2571 -23.2571 -23.2571 -23.1320 -23.1320 -23.1320 -23.1320
   -22.2368 -22.2368 -22.2368 -22.2368 -22.1277 -22.1277 -22.1277 -22.1277
   -22.0768 -22.0768 -22.0767 -22.0767 -11.5614 -11.5614 -11.5613 -11.5613
   -11.4979 -11.4979 -11.4978 -11.4978  -6.9743  -6.9743  -6.9713  -6.9713
    -2.8102  -2.8102  -2.7930  -2.7930  -2.0561  -2.0561  -2.0082  -2.0082
    -1.7330  -1.7330  -1.6223  -1.6223  -1.2897  -1.2897  -1.2887  -1.2887
    -0.9829  -0.9829  -0.9244  -0.9244  -0.7177  -0.7177  -0.7175  -0.7175

     occupation numbers 
     1.0000   1.0000   1.0000   1.0000   1.0000   1.0000   1.0000   1.0000
     1.0000   1.0000   1.0000   1.0000   1.0000   1.0000   1.0000   1.0000
     1.0000   1.0000   1.0000   1.0000   1.0000   1.0000   1.0000   1.0000
     1.0000   1.0000   1.0000   1.0000   1.0000   1.0000   1.0000   1.0000
     1.0000   1.0000   1.0000   1.0000   1.0000   1.0000   1.0000   1.0000
     1.0000   1.0000   1.0000   1.0000   1.0000   1.0000   1.0000   1.0000
     1.0000   1.0000   1.0000   1.0000   1.0000   1.0000   1.0000   1.0000

          k =-0.5000-0.5000 0.1667 ( 29684 PWs)   bands (ev):

   -23.2571 -23.2571 -23.2571 -23.2571 -23.1320 -23.1320 -23.1320 -23.1320
   -22.2368 -22.2368 -22.2368 -22.2368 -22.1278 -22.1278 -22.1278 -22.1278
   -22.0768 -22.0768 -22.0768 -22.0768 -11.5681 -11.5681 -11.5681 -11.5681
   -11.4893 -11.4893 -11.4893 -11.4893  -6.9925  -6.9925  -6.9925  -6.9925
    -2.5377  -2.5377  -2.5377  -2.5377  -1.9969  -1.9969  -1.9969  -1.9969
    -1.8173  -1.8173  -1.8173  -1.8173  -1.4111  -1.4111  -1.4111  -1.4111
    -1.1072  -1.1072  -1.1072  -1.1072  -0.8223  -0.8223  -0.8223  -0.8223

     occupation numbers 
     1.0000   1.0000   1.0000   1.0000   1.0000   1.0000   1.0000   1.0000
     1.0000   1.0000   1.0000   1.0000   1.0000   1.0000   1.0000   1.0000
     1.0000   1.0000   1.0000   1.0000   1.0000   1.0000   1.0000   1.0000
     1.0000   1.0000   1.0000   1.0000   1.0000   1.0000   1.0000   1.0000
     1.0000   1.0000   1.0000   1.0000   1.0000   1.0000   1.0000   1.0000
     1.0000   1.0000   1.0000   1.0000   1.0000   1.0000   1.0000   1.0000
     1.0000   1.0000   1.0000   1.0000   1.0000   1.0000   1.0000   1.0000

     highest occupied level (ev):    -0.7166

!    total energy              =    -458.40777938 Ry
     estimated scf accuracy    <       0.00000058 Ry

     The total energy is the sum of the following terms:
     one-electron contribution =    -256.47997708 Ry
     hartree contribution      =     145.40416411 Ry
     xc contribution           =    -157.08020607 Ry
     ewald contribution        =    -190.25176033 Ry

     convergence has been achieved in  11 iterations

     Forces acting on atoms (cartesian axes, Ry/au):

     atom    1 type  1   force =     0.00000000    0.00000000   -0.00000000
     atom    2 type  1   force =     0.00000000    0.00000000    0.00000000
     atom    3 type  2   force =    -0.01784230   -0.01784230    0.00000000
     atom    4 type  2   force =     0.01784230    0.01784230    0.00000000
     atom    5 type  2   force =    -0.01784230    0.01784230    0.00000000
     atom    6 type  2   force =     0.01784230   -0.01784230    0.00000000
     The non-local contrib.  to forces
     atom    1 type  1   force =     0.00000000    0.00000000    0.00000000
     atom    2 type  1   force =     0.00000000    0.00000000    0.00000000
     atom    3 type  2   force =    -0.04108221   -0.04108221   -0.00000000
     atom    4 type  2   force =     0.04108221    0.04108221   -0.00000000
     atom    5 type  2   force =    -0.04108221    0.04108221    0.00000000
     atom    6 type  2   force =     0.04108221   -0.04108221    0.00000000
     The ionic contribution  to forces
     atom    1 type  1   force =    -0.00000000   -0.00000000    0.00000000
     atom    2 type  1   force =    -0.00000000   -0.00000000    0.00000000
     atom    3 type  2   force =     1.38633658    1.38633658    0.00000000
     atom    4 type  2   force =    -1.38633658   -1.38633658   -0.00000000
     atom    5 type  2   force =     1.38633658   -1.38633658    0.00000000
     atom    6 type  2   force =    -1.38633658    1.38633658    0.00000000
     The local contribution  to forces
     atom    1 type  1   force =    -0.00000000   -0.00000000   -0.00000000
     atom    2 type  1   force =     0.00000000    0.00000000    0.00000000
     atom    3 type  2   force =    -1.36682733   -1.36682733   -0.00000000
     atom    4 type  2   force =     1.36682733    1.36682733   -0.00000000
     atom    5 type  2   force =    -1.36682733    1.36682733    0.00000000
     atom    6 type  2   force =     1.36682733   -1.36682733    0.00000000
     The core correction contribution to forces
     atom    1 type  1   force =     0.00000000    0.00000000    0.00000000
     atom    2 type  1   force =     0.00000000    0.00000000    0.00000000
     atom    3 type  2   force =     0.00387646    0.00387646   -0.00000000
     atom    4 type  2   force =    -0.00387646   -0.00387646   -0.00000000
     atom    5 type  2   force =     0.00387646   -0.00387646   -0.00000000
     atom    6 type  2   force =    -0.00387646    0.00387646    0.00000000
     The Hubbard contrib.    to forces
     atom    1 type  1   force =     0.00000000    0.00000000    0.00000000
     atom    2 type  1   force =     0.00000000    0.00000000    0.00000000
     atom    3 type  2   force =     0.00000000    0.00000000    0.00000000
     atom    4 type  2   force =     0.00000000    0.00000000    0.00000000
     atom    5 type  2   force =     0.00000000    0.00000000    0.00000000
     atom    6 type  2   force =     0.00000000    0.00000000    0.00000000
     The SCF correction term to forces
     atom    1 type  1   force =     0.00000000    0.00000000   -0.00000000
     atom    2 type  1   force =    -0.00000000   -0.00000000   -0.00000000
     atom    3 type  2   force =    -0.00014580   -0.00014580   -0.00000000
     atom    4 type  2   force =     0.00014580    0.00014580   -0.00000000
     atom    5 type  2   force =    -0.00014580    0.00014580    0.00000000
     atom    6 type  2   force =     0.00014580   -0.00014580    0.00000000

     Total force =     0.050466     Total SCF correction =     0.000412


     Computing stress (Cartesian axis) and pressure

          total   stress  (Ry/bohr**3)                   (kbar)     P=      -28.16
  -0.00019390   0.00000000   0.00000000          -28.52        0.00        0.00
   0.00000000  -0.00019390   0.00000000            0.00      -28.52        0.00
   0.00000000   0.00000000  -0.00018648            0.00        0.00      -27.43

     kinetic stress (kbar)   4477.96      0.00      0.00
                                0.00   4477.96      0.00
                                0.00      0.00   4473.01

     local   stress (kbar)  -2714.32     -0.00      0.00
                               -0.00  -2714.32     -0.00
                                0.00     -0.00  -2199.15

     nonloc. stress (kbar)     68.65      0.00      0.00
                                0.00     68.65      0.00
                                0.00      0.00     53.55

     hartree stress (kbar)   2422.18     -0.00     -0.00
                               -0.00   2422.18      0.00
                               -0.00      0.00   2289.31

     exc-cor stress (kbar)   3792.41      0.00      0.00
                                0.00   3792.41      0.00
                                0.00      0.00   3791.42

     corecor stress (kbar)  -5084.42      0.00      0.00
                                0.00  -5084.42     -0.00
                                0.00      0.00  -5083.60

     ewald   stress (kbar)  -2990.99     -0.00     -0.00
                               -0.00  -2990.99     -0.00
                               -0.00     -0.00  -3351.97

     hubbard stress (kbar)      0.00      0.00      0.00
                                0.00      0.00      0.00
                                0.00      0.00      0.00

     DFT-D   stress (kbar)      0.00      0.00      0.00
                                0.00      0.00      0.00
                                0.00      0.00      0.00

     XDM     stress (kbar)      0.00      0.00      0.00
                                0.00      0.00      0.00
                                0.00      0.00      0.00

     dft-nl  stress (kbar)      0.00      0.00      0.00
                                0.00      0.00      0.00
                                0.00      0.00      0.00

     TS-vdW  stress (kbar)      0.00      0.00      0.00
                                0.00      0.00      0.00
                                0.00      0.00      0.00



     Writing output data file ./SnI2.save/

     init_run     :      4.05s CPU      2.66s WALL (       1 calls)
     electrons    :     92.64s CPU     52.74s WALL (       1 calls)
     forces       :      2.05s CPU      1.43s WALL (       1 calls)
     stress       :      7.74s CPU      4.10s WALL (       1 calls)

     Called by init_run:
     wfcinit      :      2.43s CPU      1.41s WALL (       1 calls)
     wfcinit:atom :      0.02s CPU      0.01s WALL (       6 calls)
     wfcinit:wfcr :      2.33s CPU      1.33s WALL (       6 calls)
     potinit      :      0.30s CPU      0.19s WALL (       1 calls)
     hinit0       :      0.51s CPU      0.43s WALL (       1 calls)

     Called by electrons:
     c_bands      :     66.79s CPU     35.70s WALL (      11 calls)
     sum_band     :     16.80s CPU     10.22s WALL (      11 calls)
     v_of_rho     :      0.78s CPU      0.47s WALL (      12 calls)
     v_h          :      0.08s CPU      0.04s WALL (      12 calls)
     v_xc         :      0.81s CPU      0.49s WALL (      14 calls)
     newd         :      7.42s CPU      5.02s WALL (      12 calls)
     mix_rho      :      0.65s CPU      0.44s WALL (      11 calls)

     Called by c_bands:
     init_us_2    :      0.44s CPU      0.23s WALL (     150 calls)
     cegterg      :     64.17s CPU     33.99s WALL (      66 calls)

     Called by sum_band:
     sum_band:wei :      0.00s CPU      0.00s WALL (      11 calls)
     sum_band:loo :     10.47s CPU      5.42s WALL (      11 calls)
     sum_band:buf :      0.07s CPU      0.06s WALL (      66 calls)
     sum_band:ini :      0.17s CPU      0.09s WALL (      66 calls)
     sum_band:cal :      0.88s CPU      0.44s WALL (      66 calls)
     sum_band:bec :      2.10s CPU      1.07s WALL (      66 calls)
     addusdens    :      5.89s CPU      4.50s WALL (      11 calls)
     addusd:skk   :      0.01s CPU      0.00s WALL (      22 calls)
     addusd:dgemm :      2.13s CPU      2.59s WALL (      22 calls)
     addusd:qvan2 :      3.63s CPU      1.84s WALL (      22 calls)

     Called by *egterg:
     cdiaghg      :      2.85s CPU      1.51s WALL (     400 calls)
     cegterg:over :      3.01s CPU      1.63s WALL (     334 calls)
     cegterg:upda :      1.25s CPU      0.64s WALL (     334 calls)
     cegterg:last :      2.08s CPU      1.06s WALL (     171 calls)
     h_psi        :     51.10s CPU     26.92s WALL (     406 calls)
     s_psi        :      3.79s CPU      2.16s WALL (     406 calls)
     g_psi        :      0.15s CPU      0.08s WALL (     334 calls)

     Called by h_psi:
     h_psi:calbec :      3.00s CPU      1.53s WALL (     406 calls)
     vloc_psi     :     44.64s CPU     23.49s WALL (     406 calls)
     add_vuspsi   :      3.29s CPU      1.81s WALL (     406 calls)

     General routines
     calbec       :      4.59s CPU      2.51s WALL (     502 calls)
     fft          :      1.46s CPU      0.91s WALL (     281 calls)
     ffts         :      0.33s CPU      0.19s WALL (      92 calls)
     fftw         :     47.10s CPU     24.80s WALL (   53280 calls)
     interpolate  :      0.32s CPU      0.17s WALL (      48 calls)

     Parallel routines
     fft_scatt_xy :      2.56s CPU      1.31s WALL (   53653 calls)
     fft_scatt_yz :     34.77s CPU     18.66s WALL (   53653 calls)

     PWSCF        :   1m48.37s CPU   1m 4.41s WALL


   This run was terminated on:  10:55:59  31Jan2021            

=------------------------------------------------------------------------------=
   JOB DONE.
=------------------------------------------------------------------------------=
