
     Program PWSCF v.6.6 starts on 26Jan2021 at  9:44:58 

     This program is part of the open-source Quantum ESPRESSO suite
     for quantum simulation of materials; please cite
         "P. Giannozzi et al., J. Phys.:Condens. Matter 21 395502 (2009);
         "P. Giannozzi et al., J. Phys.:Condens. Matter 29 465901 (2017);
          URL http://www.quantum-espresso.org", 
     in publications or presentations arising from this work. More details at
     http://www.quantum-espresso.org/quote

     Parallel version (MPI), running on    96 processors

     MPI processes distributed on     3 nodes
     R & G space division:  proc/nbgrp/npool/nimage =      96
     Fft bands division:     nmany     =       1
     Waiting for input...
     Reading input from standard input

     Current dimensions of program PWSCF are:
     Max number of different atomic species (ntypx) = 10
     Max number of k-points (npk) =  40000
     Max angular momentum in pseudopotentials (lmaxx) =  3
     file Sn.rel-pbe-dn-rrkjus_psl.1.0.0.UPF: wavefunction(s)  5S 4D 4D renormalized
     file Cs.rel-pbe-spn-rrkjus_psl.1.0.0.UPF: wavefunction(s)  5S 6S renormalized

     Subspace diagonalization in iterative solution of the eigenvalue problem:
     a serial algorithm will be used

 
     Parallelization info
     --------------------
     sticks:   dense  smooth     PW     G-vecs:    dense   smooth      PW
     Min          55      55     14                 7649     7649    1038
     Max          56      56     15                 7666     7666    1053
     Sum        5329    5329   1415               735059   735059  100593
 

     Title: 
     perovskite                                                                 


     bravais-lattice index     =            8
     lattice parameter (alat)  =       9.1317  a.u.
     unit-cell volume          =    6370.5385 (a.u.)^3
     number of atoms/cell      =           20
     number of atomic types    =            3
     number of electrons       =       176.00
     number of Kohn-Sham states=          176
     kinetic-energy cutoff     =      90.0000  Ry
     charge density cutoff     =     360.0000  Ry
     convergence threshold     =      1.0E-06
     mixing beta               =       0.6000
     number of iterations used =            8  plain     mixing
     Exchange-correlation= PBE
                           (   1   4   3   4   0   0   0)
     Non magnetic calculation with spin-orbit


     celldm(1)=   9.131705  celldm(2)=   2.227728  celldm(3)=   3.755420
     celldm(4)=   0.000000  celldm(5)=   0.000000  celldm(6)=   0.000000

     crystal axes: (cart. coord. in units of alat)
               a(1) = (   1.000000   0.000000   0.000000 )  
               a(2) = (   0.000000   2.227728   0.000000 )  
               a(3) = (   0.000000   0.000000   3.755420 )  

     reciprocal axes: (cart. coord. in units 2 pi/alat)
               b(1) = (  1.000000  0.000000  0.000000 )  
               b(2) = (  0.000000  0.448888  0.000000 )  
               b(3) = (  0.000000  0.000000  0.266282 )  


     PseudoPot. # 1 for Sn read from file:
     /scratch/afiorent/degironcoli/pseudo/pseudo-usp/Sn.rel-pbe-dn-rrkjus_psl.1.0.0.UPF
     MD5 check sum: e9415cc9ba1036dfb73502962f03961a
     Pseudo is Ultrasoft + core correction, Zval = 14.0
     Generated using "atomic" code by A. Dal Corso v.6.3
     Using radial grid of 1243 points, 10 beta functions with: 
                l(1) =   0
                l(2) =   0
                l(3) =   1
                l(4) =   1
                l(5) =   1
                l(6) =   1
                l(7) =   2
                l(8) =   2
                l(9) =   2
               l(10) =   2
     Q(r) pseudized with 0 coefficients 


     PseudoPot. # 2 for I  read from file:
     /scratch/afiorent/degironcoli/pseudo/pseudo-usp/I.rel-pbe-n-rrkjus_psl.0.2.2.UPF
     MD5 check sum: b9024a078df971004264c9bcc9ff756e
     Pseudo is Ultrasoft + core correction, Zval =  7.0
     Generated using "atomic" code by A. Dal Corso v.5.0.2 svn rev. 9415
     Using radial grid of 1247 points,  6 beta functions with: 
                l(1) =   0
                l(2) =   0
                l(3) =   1
                l(4) =   1
                l(5) =   1
                l(6) =   1
     Q(r) pseudized with 0 coefficients 


     PseudoPot. # 3 for Cs read from file:
     /scratch/afiorent/degironcoli/pseudo/pseudo-usp/Cs.rel-pbe-spn-rrkjus_psl.1.0.0.UPF
     MD5 check sum: 92f45d5fced885c1284380ec35df8368
     Pseudo is Ultrasoft + core correction, Zval =  9.0
     Generated using "atomic" code by A. Dal Corso v.6.4.1
     Using radial grid of 1251 points, 15 beta functions with: 
                l(1) =   0
                l(2) =   0
                l(3) =   0
                l(4) =   1
                l(5) =   1
                l(6) =   1
                l(7) =   1
                l(8) =   2
                l(9) =   2
               l(10) =   2
               l(11) =   2
               l(12) =   3
               l(13) =   3
               l(14) =   3
               l(15) =   3
     Q(r) pseudized with 0 coefficients 


     atomic species   valence    mass     pseudopotential
        Sn            14.00   118.70000     Sn( 1.00)
        I              7.00   126.90000     I ( 1.00)
        Cs             9.00   132.90000     Cs( 1.00)

      8 Sym. Ops., with inversion, found ( 6 have fractional translation)


                                    s                        frac. trans.

      isym =  1     identity                                     

 cryst.   s( 1) = (     1          0          0      )
                  (     0          1          0      )
                  (     0          0          1      )

 cart.    s( 1) = (  1.0000000  0.0000000  0.0000000 )
                  (  0.0000000  1.0000000  0.0000000 )
                  (  0.0000000  0.0000000  1.0000000 )


      isym =  2     180 deg rotation - cart. axis [0,0,1]        

 cryst.   s( 2) = (    -1          0          0      )    f =(  0.0000000 )
                  (     0         -1          0      )       (  0.5000000 )
                  (     0          0          1      )       (  0.5000000 )

 cart.    s( 2) = ( -1.0000000  0.0000000  0.0000000 )    f =(  0.0000000 )
                  (  0.0000000 -1.0000000  0.0000000 )       (  1.1138638 )
                  (  0.0000000  0.0000000  1.0000000 )       (  1.8777098 )


      isym =  3     180 deg rotation - cart. axis [0,1,0]        

 cryst.   s( 3) = (    -1          0          0      )    f =(  0.5000000 )
                  (     0          1          0      )       ( -0.5000000 )
                  (     0          0         -1      )       ( -0.5000000 )

 cart.    s( 3) = ( -1.0000000  0.0000000  0.0000000 )    f =(  0.5000000 )
                  (  0.0000000  1.0000000  0.0000000 )       ( -1.1138638 )
                  (  0.0000000  0.0000000 -1.0000000 )       ( -1.8777098 )


      isym =  4     180 deg rotation - cart. axis [1,0,0]        

 cryst.   s( 4) = (     1          0          0      )    f =( -0.5000000 )
                  (     0         -1          0      )       (  0.0000000 )
                  (     0          0         -1      )       (  0.0000000 )

 cart.    s( 4) = (  1.0000000  0.0000000  0.0000000 )    f =( -0.5000000 )
                  (  0.0000000 -1.0000000  0.0000000 )       (  0.0000000 )
                  (  0.0000000  0.0000000 -1.0000000 )       (  0.0000000 )


      isym =  5     inversion                                    

 cryst.   s( 5) = (    -1          0          0      )
                  (     0         -1          0      )
                  (     0          0         -1      )

 cart.    s( 5) = ( -1.0000000  0.0000000  0.0000000 )
                  (  0.0000000 -1.0000000  0.0000000 )
                  (  0.0000000  0.0000000 -1.0000000 )


      isym =  6     inv. 180 deg rotation - cart. axis [0,0,1]   

 cryst.   s( 6) = (     1          0          0      )    f =(  0.0000000 )
                  (     0          1          0      )       ( -0.5000000 )
                  (     0          0         -1      )       ( -0.5000000 )

 cart.    s( 6) = (  1.0000000  0.0000000  0.0000000 )    f =(  0.0000000 )
                  (  0.0000000  1.0000000  0.0000000 )       ( -1.1138638 )
                  (  0.0000000  0.0000000 -1.0000000 )       ( -1.8777098 )


      isym =  7     inv. 180 deg rotation - cart. axis [0,1,0]   

 cryst.   s( 7) = (     1          0          0      )    f =( -0.5000000 )
                  (     0         -1          0      )       (  0.5000000 )
                  (     0          0          1      )       (  0.5000000 )

 cart.    s( 7) = (  1.0000000  0.0000000  0.0000000 )    f =( -0.5000000 )
                  (  0.0000000 -1.0000000  0.0000000 )       (  1.1138638 )
                  (  0.0000000  0.0000000  1.0000000 )       (  1.8777098 )


      isym =  8     inv. 180 deg rotation - cart. axis [1,0,0]   

 cryst.   s( 8) = (    -1          0          0      )    f =(  0.5000000 )
                  (     0          1          0      )       (  0.0000000 )
                  (     0          0          1      )       (  0.0000000 )

 cart.    s( 8) = ( -1.0000000  0.0000000  0.0000000 )    f =(  0.5000000 )
                  (  0.0000000  1.0000000  0.0000000 )       (  0.0000000 )
                  (  0.0000000  0.0000000  1.0000000 )       (  0.0000000 )


     double point group D_2h (mmm) 
     there are 10 classes and  2 irreducible representations
     the character table:

       E     -E     C2    C2'  C2''  i     -i     s_v   s_v' s_v''
                   -C2   -C2'  -C2''             -s_v  -s_v' -s_v'
G_5+   2.00 -2.00  0.00  0.00  0.00  2.00 -2.00  0.00  0.00  0.00
G_5-   2.00 -2.00  0.00  0.00  0.00 -2.00  2.00  0.00  0.00  0.00

     the symmetry operations in each class and the name of the first element:

     E             1
          identity                                               
     -E           -1
          identity E                                             
      C2  -C2      2   -2
          180 deg rotation - cart. axis [0,0,1]                  
      C2' -C2'     4   -4
          180 deg rotation - cart. axis [1,0,0]                  
     C2'' -C2''    3   -3
          180 deg rotation - cart. axis [0,1,0]                  
     i             5
          inversion                                              
     -i           -5
          inversion E                                            
      s_v -s_v     6   -6
          inv. 180 deg rotation - cart. axis [0,0,1]             
      s_v'-s_v'    8   -8
          inv. 180 deg rotation - cart. axis [1,0,0]             
     s_v''-s_v'    7   -7
          inv. 180 deg rotation - cart. axis [0,1,0]             

   Cartesian axes

     site n.     atom                  positions (alat units)
         1           Cs  tau(   1) = (   0.2500000   0.1859640   2.5168147  )
         2           Cs  tau(   2) = (   0.7500000   2.0417636   1.2386050  )
         3           Cs  tau(   3) = (   0.2500000   1.2998278   3.1163149  )
         4           Cs  tau(   4) = (   0.7500000   0.9278998   0.6391048  )
         5           Sn  tau(   5) = (   0.2500000   0.7615710   1.6485466  )
         6           Sn  tau(   6) = (   0.7500000   1.4661567   2.1068731  )
         7           Sn  tau(   7) = (   0.2500000   1.8754348   0.2291632  )
         8           Sn  tau(   8) = (   0.7500000   0.3522928   3.5262565  )
         9           I   tau(   9) = (   0.7500000   0.0581437   0.4202578  )
        10           I   tau(  10) = (   0.2500000   2.1695839   3.3351619  )
        11           I   tau(  11) = (   0.7500000   1.1720075   1.4574521  )
        12           I   tau(  12) = (   0.2500000   1.0557201   2.2979676  )
        13           I   tau(  13) = (   0.7500000   0.6531118   2.9738192  )
        14           I   tau(  14) = (   0.2500000   1.5746158   0.7816005  )
        15           I   tau(  15) = (   0.7500000   1.7669756   2.6593103  )
        16           I   tau(  16) = (   0.2500000   0.4607520   1.0961094  )
        17           I   tau(  17) = (   0.7500000   0.3753632   1.8734812  )
        18           I   tau(  18) = (   0.2500000   1.8523644   1.8819384  )
        19           I   tau(  19) = (   0.7500000   1.4892270   0.0042286  )
        20           I   tau(  20) = (   0.2500000   0.7385006   3.7511911  )

   Crystallographic axes

     site n.     atom                  positions (cryst. coord.)
         1           Cs  tau(   1) = (  0.2500000  0.0834770  0.6701820  )
         2           Cs  tau(   2) = (  0.7500000  0.9165230  0.3298180  )
         3           Cs  tau(   3) = (  0.2500000  0.5834770  0.8298180  )
         4           Cs  tau(   4) = (  0.7500000  0.4165230  0.1701820  )
         5           Sn  tau(   5) = (  0.2500000  0.3418600  0.4389780  )
         6           Sn  tau(   6) = (  0.7500000  0.6581400  0.5610220  )
         7           Sn  tau(   7) = (  0.2500000  0.8418600  0.0610220  )
         8           Sn  tau(   8) = (  0.7500000  0.1581400  0.9389780  )
         9           I   tau(   9) = (  0.7500000  0.0261000  0.1119070  )
        10           I   tau(  10) = (  0.2500000  0.9739000  0.8880930  )
        11           I   tau(  11) = (  0.7500000  0.5261000  0.3880930  )
        12           I   tau(  12) = (  0.2500000  0.4739000  0.6119070  )
        13           I   tau(  13) = (  0.7500000  0.2931740  0.7918740  )
        14           I   tau(  14) = (  0.2500000  0.7068260  0.2081260  )
        15           I   tau(  15) = (  0.7500000  0.7931740  0.7081260  )
        16           I   tau(  16) = (  0.2500000  0.2068260  0.2918740  )
        17           I   tau(  17) = (  0.7500000  0.1684960  0.4988740  )
        18           I   tau(  18) = (  0.2500000  0.8315040  0.5011260  )
        19           I   tau(  19) = (  0.7500000  0.6684960  0.0011260  )
        20           I   tau(  20) = (  0.2500000  0.3315040  0.9988740  )

     number of k points=     8
                       cart. coord. in units 2pi/alat
        k(    1) = (   0.1250000   0.0561110   0.0332852), wk =   0.1250000
        k(    2) = (   0.1250000   0.0561110   0.0998557), wk =   0.1250000
        k(    3) = (   0.1250000   0.1683330   0.0332852), wk =   0.1250000
        k(    4) = (   0.1250000   0.1683330   0.0998557), wk =   0.1250000
        k(    5) = (   0.3750000   0.0561110   0.0332852), wk =   0.1250000
        k(    6) = (   0.3750000   0.0561110   0.0998557), wk =   0.1250000
        k(    7) = (   0.3750000   0.1683330   0.0332852), wk =   0.1250000
        k(    8) = (   0.3750000   0.1683330   0.0998557), wk =   0.1250000

                       cryst. coord.
        k(    1) = (   0.1250000   0.1250000   0.1250000), wk =   0.1250000
        k(    2) = (   0.1250000   0.1250000   0.3750000), wk =   0.1250000
        k(    3) = (   0.1250000   0.3750000   0.1250000), wk =   0.1250000
        k(    4) = (   0.1250000   0.3750000   0.3750000), wk =   0.1250000
        k(    5) = (   0.3750000   0.1250000   0.1250000), wk =   0.1250000
        k(    6) = (   0.3750000   0.1250000   0.3750000), wk =   0.1250000
        k(    7) = (   0.3750000   0.3750000   0.1250000), wk =   0.1250000
        k(    8) = (   0.3750000   0.3750000   0.3750000), wk =   0.1250000

     Dense  grid:   735059 G-vectors     FFT dimensions: (  60, 128, 216)

     Dynamical RAM for                 wfc:       5.13 MB

     Dynamical RAM for     wfc (w. buffer):      46.21 MB

     Dynamical RAM for           str. fact:       0.35 MB

     Dynamical RAM for           local pot:       0.00 MB

     Dynamical RAM for          nlocal pot:       8.11 MB

     Dynamical RAM for                qrad:      36.55 MB

     Dynamical RAM for          rho,v,vnew:       3.51 MB

     Dynamical RAM for               rhoin:       1.17 MB

     Dynamical RAM for            rho*nmix:       7.48 MB

     Dynamical RAM for           G-vectors:       0.50 MB

     Dynamical RAM for          h,s,v(r/c):       5.67 MB

     Dynamical RAM for          <psi|beta>:       2.99 MB

     Dynamical RAM for                 psi:      10.27 MB

     Dynamical RAM for                hpsi:      10.27 MB

     Dynamical RAM for                spsi:      10.27 MB

     Dynamical RAM for      wfcinit/wfcrot:      10.09 MB

     Dynamical RAM for           addusdens:     240.13 MB

     Dynamical RAM for          addusforce:     243.31 MB

     Dynamical RAM for         addusstress:     242.23 MB

     Estimated static dynamical RAM per process >     105.75 MB

     Estimated max dynamical RAM per process >     349.07 MB

     Estimated total dynamical RAM >      32.73 GB

     Initial potential from superposition of free atoms

     starting charge  175.83607, renormalised to  176.00000
     Starting wfcs are  208 randomized atomic wfcs

     total cpu time spent up to now is       34.3 secs

     Self-consistent Calculation

     iteration #  1     ecut=    90.00 Ry     beta= 0.60
     Davidson diagonalization with overlap
     ethr =  1.00E-02,  avg # of iterations =  1.0

     Threshold (ethr) on eigenvalues was too large:
     Diagonalizing with lowered threshold

     Davidson diagonalization with overlap
     ethr =  3.44E-04,  avg # of iterations =  4.0

     total cpu time spent up to now is      146.4 secs

     total energy              =   -1576.20802168 Ry
     estimated scf accuracy    <       0.50136818 Ry

     iteration #  2     ecut=    90.00 Ry     beta= 0.60
     Davidson diagonalization with overlap
     ethr =  2.85E-04,  avg # of iterations =  4.0

     total cpu time spent up to now is      215.8 secs

     total energy              =   -1576.35619070 Ry
     estimated scf accuracy    <       0.36415491 Ry

     iteration #  3     ecut=    90.00 Ry     beta= 0.60
     Davidson diagonalization with overlap
     ethr =  2.07E-04,  avg # of iterations =  2.0

     total cpu time spent up to now is      270.3 secs

     total energy              =   -1576.40375689 Ry
     estimated scf accuracy    <       0.02191073 Ry

     iteration #  4     ecut=    90.00 Ry     beta= 0.60
     Davidson diagonalization with overlap
     ethr =  1.24E-05,  avg # of iterations =  7.6

     total cpu time spent up to now is      355.4 secs

     total energy              =   -1576.42538876 Ry
     estimated scf accuracy    <       0.02207808 Ry

     iteration #  5     ecut=    90.00 Ry     beta= 0.60
     Davidson diagonalization with overlap
     ethr =  1.24E-05,  avg # of iterations =  2.0

     total cpu time spent up to now is      409.9 secs

     total energy              =   -1576.42616261 Ry
     estimated scf accuracy    <       0.00325589 Ry

     iteration #  6     ecut=    90.00 Ry     beta= 0.60
     Davidson diagonalization with overlap
     ethr =  1.85E-06,  avg # of iterations =  7.2

     total cpu time spent up to now is      489.8 secs

     total energy              =   -1576.42847606 Ry
     estimated scf accuracy    <       0.00350696 Ry

     iteration #  7     ecut=    90.00 Ry     beta= 0.60
     Davidson diagonalization with overlap
     ethr =  1.85E-06,  avg # of iterations =  2.0

     total cpu time spent up to now is      543.4 secs

     total energy              =   -1576.42824689 Ry
     estimated scf accuracy    <       0.00091462 Ry

     iteration #  8     ecut=    90.00 Ry     beta= 0.60
     Davidson diagonalization with overlap
     ethr =  5.20E-07,  avg # of iterations =  5.5

     total cpu time spent up to now is      618.0 secs

     total energy              =   -1576.42872559 Ry
     estimated scf accuracy    <       0.00027843 Ry

     iteration #  9     ecut=    90.00 Ry     beta= 0.60
     Davidson diagonalization with overlap
     ethr =  1.58E-07,  avg # of iterations =  2.0

     total cpu time spent up to now is      669.7 secs

     total energy              =   -1576.42869143 Ry
     estimated scf accuracy    <       0.00009240 Ry

     iteration # 10     ecut=    90.00 Ry     beta= 0.60
     Davidson diagonalization with overlap
     ethr =  5.25E-08,  avg # of iterations =  5.0

     total cpu time spent up to now is      744.0 secs

     total energy              =   -1576.42873921 Ry
     estimated scf accuracy    <       0.00003497 Ry

     iteration # 11     ecut=    90.00 Ry     beta= 0.60
     Davidson diagonalization with overlap
     ethr =  1.99E-08,  avg # of iterations =  2.0

     total cpu time spent up to now is      793.2 secs

     total energy              =   -1576.42873161 Ry
     estimated scf accuracy    <       0.00001388 Ry

     iteration # 12     ecut=    90.00 Ry     beta= 0.60
     Davidson diagonalization with overlap
     ethr =  7.88E-09,  avg # of iterations =  6.1

     total cpu time spent up to now is      868.6 secs

     total energy              =   -1576.42873827 Ry
     estimated scf accuracy    <       0.00001405 Ry

     iteration # 13     ecut=    90.00 Ry     beta= 0.60
     Davidson diagonalization with overlap
     ethr =  7.88E-09,  avg # of iterations =  2.0

     total cpu time spent up to now is      923.2 secs

     total energy              =   -1576.42873868 Ry
     estimated scf accuracy    <       0.00000265 Ry

     iteration # 14     ecut=    90.00 Ry     beta= 0.60
     Davidson diagonalization with overlap
     ethr =  1.51E-09,  avg # of iterations =  5.4

     total cpu time spent up to now is      995.8 secs

     End of self-consistent calculation

          k = 0.1250 0.0561 0.0333 ( 91859 PWs)   bands (ev):

   -18.4109 -18.4109 -18.4109 -18.4109 -18.4108 -18.4108 -18.4108 -18.4108
   -18.3980 -18.3980 -18.3980 -18.3980 -18.3979 -18.3979 -18.3979 -18.3979
   -17.7494 -17.7494 -17.7492 -17.7492 -17.7486 -17.7486 -17.7484 -17.7484
   -17.3743 -17.3743 -17.3743 -17.3743 -17.3743 -17.3743 -17.3743 -17.3743
   -17.3655 -17.3655 -17.3655 -17.3655 -17.3653 -17.3653 -17.3653 -17.3653
   -17.3572 -17.3572 -17.3572 -17.3572 -17.3570 -17.3570 -17.3570 -17.3570
    -8.7499  -8.7499  -8.7293  -8.7293  -8.5586  -8.5586  -8.5145  -8.5145
    -8.4277  -8.4277  -8.4134  -8.4134  -8.3837  -8.3837  -8.3528  -8.3528
    -8.2591  -8.2591  -8.2469  -8.2469  -8.2241  -8.2241  -8.1940  -8.1940
    -5.7061  -5.7061  -5.7021  -5.7021  -5.6894  -5.6894  -5.6820  -5.6820
    -4.1147  -4.1147  -4.1107  -4.1107  -4.0968  -4.0968  -4.0888  -4.0888
    -4.0816  -4.0816  -4.0768  -4.0768  -4.0622  -4.0622  -4.0588  -4.0588
    -2.9128  -2.9128  -2.8982  -2.8982  -2.8257  -2.8257  -2.7715  -2.7715
     0.0608   0.0608   0.2005   0.2005   0.5125   0.5125   0.5767   0.5767
     0.6122   0.6122   0.7270   0.7270   0.7778   0.7778   0.8203   0.8203
     0.9892   0.9892   1.0341   1.0341   1.0820   1.0820   1.1470   1.1470
     1.2279   1.2279   1.2939   1.2939   1.4742   1.4742   1.5118   1.5118
     1.5617   1.5617   1.6226   1.6226   1.6712   1.6712   1.7906   1.7906
     1.9294   1.9294   1.9820   1.9820   2.0265   2.0265   2.0611   2.0611
     2.0929   2.0929   2.1216   2.1216   2.2660   2.2660   2.2973   2.2973
     2.3457   2.3457   2.3933   2.3933   2.4701   2.4701   2.5231   2.5231
     2.7228   2.7228   2.7690   2.7690   2.9478   2.9478   3.1300   3.1300

     occupation numbers 
     1.0000   1.0000   1.0000   1.0000   1.0000   1.0000   1.0000   1.0000
     1.0000   1.0000   1.0000   1.0000   1.0000   1.0000   1.0000   1.0000
     1.0000   1.0000   1.0000   1.0000   1.0000   1.0000   1.0000   1.0000
     1.0000   1.0000   1.0000   1.0000   1.0000   1.0000   1.0000   1.0000
     1.0000   1.0000   1.0000   1.0000   1.0000   1.0000   1.0000   1.0000
     1.0000   1.0000   1.0000   1.0000   1.0000   1.0000   1.0000   1.0000
     1.0000   1.0000   1.0000   1.0000   1.0000   1.0000   1.0000   1.0000
     1.0000   1.0000   1.0000   1.0000   1.0000   1.0000   1.0000   1.0000
     1.0000   1.0000   1.0000   1.0000   1.0000   1.0000   1.0000   1.0000
     1.0000   1.0000   1.0000   1.0000   1.0000   1.0000   1.0000   1.0000
     1.0000   1.0000   1.0000   1.0000   1.0000   1.0000   1.0000   1.0000
     1.0000   1.0000   1.0000   1.0000   1.0000   1.0000   1.0000   1.0000
     1.0000   1.0000   1.0000   1.0000   1.0000   1.0000   1.0000   1.0000
     1.0000   1.0000   1.0000   1.0000   1.0000   1.0000   1.0000   1.0000
     1.0000   1.0000   1.0000   1.0000   1.0000   1.0000   1.0000   1.0000
     1.0000   1.0000   1.0000   1.0000   1.0000   1.0000   1.0000   1.0000
     1.0000   1.0000   1.0000   1.0000   1.0000   1.0000   1.0000   1.0000
     1.0000   1.0000   1.0000   1.0000   1.0000   1.0000   1.0000   1.0000
     1.0000   1.0000   1.0000   1.0000   1.0000   1.0000   1.0000   1.0000
     1.0000   1.0000   1.0000   1.0000   1.0000   1.0000   1.0000   1.0000
     1.0000   1.0000   1.0000   1.0000   1.0000   1.0000   1.0000   1.0000
     1.0000   1.0000   1.0000   1.0000   1.0000   1.0000   1.0000   1.0000

          k = 0.1250 0.0561 0.0999 ( 91849 PWs)   bands (ev):

   -18.4109 -18.4109 -18.4109 -18.4109 -18.4108 -18.4108 -18.4108 -18.4108
   -18.3980 -18.3980 -18.3980 -18.3980 -18.3979 -18.3979 -18.3979 -18.3979
   -17.7494 -17.7494 -17.7493 -17.7493 -17.7485 -17.7485 -17.7485 -17.7485
   -17.3743 -17.3743 -17.3743 -17.3743 -17.3743 -17.3743 -17.3743 -17.3743
   -17.3655 -17.3655 -17.3655 -17.3655 -17.3653 -17.3653 -17.3653 -17.3653
   -17.3572 -17.3572 -17.3572 -17.3572 -17.3570 -17.3570 -17.3570 -17.3570
    -8.7446  -8.7446  -8.7361  -8.7361  -8.5449  -8.5449  -8.5267  -8.5267
    -8.4262  -8.4262  -8.4209  -8.4209  -8.3717  -8.3717  -8.3597  -8.3597
    -8.2571  -8.2571  -8.2523  -8.2523  -8.2128  -8.2128  -8.2010  -8.2010
    -5.7056  -5.7056  -5.7033  -5.7033  -5.6876  -5.6876  -5.6831  -5.6831
    -4.1144  -4.1144  -4.1124  -4.1124  -4.0965  -4.0965  -4.0873  -4.0873
    -4.0818  -4.0818  -4.0778  -4.0778  -4.0618  -4.0618  -4.0584  -4.0584
    -2.9097  -2.9097  -2.9039  -2.9039  -2.8084  -2.8084  -2.7863  -2.7863
     0.0936   0.0936   0.1577   0.1577   0.5255   0.5255   0.5638   0.5638
     0.6292   0.6292   0.7073   0.7073   0.7925   0.7925   0.8289   0.8289
     0.9982   0.9982   1.0300   1.0300   1.0879   1.0879   1.1189   1.1189
     1.2377   1.2377   1.2754   1.2754   1.4847   1.4847   1.5068   1.5068
     1.5780   1.5780   1.6204   1.6204   1.6959   1.6959   1.7516   1.7516
     1.9353   1.9353   1.9825   1.9825   2.0305   2.0305   2.0491   2.0491
     2.0908   2.0908   2.1242   2.1242   2.2652   2.2652   2.2934   2.2934
     2.3432   2.3432   2.3915   2.3915   2.4971   2.4971   2.5262   2.5262
     2.7314   2.7314   2.7568   2.7568   2.9957   2.9957   3.0735   3.0735

     occupation numbers 
     1.0000   1.0000   1.0000   1.0000   1.0000   1.0000   1.0000   1.0000
     1.0000   1.0000   1.0000   1.0000   1.0000   1.0000   1.0000   1.0000
     1.0000   1.0000   1.0000   1.0000   1.0000   1.0000   1.0000   1.0000
     1.0000   1.0000   1.0000   1.0000   1.0000   1.0000   1.0000   1.0000
     1.0000   1.0000   1.0000   1.0000   1.0000   1.0000   1.0000   1.0000
     1.0000   1.0000   1.0000   1.0000   1.0000   1.0000   1.0000   1.0000
     1.0000   1.0000   1.0000   1.0000   1.0000   1.0000   1.0000   1.0000
     1.0000   1.0000   1.0000   1.0000   1.0000   1.0000   1.0000   1.0000
     1.0000   1.0000   1.0000   1.0000   1.0000   1.0000   1.0000   1.0000
     1.0000   1.0000   1.0000   1.0000   1.0000   1.0000   1.0000   1.0000
     1.0000   1.0000   1.0000   1.0000   1.0000   1.0000   1.0000   1.0000
     1.0000   1.0000   1.0000   1.0000   1.0000   1.0000   1.0000   1.0000
     1.0000   1.0000   1.0000   1.0000   1.0000   1.0000   1.0000   1.0000
     1.0000   1.0000   1.0000   1.0000   1.0000   1.0000   1.0000   1.0000
     1.0000   1.0000   1.0000   1.0000   1.0000   1.0000   1.0000   1.0000
     1.0000   1.0000   1.0000   1.0000   1.0000   1.0000   1.0000   1.0000
     1.0000   1.0000   1.0000   1.0000   1.0000   1.0000   1.0000   1.0000
     1.0000   1.0000   1.0000   1.0000   1.0000   1.0000   1.0000   1.0000
     1.0000   1.0000   1.0000   1.0000   1.0000   1.0000   1.0000   1.0000
     1.0000   1.0000   1.0000   1.0000   1.0000   1.0000   1.0000   1.0000
     1.0000   1.0000   1.0000   1.0000   1.0000   1.0000   1.0000   1.0000
     1.0000   1.0000   1.0000   1.0000   1.0000   1.0000   1.0000   1.0000

          k = 0.1250 0.1683 0.0333 ( 91828 PWs)   bands (ev):

   -18.4109 -18.4109 -18.4109 -18.4109 -18.4108 -18.4108 -18.4108 -18.4108
   -18.3980 -18.3980 -18.3980 -18.3980 -18.3979 -18.3979 -18.3979 -18.3979
   -17.7492 -17.7492 -17.7490 -17.7490 -17.7488 -17.7488 -17.7487 -17.7487
   -17.3743 -17.3743 -17.3743 -17.3743 -17.3743 -17.3743 -17.3743 -17.3743
   -17.3655 -17.3655 -17.3655 -17.3655 -17.3653 -17.3653 -17.3653 -17.3653
   -17.3572 -17.3572 -17.3572 -17.3572 -17.3570 -17.3570 -17.3570 -17.3570
    -8.7296  -8.7296  -8.7194  -8.7194  -8.5707  -8.5707  -8.5612  -8.5612
    -8.4500  -8.4500  -8.4483  -8.4483  -8.3359  -8.3359  -8.3188  -8.3188
    -8.2463  -8.2463  -8.2379  -8.2379  -8.2265  -8.2265  -8.2060  -8.2060
    -5.7027  -5.7027  -5.6981  -5.6981  -5.6939  -5.6939  -5.6878  -5.6878
    -4.1135  -4.1135  -4.1097  -4.1097  -4.0998  -4.0998  -4.0924  -4.0924
    -4.0826  -4.0826  -4.0788  -4.0788  -4.0652  -4.0652  -4.0617  -4.0617
    -2.9133  -2.9133  -2.9059  -2.9059  -2.7962  -2.7962  -2.7747  -2.7747
     0.1041   0.1041   0.1815   0.1815   0.4579   0.4579   0.5163   0.5163
     0.6111   0.6111   0.6951   0.6951   0.8030   0.8030   0.8337   0.8337
     0.9864   0.9864   1.0268   1.0268   1.1078   1.1078   1.1549   1.1549
     1.2882   1.2882   1.3371   1.3371   1.4836   1.4836   1.5329   1.5329
     1.5568   1.5568   1.6284   1.6284   1.7584   1.7584   1.7880   1.7880
     1.9016   1.9016   1.9431   1.9431   2.0055   2.0055   2.0574   2.0574
     2.1014   2.1014   2.1479   2.1479   2.2285   2.2285   2.2901   2.2901
     2.3626   2.3626   2.3979   2.3979   2.4662   2.4662   2.4971   2.4971
     2.6518   2.6518   2.7122   2.7122   3.0102   3.0102   3.0886   3.0886

     occupation numbers 
     1.0000   1.0000   1.0000   1.0000   1.0000   1.0000   1.0000   1.0000
     1.0000   1.0000   1.0000   1.0000   1.0000   1.0000   1.0000   1.0000
     1.0000   1.0000   1.0000   1.0000   1.0000   1.0000   1.0000   1.0000
     1.0000   1.0000   1.0000   1.0000   1.0000   1.0000   1.0000   1.0000
     1.0000   1.0000   1.0000   1.0000   1.0000   1.0000   1.0000   1.0000
     1.0000   1.0000   1.0000   1.0000   1.0000   1.0000   1.0000   1.0000
     1.0000   1.0000   1.0000   1.0000   1.0000   1.0000   1.0000   1.0000
     1.0000   1.0000   1.0000   1.0000   1.0000   1.0000   1.0000   1.0000
     1.0000   1.0000   1.0000   1.0000   1.0000   1.0000   1.0000   1.0000
     1.0000   1.0000   1.0000   1.0000   1.0000   1.0000   1.0000   1.0000
     1.0000   1.0000   1.0000   1.0000   1.0000   1.0000   1.0000   1.0000
     1.0000   1.0000   1.0000   1.0000   1.0000   1.0000   1.0000   1.0000
     1.0000   1.0000   1.0000   1.0000   1.0000   1.0000   1.0000   1.0000
     1.0000   1.0000   1.0000   1.0000   1.0000   1.0000   1.0000   1.0000
     1.0000   1.0000   1.0000   1.0000   1.0000   1.0000   1.0000   1.0000
     1.0000   1.0000   1.0000   1.0000   1.0000   1.0000   1.0000   1.0000
     1.0000   1.0000   1.0000   1.0000   1.0000   1.0000   1.0000   1.0000
     1.0000   1.0000   1.0000   1.0000   1.0000   1.0000   1.0000   1.0000
     1.0000   1.0000   1.0000   1.0000   1.0000   1.0000   1.0000   1.0000
     1.0000   1.0000   1.0000   1.0000   1.0000   1.0000   1.0000   1.0000
     1.0000   1.0000   1.0000   1.0000   1.0000   1.0000   1.0000   1.0000
     1.0000   1.0000   1.0000   1.0000   1.0000   1.0000   1.0000   1.0000

          k = 0.1250 0.1683 0.0999 ( 91831 PWs)   bands (ev):

   -18.4109 -18.4109 -18.4109 -18.4109 -18.4108 -18.4108 -18.4108 -18.4108
   -18.3980 -18.3980 -18.3980 -18.3980 -18.3979 -18.3979 -18.3979 -18.3979
   -17.7491 -17.7491 -17.7491 -17.7491 -17.7488 -17.7488 -17.7487 -17.7487
   -17.3743 -17.3743 -17.3743 -17.3743 -17.3743 -17.3743 -17.3743 -17.3743
   -17.3655 -17.3655 -17.3655 -17.3655 -17.3653 -17.3653 -17.3653 -17.3653
   -17.3572 -17.3572 -17.3572 -17.3572 -17.3570 -17.3570 -17.3570 -17.3570
    -8.7268  -8.7268  -8.7226  -8.7226  -8.5676  -8.5676  -8.5636  -8.5636
    -8.4493  -8.4493  -8.4478  -8.4478  -8.3339  -8.3339  -8.3266  -8.3266
    -8.2420  -8.2420  -8.2353  -8.2353  -8.2227  -8.2227  -8.2124  -8.2124
    -5.7019  -5.7019  -5.7003  -5.7003  -5.6916  -5.6916  -5.6887  -5.6887
    -4.1134  -4.1134  -4.1116  -4.1116  -4.0982  -4.0982  -4.0938  -4.0938
    -4.0820  -4.0820  -4.0788  -4.0788  -4.0641  -4.0641  -4.0617  -4.0617
    -2.9107  -2.9107  -2.9076  -2.9076  -2.7905  -2.7905  -2.7816  -2.7816
     0.1267   0.1267   0.1625   0.1625   0.4668   0.4668   0.4969   0.4969
     0.6443   0.6443   0.6914   0.6914   0.7884   0.7884   0.8155   0.8155
     0.9913   0.9913   1.0105   1.0105   1.1129   1.1129   1.1309   1.1309
     1.3198   1.3198   1.3544   1.3544   1.4913   1.4913   1.5174   1.5174
     1.5752   1.5752   1.6109   1.6109   1.7568   1.7568   1.7795   1.7795
     1.9054   1.9054   1.9460   1.9460   2.0128   2.0128   2.0399   2.0399
     2.1246   2.1246   2.1463   2.1463   2.2422   2.2422   2.2748   2.2748
     2.3623   2.3623   2.3869   2.3869   2.4786   2.4786   2.4933   2.4933
     2.6732   2.6732   2.6996   2.6996   3.0236   3.0236   3.0574   3.0574

     occupation numbers 
     1.0000   1.0000   1.0000   1.0000   1.0000   1.0000   1.0000   1.0000
     1.0000   1.0000   1.0000   1.0000   1.0000   1.0000   1.0000   1.0000
     1.0000   1.0000   1.0000   1.0000   1.0000   1.0000   1.0000   1.0000
     1.0000   1.0000   1.0000   1.0000   1.0000   1.0000   1.0000   1.0000
     1.0000   1.0000   1.0000   1.0000   1.0000   1.0000   1.0000   1.0000
     1.0000   1.0000   1.0000   1.0000   1.0000   1.0000   1.0000   1.0000
     1.0000   1.0000   1.0000   1.0000   1.0000   1.0000   1.0000   1.0000
     1.0000   1.0000   1.0000   1.0000   1.0000   1.0000   1.0000   1.0000
     1.0000   1.0000   1.0000   1.0000   1.0000   1.0000   1.0000   1.0000
     1.0000   1.0000   1.0000   1.0000   1.0000   1.0000   1.0000   1.0000
     1.0000   1.0000   1.0000   1.0000   1.0000   1.0000   1.0000   1.0000
     1.0000   1.0000   1.0000   1.0000   1.0000   1.0000   1.0000   1.0000
     1.0000   1.0000   1.0000   1.0000   1.0000   1.0000   1.0000   1.0000
     1.0000   1.0000   1.0000   1.0000   1.0000   1.0000   1.0000   1.0000
     1.0000   1.0000   1.0000   1.0000   1.0000   1.0000   1.0000   1.0000
     1.0000   1.0000   1.0000   1.0000   1.0000   1.0000   1.0000   1.0000
     1.0000   1.0000   1.0000   1.0000   1.0000   1.0000   1.0000   1.0000
     1.0000   1.0000   1.0000   1.0000   1.0000   1.0000   1.0000   1.0000
     1.0000   1.0000   1.0000   1.0000   1.0000   1.0000   1.0000   1.0000
     1.0000   1.0000   1.0000   1.0000   1.0000   1.0000   1.0000   1.0000
     1.0000   1.0000   1.0000   1.0000   1.0000   1.0000   1.0000   1.0000
     1.0000   1.0000   1.0000   1.0000   1.0000   1.0000   1.0000   1.0000

          k = 0.3750 0.0561 0.0333 ( 91872 PWs)   bands (ev):

   -18.4113 -18.4113 -18.4113 -18.4113 -18.4112 -18.4112 -18.4112 -18.4112
   -18.3975 -18.3975 -18.3975 -18.3975 -18.3974 -18.3974 -18.3974 -18.3974
   -17.7412 -17.7412 -17.7411 -17.7411 -17.7406 -17.7406 -17.7405 -17.7405
   -17.3749 -17.3749 -17.3749 -17.3749 -17.3749 -17.3749 -17.3749 -17.3749
   -17.3656 -17.3656 -17.3656 -17.3656 -17.3654 -17.3654 -17.3654 -17.3654
   -17.3564 -17.3564 -17.3564 -17.3564 -17.3563 -17.3563 -17.3563 -17.3563
    -8.5553  -8.5553  -8.5460  -8.5460  -8.4526  -8.4526  -8.4409  -8.4409
    -8.3320  -8.3320  -8.3221  -8.3221  -8.3030  -8.3030  -8.2909  -8.2909
    -8.2646  -8.2646  -8.2592  -8.2592  -8.2470  -8.2470  -8.2377  -8.2377
    -5.7486  -5.7486  -5.7447  -5.7447  -5.7266  -5.7266  -5.7230  -5.7230
    -4.2183  -4.2183  -4.2131  -4.2131  -4.1742  -4.1742  -4.1679  -4.1679
    -4.1000  -4.1000  -4.0991  -4.0991  -4.0779  -4.0779  -4.0754  -4.0754
    -3.1540  -3.1540  -3.1289  -3.1289  -3.0795  -3.0795  -3.0601  -3.0601
     0.0121   0.0121   0.0480   0.0480   0.0806   0.0806   0.1092   0.1092
     0.4137   0.4137   0.4770   0.4770   0.5469   0.5469   0.6103   0.6103
     0.6587   0.6587   0.6932   0.6932   0.8173   0.8173   0.8757   0.8757
     1.1536   1.1536   1.1860   1.1860   1.3841   1.3841   1.4350   1.4350
     1.5162   1.5162   1.5943   1.5943   1.6645   1.6645   1.6906   1.6906
     1.7978   1.7978   1.8312   1.8312   1.8909   1.8909   1.9154   1.9154
     1.9521   1.9521   2.0301   2.0301   2.0732   2.0732   2.1476   2.1476
     2.1864   2.1864   2.2095   2.2095   2.3383   2.3383   2.4356   2.4356
     2.6630   2.6630   2.9000   2.9000   2.9592   2.9592   3.1159   3.1159

     occupation numbers 
     1.0000   1.0000   1.0000   1.0000   1.0000   1.0000   1.0000   1.0000
     1.0000   1.0000   1.0000   1.0000   1.0000   1.0000   1.0000   1.0000
     1.0000   1.0000   1.0000   1.0000   1.0000   1.0000   1.0000   1.0000
     1.0000   1.0000   1.0000   1.0000   1.0000   1.0000   1.0000   1.0000
     1.0000   1.0000   1.0000   1.0000   1.0000   1.0000   1.0000   1.0000
     1.0000   1.0000   1.0000   1.0000   1.0000   1.0000   1.0000   1.0000
     1.0000   1.0000   1.0000   1.0000   1.0000   1.0000   1.0000   1.0000
     1.0000   1.0000   1.0000   1.0000   1.0000   1.0000   1.0000   1.0000
     1.0000   1.0000   1.0000   1.0000   1.0000   1.0000   1.0000   1.0000
     1.0000   1.0000   1.0000   1.0000   1.0000   1.0000   1.0000   1.0000
     1.0000   1.0000   1.0000   1.0000   1.0000   1.0000   1.0000   1.0000
     1.0000   1.0000   1.0000   1.0000   1.0000   1.0000   1.0000   1.0000
     1.0000   1.0000   1.0000   1.0000   1.0000   1.0000   1.0000   1.0000
     1.0000   1.0000   1.0000   1.0000   1.0000   1.0000   1.0000   1.0000
     1.0000   1.0000   1.0000   1.0000   1.0000   1.0000   1.0000   1.0000
     1.0000   1.0000   1.0000   1.0000   1.0000   1.0000   1.0000   1.0000
     1.0000   1.0000   1.0000   1.0000   1.0000   1.0000   1.0000   1.0000
     1.0000   1.0000   1.0000   1.0000   1.0000   1.0000   1.0000   1.0000
     1.0000   1.0000   1.0000   1.0000   1.0000   1.0000   1.0000   1.0000
     1.0000   1.0000   1.0000   1.0000   1.0000   1.0000   1.0000   1.0000
     1.0000   1.0000   1.0000   1.0000   1.0000   1.0000   1.0000   1.0000
     1.0000   1.0000   1.0000   1.0000   1.0000   1.0000   1.0000   1.0000

          k = 0.3750 0.0561 0.0999 ( 91898 PWs)   bands (ev):

   -18.4113 -18.4113 -18.4113 -18.4113 -18.4112 -18.4112 -18.4112 -18.4112
   -18.3975 -18.3975 -18.3975 -18.3975 -18.3974 -18.3974 -18.3974 -18.3974
   -17.7412 -17.7412 -17.7411 -17.7411 -17.7406 -17.7406 -17.7405 -17.7405
   -17.3749 -17.3749 -17.3749 -17.3749 -17.3749 -17.3749 -17.3749 -17.3749
   -17.3656 -17.3656 -17.3656 -17.3656 -17.3654 -17.3654 -17.3654 -17.3654
   -17.3564 -17.3564 -17.3564 -17.3564 -17.3563 -17.3563 -17.3563 -17.3563
    -8.5528  -8.5528  -8.5490  -8.5490  -8.4489  -8.4489  -8.4441  -8.4441
    -8.3295  -8.3295  -8.3255  -8.3255  -8.2994  -8.2994  -8.2945  -8.2945
    -8.2631  -8.2631  -8.2608  -8.2608  -8.2438  -8.2438  -8.2400  -8.2400
    -5.7485  -5.7485  -5.7449  -5.7449  -5.7260  -5.7260  -5.7235  -5.7235
    -4.2182  -4.2182  -4.2133  -4.2133  -4.1736  -4.1736  -4.1685  -4.1685
    -4.0999  -4.0999  -4.0991  -4.0991  -4.0772  -4.0772  -4.0761  -4.0761
    -3.1471  -3.1471  -3.1368  -3.1368  -3.0734  -3.0734  -3.0654  -3.0654
     0.0222   0.0222   0.0383   0.0383   0.0845   0.0845   0.1040   0.1040
     0.4328   0.4328   0.4675   0.4675   0.5733   0.5733   0.6061   0.6061
     0.6585   0.6585   0.6779   0.6779   0.8086   0.8086   0.8486   0.8486
     1.1560   1.1560   1.1916   1.1916   1.3791   1.3791   1.4237   1.4237
     1.5138   1.5138   1.6127   1.6127   1.6936   1.6936   1.7177   1.7177
     1.7604   1.7604   1.8342   1.8342   1.8839   1.8839   1.9097   1.9097
     1.9698   1.9698   2.0092   2.0092   2.0814   2.0814   2.1432   2.1432
     2.1820   2.1820   2.2059   2.2059   2.3721   2.3721   2.4140   2.4140
     2.7221   2.7221   2.8180   2.8180   3.0106   3.0106   3.0822   3.0822

     occupation numbers 
     1.0000   1.0000   1.0000   1.0000   1.0000   1.0000   1.0000   1.0000
     1.0000   1.0000   1.0000   1.0000   1.0000   1.0000   1.0000   1.0000
     1.0000   1.0000   1.0000   1.0000   1.0000   1.0000   1.0000   1.0000
     1.0000   1.0000   1.0000   1.0000   1.0000   1.0000   1.0000   1.0000
     1.0000   1.0000   1.0000   1.0000   1.0000   1.0000   1.0000   1.0000
     1.0000   1.0000   1.0000   1.0000   1.0000   1.0000   1.0000   1.0000
     1.0000   1.0000   1.0000   1.0000   1.0000   1.0000   1.0000   1.0000
     1.0000   1.0000   1.0000   1.0000   1.0000   1.0000   1.0000   1.0000
     1.0000   1.0000   1.0000   1.0000   1.0000   1.0000   1.0000   1.0000
     1.0000   1.0000   1.0000   1.0000   1.0000   1.0000   1.0000   1.0000
     1.0000   1.0000   1.0000   1.0000   1.0000   1.0000   1.0000   1.0000
     1.0000   1.0000   1.0000   1.0000   1.0000   1.0000   1.0000   1.0000
     1.0000   1.0000   1.0000   1.0000   1.0000   1.0000   1.0000   1.0000
     1.0000   1.0000   1.0000   1.0000   1.0000   1.0000   1.0000   1.0000
     1.0000   1.0000   1.0000   1.0000   1.0000   1.0000   1.0000   1.0000
     1.0000   1.0000   1.0000   1.0000   1.0000   1.0000   1.0000   1.0000
     1.0000   1.0000   1.0000   1.0000   1.0000   1.0000   1.0000   1.0000
     1.0000   1.0000   1.0000   1.0000   1.0000   1.0000   1.0000   1.0000
     1.0000   1.0000   1.0000   1.0000   1.0000   1.0000   1.0000   1.0000
     1.0000   1.0000   1.0000   1.0000   1.0000   1.0000   1.0000   1.0000
     1.0000   1.0000   1.0000   1.0000   1.0000   1.0000   1.0000   1.0000
     1.0000   1.0000   1.0000   1.0000   1.0000   1.0000   1.0000   1.0000

          k = 0.3750 0.1683 0.0333 ( 91855 PWs)   bands (ev):

   -18.4113 -18.4113 -18.4113 -18.4113 -18.4112 -18.4112 -18.4112 -18.4112
   -18.3975 -18.3975 -18.3975 -18.3975 -18.3974 -18.3974 -18.3974 -18.3974
   -17.7410 -17.7410 -17.7409 -17.7409 -17.7408 -17.7408 -17.7407 -17.7407
   -17.3749 -17.3749 -17.3749 -17.3749 -17.3749 -17.3749 -17.3749 -17.3749
   -17.3656 -17.3656 -17.3656 -17.3656 -17.3654 -17.3654 -17.3654 -17.3654
   -17.3564 -17.3564 -17.3564 -17.3564 -17.3563 -17.3563 -17.3563 -17.3563
    -8.5451  -8.5451  -8.5408  -8.5408  -8.4585  -8.4585  -8.4545  -8.4545
    -8.3474  -8.3474  -8.3433  -8.3433  -8.2815  -8.2815  -8.2774  -8.2774
    -8.2565  -8.2565  -8.2529  -8.2529  -8.2498  -8.2498  -8.2431  -8.2431
    -5.7426  -5.7426  -5.7395  -5.7395  -5.7322  -5.7322  -5.7291  -5.7291
    -4.2065  -4.2065  -4.2013  -4.2013  -4.1872  -4.1872  -4.1816  -4.1816
    -4.0943  -4.0943  -4.0927  -4.0927  -4.0839  -4.0839  -4.0817  -4.0817
    -3.1330  -3.1330  -3.1221  -3.1221  -3.0857  -3.0857  -3.0780  -3.0780
     0.0331   0.0331   0.0629   0.0629   0.1445   0.1445   0.1603   0.1603
     0.3895   0.3895   0.4226   0.4226   0.5313   0.5313   0.5609   0.5609
     0.5915   0.5915   0.6611   0.6611   0.8414   0.8414   0.8866   0.8866
     1.1746   1.1746   1.1878   1.1878   1.3433   1.3433   1.4176   1.4176
     1.5337   1.5337   1.5657   1.5657   1.6928   1.6928   1.7345   1.7345
     1.7830   1.7830   1.7962   1.7962   1.8330   1.8330   1.8876   1.8876
     1.9703   1.9703   1.9973   1.9973   2.0578   2.0578   2.1497   2.1497
     2.2418   2.2418   2.2848   2.2848   2.3432   2.3432   2.3673   2.3673
     2.8041   2.8041   2.9754   2.9754   3.0090   3.0090   3.0576   3.0576

     occupation numbers 
     1.0000   1.0000   1.0000   1.0000   1.0000   1.0000   1.0000   1.0000
     1.0000   1.0000   1.0000   1.0000   1.0000   1.0000   1.0000   1.0000
     1.0000   1.0000   1.0000   1.0000   1.0000   1.0000   1.0000   1.0000
     1.0000   1.0000   1.0000   1.0000   1.0000   1.0000   1.0000   1.0000
     1.0000   1.0000   1.0000   1.0000   1.0000   1.0000   1.0000   1.0000
     1.0000   1.0000   1.0000   1.0000   1.0000   1.0000   1.0000   1.0000
     1.0000   1.0000   1.0000   1.0000   1.0000   1.0000   1.0000   1.0000
     1.0000   1.0000   1.0000   1.0000   1.0000   1.0000   1.0000   1.0000
     1.0000   1.0000   1.0000   1.0000   1.0000   1.0000   1.0000   1.0000
     1.0000   1.0000   1.0000   1.0000   1.0000   1.0000   1.0000   1.0000
     1.0000   1.0000   1.0000   1.0000   1.0000   1.0000   1.0000   1.0000
     1.0000   1.0000   1.0000   1.0000   1.0000   1.0000   1.0000   1.0000
     1.0000   1.0000   1.0000   1.0000   1.0000   1.0000   1.0000   1.0000
     1.0000   1.0000   1.0000   1.0000   1.0000   1.0000   1.0000   1.0000
     1.0000   1.0000   1.0000   1.0000   1.0000   1.0000   1.0000   1.0000
     1.0000   1.0000   1.0000   1.0000   1.0000   1.0000   1.0000   1.0000
     1.0000   1.0000   1.0000   1.0000   1.0000   1.0000   1.0000   1.0000
     1.0000   1.0000   1.0000   1.0000   1.0000   1.0000   1.0000   1.0000
     1.0000   1.0000   1.0000   1.0000   1.0000   1.0000   1.0000   1.0000
     1.0000   1.0000   1.0000   1.0000   1.0000   1.0000   1.0000   1.0000
     1.0000   1.0000   1.0000   1.0000   1.0000   1.0000   1.0000   1.0000
     1.0000   1.0000   1.0000   1.0000   1.0000   1.0000   1.0000   1.0000

          k = 0.3750 0.1683 0.0999 ( 91882 PWs)   bands (ev):

   -18.4113 -18.4113 -18.4113 -18.4113 -18.4112 -18.4112 -18.4112 -18.4112
   -18.3975 -18.3975 -18.3975 -18.3975 -18.3974 -18.3974 -18.3974 -18.3974
   -17.7410 -17.7410 -17.7410 -17.7410 -17.7407 -17.7407 -17.7407 -17.7407
   -17.3749 -17.3749 -17.3749 -17.3749 -17.3749 -17.3749 -17.3749 -17.3749
   -17.3656 -17.3656 -17.3656 -17.3656 -17.3654 -17.3654 -17.3654 -17.3654
   -17.3564 -17.3564 -17.3564 -17.3564 -17.3563 -17.3563 -17.3563 -17.3563
    -8.5439  -8.5439  -8.5421  -8.5421  -8.4573  -8.4573  -8.4556  -8.4556
    -8.3462  -8.3462  -8.3445  -8.3445  -8.2805  -8.2805  -8.2788  -8.2788
    -8.2556  -8.2556  -8.2541  -8.2541  -8.2475  -8.2475  -8.2448  -8.2448
    -5.7423  -5.7423  -5.7400  -5.7400  -5.7312  -5.7312  -5.7299  -5.7299
    -4.2056  -4.2056  -4.2023  -4.2023  -4.1857  -4.1857  -4.1832  -4.1832
    -4.0935  -4.0935  -4.0928  -4.0928  -4.0837  -4.0837  -4.0824  -4.0824
    -3.1299  -3.1299  -3.1254  -3.1254  -3.0833  -3.0833  -3.0801  -3.0801
     0.0414   0.0414   0.0548   0.0548   0.1428   0.1428   0.1582   0.1582
     0.3933   0.3933   0.4108   0.4108   0.5387   0.5387   0.5653   0.5653
     0.6179   0.6179   0.6580   0.6580   0.8405   0.8405   0.8645   0.8645
     1.1655   1.1655   1.1741   1.1741   1.3651   1.3651   1.4041   1.4041
     1.5343   1.5343   1.5791   1.5791   1.7106   1.7106   1.7388   1.7388
     1.7721   1.7721   1.7887   1.7887   1.8400   1.8400   1.8630   1.8630
     1.9694   1.9694   2.0022   2.0022   2.0837   2.0837   2.1239   2.1239
     2.2573   2.2573   2.2797   2.2797   2.3390   2.3390   2.3666   2.3666
     2.8531   2.8531   2.9239   2.9239   3.0218   3.0218   3.0521   3.0521

     occupation numbers 
     1.0000   1.0000   1.0000   1.0000   1.0000   1.0000   1.0000   1.0000
     1.0000   1.0000   1.0000   1.0000   1.0000   1.0000   1.0000   1.0000
     1.0000   1.0000   1.0000   1.0000   1.0000   1.0000   1.0000   1.0000
     1.0000   1.0000   1.0000   1.0000   1.0000   1.0000   1.0000   1.0000
     1.0000   1.0000   1.0000   1.0000   1.0000   1.0000   1.0000   1.0000
     1.0000   1.0000   1.0000   1.0000   1.0000   1.0000   1.0000   1.0000
     1.0000   1.0000   1.0000   1.0000   1.0000   1.0000   1.0000   1.0000
     1.0000   1.0000   1.0000   1.0000   1.0000   1.0000   1.0000   1.0000
     1.0000   1.0000   1.0000   1.0000   1.0000   1.0000   1.0000   1.0000
     1.0000   1.0000   1.0000   1.0000   1.0000   1.0000   1.0000   1.0000
     1.0000   1.0000   1.0000   1.0000   1.0000   1.0000   1.0000   1.0000
     1.0000   1.0000   1.0000   1.0000   1.0000   1.0000   1.0000   1.0000
     1.0000   1.0000   1.0000   1.0000   1.0000   1.0000   1.0000   1.0000
     1.0000   1.0000   1.0000   1.0000   1.0000   1.0000   1.0000   1.0000
     1.0000   1.0000   1.0000   1.0000   1.0000   1.0000   1.0000   1.0000
     1.0000   1.0000   1.0000   1.0000   1.0000   1.0000   1.0000   1.0000
     1.0000   1.0000   1.0000   1.0000   1.0000   1.0000   1.0000   1.0000
     1.0000   1.0000   1.0000   1.0000   1.0000   1.0000   1.0000   1.0000
     1.0000   1.0000   1.0000   1.0000   1.0000   1.0000   1.0000   1.0000
     1.0000   1.0000   1.0000   1.0000   1.0000   1.0000   1.0000   1.0000
     1.0000   1.0000   1.0000   1.0000   1.0000   1.0000   1.0000   1.0000
     1.0000   1.0000   1.0000   1.0000   1.0000   1.0000   1.0000   1.0000

     highest occupied level (ev):     3.1300

!    total energy              =   -1576.42873991 Ry
     estimated scf accuracy    <       0.00000006 Ry

     The total energy is the sum of the following terms:
     one-electron contribution =    -482.62741975 Ry
     hartree contribution      =     316.59948518 Ry
     xc contribution           =    -776.83120096 Ry
     ewald contribution        =    -633.56960439 Ry

     convergence has been achieved in  14 iterations

     Forces acting on atoms (cartesian axes, Ry/au):

     atom    1 type  3   force =     0.00000000   -0.00059646    0.00035003
     atom    2 type  3   force =     0.00000000    0.00059646   -0.00035003
     atom    3 type  3   force =     0.00000000   -0.00059646   -0.00035003
     atom    4 type  3   force =     0.00000000    0.00059646    0.00035003
     atom    5 type  1   force =     0.00000000   -0.00053906    0.00044213
     atom    6 type  1   force =     0.00000000    0.00053906   -0.00044213
     atom    7 type  1   force =     0.00000000   -0.00053906   -0.00044213
     atom    8 type  1   force =     0.00000000    0.00053906    0.00044213
     atom    9 type  2   force =     0.00000000    0.00012722    0.00004203
     atom   10 type  2   force =     0.00000000   -0.00012722   -0.00004203
     atom   11 type  2   force =     0.00000000    0.00012722   -0.00004203
     atom   12 type  2   force =     0.00000000   -0.00012722    0.00004203
     atom   13 type  2   force =     0.00000000    0.00004255   -0.00078511
     atom   14 type  2   force =     0.00000000   -0.00004255    0.00078511
     atom   15 type  2   force =     0.00000000    0.00004255    0.00078511
     atom   16 type  2   force =     0.00000000   -0.00004255   -0.00078511
     atom   17 type  2   force =     0.00000000   -0.00062029    0.00041032
     atom   18 type  2   force =     0.00000000    0.00062029   -0.00041032
     atom   19 type  2   force =     0.00000000   -0.00062029   -0.00041032
     atom   20 type  2   force =     0.00000000    0.00062029    0.00041032
     The non-local contrib.  to forces
     atom    1 type  3   force =     0.00000000    0.00255278   -0.00235722
     atom    2 type  3   force =     0.00000000   -0.00255278    0.00235722
     atom    3 type  3   force =     0.00000000    0.00255278    0.00235722
     atom    4 type  3   force =     0.00000000   -0.00255278   -0.00235722
     atom    5 type  1   force =     0.00000000   -0.08746671   -0.13265457
     atom    6 type  1   force =     0.00000000    0.08746671    0.13265457
     atom    7 type  1   force =     0.00000000   -0.08746671    0.13265457
     atom    8 type  1   force =     0.00000000    0.08746671   -0.13265457
     atom    9 type  2   force =     0.00000000   -0.03592413   -0.03261361
     atom   10 type  2   force =     0.00000000    0.03592413    0.03261361
     atom   11 type  2   force =     0.00000000   -0.03592413    0.03261361
     atom   12 type  2   force =     0.00000000    0.03592413   -0.03261361
     atom   13 type  2   force =     0.00000000   -0.02716435    0.04549361
     atom   14 type  2   force =     0.00000000    0.02716435   -0.04549361
     atom   15 type  2   force =     0.00000000   -0.02716435   -0.04549361
     atom   16 type  2   force =     0.00000000    0.02716435    0.04549361
     atom   17 type  2   force =     0.00000000    0.03566752   -0.01109634
     atom   18 type  2   force =     0.00000000   -0.03566752    0.01109634
     atom   19 type  2   force =     0.00000000    0.03566752    0.01109634
     atom   20 type  2   force =     0.00000000   -0.03566752   -0.01109634
     The ionic contribution  to forces
     atom    1 type  3   force =    -0.00000000    0.02273773    0.42856976
     atom    2 type  3   force =    -0.00000000   -0.02273773   -0.42856976
     atom    3 type  3   force =    -0.00000000    0.02273773   -0.42856976
     atom    4 type  3   force =    -0.00000000   -0.02273773    0.42856976
     atom    5 type  1   force =     0.00000000   -2.44382135   -1.60292983
     atom    6 type  1   force =     0.00000000    2.44382135    1.60292983
     atom    7 type  1   force =    -0.00000000   -2.44382135    1.60292983
     atom    8 type  1   force =     0.00000000    2.44382135   -1.60292983
     atom    9 type  2   force =     0.00000000    3.00608891    5.13288893
     atom   10 type  2   force =     0.00000000   -3.00608891   -5.13288893
     atom   11 type  2   force =    -0.00000000    3.00608891   -5.13288893
     atom   12 type  2   force =    -0.00000000   -3.00608891    5.13288893
     atom   13 type  2   force =     0.00000000    2.02422849   -3.75281499
     atom   14 type  2   force =     0.00000000   -2.02422849    3.75281499
     atom   15 type  2   force =    -0.00000000    2.02422849    3.75281499
     atom   16 type  2   force =     0.00000000   -2.02422849   -3.75281499
     atom   17 type  2   force =     0.00000000   -4.20564473    2.10270404
     atom   18 type  2   force =     0.00000000    4.20564473   -2.10270404
     atom   19 type  2   force =     0.00000000   -4.20564473   -2.10270404
     atom   20 type  2   force =     0.00000000    4.20564473    2.10270404
     The local contribution  to forces
     atom    1 type  3   force =    -0.00000000   -0.02567612   -0.42596219
     atom    2 type  3   force =    -0.00000000    0.02567612    0.42596219
     atom    3 type  3   force =    -0.00000000   -0.02567612    0.42596219
     atom    4 type  3   force =     0.00000000    0.02567612   -0.42596219
     atom    5 type  1   force =    -0.00000000    2.53086378    1.73589641
     atom    6 type  1   force =    -0.00000000   -2.53086378   -1.73589641
     atom    7 type  1   force =    -0.00000000    2.53086378   -1.73589641
     atom    8 type  1   force =    -0.00000000   -2.53086378    1.73589641
     atom    9 type  2   force =     0.00000000   -2.97691618   -5.10738340
     atom   10 type  2   force =     0.00000000    2.97691618    5.10738340
     atom   11 type  2   force =     0.00000000   -2.97691618    5.10738340
     atom   12 type  2   force =    -0.00000000    2.97691618   -5.10738340
     atom   13 type  2   force =    -0.00000000   -2.00160144    3.71435147
     atom   14 type  2   force =     0.00000000    2.00160144   -3.71435147
     atom   15 type  2   force =    -0.00000000   -2.00160144   -3.71435147
     atom   16 type  2   force =     0.00000000    2.00160144    3.71435147
     atom   17 type  2   force =     0.00000000    4.17787722   -2.09386844
     atom   18 type  2   force =    -0.00000000   -4.17787722    2.09386844
     atom   19 type  2   force =     0.00000000    4.17787722    2.09386844
     atom   20 type  2   force =    -0.00000000   -4.17787722   -2.09386844
     The core correction contribution to forces
     atom    1 type  3   force =     0.00000000   -0.00017913    0.00017631
     atom    2 type  3   force =    -0.00000000    0.00017913   -0.00017631
     atom    3 type  3   force =     0.00000000   -0.00017913   -0.00017631
     atom    4 type  3   force =    -0.00000000    0.00017913    0.00017631
     atom    5 type  1   force =     0.00000000    0.00023410    0.00020258
     atom    6 type  1   force =    -0.00000000   -0.00023410   -0.00020258
     atom    7 type  1   force =     0.00000000    0.00023410   -0.00020258
     atom    8 type  1   force =    -0.00000000   -0.00023410    0.00020258
     atom    9 type  2   force =     0.00000000    0.00683821    0.00706249
     atom   10 type  2   force =    -0.00000000   -0.00683821   -0.00706249
     atom   11 type  2   force =    -0.00000000    0.00683821   -0.00706249
     atom   12 type  2   force =     0.00000000   -0.00683821    0.00706249
     atom   13 type  2   force =    -0.00000000    0.00453214   -0.00780516
     atom   14 type  2   force =     0.00000000   -0.00453214    0.00780516
     atom   15 type  2   force =    -0.00000000    0.00453214    0.00780516
     atom   16 type  2   force =     0.00000000   -0.00453214   -0.00780516
     atom   17 type  2   force =    -0.00000000   -0.00835050    0.00264774
     atom   18 type  2   force =     0.00000000    0.00835050   -0.00264774
     atom   19 type  2   force =    -0.00000000   -0.00835050   -0.00264774
     atom   20 type  2   force =     0.00000000    0.00835050    0.00264774
     The Hubbard contrib.    to forces
     atom    1 type  3   force =     0.00000000    0.00000000    0.00000000
     atom    2 type  3   force =     0.00000000    0.00000000    0.00000000
     atom    3 type  3   force =     0.00000000    0.00000000    0.00000000
     atom    4 type  3   force =     0.00000000    0.00000000    0.00000000
     atom    5 type  1   force =     0.00000000    0.00000000    0.00000000
     atom    6 type  1   force =     0.00000000    0.00000000    0.00000000
     atom    7 type  1   force =     0.00000000    0.00000000    0.00000000
     atom    8 type  1   force =     0.00000000    0.00000000    0.00000000
     atom    9 type  2   force =     0.00000000    0.00000000    0.00000000
     atom   10 type  2   force =     0.00000000    0.00000000    0.00000000
     atom   11 type  2   force =     0.00000000    0.00000000    0.00000000
     atom   12 type  2   force =     0.00000000    0.00000000    0.00000000
     atom   13 type  2   force =     0.00000000    0.00000000    0.00000000
     atom   14 type  2   force =     0.00000000    0.00000000    0.00000000
     atom   15 type  2   force =     0.00000000    0.00000000    0.00000000
     atom   16 type  2   force =     0.00000000    0.00000000    0.00000000
     atom   17 type  2   force =     0.00000000    0.00000000    0.00000000
     atom   18 type  2   force =     0.00000000    0.00000000    0.00000000
     atom   19 type  2   force =     0.00000000    0.00000000    0.00000000
     atom   20 type  2   force =     0.00000000    0.00000000    0.00000000
     The SCF correction term to forces
     atom    1 type  3   force =    -0.00000000   -0.00003172   -0.00007664
     atom    2 type  3   force =    -0.00000000    0.00003172    0.00007664
     atom    3 type  3   force =     0.00000000   -0.00003172    0.00007664
     atom    4 type  3   force =    -0.00000000    0.00003172   -0.00007664
     atom    5 type  1   force =    -0.00000000   -0.00034888   -0.00007247
     atom    6 type  1   force =     0.00000000    0.00034888    0.00007247
     atom    7 type  1   force =     0.00000000   -0.00034888    0.00007247
     atom    8 type  1   force =    -0.00000000    0.00034888   -0.00007247
     atom    9 type  2   force =    -0.00000000    0.00004041    0.00008761
     atom   10 type  2   force =    -0.00000000   -0.00004041   -0.00008761
     atom   11 type  2   force =    -0.00000000    0.00004041   -0.00008761
     atom   12 type  2   force =     0.00000000   -0.00004041    0.00008761
     atom   13 type  2   force =    -0.00000000    0.00004771   -0.00001004
     atom   14 type  2   force =    -0.00000000   -0.00004771    0.00001004
     atom   15 type  2   force =     0.00000000    0.00004771    0.00001004
     atom   16 type  2   force =    -0.00000000   -0.00004771   -0.00001004
     atom   17 type  2   force =     0.00000000   -0.00016980    0.00002332
     atom   18 type  2   force =    -0.00000000    0.00016980   -0.00002332
     atom   19 type  2   force =     0.00000000   -0.00016980   -0.00002332
     atom   20 type  2   force =    -0.00000000    0.00016980    0.00002332

     Total force =     0.002935     Total SCF correction =     0.000836
     SCF correction compared to forces is large: reduce conv_thr to get better values


     Computing stress (Cartesian axis) and pressure

          total   stress  (Ry/bohr**3)                   (kbar)     P=       -0.09
  -0.00000134   0.00000000   0.00000000           -0.20        0.00        0.00
   0.00000000  -0.00000031   0.00000000            0.00       -0.05        0.00
   0.00000000   0.00000000  -0.00000027            0.00        0.00       -0.04

     kinetic stress (kbar)   5474.02      0.00      0.00
                                0.00   5485.36      0.00
                                0.00      0.00   5479.68

     local   stress (kbar)  -2544.35      0.00     -0.00
                                0.00     91.29      0.00
                               -0.00      0.00    984.80

     nonloc. stress (kbar)   -735.31      0.00      0.00
                                0.00   -739.24      0.00
                                0.00      0.00   -736.49

     hartree stress (kbar)   3403.48     -0.00      0.00
                               -0.00   2188.70     -0.00
                                0.00     -0.00   1718.57

     exc-cor stress (kbar)  12439.85      0.00      0.00
                                0.00  12439.53      0.00
                                0.00      0.00  12439.94

     corecor stress (kbar) -14253.09     -0.00     -0.00
                               -0.00 -14253.53     -0.00
                               -0.00     -0.00 -14253.44

     ewald   stress (kbar)  -3784.80     -0.00     -0.00
                               -0.00  -5212.16      0.00
                               -0.00      0.00  -5633.09

     hubbard stress (kbar)      0.00      0.00      0.00
                                0.00      0.00      0.00
                                0.00      0.00      0.00

     DFT-D   stress (kbar)      0.00      0.00      0.00
                                0.00      0.00      0.00
                                0.00      0.00      0.00

     XDM     stress (kbar)      0.00      0.00      0.00
                                0.00      0.00      0.00
                                0.00      0.00      0.00

     dft-nl  stress (kbar)      0.00      0.00      0.00
                                0.00      0.00      0.00
                                0.00      0.00      0.00

     TS-vdW  stress (kbar)      0.00      0.00      0.00
                                0.00      0.00      0.00
                                0.00      0.00      0.00



     Writing output data file ./out/CsSnI3.save/
 
     init_run     :     22.20s CPU     23.97s WALL (       1 calls)
     electrons    :    935.22s CPU    961.71s WALL (       1 calls)
     forces       :     90.26s CPU     90.61s WALL (       1 calls)
     stress       :    151.39s CPU    152.02s WALL (       1 calls)

     Called by init_run:
     wfcinit      :     17.53s CPU     18.89s WALL (       1 calls)
     wfcinit:atom :      0.15s CPU      0.15s WALL (       8 calls)
     wfcinit:wfcr :     16.99s CPU     18.30s WALL (       8 calls)
     potinit      :      0.23s CPU      0.25s WALL (       1 calls)
     hinit0       :      1.32s CPU      1.45s WALL (       1 calls)

     Called by electrons:
     c_bands      :    753.44s CPU    767.17s WALL (      15 calls)
     sum_band     :    145.23s CPU    154.59s WALL (      15 calls)
     v_of_rho     :      0.80s CPU      0.81s WALL (      15 calls)
     v_h          :      0.08s CPU      0.08s WALL (      15 calls)
     v_xc         :      0.81s CPU      0.83s WALL (      17 calls)
     newd         :     36.62s CPU     39.98s WALL (      15 calls)
     mix_rho      :      0.92s CPU      0.97s WALL (      15 calls)

     Called by c_bands:
     init_us_2    :      4.09s CPU      4.17s WALL (     264 calls)
     cegterg      :    709.56s CPU    722.65s WALL (     120 calls)

     Called by sum_band:
     sum_band:wei :      0.00s CPU      0.00s WALL (      15 calls)
     sum_band:loo :    127.56s CPU    130.82s WALL (      15 calls)
     sum_band:buf :      0.96s CPU      1.03s WALL (     120 calls)
     sum_band:ini :      1.87s CPU      1.90s WALL (     120 calls)
     sum_band:cal :     14.90s CPU     16.24s WALL (     120 calls)
     sum_band:bec :      8.94s CPU      8.97s WALL (     120 calls)
     addusdens    :     16.68s CPU     22.76s WALL (      15 calls)
     addusd:skk   :      0.03s CPU      0.03s WALL (      45 calls)
     addusd:dgemm :      7.39s CPU     13.39s WALL (      45 calls)
     addusd:qvan2 :      9.04s CPU      9.06s WALL (      45 calls)

     Called by *egterg:
     cdiaghg      :     32.17s CPU     33.60s WALL (     575 calls)
     cegterg:over :     43.33s CPU     43.70s WALL (     463 calls)
     cegterg:upda :     19.48s CPU     19.60s WALL (     463 calls)
     cegterg:last :     47.09s CPU     47.39s WALL (     301 calls)
     h_psi        :    500.02s CPU    511.45s WALL (     591 calls)
     s_psi        :     57.18s CPU     57.37s WALL (     591 calls)
     g_psi        :      0.72s CPU      0.73s WALL (     463 calls)

     Called by h_psi:
     h_psi:calbec :     45.81s CPU     50.66s WALL (     591 calls)
     vloc_psi     :    397.07s CPU    403.12s WALL (     591 calls)
     add_vuspsi   :     53.94s CPU     54.22s WALL (     591 calls)

     General routines
     calbec       :     68.71s CPU     74.91s WALL (     751 calls)
     fft          :      1.09s CPU      1.21s WALL (     236 calls)
     ffts         :      0.37s CPU      0.37s WALL (      60 calls)
     fftw         :    426.94s CPU    433.69s WALL (  293660 calls)
 
     Parallel routines
     fft_scatt_xy :     26.27s CPU     26.56s WALL (  293956 calls)
     fft_scatt_yz :    274.81s CPU    279.86s WALL (  293956 calls)
 
     PWSCF        :  20m17.32s CPU  20m52.80s WALL

 
   This run was terminated on:  10: 5:51  26Jan2021            

=------------------------------------------------------------------------------=
   JOB DONE.
=------------------------------------------------------------------------------=
