
     Program PWSCF v.6.4.1 starts on 25Jan2021 at 18:23: 0 

     This program is part of the open-source Quantum ESPRESSO suite
     for quantum simulation of materials; please cite
         "P. Giannozzi et al., J. Phys.:Condens. Matter 21 395502 (2009);
         "P. Giannozzi et al., J. Phys.:Condens. Matter 29 465901 (2017);
          URL http://www.quantum-espresso.org", 
     in publications or presentations arising from this work. More details at
     http://www.quantum-espresso.org/quote

     Parallel version (MPI & OpenMP), running on      96 processor cores
     Number of MPI processes:                48
     Threads/MPI process:                     2

     MPI processes distributed on     2 nodes
     R & G space division:  proc/nbgrp/npool/nimage =      48
     Waiting for input...
     Reading input from standard input

     Current dimensions of program PWSCF are:
     Max number of different atomic species (ntypx) = 10
     Max number of k-points (npk) =  40000
     Max angular momentum in pseudopotentials (lmaxx) =  3
               file Cs.rel-pbesol-spn-rrkjus_psl.1.0.0.UPF: wavefunction(s)  5S 6S renormalized
               file Sn.rel-pbesol-dn-rrkjus_psl.1.0.0.UPF: wavefunction(s)  5S 4D 4D renormalized
               file I.rel-pbesol-n-rrkjus_psl.1.0.0.UPF: wavefunction(s)  5S renormalized

     Subspace diagonalization in iterative solution of the eigenvalue problem:
     one sub-group per band group will be used
     scalapack distributed-memory algorithm (size of sub-group:  4*  4 procs)

 
     Parallelization info
     --------------------
     sticks:   dense  smooth     PW     G-vecs:    dense   smooth      PW
     Min         107      86     23                14667    10498    1469
     Max         108      87     24                14680    10509    1476
     Sum        5183    4145   1113               704507   504115   70635
 

     Title: 
     CsSnI3                                                                     


     bravais-lattice index     =            8
     lattice parameter (alat)  =       9.1317  a.u.
     unit-cell volume          =    6370.5385 (a.u.)^3
     number of atoms/cell      =           20
     number of atomic types    =            3
     number of electrons       =       176.00
     number of Kohn-Sham states=          176
     kinetic-energy cutoff     =      70.0000  Ry
     charge density cutoff     =     350.0000  Ry
     convergence threshold     =      1.0E-06
     mixing beta               =       0.3500
     number of iterations used =            8  plain     mixing
     Exchange-correlation      = PBESOL ( 1  4 10  8 0 0)
     Non magnetic calculation with spin-orbit


     celldm(1)=   9.131705  celldm(2)=   2.227728  celldm(3)=   3.755420
     celldm(4)=   0.000000  celldm(5)=   0.000000  celldm(6)=   0.000000

     crystal axes: (cart. coord. in units of alat)
               a(1) = (   1.000000   0.000000   0.000000 )  
               a(2) = (   0.000000   2.227728   0.000000 )  
               a(3) = (   0.000000   0.000000   3.755420 )  

     reciprocal axes: (cart. coord. in units 2 pi/alat)
               b(1) = (  1.000000  0.000000  0.000000 )  
               b(2) = (  0.000000  0.448888  0.000000 )  
               b(3) = (  0.000000  0.000000  0.266282 )  


     PseudoPot. # 1 for Cs read from file:
     /marconi_scratch/userexternal/cmalosso/degironcoli/pseudo/pseudo-usp/Cs.rel-pbesol-spn-rrkjus_psl.1.0.0.UPF
     MD5 check sum: 846889b67fb1b19751b5b37931589d70
     Pseudo is Ultrasoft + core correction, Zval =  9.0
     Generated using "atomic" code by A. Dal Corso v.6.4.1
     Using radial grid of 1251 points, 15 beta functions with: 
                l(1) =   0
                l(2) =   0
                l(3) =   0
                l(4) =   1
                l(5) =   1
                l(6) =   1
                l(7) =   1
                l(8) =   2
                l(9) =   2
               l(10) =   2
               l(11) =   2
               l(12) =   3
               l(13) =   3
               l(14) =   3
               l(15) =   3
     Q(r) pseudized with 0 coefficients 


     PseudoPot. # 2 for Sn read from file:
     /marconi_scratch/userexternal/cmalosso/degironcoli/pseudo/pseudo-usp/Sn.rel-pbesol-dn-rrkjus_psl.1.0.0.UPF
     MD5 check sum: c1cf6ea56b96a3656bdf0d1db379e093
     Pseudo is Ultrasoft + core correction, Zval = 14.0
     Generated using "atomic" code by A. Dal Corso v.6.3
     Using radial grid of 1243 points, 10 beta functions with: 
                l(1) =   0
                l(2) =   0
                l(3) =   1
                l(4) =   1
                l(5) =   1
                l(6) =   1
                l(7) =   2
                l(8) =   2
                l(9) =   2
               l(10) =   2
     Q(r) pseudized with 0 coefficients 


     PseudoPot. # 3 for I  read from file:
     /marconi_scratch/userexternal/cmalosso/degironcoli/pseudo/pseudo-usp/I.rel-pbesol-n-rrkjus_psl.1.0.0.UPF
     MD5 check sum: 0f96c6bfb1b448f280658f96eb466b08
     Pseudo is Ultrasoft + core correction, Zval =  7.0
     Generated using "atomic" code by A. Dal Corso v.6.3
     Using radial grid of 1247 points, 10 beta functions with: 
                l(1) =   0
                l(2) =   0
                l(3) =   1
                l(4) =   1
                l(5) =   1
                l(6) =   1
                l(7) =   2
                l(8) =   2
                l(9) =   2
               l(10) =   2
     Q(r) pseudized with 0 coefficients 


     atomic species   valence    mass     pseudopotential
        Cs             9.00   132.90000     Cs( 1.00)
        Sn            14.00   118.70000     Sn( 1.00)
        I              7.00   126.90000     I ( 1.00)

      8 Sym. Ops., with inversion, found ( 6 have fractional translation)


                                    s                        frac. trans.

      isym =  1     identity                                     

 cryst.   s( 1) = (     1          0          0      )
                  (     0          1          0      )
                  (     0          0          1      )

 cart.    s( 1) = (  1.0000000  0.0000000  0.0000000 )
                  (  0.0000000  1.0000000  0.0000000 )
                  (  0.0000000  0.0000000  1.0000000 )


      isym =  2     180 deg rotation - cart. axis [0,0,1]        

 cryst.   s( 2) = (    -1          0          0      )    f =(  0.0000000 )
                  (     0         -1          0      )       (  0.5000000 )
                  (     0          0          1      )       (  0.5000000 )

 cart.    s( 2) = ( -1.0000000  0.0000000  0.0000000 )    f =(  0.0000000 )
                  (  0.0000000 -1.0000000  0.0000000 )       (  1.1138638 )
                  (  0.0000000  0.0000000  1.0000000 )       (  1.8777098 )


      isym =  3     180 deg rotation - cart. axis [0,1,0]        

 cryst.   s( 3) = (    -1          0          0      )    f =(  0.5000000 )
                  (     0          1          0      )       ( -0.5000000 )
                  (     0          0         -1      )       ( -0.5000000 )

 cart.    s( 3) = ( -1.0000000  0.0000000  0.0000000 )    f =(  0.5000000 )
                  (  0.0000000  1.0000000  0.0000000 )       ( -1.1138638 )
                  (  0.0000000  0.0000000 -1.0000000 )       ( -1.8777098 )


      isym =  4     180 deg rotation - cart. axis [1,0,0]        

 cryst.   s( 4) = (     1          0          0      )    f =( -0.5000000 )
                  (     0         -1          0      )       (  0.0000000 )
                  (     0          0         -1      )       (  0.0000000 )

 cart.    s( 4) = (  1.0000000  0.0000000  0.0000000 )    f =( -0.5000000 )
                  (  0.0000000 -1.0000000  0.0000000 )       (  0.0000000 )
                  (  0.0000000  0.0000000 -1.0000000 )       (  0.0000000 )


      isym =  5     inversion                                    

 cryst.   s( 5) = (    -1          0          0      )
                  (     0         -1          0      )
                  (     0          0         -1      )

 cart.    s( 5) = ( -1.0000000  0.0000000  0.0000000 )
                  (  0.0000000 -1.0000000  0.0000000 )
                  (  0.0000000  0.0000000 -1.0000000 )


      isym =  6     inv. 180 deg rotation - cart. axis [0,0,1]   

 cryst.   s( 6) = (     1          0          0      )    f =(  0.0000000 )
                  (     0          1          0      )       ( -0.5000000 )
                  (     0          0         -1      )       ( -0.5000000 )

 cart.    s( 6) = (  1.0000000  0.0000000  0.0000000 )    f =(  0.0000000 )
                  (  0.0000000  1.0000000  0.0000000 )       ( -1.1138638 )
                  (  0.0000000  0.0000000 -1.0000000 )       ( -1.8777098 )


      isym =  7     inv. 180 deg rotation - cart. axis [0,1,0]   

 cryst.   s( 7) = (     1          0          0      )    f =( -0.5000000 )
                  (     0         -1          0      )       (  0.5000000 )
                  (     0          0          1      )       (  0.5000000 )

 cart.    s( 7) = (  1.0000000  0.0000000  0.0000000 )    f =( -0.5000000 )
                  (  0.0000000 -1.0000000  0.0000000 )       (  1.1138638 )
                  (  0.0000000  0.0000000  1.0000000 )       (  1.8777098 )


      isym =  8     inv. 180 deg rotation - cart. axis [1,0,0]   

 cryst.   s( 8) = (    -1          0          0      )    f =(  0.5000000 )
                  (     0          1          0      )       (  0.0000000 )
                  (     0          0          1      )       (  0.0000000 )

 cart.    s( 8) = ( -1.0000000  0.0000000  0.0000000 )    f =(  0.5000000 )
                  (  0.0000000  1.0000000  0.0000000 )       (  0.0000000 )
                  (  0.0000000  0.0000000  1.0000000 )       (  0.0000000 )


     double point group D_2h (mmm) 
     there are 10 classes and  2 irreducible representations
     the character table:

       E     -E     C2    C2'  C2''  i     -i     s_v   s_v' s_v''
                   -C2   -C2'  -C2''             -s_v  -s_v' -s_v'
G_5+   2.00 -2.00  0.00  0.00  0.00  2.00 -2.00  0.00  0.00  0.00
G_5-   2.00 -2.00  0.00  0.00  0.00 -2.00  2.00  0.00  0.00  0.00

     the symmetry operations in each class and the name of the first element:

     E             1
          identity                                               
     -E           -1
          identity E                                             
      C2  -C2      2   -2
          180 deg rotation - cart. axis [0,0,1]                  
      C2' -C2'     4   -4
          180 deg rotation - cart. axis [1,0,0]                  
     C2'' -C2''    3   -3
          180 deg rotation - cart. axis [0,1,0]                  
     i             5
          inversion                                              
     -i           -5
          inversion E                                            
      s_v -s_v     6   -6
          inv. 180 deg rotation - cart. axis [0,0,1]             
      s_v'-s_v'    8   -8
          inv. 180 deg rotation - cart. axis [1,0,0]             
     s_v''-s_v'    7   -7
          inv. 180 deg rotation - cart. axis [0,1,0]             

   Cartesian axes

     site n.     atom                  positions (alat units)
         1           Cs  tau(   1) = (   0.2500000   0.1859640   2.5168147  )
         2           Cs  tau(   2) = (   0.7500000   2.0417636   1.2386050  )
         3           Cs  tau(   3) = (   0.2500000   1.2998278   3.1163149  )
         4           Cs  tau(   4) = (   0.7500000   0.9278998   0.6391048  )
         5           Sn  tau(   5) = (   0.2500000   0.7615710   1.6485466  )
         6           Sn  tau(   6) = (   0.7500000   1.4661567   2.1068731  )
         7           Sn  tau(   7) = (   0.2500000   1.8754348   0.2291632  )
         8           Sn  tau(   8) = (   0.7500000   0.3522928   3.5262565  )
         9           I   tau(   9) = (   0.7500000   0.0581437   0.4202578  )
        10           I   tau(  10) = (   0.2500000   2.1695839   3.3351619  )
        11           I   tau(  11) = (   0.7500000   1.1720075   1.4574521  )
        12           I   tau(  12) = (   0.2500000   1.0557201   2.2979676  )
        13           I   tau(  13) = (   0.7500000   0.6531118   2.9738192  )
        14           I   tau(  14) = (   0.2500000   1.5746158   0.7816005  )
        15           I   tau(  15) = (   0.7500000   1.7669756   2.6593103  )
        16           I   tau(  16) = (   0.2500000   0.4607520   1.0961094  )
        17           I   tau(  17) = (   0.7500000   0.3753632   1.8734812  )
        18           I   tau(  18) = (   0.2500000   1.8523644   1.8819384  )
        19           I   tau(  19) = (   0.7500000   1.4892270   0.0042286  )
        20           I   tau(  20) = (   0.2500000   0.7385006   3.7511911  )

   Crystallographic axes

     site n.     atom                  positions (cryst. coord.)
         1           Cs  tau(   1) = (  0.2500000  0.0834770  0.6701820  )
         2           Cs  tau(   2) = (  0.7500000  0.9165230  0.3298180  )
         3           Cs  tau(   3) = (  0.2500000  0.5834770  0.8298180  )
         4           Cs  tau(   4) = (  0.7500000  0.4165230  0.1701820  )
         5           Sn  tau(   5) = (  0.2500000  0.3418600  0.4389780  )
         6           Sn  tau(   6) = (  0.7500000  0.6581400  0.5610220  )
         7           Sn  tau(   7) = (  0.2500000  0.8418600  0.0610220  )
         8           Sn  tau(   8) = (  0.7500000  0.1581400  0.9389780  )
         9           I   tau(   9) = (  0.7500000  0.0261000  0.1119070  )
        10           I   tau(  10) = (  0.2500000  0.9739000  0.8880930  )
        11           I   tau(  11) = (  0.7500000  0.5261000  0.3880930  )
        12           I   tau(  12) = (  0.2500000  0.4739000  0.6119070  )
        13           I   tau(  13) = (  0.7500000  0.2931740  0.7918740  )
        14           I   tau(  14) = (  0.2500000  0.7068260  0.2081260  )
        15           I   tau(  15) = (  0.7500000  0.7931740  0.7081260  )
        16           I   tau(  16) = (  0.2500000  0.2068260  0.2918740  )
        17           I   tau(  17) = (  0.7500000  0.1684960  0.4988740  )
        18           I   tau(  18) = (  0.2500000  0.8315040  0.5011260  )
        19           I   tau(  19) = (  0.7500000  0.6684960  0.0011260  )
        20           I   tau(  20) = (  0.2500000  0.3315040  0.9988740  )

     number of k points=    27
                       cart. coord. in units 2pi/alat
        k(    1) = (   0.0833333   0.0374073   0.0221902), wk =   0.0370370
        k(    2) = (   0.0833333   0.0374073   0.0665705), wk =   0.0370370
        k(    3) = (   0.0833333   0.0374073   0.1109508), wk =   0.0370370
        k(    4) = (   0.0833333   0.1122220   0.0221902), wk =   0.0370370
        k(    5) = (   0.0833333   0.1122220   0.0665705), wk =   0.0370370
        k(    6) = (   0.0833333   0.1122220   0.1109508), wk =   0.0370370
        k(    7) = (   0.0833333   0.1870366   0.0221902), wk =   0.0370370
        k(    8) = (   0.0833333   0.1870366   0.0665705), wk =   0.0370370
        k(    9) = (   0.0833333   0.1870366   0.1109508), wk =   0.0370370
        k(   10) = (   0.2500000   0.0374073   0.0221902), wk =   0.0370370
        k(   11) = (   0.2500000   0.0374073   0.0665705), wk =   0.0370370
        k(   12) = (   0.2500000   0.0374073   0.1109508), wk =   0.0370370
        k(   13) = (   0.2500000   0.1122220   0.0221902), wk =   0.0370370
        k(   14) = (   0.2500000   0.1122220   0.0665705), wk =   0.0370370
        k(   15) = (   0.2500000   0.1122220   0.1109508), wk =   0.0370370
        k(   16) = (   0.2500000   0.1870366   0.0221902), wk =   0.0370370
        k(   17) = (   0.2500000   0.1870366   0.0665705), wk =   0.0370370
        k(   18) = (   0.2500000   0.1870366   0.1109508), wk =   0.0370370
        k(   19) = (   0.4166667   0.0374073   0.0221902), wk =   0.0370370
        k(   20) = (   0.4166667   0.0374073   0.0665705), wk =   0.0370370
        k(   21) = (   0.4166667   0.0374073   0.1109508), wk =   0.0370370
        k(   22) = (   0.4166667   0.1122220   0.0221902), wk =   0.0370370
        k(   23) = (   0.4166667   0.1122220   0.0665705), wk =   0.0370370
        k(   24) = (   0.4166667   0.1122220   0.1109508), wk =   0.0370370
        k(   25) = (   0.4166667   0.1870366   0.0221902), wk =   0.0370370
        k(   26) = (   0.4166667   0.1870366   0.0665705), wk =   0.0370370
        k(   27) = (   0.4166667   0.1870366   0.1109508), wk =   0.0370370

                       cryst. coord.
        k(    1) = (   0.0833333   0.0833333   0.0833333), wk =   0.0370370
        k(    2) = (   0.0833333   0.0833333   0.2500000), wk =   0.0370370
        k(    3) = (   0.0833333   0.0833333   0.4166667), wk =   0.0370370
        k(    4) = (   0.0833333   0.2500000   0.0833333), wk =   0.0370370
        k(    5) = (   0.0833333   0.2500000   0.2500000), wk =   0.0370370
        k(    6) = (   0.0833333   0.2500000   0.4166667), wk =   0.0370370
        k(    7) = (   0.0833333   0.4166667   0.0833333), wk =   0.0370370
        k(    8) = (   0.0833333   0.4166667   0.2500000), wk =   0.0370370
        k(    9) = (   0.0833333   0.4166667   0.4166667), wk =   0.0370370
        k(   10) = (   0.2500000   0.0833333   0.0833333), wk =   0.0370370
        k(   11) = (   0.2500000   0.0833333   0.2500000), wk =   0.0370370
        k(   12) = (   0.2500000   0.0833333   0.4166667), wk =   0.0370370
        k(   13) = (   0.2500000   0.2500000   0.0833333), wk =   0.0370370
        k(   14) = (   0.2500000   0.2500000   0.2500000), wk =   0.0370370
        k(   15) = (   0.2500000   0.2500000   0.4166667), wk =   0.0370370
        k(   16) = (   0.2500000   0.4166667   0.0833333), wk =   0.0370370
        k(   17) = (   0.2500000   0.4166667   0.2500000), wk =   0.0370370
        k(   18) = (   0.2500000   0.4166667   0.4166667), wk =   0.0370370
        k(   19) = (   0.4166667   0.0833333   0.0833333), wk =   0.0370370
        k(   20) = (   0.4166667   0.0833333   0.2500000), wk =   0.0370370
        k(   21) = (   0.4166667   0.0833333   0.4166667), wk =   0.0370370
        k(   22) = (   0.4166667   0.2500000   0.0833333), wk =   0.0370370
        k(   23) = (   0.4166667   0.2500000   0.2500000), wk =   0.0370370
        k(   24) = (   0.4166667   0.2500000   0.4166667), wk =   0.0370370
        k(   25) = (   0.4166667   0.4166667   0.0833333), wk =   0.0370370
        k(   26) = (   0.4166667   0.4166667   0.2500000), wk =   0.0370370
        k(   27) = (   0.4166667   0.4166667   0.4166667), wk =   0.0370370

     Dense  grid:   704507 G-vectors     FFT dimensions: (  60, 128, 216)

     Smooth grid:   504115 G-vectors     FFT dimensions: (  50, 120, 192)

     Dynamical RAM for                 wfc:       7.05 MB

     Dynamical RAM for     wfc (w. buffer):     197.31 MB

     Dynamical RAM for           str. fact:       0.67 MB

     Dynamical RAM for           local pot:       0.00 MB

     Dynamical RAM for          nlocal pot:      15.94 MB

     Dynamical RAM for                qrad:      52.33 MB

     Dynamical RAM for          rho,v,vnew:       6.20 MB

     Dynamical RAM for               rhoin:       2.07 MB

     Dynamical RAM for            rho*nmix:      14.33 MB

     Dynamical RAM for           G-vectors:       0.92 MB

     Dynamical RAM for          h,s,v(r/c):       1.42 MB

     Dynamical RAM for          <psi|beta>:       4.28 MB

     Dynamical RAM for                 psi:      28.19 MB

     Dynamical RAM for                hpsi:      28.19 MB

     Dynamical RAM for                spsi:      28.19 MB

     Dynamical RAM for      wfcinit/wfcrot:      13.48 MB

     Dynamical RAM for           addusdens:     460.26 MB

     Dynamical RAM for          addusforce:     471.59 MB

     Dynamical RAM for         addusstress:     464.29 MB

     Estimated static dynamical RAM per process >     293.02 MB

     Estimated max dynamical RAM per process >     764.61 MB

     Estimated total dynamical RAM >      35.84 GB

     Initial potential from superposition of free atoms

     starting charge  175.84164, renormalised to  176.00000
     Starting wfcs are  208 randomized atomic wfcs

     total cpu time spent up to now is      587.8 secs

     Self-consistent Calculation

     iteration #  1     ecut=    70.00 Ry     beta= 0.35
     Davidson diagonalization with overlap
     ethr =  1.00E-02,  avg # of iterations =  1.0

     Threshold (ethr) on eigenvalues was too large:
     Diagonalizing with lowered threshold

     Davidson diagonalization with overlap
     ethr =  3.14E-04,  avg # of iterations =  3.0

     total cpu time spent up to now is     2908.3 secs

     total energy              =   -1268.06825749 Ry
     Harris-Foulkes estimate   =   -1268.26669447 Ry
     estimated scf accuracy    <       0.42596193 Ry

     iteration #  2     ecut=    70.00 Ry     beta= 0.35
     Davidson diagonalization with overlap
     ethr =  2.42E-04,  avg # of iterations =  2.0

     total cpu time spent up to now is     3591.8 secs

     WARNING: integrated charge=   176.00142918, expected=   176.00000000

     total energy              =   -1268.14080171 Ry
     Harris-Foulkes estimate   =   -1268.15620417 Ry
     estimated scf accuracy    <       0.05531981 Ry

     iteration #  3     ecut=    70.00 Ry     beta= 0.35
     Davidson diagonalization with overlap
     ethr =  3.14E-05,  avg # of iterations =  3.1

     total cpu time spent up to now is     4286.4 secs

     WARNING: integrated charge=   176.00082860, expected=   176.00000000

     total energy              =   -1268.14926820 Ry
     Harris-Foulkes estimate   =   -1268.14976882 Ry
     estimated scf accuracy    <       0.01043232 Ry

     iteration #  4     ecut=    70.00 Ry     beta= 0.35
     Davidson diagonalization with overlap
     ethr =  5.93E-06,  avg # of iterations =  2.3

     total cpu time spent up to now is     4924.8 secs

     WARNING: integrated charge=   176.00027970, expected=   176.00000000

     total energy              =   -1268.15051005 Ry
     Harris-Foulkes estimate   =   -1268.15010249 Ry
     estimated scf accuracy    <       0.00204451 Ry

     iteration #  5     ecut=    70.00 Ry     beta= 0.35
     Davidson diagonalization with overlap
     ethr =  1.16E-06,  avg # of iterations =  3.3

     total cpu time spent up to now is     5728.6 secs

     WARNING: integrated charge=   176.02306449, expected=   176.00000000

     total energy              =   -1268.15063475 Ry
     Harris-Foulkes estimate   =   -1268.15080565 Ry
     estimated scf accuracy    <       0.00046228 Ry

     iteration #  6     ecut=    70.00 Ry     beta= 0.35
     Davidson diagonalization with overlap
     ethr =  2.63E-07,  avg # of iterations =  3.7

     total cpu time spent up to now is     6676.2 secs

     WARNING: integrated charge=   176.02406982, expected=   176.00000000

     total energy              =   -1268.15083695 Ry
     Harris-Foulkes estimate   =   -1268.15083725 Ry
     estimated scf accuracy    <       0.00011744 Ry

     iteration #  7     ecut=    70.00 Ry     beta= 0.35
     Davidson diagonalization with overlap
     ethr =  6.67E-08,  avg # of iterations =  3.4

     total cpu time spent up to now is     7808.8 secs

     WARNING: integrated charge=   176.02453801, expected=   176.00000000

     total energy              =   -1268.15086073 Ry
     Harris-Foulkes estimate   =   -1268.15086301 Ry
     estimated scf accuracy    <       0.00002260 Ry

     iteration #  8     ecut=    70.00 Ry     beta= 0.35
     Davidson diagonalization with overlap
     ethr =  1.28E-08,  avg # of iterations =  3.2

     total cpu time spent up to now is     8821.0 secs

     WARNING: integrated charge=   176.02065739, expected=   176.00000000

     total energy              =   -1268.15085078 Ry
     Harris-Foulkes estimate   =   -1268.15086360 Ry
     estimated scf accuracy    <       0.00004496 Ry

     iteration #  9     ecut=    70.00 Ry     beta= 0.35
     Davidson diagonalization with overlap
     ethr =  1.28E-08,  avg # of iterations =  2.6

     total cpu time spent up to now is     9897.1 secs

     WARNING: integrated charge=   176.03041430, expected=   176.00000000

     total energy              =   -1268.15084485 Ry
     Harris-Foulkes estimate   =   -1268.15085373 Ry
     estimated scf accuracy    <       0.00013452 Ry

     iteration # 10     ecut=    70.00 Ry     beta= 0.35
     Davidson diagonalization with overlap
     ethr =  1.28E-08,  avg # of iterations =  3.3

     total cpu time spent up to now is    11990.0 secs

     WARNING: integrated charge=   176.02788826, expected=   176.00000000

     total energy              =   -1268.15085359 Ry
     Harris-Foulkes estimate   =   -1268.15085729 Ry
     estimated scf accuracy    <       0.00002445 Ry

     iteration # 11     ecut=    70.00 Ry     beta= 0.35
     Davidson diagonalization with overlap
     ethr =  1.28E-08,  avg # of iterations =  1.0

     total cpu time spent up to now is    13128.6 secs

     WARNING: integrated charge=   176.02362779, expected=   176.00000000

     total energy              =   -1268.15085000 Ry
     Harris-Foulkes estimate   =   -1268.15085386 Ry
     estimated scf accuracy    <       0.00001715 Ry

     iteration # 12     ecut=    70.00 Ry     beta= 0.35
     Davidson diagonalization with overlap
     ethr =  9.74E-09,  avg # of iterations =  1.0

     total cpu time spent up to now is    14039.6 secs

     WARNING: integrated charge=   176.02251531, expected=   176.00000000

     total energy              =   -1268.15085043 Ry
     Harris-Foulkes estimate   =   -1268.15085039 Ry
     estimated scf accuracy    <       0.00000948 Ry

     iteration # 13     ecut=    70.00 Ry     beta= 0.35
     Davidson diagonalization with overlap
     ethr =  5.39E-09,  avg # of iterations =  1.2

     total cpu time spent up to now is    15082.5 secs

     WARNING: integrated charge=   176.02319210, expected=   176.00000000

     total energy              =   -1268.15085022 Ry
     Harris-Foulkes estimate   =   -1268.15085022 Ry
     estimated scf accuracy    <       0.00002142 Ry

     iteration # 14     ecut=    70.00 Ry     beta= 0.35
     Davidson diagonalization with overlap
     ethr =  5.39E-09,  avg # of iterations =  1.3

     total cpu time spent up to now is    16240.9 secs

     WARNING: integrated charge=   176.02377228, expected=   176.00000000

     total energy              =   -1268.15085022 Ry
     Harris-Foulkes estimate   =   -1268.15085048 Ry
     estimated scf accuracy    <       0.00000918 Ry

     iteration # 15     ecut=    70.00 Ry     beta= 0.35
     Davidson diagonalization with overlap
     ethr =  5.22E-09,  avg # of iterations =  1.0

     total cpu time spent up to now is    17521.6 secs

     WARNING: integrated charge=   176.02255981, expected=   176.00000000

     total energy              =   -1268.15084999 Ry
     Harris-Foulkes estimate   =   -1268.15085026 Ry
     estimated scf accuracy    <       0.00000518 Ry

     iteration # 16     ecut=    70.00 Ry     beta= 0.35
     Davidson diagonalization with overlap
     ethr =  2.95E-09,  avg # of iterations =  1.3

     total cpu time spent up to now is    18687.9 secs

     WARNING: integrated charge=   176.02341480, expected=   176.00000000

     total energy              =   -1268.15085100 Ry
     Harris-Foulkes estimate   =   -1268.15085075 Ry
     estimated scf accuracy    <       0.00004833 Ry

     iteration # 17     ecut=    70.00 Ry     beta= 0.35
     Davidson diagonalization with overlap
     ethr =  2.95E-09,  avg # of iterations =  1.6

     total cpu time spent up to now is    20220.7 secs

     WARNING: integrated charge=   176.02285193, expected=   176.00000000

     total energy              =   -1268.15085043 Ry
     Harris-Foulkes estimate   =   -1268.15085048 Ry
     estimated scf accuracy    <       0.00000877 Ry

     iteration # 18     ecut=    70.00 Ry     beta= 0.35
     Davidson diagonalization with overlap
     ethr =  2.95E-09,  avg # of iterations =  1.0

     total cpu time spent up to now is    20816.4 secs

     WARNING: integrated charge=   176.00967441, expected=   176.00000000

     total energy              =   -1268.15084613 Ry
     Harris-Foulkes estimate   =   -1268.15085046 Ry
     estimated scf accuracy    <       0.00000868 Ry

     iteration # 19     ecut=    70.00 Ry     beta= 0.35
     Davidson diagonalization with overlap
     ethr =  2.95E-09,  avg # of iterations =  2.1

     total cpu time spent up to now is    21358.7 secs

     WARNING: integrated charge=   176.00783185, expected=   176.00000000

     total energy              =   -1268.15084661 Ry
     Harris-Foulkes estimate   =   -1268.15084699 Ry
     estimated scf accuracy    <       0.00000167 Ry

     iteration # 20     ecut=    70.00 Ry     beta= 0.35
     Davidson diagonalization with overlap
