
     Program PWSCF v.6.6 starts on 25Jan2021 at 10:32:16 

     This program is part of the open-source Quantum ESPRESSO suite
     for quantum simulation of materials; please cite
         "P. Giannozzi et al., J. Phys.:Condens. Matter 21 395502 (2009);
         "P. Giannozzi et al., J. Phys.:Condens. Matter 29 465901 (2017);
          URL http://www.quantum-espresso.org", 
     in publications or presentations arising from this work. More details at
     http://www.quantum-espresso.org/quote

     Parallel version (MPI), running on    64 processors

     MPI processes distributed on     2 nodes
     R & G space division:  proc/nbgrp/npool/nimage =      64
     Fft bands division:     nmany     =       1
     Waiting for input...
     Reading input from standard input

     Current dimensions of program PWSCF are:
     Max number of different atomic species (ntypx) = 10
     Max number of k-points (npk) =  40000
     Max angular momentum in pseudopotentials (lmaxx) =  3
     file Sn.pbesol-dn-kjpaw_psl.1.0.0.UPF: wavefunction(s)  5S 5P 4D renormalized
     file I.pbesol-n-kjpaw_psl.1.0.0.UPF: wavefunction(s)  5S renormalized

     Subspace diagonalization in iterative solution of the eigenvalue problem:
     a serial algorithm will be used

 
     Parallelization info
     --------------------
     sticks:   dense  smooth     PW     G-vecs:    dense   smooth      PW
     Min         103     103     28                 3891     3891     556
     Max         105     105     30                 3893     3893     560
     Sum        6613    6613   1801               249077   249077   35701
 

     Title: 
     SnI2                                                                       


     bravais-lattice index     =            8
     lattice parameter (alat)  =      14.4199  a.u.
     unit-cell volume          =    1845.1511 (a.u.)^3
     number of atoms/cell      =            6
     number of atomic types    =            2
     number of electrons       =        56.00
     number of Kohn-Sham states=           28
     kinetic-energy cutoff     =     100.0000  Ry
     charge density cutoff     =     400.0000  Ry
     convergence threshold     =      1.0E-06
     mixing beta               =       0.5000
     number of iterations used =            8  plain     mixing
     Exchange-correlation= SLA PW PSX PSC
                           (   1   4  10   8   0   0   0)

     celldm(1)=  14.419944  celldm(2)=   1.000000  celldm(3)=   0.615377
     celldm(4)=   0.000000  celldm(5)=   0.000000  celldm(6)=   0.000000

     crystal axes: (cart. coord. in units of alat)
               a(1) = (   1.000000   0.000000   0.000000 )  
               a(2) = (   0.000000   1.000000   0.000000 )  
               a(3) = (   0.000000   0.000000   0.615377 )  

     reciprocal axes: (cart. coord. in units 2 pi/alat)
               b(1) = (  1.000000  0.000000  0.000000 )  
               b(2) = (  0.000000  1.000000  0.000000 )  
               b(3) = (  0.000000  0.000000  1.625020 )  


     PseudoPot. # 1 for Sn read from file:
     /scratch/gtenti/degironcoli/pseudo/Sn.pbesol-dn-kjpaw_psl.1.0.0.UPF
     MD5 check sum: 3b64f90c238cf26ccb627d174952382c
     Pseudo is Projector augmented-wave + core cor, Zval = 14.0
     Generated using "atomic" code by A. Dal Corso v.6.3
     Shape of augmentation charge: PSQ
     Using radial grid of 1243 points,  6 beta functions with: 
                l(1) =   0
                l(2) =   0
                l(3) =   1
                l(4) =   1
                l(5) =   2
                l(6) =   2
     Q(r) pseudized with 0 coefficients 


     PseudoPot. # 2 for I  read from file:
     /scratch/gtenti/degironcoli/pseudo/I.pbesol-n-kjpaw_psl.1.0.0.UPF
     MD5 check sum: 6038403ff9b03366b27f71806436e734
     Pseudo is Projector augmented-wave + core cor, Zval =  7.0
     Generated using "atomic" code by A. Dal Corso v.6.3
     Shape of augmentation charge: PSQ
     Using radial grid of 1247 points,  6 beta functions with: 
                l(1) =   0
                l(2) =   0
                l(3) =   1
                l(4) =   1
                l(5) =   2
                l(6) =   2
     Q(r) pseudized with 0 coefficients 


     atomic species   valence    mass     pseudopotential
        Sn            14.00   118.70000     Sn( 1.00)
        I              7.00   126.90000     I ( 1.00)

     16 Sym. Ops., with inversion, found ( 8 have fractional translation)


                                    s                        frac. trans.

      isym =  1     identity                                     

 cryst.   s( 1) = (     1          0          0      )
                  (     0          1          0      )
                  (     0          0          1      )

 cart.    s( 1) = (  1.0000000  0.0000000  0.0000000 )
                  (  0.0000000  1.0000000  0.0000000 )
                  (  0.0000000  0.0000000  1.0000000 )


      isym =  2     180 deg rotation - cart. axis [0,0,1]        

 cryst.   s( 2) = (    -1          0          0      )
                  (     0         -1          0      )
                  (     0          0          1      )

 cart.    s( 2) = ( -1.0000000  0.0000000  0.0000000 )
                  (  0.0000000 -1.0000000  0.0000000 )
                  (  0.0000000  0.0000000  1.0000000 )


      isym =  3     180 deg rotation - cart. axis [0,1,0]        

 cryst.   s( 3) = (    -1          0          0      )    f =(  0.5000000 )
                  (     0          1          0      )       ( -0.5000000 )
                  (     0          0         -1      )       (  0.5000000 )

 cart.    s( 3) = ( -1.0000000  0.0000000  0.0000000 )    f =(  0.5000000 )
                  (  0.0000000  1.0000000  0.0000000 )       ( -0.5000000 )
                  (  0.0000000  0.0000000 -1.0000000 )       (  0.3076884 )


      isym =  4     180 deg rotation - cart. axis [1,0,0]        

 cryst.   s( 4) = (     1          0          0      )    f =( -0.5000000 )
                  (     0         -1          0      )       (  0.5000000 )
                  (     0          0         -1      )       (  0.5000000 )

 cart.    s( 4) = (  1.0000000  0.0000000  0.0000000 )    f =( -0.5000000 )
                  (  0.0000000 -1.0000000  0.0000000 )       (  0.5000000 )
                  (  0.0000000  0.0000000 -1.0000000 )       (  0.3076884 )


      isym =  5     180 deg rotation - cart. axis [1,1,0]        

 cryst.   s( 5) = (     0          1          0      )
                  (     1          0          0      )
                  (     0          0         -1      )

 cart.    s( 5) = (  0.0000000  1.0000000  0.0000000 )
                  (  1.0000000  0.0000000  0.0000000 )
                  (  0.0000000  0.0000000 -1.0000000 )


      isym =  6     180 deg rotation - cart. axis [1,-1,0]       

 cryst.   s( 6) = (     0         -1          0      )
                  (    -1          0          0      )
                  (     0          0         -1      )

 cart.    s( 6) = (  0.0000000 -1.0000000  0.0000000 )
                  ( -1.0000000  0.0000000  0.0000000 )
                  (  0.0000000  0.0000000 -1.0000000 )


      isym =  7      90 deg rotation - cart. axis [0,0,-1]       

 cryst.   s( 7) = (     0         -1          0      )    f =( -0.5000000 )
                  (     1          0          0      )       (  0.5000000 )
                  (     0          0          1      )       ( -0.5000000 )

 cart.    s( 7) = (  0.0000000  1.0000000  0.0000000 )    f =( -0.5000000 )
                  ( -1.0000000  0.0000000  0.0000000 )       (  0.5000000 )
                  (  0.0000000  0.0000000  1.0000000 )       ( -0.3076884 )


      isym =  8      90 deg rotation - cart. axis [0,0,1]        

 cryst.   s( 8) = (     0          1          0      )    f =(  0.5000000 )
                  (    -1          0          0      )       ( -0.5000000 )
                  (     0          0          1      )       ( -0.5000000 )

 cart.    s( 8) = (  0.0000000 -1.0000000  0.0000000 )    f =(  0.5000000 )
                  (  1.0000000  0.0000000  0.0000000 )       ( -0.5000000 )
                  (  0.0000000  0.0000000  1.0000000 )       ( -0.3076884 )


      isym =  9     inversion                                    

 cryst.   s( 9) = (    -1          0          0      )
                  (     0         -1          0      )
                  (     0          0         -1      )

 cart.    s( 9) = ( -1.0000000  0.0000000  0.0000000 )
                  (  0.0000000 -1.0000000  0.0000000 )
                  (  0.0000000  0.0000000 -1.0000000 )


      isym = 10     inv. 180 deg rotation - cart. axis [0,0,1]   

 cryst.   s(10) = (     1          0          0      )
                  (     0          1          0      )
                  (     0          0         -1      )

 cart.    s(10) = (  1.0000000  0.0000000  0.0000000 )
                  (  0.0000000  1.0000000  0.0000000 )
                  (  0.0000000  0.0000000 -1.0000000 )


      isym = 11     inv. 180 deg rotation - cart. axis [0,1,0]   

 cryst.   s(11) = (     1          0          0      )    f =( -0.5000000 )
                  (     0         -1          0      )       (  0.5000000 )
                  (     0          0          1      )       ( -0.5000000 )

 cart.    s(11) = (  1.0000000  0.0000000  0.0000000 )    f =( -0.5000000 )
                  (  0.0000000 -1.0000000  0.0000000 )       (  0.5000000 )
                  (  0.0000000  0.0000000  1.0000000 )       ( -0.3076884 )


      isym = 12     inv. 180 deg rotation - cart. axis [1,0,0]   

 cryst.   s(12) = (    -1          0          0      )    f =(  0.5000000 )
                  (     0          1          0      )       ( -0.5000000 )
                  (     0          0          1      )       ( -0.5000000 )

 cart.    s(12) = ( -1.0000000  0.0000000  0.0000000 )    f =(  0.5000000 )
                  (  0.0000000  1.0000000  0.0000000 )       ( -0.5000000 )
                  (  0.0000000  0.0000000  1.0000000 )       ( -0.3076884 )


      isym = 13     inv. 180 deg rotation - cart. axis [1,1,0]   

 cryst.   s(13) = (     0         -1          0      )
                  (    -1          0          0      )
                  (     0          0          1      )

 cart.    s(13) = (  0.0000000 -1.0000000  0.0000000 )
                  ( -1.0000000  0.0000000  0.0000000 )
                  (  0.0000000  0.0000000  1.0000000 )


      isym = 14     inv. 180 deg rotation - cart. axis [1,-1,0]  

 cryst.   s(14) = (     0          1          0      )
                  (     1          0          0      )
                  (     0          0          1      )

 cart.    s(14) = (  0.0000000  1.0000000  0.0000000 )
                  (  1.0000000  0.0000000  0.0000000 )
                  (  0.0000000  0.0000000  1.0000000 )


      isym = 15     inv.  90 deg rotation - cart. axis [0,0,-1]  

 cryst.   s(15) = (     0          1          0      )    f =(  0.5000000 )
                  (    -1          0          0      )       ( -0.5000000 )
                  (     0          0         -1      )       (  0.5000000 )

 cart.    s(15) = (  0.0000000 -1.0000000  0.0000000 )    f =(  0.5000000 )
                  (  1.0000000  0.0000000  0.0000000 )       ( -0.5000000 )
                  (  0.0000000  0.0000000 -1.0000000 )       (  0.3076884 )


      isym = 16     inv.  90 deg rotation - cart. axis [0,0,1]   

 cryst.   s(16) = (     0         -1          0      )    f =( -0.5000000 )
                  (     1          0          0      )       (  0.5000000 )
                  (     0          0         -1      )       (  0.5000000 )

 cart.    s(16) = (  0.0000000  1.0000000  0.0000000 )    f =( -0.5000000 )
                  ( -1.0000000  0.0000000  0.0000000 )       (  0.5000000 )
                  (  0.0000000  0.0000000 -1.0000000 )       (  0.3076884 )


     point group D_4h(4/mmm)
     there are 10 classes
     the character table:

       E     2C4   C2    2C2'  2C2'' i     2S4   s_h   2s_v  2s_d 
A_1g   1.00  1.00  1.00  1.00  1.00  1.00  1.00  1.00  1.00  1.00
A_2g   1.00  1.00  1.00 -1.00 -1.00  1.00  1.00  1.00 -1.00 -1.00
B_1g   1.00 -1.00  1.00  1.00 -1.00  1.00 -1.00  1.00  1.00 -1.00
B_2g   1.00 -1.00  1.00 -1.00  1.00  1.00 -1.00  1.00 -1.00  1.00
E_g    2.00  0.00 -2.00  0.00  0.00  2.00  0.00 -2.00  0.00  0.00
A_1u   1.00  1.00  1.00  1.00  1.00 -1.00 -1.00 -1.00 -1.00 -1.00
A_2u   1.00  1.00  1.00 -1.00 -1.00 -1.00 -1.00 -1.00  1.00  1.00
B_1u   1.00 -1.00  1.00  1.00 -1.00 -1.00  1.00 -1.00 -1.00  1.00
B_2u   1.00 -1.00  1.00 -1.00  1.00 -1.00  1.00 -1.00  1.00 -1.00
E_u    2.00  0.00 -2.00  0.00  0.00 -2.00  0.00  2.00  0.00  0.00

     the symmetry operations in each class and the name of the first element:

     E        1
          identity                                               
     2C4      7    8
           90 deg rotation - cart. axis [0,0,-1]                 
     C2       2
          180 deg rotation - cart. axis [0,0,1]                  
     2C2'     3    4
          180 deg rotation - cart. axis [0,1,0]                  
     2C2''    5    6
          180 deg rotation - cart. axis [1,1,0]                  
     i        9
          inversion                                              
     2S4     15   16
          inv.  90 deg rotation - cart. axis [0,0,-1]            
     s_h     10
          inv. 180 deg rotation - cart. axis [0,0,1]             
     2s_v    11   12
          inv. 180 deg rotation - cart. axis [0,1,0]             
     2s_d    13   14
          inv. 180 deg rotation - cart. axis [1,1,0]             

   Cartesian axes

     site n.     atom                  positions (alat units)
         1           Sn  tau(   1) = (   0.0000000   0.0000000   0.0000000  )
         2           Sn  tau(   2) = (   0.5000000   0.5000000   0.3076884  )
         3           I   tau(   3) = (   0.2985210   0.2985210   0.0000000  )
         4           I   tau(   4) = (   0.7014790   0.7014790   0.0000000  )
         5           I   tau(   5) = (   0.7985210   0.2014790   0.3076884  )
         6           I   tau(   6) = (   0.2014790   0.7985210   0.3076884  )

   Crystallographic axes

     site n.     atom                  positions (cryst. coord.)
         1           Sn  tau(   1) = (  0.0000000  0.0000000  0.0000000  )
         2           Sn  tau(   2) = (  0.5000000  0.5000000  0.5000000  )
         3           I   tau(   3) = (  0.2985210  0.2985210  0.0000000  )
         4           I   tau(   4) = (  0.7014790  0.7014790  0.0000000  )
         5           I   tau(   5) = (  0.7985210  0.2014790  0.5000000  )
         6           I   tau(   6) = (  0.2014790  0.7985210  0.5000000  )

     number of k points=     6
                       cart. coord. in units 2pi/alat
        k(    1) = (   0.0000000   0.0000000   0.0000000), wk =   0.2500000
        k(    2) = (   0.0000000   0.0000000  -0.8125102), wk =   0.2500000
        k(    3) = (   0.0000000  -0.5000000   0.0000000), wk =   0.5000000
        k(    4) = (   0.0000000  -0.5000000  -0.8125102), wk =   0.5000000
        k(    5) = (  -0.5000000  -0.5000000   0.0000000), wk =   0.2500000
        k(    6) = (  -0.5000000  -0.5000000  -0.8125102), wk =   0.2500000

                       cryst. coord.
        k(    1) = (   0.0000000   0.0000000   0.0000000), wk =   0.2500000
        k(    2) = (   0.0000000   0.0000000  -0.5000000), wk =   0.2500000
        k(    3) = (   0.0000000  -0.5000000   0.0000000), wk =   0.5000000
        k(    4) = (   0.0000000  -0.5000000  -0.5000000), wk =   0.5000000
        k(    5) = (  -0.5000000  -0.5000000   0.0000000), wk =   0.2500000
        k(    6) = (  -0.5000000  -0.5000000  -0.5000000), wk =   0.2500000

     Dense  grid:   249077 G-vectors     FFT dimensions: (  96,  96,  60)

     Dynamical RAM for                 wfc:       0.21 MB

     Dynamical RAM for     wfc (w. buffer):       1.45 MB

     Dynamical RAM for           str. fact:       0.12 MB

     Dynamical RAM for           local pot:       0.00 MB

     Dynamical RAM for          nlocal pot:       0.80 MB

     Dynamical RAM for                qrad:       3.21 MB

     Dynamical RAM for          rho,v,vnew:       0.39 MB

     Dynamical RAM for               rhoin:       0.13 MB

     Dynamical RAM for            rho*nmix:       0.95 MB

     Dynamical RAM for           G-vectors:       0.25 MB

     Dynamical RAM for          h,s,v(r/c):       0.14 MB

     Dynamical RAM for          <psi|beta>:       0.05 MB

     Dynamical RAM for                 psi:       0.42 MB

     Dynamical RAM for                hpsi:       0.42 MB

     Dynamical RAM for                spsi:       0.42 MB

     Dynamical RAM for      wfcinit/wfcrot:       0.53 MB

     Dynamical RAM for           addusdens:      11.28 MB

     Dynamical RAM for          addusforce:      11.69 MB

     Dynamical RAM for         addusstress:      11.94 MB

     Estimated static dynamical RAM per process >       7.84 MB

     Estimated max dynamical RAM per process >      19.77 MB

     Estimated total dynamical RAM >       1.24 GB

     Initial potential from superposition of free atoms

     starting charge   55.99720, renormalised to   56.00000
     Starting wfcs are   34 randomized atomic wfcs
     Checking if some PAW data can be deallocated... 
       PAW data deallocated on   42 nodes for type:  1
       PAW data deallocated on   22 nodes for type:  2

     total cpu time spent up to now is        5.2 secs

     Self-consistent Calculation

     iteration #  1     ecut=   100.00 Ry     beta= 0.50
     Davidson diagonalization with overlap
     ethr =  1.00E-02,  avg # of iterations =  1.5

     Threshold (ethr) on eigenvalues was too large:
     Diagonalizing with lowered threshold

     Davidson diagonalization with overlap
     ethr =  2.35E-04,  avg # of iterations =  2.3

     total cpu time spent up to now is        7.0 secs

     total energy              =   -2364.95015937 Ry
     estimated scf accuracy    <       0.11719810 Ry

     iteration #  2     ecut=   100.00 Ry     beta= 0.50
     Davidson diagonalization with overlap
     ethr =  2.09E-04,  avg # of iterations =  3.2

     total cpu time spent up to now is        8.3 secs

     total energy              =   -2364.98210748 Ry
     estimated scf accuracy    <       0.00721862 Ry

     iteration #  3     ecut=   100.00 Ry     beta= 0.50
     Davidson diagonalization with overlap
     ethr =  1.29E-05,  avg # of iterations =  2.8

     total cpu time spent up to now is        9.4 secs

     total energy              =   -2364.98296307 Ry
     estimated scf accuracy    <       0.00144320 Ry

     iteration #  4     ecut=   100.00 Ry     beta= 0.50
     Davidson diagonalization with overlap
     ethr =  2.58E-06,  avg # of iterations =  3.8

     total cpu time spent up to now is       10.6 secs

     total energy              =   -2364.98331850 Ry
     estimated scf accuracy    <       0.00033443 Ry

     iteration #  5     ecut=   100.00 Ry     beta= 0.50
     Davidson diagonalization with overlap
     ethr =  5.97E-07,  avg # of iterations =  3.2

     total cpu time spent up to now is       11.7 secs

     total energy              =   -2364.98338207 Ry
     estimated scf accuracy    <       0.00000741 Ry

     iteration #  6     ecut=   100.00 Ry     beta= 0.50
     Davidson diagonalization with overlap
     ethr =  1.32E-08,  avg # of iterations =  6.8

     total cpu time spent up to now is       13.2 secs

     total energy              =   -2364.98338659 Ry
     estimated scf accuracy    <       0.00000732 Ry

     iteration #  7     ecut=   100.00 Ry     beta= 0.50
     Davidson diagonalization with overlap
     ethr =  1.31E-08,  avg # of iterations =  3.0

     total cpu time spent up to now is       14.3 secs

     End of self-consistent calculation

          k = 0.0000 0.0000 0.0000 ( 31109 PWs)   bands (ev):

   -18.4184 -18.4153 -18.4069 -18.4066 -18.3956 -18.3956 -18.3927 -18.3927
   -18.3919 -18.3919  -9.4727  -8.9580  -8.9580  -8.8381  -4.3022  -2.4570
    -0.2473  -0.2473   0.3078   0.6230   1.1354   1.2428   1.5019   1.5019
     1.9124   1.9124   2.2949   2.7278

     occupation numbers 
     1.0000   1.0000   1.0000   1.0000   1.0000   1.0000   1.0000   1.0000
     1.0000   1.0000   1.0000   1.0000   1.0000   1.0000   1.0000   1.0000
     1.0000   1.0000   1.0000   1.0000   1.0000   1.0000   1.0000   1.0000
     1.0000   1.0000   1.0000   1.0000

          k = 0.0000 0.0000-0.8125 ( 31172 PWs)   bands (ev):

   -18.4154 -18.4154 -18.4066 -18.4066 -18.3974 -18.3974 -18.3966 -18.3966
   -18.3875 -18.3875  -9.0080  -9.0080  -8.8341  -8.8341  -3.8463  -3.8463
    -0.1885  -0.1885  -0.1579  -0.1579   0.3935   0.3935   1.4644   1.4644
     1.5162   1.5162   2.2421   2.2421

     occupation numbers 
     1.0000   1.0000   1.0000   1.0000   1.0000   1.0000   1.0000   1.0000
     1.0000   1.0000   1.0000   1.0000   1.0000   1.0000   1.0000   1.0000
     1.0000   1.0000   1.0000   1.0000   1.0000   1.0000   1.0000   1.0000
     1.0000   1.0000   1.0000   1.0000

          k = 0.0000-0.5000 0.0000 ( 31126 PWs)   bands (ev):

   -18.4168 -18.4168 -18.4067 -18.4067 -18.3956 -18.3956 -18.3927 -18.3927
   -18.3919 -18.3919  -9.2593  -9.2593  -8.8711  -8.8711  -3.5588  -3.5588
     0.2397   0.2397   0.6554   0.6554   0.9520   0.9520   1.5927   1.5927
     1.7192   1.7192   2.0791   2.0791

     occupation numbers 
     1.0000   1.0000   1.0000   1.0000   1.0000   1.0000   1.0000   1.0000
     1.0000   1.0000   1.0000   1.0000   1.0000   1.0000   1.0000   1.0000
     1.0000   1.0000   1.0000   1.0000   1.0000   1.0000   1.0000   1.0000
     1.0000   1.0000   1.0000   1.0000

          k = 0.0000-0.5000-0.8125 ( 31144 PWs)   bands (ev):

   -18.4155 -18.4155 -18.4066 -18.4066 -18.3973 -18.3973 -18.3966 -18.3966
   -18.3875 -18.3875  -8.9865  -8.9865  -8.8561  -8.8561  -3.8280  -3.8280
    -0.7899  -0.7899  -0.1136  -0.1136   1.0562   1.0562   1.5890   1.5890
     1.7134   1.7134   2.4940   2.4940

     occupation numbers 
     1.0000   1.0000   1.0000   1.0000   1.0000   1.0000   1.0000   1.0000
     1.0000   1.0000   1.0000   1.0000   1.0000   1.0000   1.0000   1.0000
     1.0000   1.0000   1.0000   1.0000   1.0000   1.0000   1.0000   1.0000
     1.0000   1.0000   1.0000   1.0000

          k =-0.5000-0.5000 0.0000 ( 31152 PWs)   bands (ev):

   -18.4168 -18.4168 -18.4067 -18.4067 -18.3956 -18.3956 -18.3927 -18.3927
   -18.3919 -18.3919  -9.1756  -9.1756  -8.9710  -8.9710  -3.4662  -3.4662
    -0.0672  -0.0672   0.7243   0.7243   1.2310   1.2310   1.4766   1.4766
     1.5886   1.5886   2.0690   2.0690

     occupation numbers 
     1.0000   1.0000   1.0000   1.0000   1.0000   1.0000   1.0000   1.0000
     1.0000   1.0000   1.0000   1.0000   1.0000   1.0000   1.0000   1.0000
     1.0000   1.0000   1.0000   1.0000   1.0000   1.0000   1.0000   1.0000
     1.0000   1.0000   1.0000   1.0000

          k =-0.5000-0.5000-0.8125 ( 31104 PWs)   bands (ev):

   -18.4154 -18.4154 -18.4066 -18.4066 -18.3974 -18.3974 -18.3966 -18.3966
   -18.3875 -18.3875  -8.9936  -8.9936  -8.8447  -8.8447  -3.9105  -3.9105
    -0.3762  -0.3762   0.1309   0.1309   0.4227   0.4227   1.7254   1.7254
     1.7441   1.7441   1.8935   1.8935

     occupation numbers 
     1.0000   1.0000   1.0000   1.0000   1.0000   1.0000   1.0000   1.0000
     1.0000   1.0000   1.0000   1.0000   1.0000   1.0000   1.0000   1.0000
     1.0000   1.0000   1.0000   1.0000   1.0000   1.0000   1.0000   1.0000
     1.0000   1.0000   1.0000   1.0000

     highest occupied level (ev):     2.7278

!    total energy              =   -2364.98338860 Ry

     total all-electron energy =    -81606.544876 Ry
     estimated scf accuracy    <       0.00000030 Ry

     The total energy is the sum of the following terms:
     one-electron contribution =    -203.68625211 Ry
     hartree contribution      =     129.99333905 Ry
     xc contribution           =    -157.69904518 Ry
     ewald contribution        =    -219.54274838 Ry
     one-center paw contrib.   =   -1914.04868198 Ry
      -> PAW hartree energy AE =     108.23757096 Ry
      -> PAW hartree energy PS =    -107.46475824 Ry
      -> PAW xc energy AE      =    -323.40872577 Ry
      -> PAW xc energy PS      =      46.72230984 Ry
      -> total E_H with PAW    =     130.76615177 Ry
      -> total E_XC with PAW   =    -434.38546112 Ry

     convergence has been achieved in   7 iterations

     Forces acting on atoms (cartesian axes, Ry/au):

     atom    1 type  1   force =     0.00000000    0.00000000    0.00000000
     atom    2 type  1   force =     0.00000000    0.00000000    0.00000000
     atom    3 type  2   force =     0.00424485    0.00424485    0.00000000
     atom    4 type  2   force =    -0.00424485   -0.00424485    0.00000000
     atom    5 type  2   force =     0.00424485   -0.00424485    0.00000000
     atom    6 type  2   force =    -0.00424485    0.00424485    0.00000000
     The non-local contrib.  to forces
     atom    1 type  1   force =     0.00000000    0.00000000    0.00000000
     atom    2 type  1   force =     0.00000000    0.00000000   -0.00000000
     atom    3 type  2   force =     0.01591982    0.01591982   -0.00000000
     atom    4 type  2   force =    -0.01591982   -0.01591982   -0.00000000
     atom    5 type  2   force =     0.01591982   -0.01591982    0.00000000
     atom    6 type  2   force =    -0.01591982    0.01591982    0.00000000
     The ionic contribution  to forces
     atom    1 type  1   force =    -0.00000000   -0.00000000    0.00000000
     atom    2 type  1   force =     0.00000000    0.00000000   -0.00000000
     atom    3 type  2   force =    -0.90990984   -0.90990984    0.00000000
     atom    4 type  2   force =     0.90990984    0.90990984    0.00000000
     atom    5 type  2   force =    -0.90990984    0.90990984   -0.00000000
     atom    6 type  2   force =     0.90990984   -0.90990984   -0.00000000
     The local contribution  to forces
     atom    1 type  1   force =    -0.00000000    0.00000000   -0.00000000
     atom    2 type  1   force =     0.00000000    0.00000000    0.00000000
     atom    3 type  2   force =     0.89964971    0.89964971    0.00000000
     atom    4 type  2   force =    -0.89964971   -0.89964971   -0.00000000
     atom    5 type  2   force =     0.89964971   -0.89964971    0.00000000
     atom    6 type  2   force =    -0.89964971    0.89964971    0.00000000
     The core correction contribution to forces
     atom    1 type  1   force =    -0.00000000   -0.00000000    0.00000000
     atom    2 type  1   force =     0.00000000    0.00000000    0.00000000
     atom    3 type  2   force =    -0.00144023   -0.00144023    0.00000000
     atom    4 type  2   force =     0.00144023    0.00144023    0.00000000
     atom    5 type  2   force =    -0.00144023    0.00144023    0.00000000
     atom    6 type  2   force =     0.00144023   -0.00144023    0.00000000
     The Hubbard contrib.    to forces
     atom    1 type  1   force =     0.00000000    0.00000000    0.00000000
     atom    2 type  1   force =     0.00000000    0.00000000    0.00000000
     atom    3 type  2   force =     0.00000000    0.00000000    0.00000000
     atom    4 type  2   force =     0.00000000    0.00000000    0.00000000
     atom    5 type  2   force =     0.00000000    0.00000000    0.00000000
     atom    6 type  2   force =     0.00000000    0.00000000    0.00000000
     The SCF correction term to forces
     atom    1 type  1   force =    -0.00000000    0.00000000   -0.00000000
     atom    2 type  1   force =     0.00000000    0.00000000   -0.00000000
     atom    3 type  2   force =     0.00002539    0.00002539    0.00000000
     atom    4 type  2   force =    -0.00002539   -0.00002539    0.00000000
     atom    5 type  2   force =     0.00002539   -0.00002539    0.00000000
     atom    6 type  2   force =    -0.00002539    0.00002539    0.00000000

     Total force =     0.012006     Total SCF correction =     0.000072


     Computing stress (Cartesian axis) and pressure

          total   stress  (Ry/bohr**3)                   (kbar)     P=      -13.23
  -0.00010724   0.00000000   0.00000000          -15.78        0.00        0.00
   0.00000000  -0.00010724   0.00000000            0.00      -15.78        0.00
   0.00000000   0.00000000  -0.00005537            0.00        0.00       -8.15

     kinetic stress (kbar)   7308.48      0.00      0.00
                                0.00   7308.48      0.00
                                0.00      0.00   7296.37

     local   stress (kbar)  -1484.33      0.00     -0.00
                                0.00  -1484.33      0.00
                               -0.00      0.00  -5906.15

     nonloc. stress (kbar)    132.89      0.00      0.00
                                0.00    132.89      0.00
                                0.00      0.00    136.56

     hartree stress (kbar)   2822.09      0.00      0.00
                                0.00   2822.09     -0.00
                                0.00     -0.00   4719.56

     exc-cor stress (kbar)   6148.82      0.00      0.00
                                0.00   6148.82     -0.00
                                0.00     -0.00   6149.49

     corecor stress (kbar)  -8262.96     -0.00     -0.00
                               -0.00  -8262.96      0.00
                               -0.00     -0.00  -8262.42

     ewald   stress (kbar)  -6680.77      0.00     -0.00
                                0.00  -6680.77     -0.00
                               -0.00     -0.00  -4141.56

     hubbard stress (kbar)      0.00      0.00      0.00
                                0.00      0.00      0.00
                                0.00      0.00      0.00

     DFT-D   stress (kbar)      0.00      0.00      0.00
                                0.00      0.00      0.00
                                0.00      0.00      0.00

     XDM     stress (kbar)      0.00      0.00      0.00
                                0.00      0.00      0.00
                                0.00      0.00      0.00

     dft-nl  stress (kbar)      0.00      0.00      0.00
                                0.00      0.00      0.00
                                0.00      0.00      0.00

     TS-vdW  stress (kbar)      0.00      0.00      0.00
                                0.00      0.00      0.00
                                0.00      0.00      0.00



     Writing output data file ./SnI2.save/
 
     init_run     :      1.06s CPU      1.51s WALL (       1 calls)
     electrons    :      8.98s CPU      9.19s WALL (       1 calls)
     forces       :      0.33s CPU      0.33s WALL (       1 calls)
     stress       :      0.77s CPU      0.77s WALL (       1 calls)

     Called by init_run:
     wfcinit      :      0.35s CPU      0.46s WALL (       1 calls)
     wfcinit:atom :      0.00s CPU      0.00s WALL (       6 calls)
     wfcinit:wfcr :      0.33s CPU      0.44s WALL (       6 calls)
     potinit      :      0.18s CPU      0.23s WALL (       1 calls)
     hinit0       :      0.29s CPU      0.53s WALL (       1 calls)

     Called by electrons:
     c_bands      :      5.99s CPU      6.11s WALL (       8 calls)
     sum_band     :      1.59s CPU      1.62s WALL (       8 calls)
     v_of_rho     :      0.15s CPU      0.15s WALL (       8 calls)
     v_h          :      0.02s CPU      0.02s WALL (       8 calls)
     v_xc         :      0.17s CPU      0.17s WALL (      10 calls)
     newd         :      0.46s CPU      0.49s WALL (       8 calls)
     PAW_pot      :      0.86s CPU      0.91s WALL (       8 calls)
     mix_rho      :      0.06s CPU      0.08s WALL (       8 calls)

     Called by c_bands:
     init_us_2    :      0.13s CPU      0.14s WALL (     114 calls)
     cegterg      :      5.55s CPU      5.66s WALL (      48 calls)

     Called by sum_band:
     sum_band:wei :      0.00s CPU      0.00s WALL (       8 calls)
     sum_band:loo :      0.91s CPU      0.93s WALL (       8 calls)
     sum_band:buf :      0.01s CPU      0.01s WALL (      48 calls)
     sum_band:ini :      0.05s CPU      0.05s WALL (      48 calls)
     sum_band:cal :      0.08s CPU      0.08s WALL (      48 calls)
     sum_band:bec :      0.00s CPU      0.00s WALL (      48 calls)
     addusdens    :      0.58s CPU      0.60s WALL (       8 calls)
     addusd:skk   :      0.00s CPU      0.00s WALL (      16 calls)
     addusd:dgemm :      0.29s CPU      0.31s WALL (      16 calls)
     addusd:qvan2 :      0.26s CPU      0.26s WALL (      16 calls)

     Called by *egterg:
     cdiaghg      :      0.24s CPU      0.31s WALL (     202 calls)
     cegterg:over :      0.22s CPU      0.23s WALL (     160 calls)
     cegterg:upda :      0.08s CPU      0.08s WALL (     160 calls)
     cegterg:last :      0.12s CPU      0.13s WALL (     105 calls)
     h_psi        :      4.83s CPU      4.97s WALL (     214 calls)
     s_psi        :      0.16s CPU      0.16s WALL (     214 calls)
     g_psi        :      0.01s CPU      0.01s WALL (     160 calls)

     Called by h_psi:
     h_psi:calbec :      0.37s CPU      0.41s WALL (     214 calls)
     vloc_psi     :      4.26s CPU      4.36s WALL (     214 calls)
     add_vuspsi   :      0.18s CPU      0.18s WALL (     214 calls)

     General routines
     calbec       :      0.50s CPU      0.54s WALL (     292 calls)
     fft          :      0.26s CPU      0.37s WALL (     114 calls)
     ffts         :      0.01s CPU      0.01s WALL (       8 calls)
     fftw         :      4.77s CPU      4.88s WALL (    9116 calls)
 
     Parallel routines
     fft_scatt_xy :      0.28s CPU      0.28s WALL (    9238 calls)
     fft_scatt_yz :      3.37s CPU      3.45s WALL (    9238 calls)

     PAW routines
     PAW_pot      :      0.86s CPU      0.91s WALL (       8 calls)
     PAW_symme    :      0.01s CPU      0.01s WALL (      16 calls)
 
     PWSCF        :     14.73s CPU     16.04s WALL

 
   This run was terminated on:  10:32:32  25Jan2021            

=------------------------------------------------------------------------------=
   JOB DONE.
=------------------------------------------------------------------------------=
