
     Program PWSCF v.6.3 starts on 17Feb2021 at 21:32:34 

     This program is part of the open-source Quantum ESPRESSO suite
     for quantum simulation of materials; please cite
         "P. Giannozzi et al., J. Phys.:Condens. Matter 21 395502 (2009);
         "P. Giannozzi et al., J. Phys.:Condens. Matter 29 465901 (2017);
          URL http://www.quantum-espresso.org", 
     in publications or presentations arising from this work. More details at
     http://www.quantum-espresso.org/quote

     Parallel version (MPI & OpenMP), running on      32 processor cores
     Number of MPI processes:                32
     Threads/MPI process:                     1

     MPI processes distributed on     1 nodes
     R & G space division:  proc/nbgrp/npool/nimage =      32
     Waiting for input...
     Reading input from standard input

     Current dimensions of program PWSCF are:
     Max number of different atomic species (ntypx) = 10
     Max number of k-points (npk) =  40000
     Max angular momentum in pseudopotentials (lmaxx) =  3
               file Sn.rel-pbe-dn-rrkjus_psl.1.0.0.UPF: wavefunction(s)  5S 4D 4D renormalized
               file Cs.rel-pbe-spn-rrkjus_psl.1.0.0.UPF: wavefunction(s)  5S 6S renormalized

     Subspace diagonalization in iterative solution of the eigenvalue problem:
     one sub-group per band group will be used
     scalapack distributed-memory algorithm (size of sub-group:  4*  4 procs)

 
     Parallelization info
     --------------------
     sticks:   dense  smooth     PW     G-vecs:    dense   smooth      PW
     Min         208     208     56                19702    19702    2792
     Max         209     209     57                19713    19713    2797
     Sum        6673    6673   1813               630597   630597   89389
 

     Title: 
     perovskite                                                                 


     bravais-lattice index     =            0
     lattice parameter (alat)  =      17.4003  a.u.
     unit-cell volume          =    6523.1036 (a.u.)^3
     number of atoms/cell      =           20
     number of atomic types    =            3
     number of electrons       =       176.00
     number of Kohn-Sham states=          176
     kinetic-energy cutoff     =      80.0000  Ry
     charge density cutoff     =     320.0000  Ry
     convergence threshold     =      1.0E-07
     mixing beta               =       0.6000
     number of iterations used =            8  plain     mixing
     Exchange-correlation      = PBE ( 1  4  3  4 0 0)
     nstep                     =           50

     Non magnetic calculation with spin-orbit


     celldm(1)=  17.400300  celldm(2)=   0.000000  celldm(3)=   0.000000
     celldm(4)=   0.000000  celldm(5)=   0.000000  celldm(6)=   0.000000

     crystal axes: (cart. coord. in units of alat)
               a(1) = (   1.000000   0.000000   0.000000 )  
               a(2) = (  -0.499997   0.866025   0.000000 )  
               a(3) = (   0.000000   0.000000   1.429728 )  

     reciprocal axes: (cart. coord. in units 2 pi/alat)
               b(1) = (  1.000000  0.577347  0.000000 )  
               b(2) = (  0.000000  1.154701  0.000000 )  
               b(3) = (  0.000000  0.000000  0.699434 )  


     PseudoPot. # 1 for Sn read from file:
     ./Sn.rel-pbe-dn-rrkjus_psl.1.0.0.UPF
     MD5 check sum: e9415cc9ba1036dfb73502962f03961a
     Pseudo is Ultrasoft + core correction, Zval = 14.0
     Generated using "atomic" code by A. Dal Corso v.6.3
     Using radial grid of 1243 points, 10 beta functions with: 
                l(1) =   0
                l(2) =   0
                l(3) =   1
                l(4) =   1
                l(5) =   1
                l(6) =   1
                l(7) =   2
                l(8) =   2
                l(9) =   2
               l(10) =   2
     Q(r) pseudized with 0 coefficients 


     PseudoPot. # 2 for I  read from file:
     ./I.rel-pbe-n-rrkjus_psl.0.2.2.UPF
     MD5 check sum: b9024a078df971004264c9bcc9ff756e
     Pseudo is Ultrasoft + core correction, Zval =  7.0
     Generated using "atomic" code by A. Dal Corso v.5.0.2 svn rev. 9415
     Using radial grid of 1247 points,  6 beta functions with: 
                l(1) =   0
                l(2) =   0
                l(3) =   1
                l(4) =   1
                l(5) =   1
                l(6) =   1
     Q(r) pseudized with 0 coefficients 


     PseudoPot. # 3 for Cs read from file:
     ./Cs.rel-pbe-spn-rrkjus_psl.1.0.0.UPF
     MD5 check sum: 92f45d5fced885c1284380ec35df8368
     Pseudo is Ultrasoft + core correction, Zval =  9.0
     Generated using "atomic" code by A. Dal Corso v.6.4.1
     Using radial grid of 1251 points, 15 beta functions with: 
                l(1) =   0
                l(2) =   0
                l(3) =   0
                l(4) =   1
                l(5) =   1
                l(6) =   1
                l(7) =   1
                l(8) =   2
                l(9) =   2
               l(10) =   2
               l(11) =   2
               l(12) =   3
               l(13) =   3
               l(14) =   3
               l(15) =   3
     Q(r) pseudized with 0 coefficients 


     atomic species   valence    mass     pseudopotential
        Sn            14.00   118.70000     Sn( 1.00)
        I              7.00   126.90000     I ( 1.00)
        Cs             9.00   132.90000     Cs( 1.00)

      4 Sym. Ops., with inversion, found ( 2 have fractional translation)


                                    s                        frac. trans.

      isym =  1     identity                                     

 cryst.   s( 1) = (     1          0          0      )
                  (     0          1          0      )
                  (     0          0          1      )

 cart.    s( 1) = (  1.0000000 -0.0000000  0.0000000 )
                  (  0.0000000  1.0000000  0.0000000 )
                  (  0.0000000  0.0000000  1.0000000 )


      isym =  2     180 deg rotation - cart. axis [0,0,1]        

 cryst.   s( 2) = (    -1          0          0      )    f =(  0.0000000 )
                  (     0         -1          0      )       (  0.0000000 )
                  (     0          0          1      )       (  0.5000000 )

 cart.    s( 2) = ( -1.0000000  0.0000000  0.0000000 )    f =(  0.0000000 )
                  (  0.0000000 -1.0000000  0.0000000 )       (  0.0000000 )
                  (  0.0000000  0.0000000  1.0000000 )       (  0.7148641 )


      isym =  3     inversion                                    

 cryst.   s( 3) = (    -1          0          0      )
                  (     0         -1          0      )
                  (     0          0         -1      )

 cart.    s( 3) = ( -1.0000000  0.0000000  0.0000000 )
                  (  0.0000000 -1.0000000  0.0000000 )
                  (  0.0000000  0.0000000 -1.0000000 )


      isym =  4     inv. 180 deg rotation - cart. axis [0,0,1]   

 cryst.   s( 4) = (     1          0          0      )    f =(  0.0000000 )
                  (     0          1          0      )       (  0.0000000 )
                  (     0          0         -1      )       (  0.5000000 )

 cart.    s( 4) = (  1.0000000 -0.0000000  0.0000000 )    f =(  0.0000000 )
                  (  0.0000000  1.0000000  0.0000000 )       (  0.0000000 )
                  (  0.0000000  0.0000000 -1.0000000 )       (  0.7148641 )


   Cartesian axes

     site n.     atom                  positions (alat units)
         1           Cs  tau(   1) = (   0.0000000   0.0000000   1.2958099  )
         2           Cs  tau(   2) = (   0.0000000   0.0000000   0.5809458  )
         3           Cs  tau(   3) = (   0.0000000   0.0000000   0.1339184  )
         4           Cs  tau(   4) = (   0.0000000   0.0000000   0.8487825  )
         5           Sn  tau(   5) = (   0.0000000   0.0000000   0.0000000  )
         6           Sn  tau(   6) = (   0.0000000   0.0000000   0.7148641  )
         7           Sn  tau(   7) = (   0.0000014   0.5773505   0.3574321  )
         8           Sn  tau(   8) = (   0.5000015   0.2886748   1.0722962  )
         9           I   tau(   9) = (   0.0000006   0.3336735   0.6359002  )
        10           I   tau(  10) = (   0.7110316   0.1668363   1.3507643  )
        11           I   tau(  11) = (   0.2110323   0.6991890   0.6359002  )
        12           I   tau(  12) = (   0.5000023   0.5323518   1.3507643  )
        13           I   tau(  13) = (  -0.2110287   0.6991890   0.6359002  )
        14           I   tau(  14) = (   0.2889706   0.1668363   1.3507643  )
        15           I   tau(  15) = (   0.5000023   0.5323518   0.7938280  )
        16           I   tau(  16) = (  -0.2110287   0.6991890   0.0789639  )
        17           I   tau(  17) = (   0.2889706   0.1668363   0.7938280  )
        18           I   tau(  18) = (   0.0000006   0.3336735   0.0789639  )
        19           I   tau(  19) = (   0.7110316   0.1668363   0.7938280  )
        20           I   tau(  20) = (   0.2110323   0.6991890   0.0789639  )

   Crystallographic axes

     site n.     atom                  positions (cryst. coord.)
         1           Cs  tau(   1) = (  0.0000000  0.0000000  0.9063330  )
         2           Cs  tau(   2) = (  0.0000000  0.0000000  0.4063330  )
         3           Cs  tau(   3) = (  0.0000000  0.0000000  0.0936670  )
         4           Cs  tau(   4) = (  0.0000000  0.0000000  0.5936670  )
         5           Sn  tau(   5) = (  0.0000000  0.0000000  0.0000000  )
         6           Sn  tau(   6) = (  0.0000000  0.0000000  0.5000000  )
         7           Sn  tau(   7) = (  0.3333330  0.6666670  0.2500000  )
         8           Sn  tau(   8) = (  0.6666670  0.3333330  0.7500000  )
         9           I   tau(   9) = (  0.1926460  0.3852930  0.4447700  )
        10           I   tau(  10) = (  0.8073540  0.1926460  0.9447700  )
        11           I   tau(  11) = (  0.6147070  0.8073540  0.4447700  )
        12           I   tau(  12) = (  0.8073540  0.6147070  0.9447700  )
        13           I   tau(  13) = (  0.1926460  0.8073540  0.4447700  )
        14           I   tau(  14) = (  0.3852930  0.1926460  0.9447700  )
        15           I   tau(  15) = (  0.8073540  0.6147070  0.5552300  )
        16           I   tau(  16) = (  0.1926460  0.8073540  0.0552300  )
        17           I   tau(  17) = (  0.3852930  0.1926460  0.5552300  )
        18           I   tau(  18) = (  0.1926460  0.3852930  0.0552300  )
        19           I   tau(  19) = (  0.8073540  0.1926460  0.5552300  )
        20           I   tau(  20) = (  0.6147070  0.8073540  0.0552300  )

     number of k points=    20
                       cart. coord. in units 2pi/alat
        k(    1) = (   0.0000000   0.0000000   0.0000000), wk =   0.0312500
        k(    2) = (   0.0000000   0.0000000  -0.3497168), wk =   0.0312500
        k(    3) = (   0.0000000   0.2886752   0.0000000), wk =   0.0625000
        k(    4) = (   0.0000000   0.2886752  -0.3497168), wk =   0.0625000
        k(    5) = (   0.0000000  -0.5773503   0.0000000), wk =   0.0312500
        k(    6) = (   0.0000000  -0.5773503  -0.3497168), wk =   0.0312500
        k(    7) = (   0.2500000   0.1443368   0.0000000), wk =   0.0625000
        k(    8) = (   0.2500000   0.1443368  -0.3497168), wk =   0.0625000
        k(    9) = (   0.2500000   0.4330119   0.0000000), wk =   0.0625000
        k(   10) = (   0.2500000   0.4330119  -0.3497168), wk =   0.0625000
        k(   11) = (   0.2500000  -0.4330136   0.0000000), wk =   0.0625000
        k(   12) = (   0.2500000  -0.4330136  -0.3497168), wk =   0.0625000
        k(   13) = (   0.2500000  -0.1443384   0.0000000), wk =   0.0625000
        k(   14) = (   0.2500000  -0.1443384  -0.3497168), wk =   0.0625000
        k(   15) = (  -0.5000000  -0.2886735   0.0000000), wk =   0.0312500
        k(   16) = (  -0.5000000  -0.2886735  -0.3497168), wk =   0.0312500
        k(   17) = (  -0.5000000   0.0000017   0.0000000), wk =   0.0625000
        k(   18) = (  -0.5000000   0.0000017  -0.3497168), wk =   0.0625000
        k(   19) = (  -0.5000000  -0.8660239   0.0000000), wk =   0.0312500
        k(   20) = (  -0.5000000  -0.8660239  -0.3497168), wk =   0.0312500

                       cryst. coord.
        k(    1) = (   0.0000000   0.0000000   0.0000000), wk =   0.0312500
        k(    2) = (   0.0000000   0.0000000  -0.5000000), wk =   0.0312500
        k(    3) = (   0.0000000   0.2500000   0.0000000), wk =   0.0625000
        k(    4) = (   0.0000000   0.2500000  -0.5000000), wk =   0.0625000
        k(    5) = (   0.0000000  -0.5000000   0.0000000), wk =   0.0312500
        k(    6) = (   0.0000000  -0.5000000  -0.5000000), wk =   0.0312500
        k(    7) = (   0.2500000  -0.0000000   0.0000000), wk =   0.0625000
        k(    8) = (   0.2500000  -0.0000000  -0.5000000), wk =   0.0625000
        k(    9) = (   0.2500000   0.2500000   0.0000000), wk =   0.0625000
        k(   10) = (   0.2500000   0.2500000  -0.5000000), wk =   0.0625000
        k(   11) = (   0.2500000  -0.5000000   0.0000000), wk =   0.0625000
        k(   12) = (   0.2500000  -0.5000000  -0.5000000), wk =   0.0625000
        k(   13) = (   0.2500000  -0.2500000   0.0000000), wk =   0.0625000
        k(   14) = (   0.2500000  -0.2500000  -0.5000000), wk =   0.0625000
        k(   15) = (  -0.5000000   0.0000000   0.0000000), wk =   0.0312500
        k(   16) = (  -0.5000000   0.0000000  -0.5000000), wk =   0.0312500
        k(   17) = (  -0.5000000   0.2500000   0.0000000), wk =   0.0625000
        k(   18) = (  -0.5000000   0.2500000  -0.5000000), wk =   0.0625000
        k(   19) = (  -0.5000000  -0.5000000   0.0000000), wk =   0.0312500
        k(   20) = (  -0.5000000  -0.5000000  -0.5000000), wk =   0.0312500

     Dense  grid:   630597 G-vectors     FFT dimensions: ( 100, 100, 144)

     Dynamical RAM for                 wfc:      13.23 MB

     Dynamical RAM for     wfc (w. buffer):     277.81 MB

     Dynamical RAM for           str. fact:       0.90 MB

     Dynamical RAM for           local pot:       0.00 MB

     Dynamical RAM for          nlocal pot:      20.90 MB

     Dynamical RAM for                qrad:     190.63 MB

     Dynamical RAM for          rho,v,vnew:       8.19 MB

     Dynamical RAM for               rhoin:       2.73 MB

     Dynamical RAM for            rho*nmix:      19.24 MB

     Dynamical RAM for           G-vectors:       1.28 MB

     Dynamical RAM for          h,s,v(r/c):       1.42 MB

     Dynamical RAM for          <psi|beta>:       2.99 MB

     Dynamical RAM for                 psi:      52.92 MB

     Dynamical RAM for                hpsi:      52.92 MB

     Dynamical RAM for                spsi:      52.92 MB

     Dynamical RAM for      wfcinit/wfcrot:      24.44 MB

     Dynamical RAM for           addusdens:     617.85 MB

     Dynamical RAM for          addusforce:     632.76 MB

     Dynamical RAM for         addusstress:     623.27 MB

     Estimated static dynamical RAM per process >     525.92 MB

     Estimated max dynamical RAM per process >       1.13 GB

     Estimated total dynamical RAM >      36.21 GB

     Initial potential from superposition of free atoms

     starting charge  175.83607, renormalised to  176.00000

     negative rho (up, down):  9.200E-07 0.000E+00
     Starting wfcs are  208 randomized atomic wfcs

     total cpu time spent up to now is       37.0 secs

     Self-consistent Calculation

     iteration #  1     ecut=    80.00 Ry     beta= 0.60
     Davidson diagonalization with overlap
     ethr =  1.00E-02,  avg # of iterations =  7.0

     negative rho (up, down):  4.007E+03 0.000E+00

     total cpu time spent up to now is      159.2 secs

     total energy              = 7819016.30048844 Ry
     Harris-Foulkes estimate   =   -1831.17136880 Ry
     estimated scf accuracy    < 9315637.75771018 Ry

     iteration #  2     ecut=    80.00 Ry     beta= 0.60
     Davidson diagonalization with overlap
     c_bands:  2 eigenvalues not converged
     c_bands:  5 eigenvalues not converged
     c_bands:  5 eigenvalues not converged
     c_bands:  4 eigenvalues not converged
     c_bands:  5 eigenvalues not converged
     c_bands:  4 eigenvalues not converged
     c_bands:  5 eigenvalues not converged
     c_bands:  5 eigenvalues not converged
     c_bands:  5 eigenvalues not converged
     ethr =  1.00E-02,  avg # of iterations = 20.9

     negative rho (up, down):  1.493E+03 0.000E+00

     total cpu time spent up to now is      517.6 secs

     total energy              =-4866361.57477108 Ry
     Harris-Foulkes estimate   =***************** Ry
     estimated scf accuracy    <25628890.96645217 Ry

     iteration #  3     ecut=    80.00 Ry     beta= 0.60
     Davidson diagonalization with overlap
     ethr =  1.00E-02,  avg # of iterations = 12.5

     negative rho (up, down):  5.763E+03 0.000E+00

     total cpu time spent up to now is      683.0 secs

     total energy              =10156689.72927022 Ry
     Harris-Foulkes estimate   =-4867050.10237362 Ry
     estimated scf accuracy    <15361602.12198747 Ry

     iteration #  4     ecut=    80.00 Ry     beta= 0.60
     Davidson diagonalization with overlap
     c_bands:  2 eigenvalues not converged
     ethr =  1.00E-02,  avg # of iterations = 21.9

     negative rho (up, down):  5.772E+03 0.000E+00

     total cpu time spent up to now is     1026.6 secs

     total energy              =***************** Ry
     Harris-Foulkes estimate   =***************** Ry
     estimated scf accuracy    <35982764.42645888 Ry

     iteration #  5     ecut=    80.00 Ry     beta= 0.60
     Davidson diagonalization with overlap
     ethr =  1.00E-02,  avg # of iterations =  7.4

     negative rho (up, down):  8.900E+02 0.000E+00

     total cpu time spent up to now is     1101.8 secs

     total energy              =-2963715.19362803 Ry
     Harris-Foulkes estimate   =***************** Ry
     estimated scf accuracy    <36030426.97459377 Ry

     iteration #  6     ecut=    80.00 Ry     beta= 0.60
     Davidson diagonalization with overlap
     c_bands:  5 eigenvalues not converged
     c_bands:  3 eigenvalues not converged
     c_bands:  2 eigenvalues not converged
     c_bands:  3 eigenvalues not converged
     c_bands:  3 eigenvalues not converged
     c_bands:  1 eigenvalues not converged
     c_bands:  3 eigenvalues not converged
     c_bands:  2 eigenvalues not converged
     c_bands:  3 eigenvalues not converged
     ethr =  1.00E-02,  avg # of iterations = 36.1

     negative rho (up, down):  8.870E+02 0.000E+00

     total cpu time spent up to now is     1648.8 secs

     total energy              =-2964730.80488104 Ry
     Harris-Foulkes estimate   =-2975418.85960540 Ry
     estimated scf accuracy    <14072179.81580432 Ry

     iteration #  7     ecut=    80.00 Ry     beta= 0.60
     Davidson diagonalization with overlap
     ethr =  1.00E-02,  avg # of iterations =  9.3

     negative rho (up, down):  8.866E+02 0.000E+00

     total cpu time spent up to now is     1728.1 secs

     total energy              =-2963394.72566144 Ry
     Harris-Foulkes estimate   =-2964731.74620937 Ry
     estimated scf accuracy    <14061514.42872744 Ry

     iteration #  8     ecut=    80.00 Ry     beta= 0.60
     Davidson diagonalization with overlap
     ethr =  1.00E-02,  avg # of iterations =  1.1

     negative rho (up, down):  8.795E+02 0.000E+00

     total cpu time spent up to now is     1790.7 secs

     total energy              =-2936516.26173254 Ry
     Harris-Foulkes estimate   =-2963394.86814397 Ry
     estimated scf accuracy    <14060168.28493763 Ry

     iteration #  9     ecut=    80.00 Ry     beta= 0.60
     Davidson diagonalization with overlap
     ethr =  1.00E-02,  avg # of iterations =  2.3

     negative rho (up, down):  8.419E+02 0.000E+00

     total cpu time spent up to now is     1855.9 secs

     total energy              =-2795343.58145056 Ry
     Harris-Foulkes estimate   =-2936516.57532258 Ry
     estimated scf accuracy    <14033258.65702804 Ry

     iteration # 10     ecut=    80.00 Ry     beta= 0.60
     Davidson diagonalization with overlap
     ethr =  1.00E-02,  avg # of iterations =  5.8

     negative rho (up, down):  5.085E+02 0.000E+00

     total cpu time spent up to now is     1949.0 secs

     total energy              =-1429945.17642689 Ry
     Harris-Foulkes estimate   =-2795354.35027073 Ry
     estimated scf accuracy    <13890239.58676045 Ry

     iteration # 11     ecut=    80.00 Ry     beta= 0.60
     Davidson diagonalization with overlap
     ethr =  1.00E-02,  avg # of iterations = 18.6

     negative rho (up, down):  7.651E+02 0.000E+00

     total cpu time spent up to now is     2168.4 secs

     total energy              =-2467086.01517422 Ry
     Harris-Foulkes estimate   =-1432621.76616616 Ry
     estimated scf accuracy    <12439667.01796412 Ry

     iteration # 12     ecut=    80.00 Ry     beta= 0.60
     Davidson diagonalization with overlap
     ethr =  1.00E-02,  avg # of iterations = 16.9

     negative rho (up, down):  7.553E+03 0.000E+00

     total cpu time spent up to now is     2307.6 secs

     total energy              =11022508.68563328 Ry
     Harris-Foulkes estimate   =-2468253.35642769 Ry
     estimated scf accuracy    <13528199.04099894 Ry

     iteration # 13     ecut=    80.00 Ry     beta= 0.60
     Davidson diagonalization with overlap
     c_bands:  2 eigenvalues not converged
     c_bands:  2 eigenvalues not converged
     c_bands:  4 eigenvalues not converged
     c_bands:  2 eigenvalues not converged
     c_bands:  2 eigenvalues not converged
     c_bands:  2 eigenvalues not converged
     c_bands:  1 eigenvalues not converged
     c_bands:  3 eigenvalues not converged
     c_bands:  3 eigenvalues not converged
     c_bands:  5 eigenvalues not converged
     c_bands:  1 eigenvalues not converged
     c_bands:  2 eigenvalues not converged
     c_bands:  3 eigenvalues not converged
     c_bands:  2 eigenvalues not converged
     c_bands:  4 eigenvalues not converged
     c_bands:  5 eigenvalues not converged
     c_bands:  3 eigenvalues not converged
     ethr =  1.00E-02,  avg # of iterations = 21.1

     negative rho (up, down):  2.305E+03 0.000E+00

     total cpu time spent up to now is     2680.1 secs

     total energy              =-7621844.19327319 Ry
     Harris-Foulkes estimate   =***************** Ry
     estimated scf accuracy    <42587120.07230781 Ry

     iteration # 14     ecut=    80.00 Ry     beta= 0.60
     Davidson diagonalization with overlap
     c_bands:  3 eigenvalues not converged
     ethr =  1.00E-02,  avg # of iterations = 14.3

     negative rho (up, down):  4.305E+02 0.000E+00

     total cpu time spent up to now is     2872.9 secs

     total energy              = -860845.83334304 Ry
     Harris-Foulkes estimate   =-7623275.34276640 Ry
     estimated scf accuracy    <18118644.09103819 Ry

     iteration # 15     ecut=    80.00 Ry     beta= 0.60
     Davidson diagonalization with overlap
     ethr =  1.00E-02,  avg # of iterations = 22.0

     negative rho (up, down):  6.341E+02 0.000E+00

     total cpu time spent up to now is     3338.3 secs

     total energy              = 1630187.82155221 Ry
     Harris-Foulkes estimate   = -880626.42679492 Ry
     estimated scf accuracy    <11105425.71095014 Ry

     iteration # 16     ecut=    80.00 Ry     beta= 0.60
     Davidson diagonalization with overlap
     c_bands:  2 eigenvalues not converged
     c_bands:  3 eigenvalues not converged
     c_bands:  2 eigenvalues not converged
     c_bands:  1 eigenvalues not converged
     c_bands:  2 eigenvalues not converged
     c_bands:  2 eigenvalues not converged
     c_bands:  1 eigenvalues not converged
     c_bands:  2 eigenvalues not converged
     c_bands:  4 eigenvalues not converged
     c_bands:  3 eigenvalues not converged
     c_bands:  5 eigenvalues not converged
     c_bands:  4 eigenvalues not converged
     c_bands:  4 eigenvalues not converged
     c_bands:  2 eigenvalues not converged
     c_bands:  2 eigenvalues not converged
     c_bands:  3 eigenvalues not converged
     c_bands:  2 eigenvalues not converged
     c_bands:  2 eigenvalues not converged
     ethr =  1.00E-02,  avg # of iterations = 20.1

     negative rho (up, down):  3.615E+02 0.000E+00

     total cpu time spent up to now is     3579.6 secs

     total energy              =  364631.02547833 Ry
     Harris-Foulkes estimate   =-1780263.59855270 Ry
     estimated scf accuracy    <12798019.87235403 Ry

     iteration # 17     ecut=    80.00 Ry     beta= 0.60
     Davidson diagonalization with overlap
     ethr =  1.00E-02,  avg # of iterations = 22.0

     negative rho (up, down):  7.320E+02 0.000E+00

     total cpu time spent up to now is     3948.4 secs

     total energy              = 1943860.86959151 Ry
     Harris-Foulkes estimate   = -309368.43377986 Ry
     estimated scf accuracy    < 9730304.16875718 Ry

     iteration # 18     ecut=    80.00 Ry     beta= 0.60
     Davidson diagonalization with overlap
     ethr =  1.00E-02,  avg # of iterations = 14.8

     negative rho (up, down):  6.121E+02 0.000E+00

     total cpu time spent up to now is     4120.8 secs

     total energy              =-1818046.03885954 Ry
     Harris-Foulkes estimate   =-2300494.94811207 Ry
     estimated scf accuracy    <13340725.34304878 Ry

     iteration # 19     ecut=    80.00 Ry     beta= 0.60
     Davidson diagonalization with overlap
     ethr =  1.00E-02,  avg # of iterations =  6.3

     negative rho (up, down):  3.900E+02 0.000E+00

     total cpu time spent up to now is     4244.6 secs

     total energy              = -766739.08800351 Ry
     Harris-Foulkes estimate   =-1818305.18861284 Ry
     estimated scf accuracy    <12841337.18319747 Ry

     iteration # 20     ecut=    80.00 Ry     beta= 0.60
     Davidson diagonalization with overlap
     ethr =  1.00E-02,  avg # of iterations = 11.6

     negative rho (up, down):  6.289E+02 0.000E+00

     total cpu time spent up to now is     4448.7 secs

     total energy              = 1702307.05767211 Ry
     Harris-Foulkes estimate   = -768832.14006416 Ry
     estimated scf accuracy    <11648808.59824332 Ry

     iteration # 21     ecut=    80.00 Ry     beta= 0.60
     Davidson diagonalization with overlap
     c_bands:  1 eigenvalues not converged
     c_bands:  2 eigenvalues not converged
     c_bands:  2 eigenvalues not converged
     c_bands:  2 eigenvalues not converged
     c_bands:  2 eigenvalues not converged
     c_bands:  2 eigenvalues not converged
     c_bands:  2 eigenvalues not converged
     c_bands:  1 eigenvalues not converged
     c_bands:  1 eigenvalues not converged
     c_bands:  4 eigenvalues not converged
     c_bands:  2 eigenvalues not converged
     c_bands:  2 eigenvalues not converged
     ethr =  1.00E-02,  avg # of iterations = 20.4

     negative rho (up, down):  6.821E+02 0.000E+00

     total cpu time spent up to now is     4690.1 secs

     total energy              =-1920361.53017924 Ry
     Harris-Foulkes estimate   =-1735908.27753845 Ry
     estimated scf accuracy    <12051747.15878460 Ry

     iteration # 22     ecut=    80.00 Ry     beta= 0.60
     Davidson diagonalization with overlap
     c_bands:  1 eigenvalues not converged
     c_bands:  4 eigenvalues not converged
     c_bands:  2 eigenvalues not converged
     c_bands:  1 eigenvalues not converged
     c_bands:  1 eigenvalues not converged
     ethr =  1.00E-02,  avg # of iterations = 20.9

     negative rho (up, down):  7.686E+02 0.000E+00

     total cpu time spent up to now is     4872.1 secs

     total energy              =-2241872.86559212 Ry
     Harris-Foulkes estimate   =-1920437.14124023 Ry
     estimated scf accuracy    <12252114.17423342 Ry

     iteration # 23     ecut=    80.00 Ry     beta= 0.60
     Davidson diagonalization with overlap
     c_bands:  3 eigenvalues not converged
     c_bands:  4 eigenvalues not converged
     c_bands:  1 eigenvalues not converged
     c_bands:  2 eigenvalues not converged
     c_bands:  5 eigenvalues not converged
     ethr =  1.00E-02,  avg # of iterations = 21.4

     negative rho (up, down):  5.730E+02 0.000E+00

     total cpu time spent up to now is     5049.5 secs

     total energy              =-1410145.18409978 Ry
     Harris-Foulkes estimate   =-2242059.57945793 Ry
     estimated scf accuracy    <12594585.87048540 Ry

     iteration # 24     ecut=    80.00 Ry     beta= 0.60
     Davidson diagonalization with overlap
     c_bands:  4 eigenvalues not converged
     c_bands:  1 eigenvalues not converged
     c_bands:  4 eigenvalues not converged
     c_bands:  5 eigenvalues not converged
     c_bands:  1 eigenvalues not converged
     c_bands:  2 eigenvalues not converged
     ethr =  1.00E-02,  avg # of iterations = 23.7

     negative rho (up, down):  5.602E+02 0.000E+00

     total cpu time spent up to now is     5355.2 secs

     total energy              =-1348313.62167511 Ry
     Harris-Foulkes estimate   =-1411801.54401671 Ry
     estimated scf accuracy    <11700057.08409403 Ry

     iteration # 25     ecut=    80.00 Ry     beta= 0.60
     Davidson diagonalization with overlap
     ethr =  1.00E-02,  avg # of iterations =  9.9

     negative rho (up, down):  4.382E+02 0.000E+00

     total cpu time spent up to now is     5470.0 secs

     total energy              =  103131.48816331 Ry
     Harris-Foulkes estimate   =-1348330.66630337 Ry
     estimated scf accuracy    <11632653.09870121 Ry

     iteration # 26     ecut=    80.00 Ry     beta= 0.60
     Davidson diagonalization with overlap
     ethr =  1.00E-02,  avg # of iterations = 11.2

     negative rho (up, down):  4.406E+02 0.000E+00

     total cpu time spent up to now is     5624.4 secs

     total energy              =  116435.20978681 Ry
     Harris-Foulkes estimate   =  -90328.63441190 Ry
     estimated scf accuracy    < 3885287.42089201 Ry

     iteration # 27     ecut=    80.00 Ry     beta= 0.60
     Davidson diagonalization with overlap
     c_bands:  4 eigenvalues not converged
     c_bands:  3 eigenvalues not converged
     c_bands:  1 eigenvalues not converged
     c_bands:  3 eigenvalues not converged
     c_bands:  5 eigenvalues not converged
     c_bands:  1 eigenvalues not converged
     c_bands:  2 eigenvalues not converged
     c_bands:  5 eigenvalues not converged
     c_bands:  2 eigenvalues not converged
     c_bands:  3 eigenvalues not converged
     c_bands:  2 eigenvalues not converged
     c_bands:  2 eigenvalues not converged
     c_bands:  1 eigenvalues not converged
     ethr =  1.00E-02,  avg # of iterations = 21.8

     negative rho (up, down):  4.534E+02 0.000E+00

     total cpu time spent up to now is     5901.1 secs

     total energy              =   88070.23374356 Ry
     Harris-Foulkes estimate   = -254474.91932413 Ry
     estimated scf accuracy    < 9267237.82121223 Ry

     iteration # 28     ecut=    80.00 Ry     beta= 0.60
     Davidson diagonalization with overlap
     ethr =  1.00E-02,  avg # of iterations = 12.9

     negative rho (up, down):  4.540E+02 0.000E+00

     total cpu time spent up to now is     6042.2 secs

     total energy              =  408260.87375123 Ry
     Harris-Foulkes estimate   = -107301.51006943 Ry
     estimated scf accuracy    < 5149500.95288432 Ry

     iteration # 29     ecut=    80.00 Ry     beta= 0.60
     Davidson diagonalization with overlap
     ethr =  1.00E-02,  avg # of iterations = 18.1

     negative rho (up, down):  1.722E+03 0.000E+00

     total cpu time spent up to now is     6202.0 secs

     total energy              =-5430800.56227360 Ry
     Harris-Foulkes estimate   = -636977.60274460 Ry
     estimated scf accuracy    <10718499.30322394 Ry

     iteration # 30     ecut=    80.00 Ry     beta= 0.60
     Davidson diagonalization with overlap
     c_bands:  3 eigenvalues not converged
     c_bands:  5 eigenvalues not converged
     c_bands:  1 eigenvalues not converged
     c_bands:  1 eigenvalues not converged
     c_bands:  1 eigenvalues not converged
     c_bands:  1 eigenvalues not converged
     ethr =  1.00E-02,  avg # of iterations = 36.3

     negative rho (up, down):  2.371E+03 0.000E+00

     total cpu time spent up to now is     6694.5 secs

     total energy              =-7948970.70687428 Ry
     Harris-Foulkes estimate   =-5489483.94544838 Ry
     estimated scf accuracy    <15956411.85517010 Ry

     iteration # 31     ecut=    80.00 Ry     beta= 0.60
     Davidson diagonalization with overlap
     c_bands:  4 eigenvalues not converged
     c_bands:  4 eigenvalues not converged
     c_bands:  4 eigenvalues not converged
     c_bands:  4 eigenvalues not converged
     c_bands:  4 eigenvalues not converged
     c_bands:  4 eigenvalues not converged
     c_bands:  4 eigenvalues not converged
     c_bands:  4 eigenvalues not converged
     c_bands:  4 eigenvalues not converged
     c_bands:  4 eigenvalues not converged
     c_bands:  4 eigenvalues not converged
     c_bands:  4 eigenvalues not converged
     c_bands:  4 eigenvalues not converged
     c_bands:  4 eigenvalues not converged
     c_bands:  4 eigenvalues not converged
     c_bands:  4 eigenvalues not converged
     ethr =  1.00E-02,  avg # of iterations = 20.4

     negative rho (up, down):  3.274E+03 0.000E+00

     total cpu time spent up to now is     6896.9 secs

     total energy              =***************** Ry
     Harris-Foulkes estimate   =-7949575.60442629 Ry
     estimated scf accuracy    <18428816.88848298 Ry

     iteration # 32     ecut=    80.00 Ry     beta= 0.60
     Davidson diagonalization with overlap
     c_bands:  4 eigenvalues not converged
     c_bands:  4 eigenvalues not converged
     c_bands:  5 eigenvalues not converged
     c_bands:  5 eigenvalues not converged
     c_bands:  3 eigenvalues not converged
     c_bands:  2 eigenvalues not converged
     c_bands:  1 eigenvalues not converged
     c_bands:  2 eigenvalues not converged
     c_bands:  3 eigenvalues not converged
     c_bands:  3 eigenvalues not converged
     c_bands:  3 eigenvalues not converged
     c_bands:  5 eigenvalues not converged
     c_bands:  3 eigenvalues not converged
     c_bands:  2 eigenvalues not converged
     ethr =  1.00E-02,  avg # of iterations = 20.3

     negative rho (up, down):  3.990E+03 0.000E+00

     total cpu time spent up to now is     7123.5 secs

     total energy              =***************** Ry
     Harris-Foulkes estimate   =***************** Ry
     estimated scf accuracy    <22140282.09108619 Ry

     iteration # 33     ecut=    80.00 Ry     beta= 0.60
     Davidson diagonalization with overlap
     ethr =  1.00E-02,  avg # of iterations =  5.5

     negative rho (up, down):  2.488E+03 0.000E+00

     total cpu time spent up to now is     7245.3 secs

     total energy              =-8477601.04078623 Ry
     Harris-Foulkes estimate   =***************** Ry
     estimated scf accuracy    <25230191.24049430 Ry

     iteration # 34     ecut=    80.00 Ry     beta= 0.60
     Davidson diagonalization with overlap
     ethr =  1.00E-02,  avg # of iterations = 18.6

     negative rho (up, down):  2.598E+02 0.000E+00

     total cpu time spent up to now is     7425.9 secs

     total energy              = -523641.62660552 Ry
     Harris-Foulkes estimate   =-8478153.67112290 Ry
     estimated scf accuracy    <18972165.19577616 Ry

     iteration # 35     ecut=    80.00 Ry     beta= 0.60
     Davidson diagonalization with overlap
     c_bands:  2 eigenvalues not converged
     c_bands:  1 eigenvalues not converged
     c_bands:  1 eigenvalues not converged
     c_bands:  1 eigenvalues not converged
     c_bands:  2 eigenvalues not converged
     ethr =  1.00E-02,  avg # of iterations = 36.5

     negative rho (up, down):  1.298E+03 0.000E+00

     total cpu time spent up to now is     7988.4 secs

     total energy              =-4016570.85647602 Ry
     Harris-Foulkes estimate   = -564798.77619326 Ry
     estimated scf accuracy    <10801226.57785517 Ry

     iteration # 36     ecut=    80.00 Ry     beta= 0.60
     Davidson diagonalization with overlap
     c_bands:  2 eigenvalues not converged
     c_bands:  1 eigenvalues not converged
     c_bands:  1 eigenvalues not converged
     c_bands:  2 eigenvalues not converged
     c_bands:  2 eigenvalues not converged
     c_bands:  1 eigenvalues not converged
     c_bands:  4 eigenvalues not converged
     c_bands:  1 eigenvalues not converged
     c_bands:  1 eigenvalues not converged
     c_bands:  1 eigenvalues not converged
     c_bands:  1 eigenvalues not converged
     c_bands:  2 eigenvalues not converged
     c_bands:  1 eigenvalues not converged
     c_bands:  3 eigenvalues not converged
     c_bands:  2 eigenvalues not converged
     c_bands:  2 eigenvalues not converged
     ethr =  1.00E-02,  avg # of iterations = 20.2

     negative rho (up, down):  4.460E+03 0.000E+00

     total cpu time spent up to now is     8357.6 secs

     total energy              = 8885819.84510205 Ry
     Harris-Foulkes estimate   =-4164981.11805853 Ry
     estimated scf accuracy    <14589755.06127839 Ry

     iteration # 37     ecut=    80.00 Ry     beta= 0.60
     Davidson diagonalization with overlap
     c_bands:  1 eigenvalues not converged
     c_bands:  3 eigenvalues not converged
     c_bands:  1 eigenvalues not converged
     c_bands:  1 eigenvalues not converged
     c_bands:  1 eigenvalues not converged
     c_bands:  2 eigenvalues not converged
     ethr =  1.00E-02,  avg # of iterations = 18.2

     negative rho (up, down):  1.161E+03 0.000E+00

     total cpu time spent up to now is     8708.4 secs

     total energy              =-3696422.14861236 Ry
     Harris-Foulkes estimate   =***************** Ry
     estimated scf accuracy    <28477975.63346216 Ry

     iteration # 38     ecut=    80.00 Ry     beta= 0.60
     Davidson diagonalization with overlap
     ethr =  1.00E-02,  avg # of iterations = 22.0

     negative rho (up, down):  9.880E+02 0.000E+00

     total cpu time spent up to now is     9011.4 secs

     total energy              =-3070094.35623977 Ry
     Harris-Foulkes estimate   =-3701532.85077159 Ry
     estimated scf accuracy    <14875697.70098823 Ry

     iteration # 39     ecut=    80.00 Ry     beta= 0.60
     Davidson diagonalization with overlap
     ethr =  1.00E-02,  avg # of iterations = 12.6

     negative rho (up, down):  8.637E+02 0.000E+00

     total cpu time spent up to now is     9220.1 secs

     total energy              = 2517963.15527165 Ry
     Harris-Foulkes estimate   =-3071057.37941703 Ry
     estimated scf accuracy    <14206398.48386328 Ry

     iteration # 40     ecut=    80.00 Ry     beta= 0.60
     Davidson diagonalization with overlap
     c_bands:  5 eigenvalues not converged
     c_bands:  4 eigenvalues not converged
     c_bands:  4 eigenvalues not converged
     c_bands:  2 eigenvalues not converged
     c_bands:  3 eigenvalues not converged
     c_bands:  4 eigenvalues not converged
     c_bands:  3 eigenvalues not converged
     c_bands:  2 eigenvalues not converged
     c_bands:  2 eigenvalues not converged
     c_bands:  3 eigenvalues not converged
     c_bands:  3 eigenvalues not converged
     c_bands:  4 eigenvalues not converged
     c_bands:  3 eigenvalues not converged
     c_bands:  5 eigenvalues not converged
     c_bands:  3 eigenvalues not converged
     c_bands:  3 eigenvalues not converged
     c_bands:  4 eigenvalues not converged
     c_bands:  3 eigenvalues not converged
     c_bands:  4 eigenvalues not converged
     ethr =  1.00E-02,  avg # of iterations = 20.1

     negative rho (up, down):  7.687E+02 0.000E+00

     total cpu time spent up to now is     9660.6 secs

     total energy              = 2069735.06043877 Ry
     Harris-Foulkes estimate   =-2665547.93562952 Ry
     estimated scf accuracy    <13042312.69210631 Ry

     iteration # 41     ecut=    80.00 Ry     beta= 0.60
     Davidson diagonalization with overlap
     c_bands:  1 eigenvalues not converged
     c_bands:  1 eigenvalues not converged
     c_bands:  3 eigenvalues not converged
     c_bands:  5 eigenvalues not converged
     c_bands:  3 eigenvalues not converged
     c_bands:  3 eigenvalues not converged
     c_bands:  1 eigenvalues not converged
     c_bands:  1 eigenvalues not converged
     c_bands:  5 eigenvalues not converged
     c_bands:  1 eigenvalues not converged
     c_bands:  2 eigenvalues not converged
     c_bands:  3 eigenvalues not converged
     c_bands:  2 eigenvalues not converged
     c_bands:  3 eigenvalues not converged
     c_bands:  4 eigenvalues not converged
     c_bands:  4 eigenvalues not converged
     c_bands:  5 eigenvalues not converged
     c_bands:  1 eigenvalues not converged
     ethr =  1.00E-02,  avg # of iterations = 41.4

     negative rho (up, down):  8.396E+02 0.000E+00

     total cpu time spent up to now is    10176.3 secs

     total energy              =-2559422.14408274 Ry
     Harris-Foulkes estimate   =-2297684.92464805 Ry
     estimated scf accuracy    <13385587.19206466 Ry

     iteration # 42     ecut=    80.00 Ry     beta= 0.60
     Davidson diagonalization with overlap
     ethr =  1.00E-02,  avg # of iterations = 11.3

     negative rho (up, down):  3.556E+02 0.000E+00

     total cpu time spent up to now is    10385.1 secs

     total energy              =  427612.84632894 Ry
     Harris-Foulkes estimate   =-2559686.19972049 Ry
     estimated scf accuracy    <13674054.42184481 Ry

     iteration # 43     ecut=    80.00 Ry     beta= 0.60
     Davidson diagonalization with overlap
     c_bands:  5 eigenvalues not converged
     c_bands:  1 eigenvalues not converged
     c_bands:  4 eigenvalues not converged
     c_bands:  2 eigenvalues not converged
     c_bands:  3 eigenvalues not converged
     ethr =  1.00E-02,  avg # of iterations = 36.4

     negative rho (up, down):  3.655E+02 0.000E+00

     total cpu time spent up to now is    10860.1 secs

     total energy              = -549407.26131448 Ry
     Harris-Foulkes estimate   = -370107.92202303 Ry
     estimated scf accuracy    <10191730.92333169 Ry

     iteration # 44     ecut=    80.00 Ry     beta= 0.60
     Davidson diagonalization with overlap
     c_bands:  1 eigenvalues not converged
     c_bands:  2 eigenvalues not converged
     ethr =  1.00E-02,  avg # of iterations = 10.4

     negative rho (up, down):  3.663E+02 0.000E+00

     total cpu time spent up to now is    10978.5 secs

     total energy              = -401945.12075216 Ry
     Harris-Foulkes estimate   = -553062.83756135 Ry
     estimated scf accuracy    <10640964.12739314 Ry

     iteration # 45     ecut=    80.00 Ry     beta= 0.60
     Davidson diagonalization with overlap
     ethr =  1.00E-02,  avg # of iterations =  9.0

     negative rho (up, down):  3.674E+02 0.000E+00

     total cpu time spent up to now is    11078.2 secs

     total energy              = -387720.83095877 Ry
     Harris-Foulkes estimate   = -403406.21754976 Ry
     estimated scf accuracy    <10290242.94639621 Ry

     iteration # 46     ecut=    80.00 Ry     beta= 0.60
     Davidson diagonalization with overlap
     ethr =  1.00E-02,  avg # of iterations = 10.2

     negative rho (up, down):  3.743E+02 0.000E+00

     total cpu time spent up to now is    11168.3 secs

     WARNING: integrated charge=   176.01322459, expected=   176.00000000

     total energy              = -532725.90713822 Ry
     Harris-Foulkes estimate   = -387764.06080092 Ry
     estimated scf accuracy    <10246428.98630282 Ry

     iteration # 47     ecut=    80.00 Ry     beta= 0.60
     Davidson diagonalization with overlap
     ethr =  1.00E-02,  avg # of iterations =  9.0

     negative rho (up, down):  3.751E+02 0.000E+00

     total cpu time spent up to now is    11268.4 secs

     WARNING: integrated charge=   176.01281278, expected=   176.00000000

     total energy              = -541930.34128798 Ry
     Harris-Foulkes estimate   = -535039.14922896 Ry
     estimated scf accuracy    <10604100.52627074 Ry

     iteration # 48     ecut=    80.00 Ry     beta= 0.60
     Davidson diagonalization with overlap
     ethr =  1.00E-02,  avg # of iterations =  7.0

     negative rho (up, down):  3.714E+02 0.000E+00

     total cpu time spent up to now is    11345.5 secs

     WARNING: integrated charge=   176.06739441, expected=   176.00000000

     total energy              = -453362.90724590 Ry
     Harris-Foulkes estimate   = -541933.07742585 Ry
     estimated scf accuracy    <10616755.60595726 Ry

     iteration # 49     ecut=    80.00 Ry     beta= 0.60
     Davidson diagonalization with overlap
     ethr =  1.00E-02,  avg # of iterations =  9.2

     negative rho (up, down):  4.307E+02 0.000E+00

 %%%%%%%%%%%%%%%%%%%%%%%%%%%%%%%%%%%%%%%%%%%%%%%%%%%%%%%%%%%%%%%%%%%%%%%%%%%%%%
     Error in routine electrons (1):
     charge is wrong: smearing is needed
 %%%%%%%%%%%%%%%%%%%%%%%%%%%%%%%%%%%%%%%%%%%%%%%%%%%%%%%%%%%%%%%%%%%%%%%%%%%%%%

     stopping ...

 %%%%%%%%%%%%%%%%%%%%%%%%%%%%%%%%%%%%%%%%%%%%%%%%%%%%%%%%%%%%%%%%%%%%%%%%%%%%%%
     Error in routine electrons (1):
     charge is wrong: smearing is needed
 %%%%%%%%%%%%%%%%%%%%%%%%%%%%%%%%%%%%%%%%%%%%%%%%%%%%%%%%%%%%%%%%%%%%%%%%%%%%%%

     stopping ...

 %%%%%%%%%%%%%%%%%%%%%%%%%%%%%%%%%%%%%%%%%%%%%%%%%%%%%%%%%%%%%%%%%%%%%%%%%%%%%%
     Error in routine electrons (1):
     charge is wrong: smearing is needed
 %%%%%%%%%%%%%%%%%%%%%%%%%%%%%%%%%%%%%%%%%%%%%%%%%%%%%%%%%%%%%%%%%%%%%%%%%%%%%%

     stopping ...

 %%%%%%%%%%%%%%%%%%%%%%%%%%%%%%%%%%%%%%%%%%%%%%%%%%%%%%%%%%%%%%%%%%%%%%%%%%%%%%
     Error in routine electrons (1):
     charge is wrong: smearing is needed
 %%%%%%%%%%%%%%%%%%%%%%%%%%%%%%%%%%%%%%%%%%%%%%%%%%%%%%%%%%%%%%%%%%%%%%%%%%%%%%

     stopping ...

 %%%%%%%%%%%%%%%%%%%%%%%%%%%%%%%%%%%%%%%%%%%%%%%%%%%%%%%%%%%%%%%%%%%%%%%%%%%%%%
     Error in routine electrons (1):

 %%%%%%%%%%%%%%%%%%%%%%%%%%%%%%%%%%%%%%%%%%%%%%%%%%%%%%%%%%%%%%%%%%%%%%%%%%%%%%
     Error in routine electrons (1):
     charge is wrong: smearing is needed
 %%%%%%%%%%%%%%%%%%%%%%%%%%%%%%%%%%%%%%%%%%%%%%%%%%%%%%%%%%%%%%%%%%%%%%%%%%%%%%

     stopping ...

 %%%%%%%%%%%%%%%%%%%%%%%%%%%%%%%%%%%%%%%%%%%%%%%%%%%%%%%%%%%%%%%%%%%%%%%%%%%%%%
     Error in routine electrons (1):
     charge is wrong: smearing is needed
 %%%%%%%%%%%%%%%%%%%%%%%%%%%%%%%%%%%%%%%%%%%%%%%%%%%%%%%%%%%%%%%%%%%%%%%%%%%%%%

     stopping ...
     charge is wrong: smearing is needed
 %%%%%%%%%%%%%%%%%%%%%%%%%%%%%%%%%%%%%%%%%%%%%%%%%%%%%%%%%%%%%%%%%%%%%%%%%%%%%%

     stopping ...

 %%%%%%%%%%%%%%%%%%%%%%%%%%%%%%%%%%%%%%%%%%%%%%%%%%%%%%%%%%%%%%%%%%%%%%%%%%%%%%
     Error in routine electrons (1):
     charge is wrong: smearing is needed
 %%%%%%%%%%%%%%%%%%%%%%%%%%%%%%%%%%%%%%%%%%%%%%%%%%%%%%%%%%%%%%%%%%%%%%%%%%%%%%

     stopping ...

 %%%%%%%%%%%%%%%%%%%%%%%%%%%%%%%%%%%%%%%%%%%%%%%%%%%%%%%%%%%%%%%%%%%%%%%%%%%%%%
     Error in routine electrons (1):
     charge is wrong: smearing is needed
 %%%%%%%%%%%%%%%%%%%%%%%%%%%%%%%%%%%%%%%%%%%%%%%%%%%%%%%%%%%%%%%%%%%%%%%%%%%%%%

     stopping ...

 %%%%%%%%%%%%%%%%%%%%%%%%%%%%%%%%%%%%%%%%%%%%%%%%%%%%%%%%%%%%%%%%%%%%%%%%%%%%%%
     Error in routine electrons (1):
     charge is wrong: smearing is needed
 %%%%%%%%%%%%%%%%%%%%%%%%%%%%%%%%%%%%%%%%%%%%%%%%%%%%%%%%%%%%%%%%%%%%%%%%%%%%%%

     stopping ...

 %%%%%%%%%%%%%%%%%%%%%%%%%%%%%%%%%%%%%%%%%%%%%%%%%%%%%%%%%%%%%%%%%%%%%%%%%%%%%%
     Error in routine electrons (1):
     charge is wrong: smearing is needed
 %%%%%%%%%%%%%%%%%%%%%%%%%%%%%%%%%%%%%%%%%%%%%%%%%%%%%%%%%%%%%%%%%%%%%%%%%%%%%%

     stopping ...

 %%%%%%%%%%%%%%%%%%%%%%%%%%%%%%%%%%%%%%%%%%%%%%%%%%%%%%%%%%%%%%%%%%%%%%%%%%%%%%
     Error in routine electrons (1):
     charge is wrong: smearing is needed
 %%%%%%%%%%%%%%%%%%%%%%%%%%%%%%%%%%%%%%%%%%%%%%%%%%%%%%%%%%%%%%%%%%%%%%%%%%%%%%

     stopping ...

 %%%%%%%%%%%%%%%%%%%%%%%%%%%%%%%%%%%%%%%%%%%%%%%%%%%%%%%%%%%%%%%%%%%%%%%%%%%%%%
     Error in routine electrons (1):
     charge is wrong: smearing is needed
 %%%%%%%%%%%%%%%%%%%%%%%%%%%%%%%%%%%%%%%%%%%%%%%%%%%%%%%%%%%%%%%%%%%%%%%%%%%%%%

     stopping ...

 %%%%%%%%%%%%%%%%%%%%%%%%%%%%%%%%%%%%%%%%%%%%%%%%%%%%%%%%%%%%%%%%%%%%%%%%%%%%%%
     Error in routine electrons (1):
     charge is wrong: smearing is needed
 %%%%%%%%%%%%%%%%%%%%%%%%%%%%%%%%%%%%%%%%%%%%%%%%%%%%%%%%%%%%%%%%%%%%%%%%%%%%%%

     stopping ...

 %%%%%%%%%%%%%%%%%%%%%%%%%%%%%%%%%%%%%%%%%%%%%%%%%%%%%%%%%%%%%%%%%%%%%%%%%%%%%%
     Error in routine electrons (1):
     charge is wrong: smearing is needed
 %%%%%%%%%%%%%%%%%%%%%%%%%%%%%%%%%%%%%%%%%%%%%%%%%%%%%%%%%%%%%%%%%%%%%%%%%%%%%%

     stopping ...

 %%%%%%%%%%%%%%%%%%%%%%%%%%%%%%%%%%%%%%%%%%%%%%%%%%%%%%%%%%%%%%%%%%%%%%%%%%%%%%
     Error in routine electrons (1):
     charge is wrong: smearing is needed
 %%%%%%%%%%%%%%%%%%%%%%%%%%%%%%%%%%%%%%%%%%%%%%%%%%%%%%%%%%%%%%%%%%%%%%%%%%%%%%

     stopping ...

 %%%%%%%%%%%%%%%%%%%%%%%%%%%%%%%%%%%%%%%%%%%%%%%%%%%%%%%%%%%%%%%%%%%%%%%%%%%%%%
     Error in routine electrons (1):
     charge is wrong: smearing is needed
 %%%%%%%%%%%%%%%%%%%%%%%%%%%%%%%%%%%%%%%%%%%%%%%%%%%%%%%%%%%%%%%%%%%%%%%%%%%%%%

     stopping ...

 %%%%%%%%%%%%%%%%%%%%%%%%%%%%%%%%%%%%%%%%%%%%%%%%%%%%%%%%%%%%%%%%%%%%%%%%%%%%%%
     Error in routine electrons (1):
     charge is wrong: smearing is needed
 %%%%%%%%%%%%%%%%%%%%%%%%%%%%%%%%%%%%%%%%%%%%%%%%%%%%%%%%%%%%%%%%%%%%%%%%%%%%%%

     stopping ...

 %%%%%%%%%%%%%%%%%%%%%%%%%%%%%%%%%%%%%%%%%%%%%%%%%%%%%%%%%%%%%%%%%%%%%%%%%%%%%%
     Error in routine electrons (1):
     charge is wrong: smearing is needed
 %%%%%%%%%%%%%%%%%%%%%%%%%%%%%%%%%%%%%%%%%%%%%%%%%%%%%%%%%%%%%%%%%%%%%%%%%%%%%%

     stopping ...

 %%%%%%%%%%%%%%%%%%%%%%%%%%%%%%%%%%%%%%%%%%%%%%%%%%%%%%%%%%%%%%%%%%%%%%%%%%%%%%
     Error in routine electrons (1):
     charge is wrong: smearing is needed
 %%%%%%%%%%%%%%%%%%%%%%%%%%%%%%%%%%%%%%%%%%%%%%%%%%%%%%%%%%%%%%%%%%%%%%%%%%%%%%

     stopping ...

 %%%%%%%%%%%%%%%%%%%%%%%%%%%%%%%%%%%%%%%%%%%%%%%%%%%%%%%%%%%%%%%%%%%%%%%%%%%%%%
     Error in routine electrons (1):
     charge is wrong: smearing is needed
 %%%%%%%%%%%%%%%%%%%%%%%%%%%%%%%%%%%%%%%%%%%%%%%%%%%%%%%%%%%%%%%%%%%%%%%%%%%%%%

     stopping ...

 %%%%%%%%%%%%%%%%%%%%%%%%%%%%%%%%%%%%%%%%%%%%%%%%%%%%%%%%%%%%%%%%%%%%%%%%%%%%%%
     Error in routine electrons (1):
     charge is wrong: smearing is needed
 %%%%%%%%%%%%%%%%%%%%%%%%%%%%%%%%%%%%%%%%%%%%%%%%%%%%%%%%%%%%%%%%%%%%%%%%%%%%%%

     stopping ...

 %%%%%%%%%%%%%%%%%%%%%%%%%%%%%%%%%%%%%%%%%%%%%%%%%%%%%%%%%%%%%%%%%%%%%%%%%%%%%%
     Error in routine electrons (1):
     charge is wrong: smearing is needed
 %%%%%%%%%%%%%%%%%%%%%%%%%%%%%%%%%%%%%%%%%%%%%%%%%%%%%%%%%%%%%%%%%%%%%%%%%%%%%%

     stopping ...

 %%%%%%%%%%%%%%%%%%%%%%%%%%%%%%%%%%%%%%%%%%%%%%%%%%%%%%%%%%%%%%%%%%%%%%%%%%%%%%
     Error in routine electrons (1):
     charge is wrong: smearing is needed
 %%%%%%%%%%%%%%%%%%%%%%%%%%%%%%%%%%%%%%%%%%%%%%%%%%%%%%%%%%%%%%%%%%%%%%%%%%%%%%

     stopping ...

 %%%%%%%%%%%%%%%%%%%%%%%%%%%%%%%%%%%%%%%%%%%%%%%%%%%%%%%%%%%%%%%%%%%%%%%%%%%%%%
     Error in routine electrons (1):
     charge is wrong: smearing is needed
 %%%%%%%%%%%%%%%%%%%%%%%%%%%%%%%%%%%%%%%%%%%%%%%%%%%%%%%%%%%%%%%%%%%%%%%%%%%%%%

     stopping ...

 %%%%%%%%%%%%%%%%%%%%%%%%%%%%%%%%%%%%%%%%%%%%%%%%%%%%%%%%%%%%%%%%%%%%%%%%%%%%%%
     Error in routine electrons (1):
     charge is wrong: smearing is needed
 %%%%%%%%%%%%%%%%%%%%%%%%%%%%%%%%%%%%%%%%%%%%%%%%%%%%%%%%%%%%%%%%%%%%%%%%%%%%%%

     stopping ...

 %%%%%%%%%%%%%%%%%%%%%%%%%%%%%%%%%%%%%%%%%%%%%%%%%%%%%%%%%%%%%%%%%%%%%%%%%%%%%%
     Error in routine electrons (1):
     charge is wrong: smearing is needed
 %%%%%%%%%%%%%%%%%%%%%%%%%%%%%%%%%%%%%%%%%%%%%%%%%%%%%%%%%%%%%%%%%%%%%%%%%%%%%%

     stopping ...

 %%%%%%%%%%%%%%%%%%%%%%%%%%%%%%%%%%%%%%%%%%%%%%%%%%%%%%%%%%%%%%%%%%%%%%%%%%%%%%
     Error in routine electrons (1):
     charge is wrong: smearing is needed
 %%%%%%%%%%%%%%%%%%%%%%%%%%%%%%%%%%%%%%%%%%%%%%%%%%%%%%%%%%%%%%%%%%%%%%%%%%%%%%

     stopping ...

 %%%%%%%%%%%%%%%%%%%%%%%%%%%%%%%%%%%%%%%%%%%%%%%%%%%%%%%%%%%%%%%%%%%%%%%%%%%%%%
     Error in routine electrons (1):
     charge is wrong: smearing is needed
 %%%%%%%%%%%%%%%%%%%%%%%%%%%%%%%%%%%%%%%%%%%%%%%%%%%%%%%%%%%%%%%%%%%%%%%%%%%%%%

     stopping ...

 %%%%%%%%%%%%%%%%%%%%%%%%%%%%%%%%%%%%%%%%%%%%%%%%%%%%%%%%%%%%%%%%%%%%%%%%%%%%%%
     Error in routine electrons (1):
     charge is wrong: smearing is needed
 %%%%%%%%%%%%%%%%%%%%%%%%%%%%%%%%%%%%%%%%%%%%%%%%%%%%%%%%%%%%%%%%%%%%%%%%%%%%%%

     stopping ...

 %%%%%%%%%%%%%%%%%%%%%%%%%%%%%%%%%%%%%%%%%%%%%%%%%%%%%%%%%%%%%%%%%%%%%%%%%%%%%%
     Error in routine electrons (1):
     charge is wrong: smearing is needed
 %%%%%%%%%%%%%%%%%%%%%%%%%%%%%%%%%%%%%%%%%%%%%%%%%%%%%%%%%%%%%%%%%%%%%%%%%%%%%%

     stopping ...

     total cpu time spent up to now is    11451.5 secs

     WARNING: integrated charge=   176.40471120, expected=   176.00000000

 %%%%%%%%%%%%%%%%%%%%%%%%%%%%%%%%%%%%%%%%%%%%%%%%%%%%%%%%%%%%%%%%%%%%%%%%%%%%%%
     Error in routine electrons (1):
     charge is wrong: smearing is needed
 %%%%%%%%%%%%%%%%%%%%%%%%%%%%%%%%%%%%%%%%%%%%%%%%%%%%%%%%%%%%%%%%%%%%%%%%%%%%%%

     stopping ...
