
     Program PWSCF v.6.5 starts on 15Jan2021 at 11:37:41 

     This program is part of the open-source Quantum ESPRESSO suite
     for quantum simulation of materials; please cite
         "P. Giannozzi et al., J. Phys.:Condens. Matter 21 395502 (2009);
         "P. Giannozzi et al., J. Phys.:Condens. Matter 29 465901 (2017);
          URL http://www.quantum-espresso.org", 
     in publications or presentations arising from this work. More details at
     http://www.quantum-espresso.org/quote

     Parallel version (MPI), running on    32 processors

     MPI processes distributed on     1 nodes
     R & G space division:  proc/nbgrp/npool/nimage =      32
     Waiting for input...
     Reading input from standard input

     Current dimensions of program PWSCF are:
     Max number of different atomic species (ntypx) = 10
     Max number of k-points (npk) =  40000
     Max angular momentum in pseudopotentials (lmaxx) =  3
               file Sn.rel-pbe-dn-kjpaw_psl.1.0.0.UPF: wavefunction(s)  5S 5P 5P 4D 4D renormalized
               file I.rel-pbe-n-kjpaw_psl.1.0.0.UPF: wavefunction(s)  5S renormalized
               file Cs.rel-pbe-spn-kjpaw_psl.1.0.0.UPF: wavefunction(s)  5S 6S renormalized

     Subspace diagonalization in iterative solution of the eigenvalue problem:
     a serial algorithm will be used


     Parallelization info
     --------------------
     sticks:   dense  smooth     PW     G-vecs:    dense   smooth      PW
     Min          73      73     19                 6799     6799     927
     Max          74      74     20                 6814     6814     936
     Sum        2361    2361    633               217771   217771   29839


     Title: 
     perovskite                                                                 


     bravais-lattice index     =            8
     lattice parameter (alat)  =       9.1317  a.u.
     unit-cell volume          =    6370.5385 (a.u.)^3
     number of atoms/cell      =           20
     number of atomic types    =            3
     number of electrons       =       176.00
     number of Kohn-Sham states=          180
     kinetic-energy cutoff     =      40.0000  Ry
     charge density cutoff     =     160.0000  Ry
     convergence threshold     =      1.0E-06
     mixing beta               =       0.6000
     number of iterations used =            8  plain     mixing
     Exchange-correlation= SLA PW PBX PBC
                           (   1   4   3   4   0   0   0)
     Non magnetic calculation with spin-orbit


     celldm(1)=   9.131705  celldm(2)=   2.227728  celldm(3)=   3.755420
     celldm(4)=   0.000000  celldm(5)=   0.000000  celldm(6)=   0.000000

     crystal axes: (cart. coord. in units of alat)
               a(1) = (   1.000000   0.000000   0.000000 )  
               a(2) = (   0.000000   2.227728   0.000000 )  
               a(3) = (   0.000000   0.000000   3.755420 )  

     reciprocal axes: (cart. coord. in units 2 pi/alat)
               b(1) = (  1.000000  0.000000  0.000000 )  
               b(2) = (  0.000000  0.448888  0.000000 )  
               b(3) = (  0.000000  0.000000  0.266282 )  


     PseudoPot. # 1 for Sn read from file:
     ../../../../pseudo/Sn.rel-pbe-dn-kjpaw_psl.1.0.0.UPF
     MD5 check sum: 6bcaba2b82cf8d008985ef5bb9854e68
     Pseudo is Projector augmented-wave + core cor, Zval = 14.0
     Generated using "atomic" code by A. Dal Corso v.6.3
     Shape of augmentation charge: PSQ
     Using radial grid of 1243 points, 10 beta functions with: 
                l(1) =   0
                l(2) =   0
                l(3) =   1
                l(4) =   1
                l(5) =   1
                l(6) =   1
                l(7) =   2
                l(8) =   2
                l(9) =   2
               l(10) =   2
     Q(r) pseudized with 0 coefficients 


     PseudoPot. # 2 for I  read from file:
     ../../../../pseudo/I.rel-pbe-n-kjpaw_psl.1.0.0.UPF
     MD5 check sum: 1650324410fde579213a6e5684c4bdbf
     Pseudo is Projector augmented-wave + core cor, Zval =  7.0
     Generated using "atomic" code by A. Dal Corso v.6.3
     Shape of augmentation charge: PSQ
     Using radial grid of 1247 points, 10 beta functions with: 
                l(1) =   0
                l(2) =   0
                l(3) =   1
                l(4) =   1
                l(5) =   1
                l(6) =   1
                l(7) =   2
                l(8) =   2
                l(9) =   2
               l(10) =   2
     Q(r) pseudized with 0 coefficients 


     PseudoPot. # 3 for Cs read from file:
     ../../../../pseudo/Cs.rel-pbe-spn-kjpaw_psl.1.0.0.UPF
     MD5 check sum: a112b951ec9e765992cdd678db6f3609
     Pseudo is Projector augmented-wave + core cor, Zval =  9.0
     Generated using "atomic" code by A. Dal Corso v.6.4.1
     Shape of augmentation charge: PSQ
     Using radial grid of 1251 points, 15 beta functions with: 
                l(1) =   0
                l(2) =   0
                l(3) =   0
                l(4) =   1
                l(5) =   1
                l(6) =   1
                l(7) =   1
                l(8) =   2
                l(9) =   2
               l(10) =   2
               l(11) =   2
               l(12) =   3
               l(13) =   3
               l(14) =   3
               l(15) =   3
     Q(r) pseudized with 0 coefficients 


     atomic species   valence    mass     pseudopotential
        Sn            14.00   118.70000     Sn( 1.00)
        I              7.00   126.90000     I ( 1.00)
        Cs             9.00   132.90000     Cs( 1.00)

      8 Sym. Ops., with inversion, found ( 6 have fractional translation)


                                    s                        frac. trans.

      isym =  1     identity                                     

 cryst.   s( 1) = (     1          0          0      )
                  (     0          1          0      )
                  (     0          0          1      )

 cart.    s( 1) = (  1.0000000  0.0000000  0.0000000 )
                  (  0.0000000  1.0000000  0.0000000 )
                  (  0.0000000  0.0000000  1.0000000 )


      isym =  2     180 deg rotation - cart. axis [0,0,1]        

 cryst.   s( 2) = (    -1          0          0      )    f =(  0.0000000 )
                  (     0         -1          0      )       (  0.5000000 )
                  (     0          0          1      )       (  0.5000000 )

 cart.    s( 2) = ( -1.0000000  0.0000000  0.0000000 )    f =(  0.0000000 )
                  (  0.0000000 -1.0000000  0.0000000 )       (  1.1138638 )
                  (  0.0000000  0.0000000  1.0000000 )       (  1.8777098 )


      isym =  3     180 deg rotation - cart. axis [0,1,0]        

 cryst.   s( 3) = (    -1          0          0      )    f =(  0.5000000 )
                  (     0          1          0      )       ( -0.5000000 )
                  (     0          0         -1      )       ( -0.5000000 )

 cart.    s( 3) = ( -1.0000000  0.0000000  0.0000000 )    f =(  0.5000000 )
                  (  0.0000000  1.0000000  0.0000000 )       ( -1.1138638 )
                  (  0.0000000  0.0000000 -1.0000000 )       ( -1.8777098 )


      isym =  4     180 deg rotation - cart. axis [1,0,0]        

 cryst.   s( 4) = (     1          0          0      )    f =( -0.5000000 )
                  (     0         -1          0      )       (  0.0000000 )
                  (     0          0         -1      )       (  0.0000000 )

 cart.    s( 4) = (  1.0000000  0.0000000  0.0000000 )    f =( -0.5000000 )
                  (  0.0000000 -1.0000000  0.0000000 )       (  0.0000000 )
                  (  0.0000000  0.0000000 -1.0000000 )       (  0.0000000 )


      isym =  5     inversion                                    

 cryst.   s( 5) = (    -1          0          0      )
                  (     0         -1          0      )
                  (     0          0         -1      )

 cart.    s( 5) = ( -1.0000000  0.0000000  0.0000000 )
                  (  0.0000000 -1.0000000  0.0000000 )
                  (  0.0000000  0.0000000 -1.0000000 )


      isym =  6     inv. 180 deg rotation - cart. axis [0,0,1]   

 cryst.   s( 6) = (     1          0          0      )    f =(  0.0000000 )
                  (     0          1          0      )       ( -0.5000000 )
                  (     0          0         -1      )       ( -0.5000000 )

 cart.    s( 6) = (  1.0000000  0.0000000  0.0000000 )    f =(  0.0000000 )
                  (  0.0000000  1.0000000  0.0000000 )       ( -1.1138638 )
                  (  0.0000000  0.0000000 -1.0000000 )       ( -1.8777098 )


      isym =  7     inv. 180 deg rotation - cart. axis [0,1,0]   

 cryst.   s( 7) = (     1          0          0      )    f =( -0.5000000 )
                  (     0         -1          0      )       (  0.5000000 )
                  (     0          0          1      )       (  0.5000000 )

 cart.    s( 7) = (  1.0000000  0.0000000  0.0000000 )    f =( -0.5000000 )
                  (  0.0000000 -1.0000000  0.0000000 )       (  1.1138638 )
                  (  0.0000000  0.0000000  1.0000000 )       (  1.8777098 )


      isym =  8     inv. 180 deg rotation - cart. axis [1,0,0]   

 cryst.   s( 8) = (    -1          0          0      )    f =(  0.5000000 )
                  (     0          1          0      )       (  0.0000000 )
                  (     0          0          1      )       (  0.0000000 )

 cart.    s( 8) = ( -1.0000000  0.0000000  0.0000000 )    f =(  0.5000000 )
                  (  0.0000000  1.0000000  0.0000000 )       (  0.0000000 )
                  (  0.0000000  0.0000000  1.0000000 )       (  0.0000000 )


     double point group D_2h (mmm) 
     there are 10 classes and  2 irreducible representations
     the character table:

       E     -E     C2    C2'  C2''  i     -i     s_v   s_v' s_v''
                   -C2   -C2'  -C2''             -s_v  -s_v' -s_v'
G_5+   2.00 -2.00  0.00  0.00  0.00  2.00 -2.00  0.00  0.00  0.00
G_5-   2.00 -2.00  0.00  0.00  0.00 -2.00  2.00  0.00  0.00  0.00

     the symmetry operations in each class and the name of the first element:

     E             1
          identity                                               
     -E           -1
          identity E                                             
      C2  -C2      2   -2
          180 deg rotation - cart. axis [0,0,1]                  
      C2' -C2'     4   -4
          180 deg rotation - cart. axis [1,0,0]                  
     C2'' -C2''    3   -3
          180 deg rotation - cart. axis [0,1,0]                  
     i             5
          inversion                                              
     -i           -5
          inversion E                                            
      s_v -s_v     6   -6
          inv. 180 deg rotation - cart. axis [0,0,1]             
      s_v'-s_v'    8   -8
          inv. 180 deg rotation - cart. axis [1,0,0]             
     s_v''-s_v'    7   -7
          inv. 180 deg rotation - cart. axis [0,1,0]             

   Cartesian axes

     site n.     atom                  positions (alat units)
         1           Cs  tau(   1) = (   0.2500000   0.1859640   2.5168147  )
         2           Cs  tau(   2) = (   0.7500000   2.0417636   1.2386050  )
         3           Cs  tau(   3) = (   0.2500000   1.2998278   3.1163149  )
         4           Cs  tau(   4) = (   0.7500000   0.9278998   0.6391048  )
         5           Sn  tau(   5) = (   0.2500000   0.7615710   1.6485466  )
         6           Sn  tau(   6) = (   0.7500000   1.4661567   2.1068731  )
         7           Sn  tau(   7) = (   0.2500000   1.8754348   0.2291632  )
         8           Sn  tau(   8) = (   0.7500000   0.3522928   3.5262565  )
         9           I   tau(   9) = (   0.7500000   0.0581437   0.4202578  )
        10           I   tau(  10) = (   0.2500000   2.1695839   3.3351619  )
        11           I   tau(  11) = (   0.7500000   1.1720075   1.4574521  )
        12           I   tau(  12) = (   0.2500000   1.0557201   2.2979676  )
        13           I   tau(  13) = (   0.7500000   0.6531118   2.9738192  )
        14           I   tau(  14) = (   0.2500000   1.5746158   0.7816005  )
        15           I   tau(  15) = (   0.7500000   1.7669756   2.6593103  )
        16           I   tau(  16) = (   0.2500000   0.4607520   1.0961094  )
        17           I   tau(  17) = (   0.7500000   0.3753632   1.8734812  )
        18           I   tau(  18) = (   0.2500000   1.8523644   1.8819384  )
        19           I   tau(  19) = (   0.7500000   1.4892270   0.0042286  )
        20           I   tau(  20) = (   0.2500000   0.7385006   3.7511911  )

   Crystallographic axes

     site n.     atom                  positions (cryst. coord.)
         1           Cs  tau(   1) = (  0.2500000  0.0834770  0.6701820  )
         2           Cs  tau(   2) = (  0.7500000  0.9165230  0.3298180  )
         3           Cs  tau(   3) = (  0.2500000  0.5834770  0.8298180  )
         4           Cs  tau(   4) = (  0.7500000  0.4165230  0.1701820  )
         5           Sn  tau(   5) = (  0.2500000  0.3418600  0.4389780  )
         6           Sn  tau(   6) = (  0.7500000  0.6581400  0.5610220  )
         7           Sn  tau(   7) = (  0.2500000  0.8418600  0.0610220  )
         8           Sn  tau(   8) = (  0.7500000  0.1581400  0.9389780  )
         9           I   tau(   9) = (  0.7500000  0.0261000  0.1119070  )
        10           I   tau(  10) = (  0.2500000  0.9739000  0.8880930  )
        11           I   tau(  11) = (  0.7500000  0.5261000  0.3880930  )
        12           I   tau(  12) = (  0.2500000  0.4739000  0.6119070  )
        13           I   tau(  13) = (  0.7500000  0.2931740  0.7918740  )
        14           I   tau(  14) = (  0.2500000  0.7068260  0.2081260  )
        15           I   tau(  15) = (  0.7500000  0.7931740  0.7081260  )
        16           I   tau(  16) = (  0.2500000  0.2068260  0.2918740  )
        17           I   tau(  17) = (  0.7500000  0.1684960  0.4988740  )
        18           I   tau(  18) = (  0.2500000  0.8315040  0.5011260  )
        19           I   tau(  19) = (  0.7500000  0.6684960  0.0011260  )
        20           I   tau(  20) = (  0.2500000  0.3315040  0.9988740  )

     number of k points=     1
                       cart. coord. in units 2pi/alat
        k(    1) = (   0.2500000   0.1122220   0.0665705), wk =   1.0000000

                       cryst. coord.
        k(    1) = (   0.2500000   0.2500000   0.2500000), wk =   1.0000000

     Dense  grid:   217771 G-vectors     FFT dimensions: (  40,  90, 144)

     Dynamical RAM for                 wfc:       4.67 MB

     Dynamical RAM for     wfc (w. buffer):       4.67 MB

     Dynamical RAM for           str. fact:       0.31 MB

     Dynamical RAM for           local pot:       0.00 MB

     Dynamical RAM for          nlocal pot:      10.32 MB

     Dynamical RAM for                qrad:      35.41 MB

     Dynamical RAM for          rho,v,vnew:       2.89 MB

     Dynamical RAM for               rhoin:       0.96 MB

     Dynamical RAM for            rho*nmix:       6.64 MB

     Dynamical RAM for           G-vectors:       0.44 MB

     Dynamical RAM for          h,s,v(r/c):      23.73 MB

     Dynamical RAM for          <psi|beta>:       4.37 MB

     Dynamical RAM for                 psi:      18.68 MB

     Dynamical RAM for                hpsi:      18.68 MB

     Dynamical RAM for                spsi:      18.68 MB

     Dynamical RAM for      wfcinit/wfcrot:       9.09 MB

     Dynamical RAM for           addusdens:     213.19 MB

     Estimated static dynamical RAM per process >      63.17 MB

     Estimated max dynamical RAM per process >     276.37 MB

     Estimated total dynamical RAM >       8.64 GB

     Initial potential from superposition of free atoms

     starting charge  175.83605, renormalised to  176.00000
     Starting wfcs are  208 randomized atomic wfcs
     Checking if some PAW data can be deallocated... 
       PAW data deallocated on   24 nodes for type:  1
       PAW data deallocated on   16 nodes for type:  2
       PAW data deallocated on   24 nodes for type:  3

     total cpu time spent up to now is       50.7 secs

     Self-consistent Calculation

     iteration #  1     ecut=    40.00 Ry     beta= 0.60
     Davidson diagonalization with overlap
     ethr =  1.00E-02,  avg # of iterations =  2.0

     Threshold (ethr) on eigenvalues was too large:
     Diagonalizing with lowered threshold

     Davidson diagonalization with overlap
     ethr =  3.34E-04,  avg # of iterations =  4.0

     negative rho (up, down):  7.941E-01 0.000E+00

     total cpu time spent up to now is      133.0 secs

     total energy              =   -8002.33335210 Ry
     Harris-Foulkes estimate   =   -8002.67149633 Ry
     estimated scf accuracy    <       2.32550235 Ry

     iteration #  2     ecut=    40.00 Ry     beta= 0.60
     Davidson diagonalization with overlap
     ethr =  1.32E-03,  avg # of iterations =  3.0

     negative rho (up, down):  4.647E-01 0.000E+00

     total cpu time spent up to now is      173.9 secs

     total energy              =   -8002.39594660 Ry
     Harris-Foulkes estimate   =   -8002.62965322 Ry
     estimated scf accuracy    <       0.83401510 Ry

     iteration #  3     ecut=    40.00 Ry     beta= 0.60
     Davidson diagonalization with overlap
     ethr =  4.74E-04,  avg # of iterations =  3.0

     negative rho (up, down):  3.527E-01 0.000E+00

     total cpu time spent up to now is      217.1 secs

     total energy              =   -8002.52611607 Ry
     Harris-Foulkes estimate   =   -8002.56007573 Ry
     estimated scf accuracy    <       0.31872171 Ry

     iteration #  4     ecut=    40.00 Ry     beta= 0.60
     Davidson diagonalization with overlap
     ethr =  1.81E-04,  avg # of iterations =  2.0

     negative rho (up, down):  1.646E-01 0.000E+00

     total cpu time spent up to now is      253.2 secs

     total energy              =   -8002.54183156 Ry
     Harris-Foulkes estimate   =   -8002.54098198 Ry
     estimated scf accuracy    <       0.18465701 Ry

     iteration #  5     ecut=    40.00 Ry     beta= 0.60
     Davidson diagonalization with overlap
     ethr =  1.05E-04,  avg # of iterations =  1.0

     total cpu time spent up to now is      287.5 secs

     total energy              =   -8002.54602019 Ry
     Harris-Foulkes estimate   =   -8002.54403750 Ry
     estimated scf accuracy    <       0.08282891 Ry

     iteration #  6     ecut=    40.00 Ry     beta= 0.60
     Davidson diagonalization with overlap
     ethr =  4.71E-05,  avg # of iterations =  2.0

     total cpu time spent up to now is      322.7 secs

     total energy              =   -8002.54781314 Ry
     Harris-Foulkes estimate   =   -8002.54933109 Ry
     estimated scf accuracy    <       0.00405905 Ry

     iteration #  7     ecut=    40.00 Ry     beta= 0.60
     Davidson diagonalization with overlap
     ethr =  2.31E-06,  avg # of iterations = 10.0

     total cpu time spent up to now is      391.0 secs

     total energy              =   -8002.55222253 Ry
     Harris-Foulkes estimate   =   -8002.55035328 Ry
     estimated scf accuracy    <       0.00817220 Ry

     iteration #  8     ecut=    40.00 Ry     beta= 0.60
     Davidson diagonalization with overlap
     ethr =  2.31E-06,  avg # of iterations =  2.0

     total cpu time spent up to now is      428.8 secs

     total energy              =   -8002.54915401 Ry
     Harris-Foulkes estimate   =   -8002.55254369 Ry
     estimated scf accuracy    <       0.01731674 Ry

     iteration #  9     ecut=    40.00 Ry     beta= 0.60
     Davidson diagonalization with overlap
     ethr =  2.31E-06,  avg # of iterations =  3.0

     total cpu time spent up to now is      468.8 secs

     total energy              =   -8002.54820359 Ry
     Harris-Foulkes estimate   =   -8002.54972379 Ry
     estimated scf accuracy    <       0.00569175 Ry

     iteration # 10     ecut=    40.00 Ry     beta= 0.60
     Davidson diagonalization with overlap
     ethr =  2.31E-06,  avg # of iterations =  3.0

     total cpu time spent up to now is      509.0 secs

     total energy              =   -8002.54856808 Ry
     Harris-Foulkes estimate   =   -8002.54867957 Ry
     estimated scf accuracy    <       0.00070703 Ry

     iteration # 11     ecut=    40.00 Ry     beta= 0.60
     Davidson diagonalization with overlap
     ethr =  4.02E-07,  avg # of iterations =  2.0

     total cpu time spent up to now is      542.9 secs

     total energy              =   -8002.54841941 Ry
     Harris-Foulkes estimate   =   -8002.54859725 Ry
     estimated scf accuracy    <       0.00039084 Ry

     iteration # 12     ecut=    40.00 Ry     beta= 0.60
     Davidson diagonalization with overlap
     ethr =  2.22E-07,  avg # of iterations =  4.0

     total cpu time spent up to now is      592.5 secs

     total energy              =   -8002.54858722 Ry
     Harris-Foulkes estimate   =   -8002.54859844 Ry
     estimated scf accuracy    <       0.00008339 Ry

     iteration # 13     ecut=    40.00 Ry     beta= 0.60
     Davidson diagonalization with overlap
     ethr =  4.74E-08,  avg # of iterations =  1.0

     total cpu time spent up to now is      625.6 secs

     total energy              =   -8002.54857263 Ry
     Harris-Foulkes estimate   =   -8002.54858877 Ry
     estimated scf accuracy    <       0.00005056 Ry

     iteration # 14     ecut=    40.00 Ry     beta= 0.60
     Davidson diagonalization with overlap
     ethr =  2.87E-08,  avg # of iterations =  3.0

     total cpu time spent up to now is      665.4 secs

     total energy              =   -8002.54857885 Ry
     Harris-Foulkes estimate   =   -8002.54857961 Ry
     estimated scf accuracy    <       0.00000145 Ry

     iteration # 15     ecut=    40.00 Ry     beta= 0.60
     Davidson diagonalization with overlap
     ethr =  8.21E-10,  avg # of iterations =  4.0

     total cpu time spent up to now is      721.7 secs

     End of self-consistent calculation

          k = 0.2500 0.1122 0.0666 ( 27221 PWs)   bands (ev):

   -18.3993 -18.3993 -18.3991 -18.3991 -18.3989 -18.3989 -18.3986 -18.3986
   -18.3864 -18.3864 -18.3861 -18.3861 -18.3856 -18.3856 -18.3854 -18.3854
   -17.7413 -17.7413 -17.7412 -17.7412 -17.7407 -17.7407 -17.7406 -17.7406
   -17.3632 -17.3632 -17.3630 -17.3630 -17.3628 -17.3628 -17.3625 -17.3625
   -17.3505 -17.3505 -17.3502 -17.3502 -17.3500 -17.3500 -17.3498 -17.3498
   -17.3468 -17.3468 -17.3464 -17.3464 -17.3458 -17.3458 -17.3456 -17.3456
    -8.6580  -8.6580  -8.6469  -8.6469  -8.5086  -8.5086  -8.4927  -8.4927
    -8.3979  -8.3979  -8.3919  -8.3919  -8.3259  -8.3259  -8.3092  -8.3092
    -8.2515  -8.2515  -8.2471  -8.2471  -8.2316  -8.2316  -8.2264  -8.2264
    -5.7173  -5.7173  -5.7135  -5.7135  -5.7099  -5.7099  -5.7058  -5.7058
    -4.1510  -4.1510  -4.1457  -4.1457  -4.1351  -4.1351  -4.1282  -4.1282
    -4.0883  -4.0883  -4.0854  -4.0854  -4.0802  -4.0802  -4.0755  -4.0755
    -3.0178  -3.0178  -3.0138  -3.0138  -2.9239  -2.9239  -2.9137  -2.9137
     0.1254   0.1254   0.1848   0.1848   0.2759   0.2759   0.3082   0.3082
     0.4245   0.4245   0.5145   0.5145   0.6414   0.6414   0.6994   0.6994
     0.8136   0.8136   0.8463   0.8463   0.8782   0.8782   0.9434   0.9434
     1.1505   1.1505   1.2155   1.2155   1.4156   1.4156   1.4868   1.4868
     1.5393   1.5393   1.6049   1.6049   1.7216   1.7216   1.7804   1.7804
     1.8531   1.8531   1.8915   1.8915   1.9437   1.9437   1.9721   1.9721
     2.0039   2.0039   2.0800   2.0800   2.1271   2.1271   2.1982   2.1982
     2.2512   2.2512   2.2781   2.2781   2.4287   2.4287   2.4604   2.4604
     2.7833   2.7833   2.8784   2.8784   3.0673   3.0673   3.1140   3.1140
     5.8130   5.8130   5.9488   5.9488

     occupation numbers 
     1.0000   1.0000   1.0000   1.0000   1.0000   1.0000   1.0000   1.0000
     1.0000   1.0000   1.0000   1.0000   1.0000   1.0000   1.0000   1.0000
     1.0000   1.0000   1.0000   1.0000   1.0000   1.0000   1.0000   1.0000
     1.0000   1.0000   1.0000   1.0000   1.0000   1.0000   1.0000   1.0000
     1.0000   1.0000   1.0000   1.0000   1.0000   1.0000   1.0000   1.0000
     1.0000   1.0000   1.0000   1.0000   1.0000   1.0000   1.0000   1.0000
     1.0000   1.0000   1.0000   1.0000   1.0000   1.0000   1.0000   1.0000
     1.0000   1.0000   1.0000   1.0000   1.0000   1.0000   1.0000   1.0000
     1.0000   1.0000   1.0000   1.0000   1.0000   1.0000   1.0000   1.0000
     1.0000   1.0000   1.0000   1.0000   1.0000   1.0000   1.0000   1.0000
     1.0000   1.0000   1.0000   1.0000   1.0000   1.0000   1.0000   1.0000
     1.0000   1.0000   1.0000   1.0000   1.0000   1.0000   1.0000   1.0000
     1.0000   1.0000   1.0000   1.0000   1.0000   1.0000   1.0000   1.0000
     1.0000   1.0000   1.0000   1.0000   1.0000   1.0000   1.0000   1.0000
     1.0000   1.0000   1.0000   1.0000   1.0000   1.0000   1.0000   1.0000
     1.0000   1.0000   1.0000   1.0000   1.0000   1.0000   1.0000   1.0000
     1.0000   1.0000   1.0000   1.0000   1.0000   1.0000   1.0000   1.0000
     1.0000   1.0000   1.0000   1.0000   1.0000   1.0000   1.0000   1.0000
     1.0000   1.0000   1.0000   1.0000   1.0000   1.0000   1.0000   1.0000
     1.0000   1.0000   1.0000   1.0000   1.0000   1.0000   1.0000   1.0000
     1.0000   1.0000   1.0000   1.0000   1.0000   1.0000   1.0000   1.0000
     1.0000   1.0000   1.0000   1.0000   1.0000   1.0000   1.0000   1.0000
     0.0000   0.0000   0.0000   0.0000

     highest occupied, lowest unoccupied level (ev):     3.1140    5.8130

!    total energy              =   -8002.54857939 Ry
     Harris-Foulkes estimate   =   -8002.54857988 Ry
     estimated scf accuracy    <       0.00000058 Ry

     total all-electron energy =   -282615.003237 Ry

     The total energy is the sum of the following terms:

     one-electron contribution =    -463.47673322 Ry
     hartree contribution      =     316.66192319 Ry
     xc contribution           =    -466.13881433 Ry
     ewald contribution        =    -633.56960162 Ry
     one-center paw contrib.   =   -6756.02535341 Ry
      -> PAW hartree energy AE =      25.65162947 Ry
      -> PAW hartree energy PS =     -25.54124128 Ry
      -> PAW xc energy AE      =    -384.90051831 Ry
      -> PAW xc energy PS      =      20.55311474 Ry
      -> total E_H with PAW    =     316.77231138 Ry
      -> total E_XC with PAW   =    -830.48621790 Ry

     convergence has been achieved in  15 iterations

     Writing output data file ./out/CsIhex.save/

     init_run     :     20.43s CPU     20.88s WALL (       1 calls)
     electrons    :    658.07s CPU    671.43s WALL (       1 calls)

     Called by init_run:
     wfcinit      :     11.26s CPU     11.36s WALL (       1 calls)
     wfcinit:atom :      0.01s CPU      0.01s WALL (       1 calls)
     wfcinit:wfcr :     11.20s CPU     11.29s WALL (       1 calls)
     potinit      :      1.82s CPU      1.88s WALL (       1 calls)
     hinit0       :      2.05s CPU      2.08s WALL (       1 calls)

     Called by electrons:
     c_bands      :    481.86s CPU    486.57s WALL (      16 calls)
     sum_band     :     76.09s CPU     80.49s WALL (      16 calls)
     v_of_rho     :      0.69s CPU      0.82s WALL (      16 calls)
     v_h          :      0.04s CPU      0.05s WALL (      16 calls)
     v_xc         :      0.64s CPU      0.77s WALL (      16 calls)
     newd         :     80.74s CPU     84.41s WALL (      16 calls)
     PAW_pot      :     20.73s CPU     20.83s WALL (      16 calls)
     mix_rho      :      3.25s CPU      3.42s WALL (      16 calls)

     Called by c_bands:
     init_us_2    :      0.63s CPU      0.68s WALL (      33 calls)
     cegterg      :    477.27s CPU    481.89s WALL (      16 calls)

     Called by sum_band:
     sum_band:bec :      3.04s CPU      3.04s WALL (      16 calls)
     addusdens    :     26.64s CPU     30.75s WALL (      16 calls)

     Called by *egterg:
     h_psi        :    219.17s CPU    222.88s WALL (      66 calls)
     s_psi        :     98.62s CPU     98.78s WALL (      66 calls)
     g_psi        :      0.09s CPU      0.09s WALL (      49 calls)
     cdiaghg      :     37.23s CPU     37.43s WALL (      64 calls)
     cegterg:over :     53.04s CPU     53.23s WALL (      49 calls)
     cegterg:upda :     37.96s CPU     38.05s WALL (      49 calls)
     cegterg:last :     22.17s CPU     22.21s WALL (      16 calls)

     Called by h_psi:
     h_psi:calbec :     95.12s CPU     98.06s WALL (      66 calls)
     vloc_psi     :     27.00s CPU     27.49s WALL (      66 calls)
     add_vuspsi   :     96.72s CPU     96.92s WALL (      66 calls)

     General routines
     calbec       :    131.89s CPU    134.89s WALL (      82 calls)
     fft          :      0.47s CPU      0.49s WALL (     222 calls)
     ffts         :      0.22s CPU      0.22s WALL (      64 calls)
     fftw         :     29.96s CPU     30.41s WALL (   35476 calls)

     Parallel routines
     fft_scatt_xy :      2.05s CPU      2.08s WALL (   35762 calls)
     fft_scatt_yz :      7.40s CPU      7.51s WALL (   35762 calls)

     PAW routines
     PAW_pot      :     20.73s CPU     20.83s WALL (      16 calls)
     PAW_symme    :      0.46s CPU      0.47s WALL (      32 calls)

     PWSCF        :  11m37.61s CPU  12m 5.49s WALL


   This run was terminated on:  11:49:47  15Jan2021            

=------------------------------------------------------------------------------=
   JOB DONE.
=------------------------------------------------------------------------------=
