
     Program PWSCF v.6.7MaX starts on 14Jan2021 at 13: 0:30 

     This program is part of the open-source Quantum ESPRESSO suite
     for quantum simulation of materials; please cite
         "P. Giannozzi et al., J. Phys.:Condens. Matter 21 395502 (2009);
         "P. Giannozzi et al., J. Phys.:Condens. Matter 29 465901 (2017);
          URL http://www.quantum-espresso.org", 
     in publications or presentations arising from this work. More details at
     http://www.quantum-espresso.org/quote

     Parallel version (MPI), running on    19 processors

     MPI processes distributed on     1 nodes
     R & G space division:  proc/nbgrp/npool/nimage =      19
     Waiting for input...
     Reading input from standard input

     Current dimensions of program PWSCF are:
     Max number of different atomic species (ntypx) = 10
     Max number of k-points (npk) =  40000
     Max angular momentum in pseudopotentials (lmaxx) =  3
     file Cs.pbe-spn-kjpaw_psl.1.0.0.UPF: wavefunction(s)  5S 6S renormalized
     file I.pbe-n-kjpaw_psl.1.0.0.UPF: wavefunction(s)  5S renormalized

     Subspace diagonalization in iterative solution of the eigenvalue problem:
     a serial algorithm will be used

     Message from routine setup:
     using ibrav=0 with symmetry is DISCOURAGED, use correct ibrav instead

     Parallelization info
     --------------------
     sticks:   dense  smooth     PW     G-vecs:    dense   smooth      PW
     Min          91      91     26                 2859     2859     440
     Max          92      92     27                 2862     2862     443
     Sum        1741    1741    497                54339    54339    8385


     Title: 
     CsIrsalt                                                                   


     bravais-lattice index     =            0
     lattice parameter (alat)  =       8.8160  a.u.
     unit-cell volume          =     685.1896 (a.u.)^3
     number of atoms/cell      =            2
     number of atomic types    =            2
     number of electrons       =        16.00
     number of Kohn-Sham states=            8
     kinetic-energy cutoff     =      70.0000  Ry
     charge density cutoff     =     280.0000  Ry
     scf convergence threshold =      1.0E-06
     mixing beta               =       0.5000
     number of iterations used =            8  plain     mixing
     energy convergence thresh.=      1.0E-04
     force convergence thresh. =      1.0E-04
     press convergence thresh. =      5.0E-01
     Exchange-correlation= SLA  PW   PBX  PBC
                           (   1   4   3   4   0   0   0)
     nstep                     =           50


     celldm(1)=   8.815973  celldm(2)=   0.000000  celldm(3)=   0.000000
     celldm(4)=   0.000000  celldm(5)=   0.000000  celldm(6)=   0.000000

     crystal axes: (cart. coord. in units of alat)
               a(1) = (   1.000000   0.000000   0.000000 )  
               a(2) = (   0.000000   1.000000   0.000000 )  
               a(3) = (   0.000000   0.000000   1.000000 )  

     reciprocal axes: (cart. coord. in units 2 pi/alat)
               b(1) = (  1.000000  0.000000  0.000000 )  
               b(2) = (  0.000000  1.000000  0.000000 )  
               b(3) = (  0.000000  0.000000  1.000000 )  


     PseudoPot. # 1 for Cs read from file:
     ../../../pseudo/Cs.pbe-spn-kjpaw_psl.1.0.0.UPF
     MD5 check sum: b82c75cc2e1f4ff73b6412cffeb9c584
     Pseudo is Projector augmented-wave + core cor, Zval =  9.0
     Generated using &quot;atomic&quot; code by A. Dal Corso  v.6.4.1
     Shape of augmentation charge: PSQ
     Using radial grid of 1251 points,  9 beta functions with: 
                l(1) =   0
                l(2) =   0
                l(3) =   0
                l(4) =   1
                l(5) =   1
                l(6) =   2
                l(7) =   2
                l(8) =   3
                l(9) =   3
     Q(r) pseudized with 0 coefficients 


     PseudoPot. # 2 for I  read from file:
     ../../../pseudo/I.pbe-n-kjpaw_psl.1.0.0.UPF
     MD5 check sum: cd3d296c3308a581e1559a0c8a554cb5
     Pseudo is Projector augmented-wave + core cor, Zval =  7.0
     Generated using &quot;atomic&quot; code by A. Dal Corso  v.6.3
     Shape of augmentation charge: PSQ
     Using radial grid of 1247 points,  6 beta functions with: 
                l(1) =   0
                l(2) =   0
                l(3) =   1
                l(4) =   1
                l(5) =   2
                l(6) =   2
     Q(r) pseudized with 0 coefficients 


     atomic species   valence    mass     pseudopotential
        Cs             9.00   132.90000     Cs( 1.00)
        I              7.00   126.90000     I ( 1.00)

     48 Sym. Ops., with inversion, found


                                    s                        frac. trans.

      isym =  1     identity                                     

 cryst.   s( 1) = (     1          0          0      )
                  (     0          1          0      )
                  (     0          0          1      )

 cart.    s( 1) = (  1.0000000  0.0000000  0.0000000 )
                  (  0.0000000  1.0000000  0.0000000 )
                  (  0.0000000  0.0000000  1.0000000 )


      isym =  2     180 deg rotation - cart. axis [0,0,1]        

 cryst.   s( 2) = (    -1          0          0      )
                  (     0         -1          0      )
                  (     0          0          1      )

 cart.    s( 2) = ( -1.0000000  0.0000000  0.0000000 )
                  (  0.0000000 -1.0000000  0.0000000 )
                  (  0.0000000  0.0000000  1.0000000 )


      isym =  3     180 deg rotation - cart. axis [0,1,0]        

 cryst.   s( 3) = (    -1          0          0      )
                  (     0          1          0      )
                  (     0          0         -1      )

 cart.    s( 3) = ( -1.0000000  0.0000000  0.0000000 )
                  (  0.0000000  1.0000000  0.0000000 )
                  (  0.0000000  0.0000000 -1.0000000 )


      isym =  4     180 deg rotation - cart. axis [1,0,0]        

 cryst.   s( 4) = (     1          0          0      )
                  (     0         -1          0      )
                  (     0          0         -1      )

 cart.    s( 4) = (  1.0000000  0.0000000  0.0000000 )
                  (  0.0000000 -1.0000000  0.0000000 )
                  (  0.0000000  0.0000000 -1.0000000 )


      isym =  5     180 deg rotation - cart. axis [1,1,0]        

 cryst.   s( 5) = (     0          1          0      )
                  (     1          0          0      )
                  (     0          0         -1      )

 cart.    s( 5) = (  0.0000000  1.0000000  0.0000000 )
                  (  1.0000000  0.0000000  0.0000000 )
                  (  0.0000000  0.0000000 -1.0000000 )


      isym =  6     180 deg rotation - cart. axis [1,-1,0]       

 cryst.   s( 6) = (     0         -1          0      )
                  (    -1          0          0      )
                  (     0          0         -1      )

 cart.    s( 6) = (  0.0000000 -1.0000000  0.0000000 )
                  ( -1.0000000  0.0000000  0.0000000 )
                  (  0.0000000  0.0000000 -1.0000000 )


      isym =  7      90 deg rotation - cart. axis [0,0,-1]       

 cryst.   s( 7) = (     0         -1          0      )
                  (     1          0          0      )
                  (     0          0          1      )

 cart.    s( 7) = (  0.0000000  1.0000000  0.0000000 )
                  ( -1.0000000  0.0000000  0.0000000 )
                  (  0.0000000  0.0000000  1.0000000 )


      isym =  8      90 deg rotation - cart. axis [0,0,1]        

 cryst.   s( 8) = (     0          1          0      )
                  (    -1          0          0      )
                  (     0          0          1      )

 cart.    s( 8) = (  0.0000000 -1.0000000  0.0000000 )
                  (  1.0000000  0.0000000  0.0000000 )
                  (  0.0000000  0.0000000  1.0000000 )


      isym =  9     180 deg rotation - cart. axis [1,0,1]        

 cryst.   s( 9) = (     0          0          1      )
                  (     0         -1          0      )
                  (     1          0          0      )

 cart.    s( 9) = (  0.0000000  0.0000000  1.0000000 )
                  (  0.0000000 -1.0000000  0.0000000 )
                  (  1.0000000  0.0000000  0.0000000 )


      isym = 10     180 deg rotation - cart. axis [-1,0,1]       

 cryst.   s(10) = (     0          0         -1      )
                  (     0         -1          0      )
                  (    -1          0          0      )

 cart.    s(10) = (  0.0000000  0.0000000 -1.0000000 )
                  (  0.0000000 -1.0000000  0.0000000 )
                  ( -1.0000000  0.0000000  0.0000000 )


      isym = 11      90 deg rotation - cart. axis [0,1,0]        

 cryst.   s(11) = (     0          0         -1      )
                  (     0          1          0      )
                  (     1          0          0      )

 cart.    s(11) = (  0.0000000  0.0000000  1.0000000 )
                  (  0.0000000  1.0000000  0.0000000 )
                  ( -1.0000000  0.0000000  0.0000000 )


      isym = 12      90 deg rotation - cart. axis [0,-1,0]       

 cryst.   s(12) = (     0          0          1      )
                  (     0          1          0      )
                  (    -1          0          0      )

 cart.    s(12) = (  0.0000000  0.0000000 -1.0000000 )
                  (  0.0000000  1.0000000  0.0000000 )
                  (  1.0000000  0.0000000  0.0000000 )


      isym = 13     180 deg rotation - cart. axis [0,1,1]        

 cryst.   s(13) = (    -1          0          0      )
                  (     0          0          1      )
                  (     0          1          0      )

 cart.    s(13) = ( -1.0000000  0.0000000  0.0000000 )
                  (  0.0000000  0.0000000  1.0000000 )
                  (  0.0000000  1.0000000  0.0000000 )


      isym = 14     180 deg rotation - cart. axis [0,1,-1]       

 cryst.   s(14) = (    -1          0          0      )
                  (     0          0         -1      )
                  (     0         -1          0      )

 cart.    s(14) = ( -1.0000000  0.0000000  0.0000000 )
                  (  0.0000000  0.0000000 -1.0000000 )
                  (  0.0000000 -1.0000000  0.0000000 )


      isym = 15      90 deg rotation - cart. axis [-1,0,0]       

 cryst.   s(15) = (     1          0          0      )
                  (     0          0         -1      )
                  (     0          1          0      )

 cart.    s(15) = (  1.0000000  0.0000000  0.0000000 )
                  (  0.0000000  0.0000000  1.0000000 )
                  (  0.0000000 -1.0000000  0.0000000 )


      isym = 16      90 deg rotation - cart. axis [1,0,0]        

 cryst.   s(16) = (     1          0          0      )
                  (     0          0          1      )
                  (     0         -1          0      )

 cart.    s(16) = (  1.0000000  0.0000000  0.0000000 )
                  (  0.0000000  0.0000000 -1.0000000 )
                  (  0.0000000  1.0000000  0.0000000 )


      isym = 17     120 deg rotation - cart. axis [-1,-1,-1]     

 cryst.   s(17) = (     0          0          1      )
                  (     1          0          0      )
                  (     0          1          0      )

 cart.    s(17) = (  0.0000000  1.0000000  0.0000000 )
                  (  0.0000000  0.0000000  1.0000000 )
                  (  1.0000000  0.0000000  0.0000000 )


      isym = 18     120 deg rotation - cart. axis [-1,1,1]       

 cryst.   s(18) = (     0          0         -1      )
                  (    -1          0          0      )
                  (     0          1          0      )

 cart.    s(18) = (  0.0000000 -1.0000000  0.0000000 )
                  (  0.0000000  0.0000000  1.0000000 )
                  ( -1.0000000  0.0000000  0.0000000 )


      isym = 19     120 deg rotation - cart. axis [1,1,-1]       

 cryst.   s(19) = (     0          0         -1      )
                  (     1          0          0      )
                  (     0         -1          0      )

 cart.    s(19) = (  0.0000000  1.0000000  0.0000000 )
                  (  0.0000000  0.0000000 -1.0000000 )
                  ( -1.0000000  0.0000000  0.0000000 )


      isym = 20     120 deg rotation - cart. axis [1,-1,1]       

 cryst.   s(20) = (     0          0          1      )
                  (    -1          0          0      )
                  (     0         -1          0      )

 cart.    s(20) = (  0.0000000 -1.0000000  0.0000000 )
                  (  0.0000000  0.0000000 -1.0000000 )
                  (  1.0000000  0.0000000  0.0000000 )


      isym = 21     120 deg rotation - cart. axis [1,1,1]        

 cryst.   s(21) = (     0          1          0      )
                  (     0          0          1      )
                  (     1          0          0      )

 cart.    s(21) = (  0.0000000  0.0000000  1.0000000 )
                  (  1.0000000  0.0000000  0.0000000 )
                  (  0.0000000  1.0000000  0.0000000 )


      isym = 22     120 deg rotation - cart. axis [-1,1,-1]      

 cryst.   s(22) = (     0         -1          0      )
                  (     0          0         -1      )
                  (     1          0          0      )

 cart.    s(22) = (  0.0000000  0.0000000  1.0000000 )
                  ( -1.0000000  0.0000000  0.0000000 )
                  (  0.0000000 -1.0000000  0.0000000 )


      isym = 23     120 deg rotation - cart. axis [1,-1,-1]      

 cryst.   s(23) = (     0         -1          0      )
                  (     0          0          1      )
                  (    -1          0          0      )

 cart.    s(23) = (  0.0000000  0.0000000 -1.0000000 )
                  ( -1.0000000  0.0000000  0.0000000 )
                  (  0.0000000  1.0000000  0.0000000 )


      isym = 24     120 deg rotation - cart. axis [-1,-1,1]      

 cryst.   s(24) = (     0          1          0      )
                  (     0          0         -1      )
                  (    -1          0          0      )

 cart.    s(24) = (  0.0000000  0.0000000 -1.0000000 )
                  (  1.0000000  0.0000000  0.0000000 )
                  (  0.0000000 -1.0000000  0.0000000 )


      isym = 25     inversion                                    

 cryst.   s(25) = (    -1          0          0      )
                  (     0         -1          0      )
                  (     0          0         -1      )

 cart.    s(25) = ( -1.0000000  0.0000000  0.0000000 )
                  (  0.0000000 -1.0000000  0.0000000 )
                  (  0.0000000  0.0000000 -1.0000000 )


      isym = 26     inv. 180 deg rotation - cart. axis [0,0,1]   

 cryst.   s(26) = (     1          0          0      )
                  (     0          1          0      )
                  (     0          0         -1      )

 cart.    s(26) = (  1.0000000  0.0000000  0.0000000 )
                  (  0.0000000  1.0000000  0.0000000 )
                  (  0.0000000  0.0000000 -1.0000000 )


      isym = 27     inv. 180 deg rotation - cart. axis [0,1,0]   

 cryst.   s(27) = (     1          0          0      )
                  (     0         -1          0      )
                  (     0          0          1      )

 cart.    s(27) = (  1.0000000  0.0000000  0.0000000 )
                  (  0.0000000 -1.0000000  0.0000000 )
                  (  0.0000000  0.0000000  1.0000000 )


      isym = 28     inv. 180 deg rotation - cart. axis [1,0,0]   

 cryst.   s(28) = (    -1          0          0      )
                  (     0          1          0      )
                  (     0          0          1      )

 cart.    s(28) = ( -1.0000000  0.0000000  0.0000000 )
                  (  0.0000000  1.0000000  0.0000000 )
                  (  0.0000000  0.0000000  1.0000000 )


      isym = 29     inv. 180 deg rotation - cart. axis [1,1,0]   

 cryst.   s(29) = (     0         -1          0      )
                  (    -1          0          0      )
                  (     0          0          1      )

 cart.    s(29) = (  0.0000000 -1.0000000  0.0000000 )
                  ( -1.0000000  0.0000000  0.0000000 )
                  (  0.0000000  0.0000000  1.0000000 )


      isym = 30     inv. 180 deg rotation - cart. axis [1,-1,0]  

 cryst.   s(30) = (     0          1          0      )
                  (     1          0          0      )
                  (     0          0          1      )

 cart.    s(30) = (  0.0000000  1.0000000  0.0000000 )
                  (  1.0000000  0.0000000  0.0000000 )
                  (  0.0000000  0.0000000  1.0000000 )


      isym = 31     inv.  90 deg rotation - cart. axis [0,0,-1]  

 cryst.   s(31) = (     0          1          0      )
                  (    -1          0          0      )
                  (     0          0         -1      )

 cart.    s(31) = (  0.0000000 -1.0000000  0.0000000 )
                  (  1.0000000  0.0000000  0.0000000 )
                  (  0.0000000  0.0000000 -1.0000000 )


      isym = 32     inv.  90 deg rotation - cart. axis [0,0,1]   

 cryst.   s(32) = (     0         -1          0      )
                  (     1          0          0      )
                  (     0          0         -1      )

 cart.    s(32) = (  0.0000000  1.0000000  0.0000000 )
                  ( -1.0000000  0.0000000  0.0000000 )
                  (  0.0000000  0.0000000 -1.0000000 )


      isym = 33     inv. 180 deg rotation - cart. axis [1,0,1]   

 cryst.   s(33) = (     0          0         -1      )
                  (     0          1          0      )
                  (    -1          0          0      )

 cart.    s(33) = (  0.0000000  0.0000000 -1.0000000 )
                  (  0.0000000  1.0000000  0.0000000 )
                  ( -1.0000000  0.0000000  0.0000000 )


      isym = 34     inv. 180 deg rotation - cart. axis [-1,0,1]  

 cryst.   s(34) = (     0          0          1      )
                  (     0          1          0      )
                  (     1          0          0      )

 cart.    s(34) = (  0.0000000  0.0000000  1.0000000 )
                  (  0.0000000  1.0000000  0.0000000 )
                  (  1.0000000  0.0000000  0.0000000 )


      isym = 35     inv.  90 deg rotation - cart. axis [0,1,0]   

 cryst.   s(35) = (     0          0          1      )
                  (     0         -1          0      )
                  (    -1          0          0      )

 cart.    s(35) = (  0.0000000  0.0000000 -1.0000000 )
                  (  0.0000000 -1.0000000  0.0000000 )
                  (  1.0000000  0.0000000  0.0000000 )


      isym = 36     inv.  90 deg rotation - cart. axis [0,-1,0]  

 cryst.   s(36) = (     0          0         -1      )
                  (     0         -1          0      )
                  (     1          0          0      )

 cart.    s(36) = (  0.0000000  0.0000000  1.0000000 )
                  (  0.0000000 -1.0000000  0.0000000 )
                  ( -1.0000000  0.0000000  0.0000000 )


      isym = 37     inv. 180 deg rotation - cart. axis [0,1,1]   

 cryst.   s(37) = (     1          0          0      )
                  (     0          0         -1      )
                  (     0         -1          0      )

 cart.    s(37) = (  1.0000000  0.0000000  0.0000000 )
                  (  0.0000000  0.0000000 -1.0000000 )
                  (  0.0000000 -1.0000000  0.0000000 )


      isym = 38     inv. 180 deg rotation - cart. axis [0,1,-1]  

 cryst.   s(38) = (     1          0          0      )
                  (     0          0          1      )
                  (     0          1          0      )

 cart.    s(38) = (  1.0000000  0.0000000  0.0000000 )
                  (  0.0000000  0.0000000  1.0000000 )
                  (  0.0000000  1.0000000  0.0000000 )


      isym = 39     inv.  90 deg rotation - cart. axis [-1,0,0]  

 cryst.   s(39) = (    -1          0          0      )
                  (     0          0          1      )
                  (     0         -1          0      )

 cart.    s(39) = ( -1.0000000  0.0000000  0.0000000 )
                  (  0.0000000  0.0000000 -1.0000000 )
                  (  0.0000000  1.0000000  0.0000000 )


      isym = 40     inv.  90 deg rotation - cart. axis [1,0,0]   

 cryst.   s(40) = (    -1          0          0      )
                  (     0          0         -1      )
                  (     0          1          0      )

 cart.    s(40) = ( -1.0000000  0.0000000  0.0000000 )
                  (  0.0000000  0.0000000  1.0000000 )
                  (  0.0000000 -1.0000000  0.0000000 )


      isym = 41     inv. 120 deg rotation - cart. axis [-1,-1,-1]

 cryst.   s(41) = (     0          0         -1      )
                  (    -1          0          0      )
                  (     0         -1          0      )

 cart.    s(41) = (  0.0000000 -1.0000000  0.0000000 )
                  (  0.0000000  0.0000000 -1.0000000 )
                  ( -1.0000000  0.0000000  0.0000000 )


      isym = 42     inv. 120 deg rotation - cart. axis [-1,1,1]  

 cryst.   s(42) = (     0          0          1      )
                  (     1          0          0      )
                  (     0         -1          0      )

 cart.    s(42) = (  0.0000000  1.0000000  0.0000000 )
                  (  0.0000000  0.0000000 -1.0000000 )
                  (  1.0000000  0.0000000  0.0000000 )


      isym = 43     inv. 120 deg rotation - cart. axis [1,1,-1]  

 cryst.   s(43) = (     0          0          1      )
                  (    -1          0          0      )
                  (     0          1          0      )

 cart.    s(43) = (  0.0000000 -1.0000000  0.0000000 )
                  (  0.0000000  0.0000000  1.0000000 )
                  (  1.0000000  0.0000000  0.0000000 )


      isym = 44     inv. 120 deg rotation - cart. axis [1,-1,1]  

 cryst.   s(44) = (     0          0         -1      )
                  (     1          0          0      )
                  (     0          1          0      )

 cart.    s(44) = (  0.0000000  1.0000000  0.0000000 )
                  (  0.0000000  0.0000000  1.0000000 )
                  ( -1.0000000  0.0000000  0.0000000 )


      isym = 45     inv. 120 deg rotation - cart. axis [1,1,1]   

 cryst.   s(45) = (     0         -1          0      )
                  (     0          0         -1      )
                  (    -1          0          0      )

 cart.    s(45) = (  0.0000000  0.0000000 -1.0000000 )
                  ( -1.0000000  0.0000000  0.0000000 )
                  (  0.0000000 -1.0000000  0.0000000 )


      isym = 46     inv. 120 deg rotation - cart. axis [-1,1,-1] 

 cryst.   s(46) = (     0          1          0      )
                  (     0          0          1      )
                  (    -1          0          0      )

 cart.    s(46) = (  0.0000000  0.0000000 -1.0000000 )
                  (  1.0000000  0.0000000  0.0000000 )
                  (  0.0000000  1.0000000  0.0000000 )


      isym = 47     inv. 120 deg rotation - cart. axis [1,-1,-1] 

 cryst.   s(47) = (     0          1          0      )
                  (     0          0         -1      )
                  (     1          0          0      )

 cart.    s(47) = (  0.0000000  0.0000000  1.0000000 )
                  (  1.0000000  0.0000000  0.0000000 )
                  (  0.0000000 -1.0000000  0.0000000 )


      isym = 48     inv. 120 deg rotation - cart. axis [-1,-1,1] 

 cryst.   s(48) = (     0         -1          0      )
                  (     0          0          1      )
                  (     1          0          0      )

 cart.    s(48) = (  0.0000000  0.0000000  1.0000000 )
                  ( -1.0000000  0.0000000  0.0000000 )
                  (  0.0000000  1.0000000  0.0000000 )


   Cartesian axes

     site n.     atom                  positions (alat units)
         1           Cs  tau(   1) = (   0.0000000   0.0000000   0.0000000  )
         2           I   tau(   2) = (   0.5000000   0.5000000   0.5000000  )

   Crystallographic axes

     site n.     atom                  positions (cryst. coord.)
         1           Cs  tau(   1) = (  0.0000000  0.0000000  0.0000000  )
         2           I   tau(   2) = (  0.5000000  0.5000000  0.5000000  )

     number of k points=     4
                       cart. coord. in units 2pi/alat
        k(    1) = (   0.0000000   0.0000000   0.0000000), wk =   0.2500000
        k(    2) = (   0.0000000   0.0000000  -0.5000000), wk =   0.7500000
        k(    3) = (   0.0000000  -0.5000000  -0.5000000), wk =   0.7500000
        k(    4) = (  -0.5000000  -0.5000000  -0.5000000), wk =   0.2500000

                       cryst. coord.
        k(    1) = (   0.0000000   0.0000000   0.0000000), wk =   0.2500000
        k(    2) = (   0.0000000   0.0000000  -0.5000000), wk =   0.7500000
        k(    3) = (   0.0000000  -0.5000000  -0.5000000), wk =   0.7500000
        k(    4) = (  -0.5000000  -0.5000000  -0.5000000), wk =   0.2500000

     Dense  grid:    54339 G-vectors     FFT dimensions: (  48,  48,  48)

     Dynamical RAM for                 wfc:       0.04 MB

     Dynamical RAM for     wfc (w. buffer):       0.22 MB

     Dynamical RAM for           str. fact:       0.09 MB

     Dynamical RAM for           local pot:       0.00 MB

     Dynamical RAM for          nlocal pot:       0.28 MB

     Dynamical RAM for                qrad:      16.12 MB

     Dynamical RAM for          rho,v,vnew:       0.29 MB

     Dynamical RAM for               rhoin:       0.10 MB

     Dynamical RAM for            rho*nmix:       0.70 MB

     Dynamical RAM for           G-vectors:       0.19 MB

     Dynamical RAM for          h,s,v(r/c):       0.01 MB

     Dynamical RAM for          <psi|beta>:       0.01 MB

     Dynamical RAM for                 psi:       0.09 MB

     Dynamical RAM for                hpsi:       0.09 MB

     Dynamical RAM for                spsi:       0.09 MB

     Dynamical RAM for      wfcinit/wfcrot:       0.10 MB

     Dynamical RAM for           addusdens:      25.72 MB

     Dynamical RAM for          addusforce:      25.76 MB

     Dynamical RAM for         addusstress:      26.86 MB

     Estimated static dynamical RAM per process >      18.37 MB

     Estimated max dynamical RAM per process >      45.22 MB

     Estimated total dynamical RAM >     859.27 MB

     Initial potential from superposition of free atoms

     starting charge   15.96031, renormalised to   16.00000
     Starting wfcs are    9 randomized atomic wfcs
     Checking if some PAW data can be deallocated... 
       PAW data deallocated on    9 nodes for type:  1
       PAW data deallocated on   10 nodes for type:  2

     total cpu time spent up to now is        3.9 secs

     Self-consistent Calculation

     iteration #  1     ecut=    70.00 Ry     beta= 0.50
     Davidson diagonalization with overlap
     ethr =  1.00E-02,  avg # of iterations =  1.0

     Threshold (ethr) on eigenvalues was too large:
     Diagonalizing with lowered threshold

     Davidson diagonalization with overlap
     ethr =  3.96E-04,  avg # of iterations =  4.0

     total cpu time spent up to now is        4.8 secs

     total energy              =    -794.86653611 Ry
     estimated scf accuracy    <       0.05099251 Ry

     iteration #  2     ecut=    70.00 Ry     beta= 0.50
     Davidson diagonalization with overlap
     ethr =  3.19E-04,  avg # of iterations =  4.2

     total cpu time spent up to now is        5.5 secs

     total energy              =    -794.88429732 Ry
     estimated scf accuracy    <       0.00264506 Ry

     iteration #  3     ecut=    70.00 Ry     beta= 0.50
     Davidson diagonalization with overlap
     ethr =  1.65E-05,  avg # of iterations =  4.2

     total cpu time spent up to now is        6.2 secs

     total energy              =    -794.88587682 Ry
     estimated scf accuracy    <       0.00067548 Ry

     iteration #  4     ecut=    70.00 Ry     beta= 0.50
     Davidson diagonalization with overlap
     ethr =  4.22E-06,  avg # of iterations =  4.0

     total cpu time spent up to now is        6.9 secs

     total energy              =    -794.88615808 Ry
     estimated scf accuracy    <       0.00002526 Ry

     iteration #  5     ecut=    70.00 Ry     beta= 0.50
     Davidson diagonalization with overlap
     ethr =  1.58E-07,  avg # of iterations = 11.0

     total cpu time spent up to now is        7.7 secs

     total energy              =    -794.88624314 Ry
     estimated scf accuracy    <       0.00001667 Ry

     iteration #  6     ecut=    70.00 Ry     beta= 0.50
     Davidson diagonalization with overlap
     ethr =  1.04E-07,  avg # of iterations =  5.8

     total cpu time spent up to now is        8.4 secs

     total energy              =    -794.88624189 Ry
     estimated scf accuracy    <       0.00005166 Ry

     iteration #  7     ecut=    70.00 Ry     beta= 0.50
     Davidson diagonalization with overlap
     ethr =  1.04E-07,  avg # of iterations =  3.5

     total cpu time spent up to now is        9.1 secs

     total energy              =    -794.88625056 Ry
     estimated scf accuracy    <       0.00000370 Ry

     iteration #  8     ecut=    70.00 Ry     beta= 0.50
     Davidson diagonalization with overlap
     ethr =  2.31E-08,  avg # of iterations =  2.8

     total cpu time spent up to now is        9.7 secs

     total energy              =    -794.88624639 Ry
     estimated scf accuracy    <       0.00000775 Ry

     iteration #  9     ecut=    70.00 Ry     beta= 0.50
     Davidson diagonalization with overlap
     ethr =  2.31E-08,  avg # of iterations =  4.0

     total cpu time spent up to now is       10.4 secs

     End of self-consistent calculation

          k = 0.0000 0.0000 0.0000 (  6763 PWs)   bands (ev):

   -17.8906  -7.8207  -4.5955  -4.5955  -4.5955   2.6142   2.6143   2.6143

     occupation numbers 
     1.0000   1.0000   1.0000   1.0000   1.0000   1.0000   1.0000   1.0000

          k = 0.0000 0.0000-0.5000 (  6816 PWs)   bands (ev):

   -17.8724  -7.8268  -4.7161  -4.5477  -4.5477   1.2887   2.5019   2.5019

     occupation numbers 
     1.0000   1.0000   1.0000   1.0000   1.0000   1.0000   1.0000   1.0000

          k = 0.0000-0.5000-0.5000 (  6784 PWs)   bands (ev):

   -17.8558  -7.6748  -4.8871  -4.8871  -4.5163   1.8927   1.8927   2.7119

     occupation numbers 
     1.0000   1.0000   1.0000   1.0000   1.0000   1.0000   1.0000   1.0000

          k =-0.5000-0.5000-0.5000 (  6776 PWs)   bands (ev):

   -17.8399  -7.5886  -4.8049  -4.8049  -4.8049   1.5471   1.5471   1.5471

     occupation numbers 
     1.0000   1.0000   1.0000   1.0000   1.0000   1.0000   1.0000   1.0000

     highest occupied level (ev):     2.7119

!    total energy              =    -794.88624806 Ry

     total all-electron energy =    -29807.052252 Ry
     estimated scf accuracy    <          8.6E-09 Ry

     The total energy is the sum of the following terms:
     one-electron contribution =      -3.97538386 Ry
     hartree contribution      =       8.76283904 Ry
     xc contribution           =     -36.98420264 Ry
     ewald contribution        =     -53.30014111 Ry
     one-center paw contrib.   =    -709.38935949 Ry
      -> PAW hartree energy AE =      25.64423101 Ry
      -> PAW hartree energy PS =     -25.53469965 Ry
      -> PAW xc energy AE      =    -383.53153052 Ry
      -> PAW xc energy PS      =      20.51626925 Ry
      -> total E_H with PAW    =       8.87237041 Ry
      -> total E_XC with PAW   =    -399.99946392 Ry

     convergence has been achieved in   9 iterations

     Forces acting on atoms (cartesian axes, Ry/au):

     atom    1 type  1   force =     0.00000000    0.00000000    0.00000000
     atom    2 type  2   force =     0.00000000    0.00000000    0.00000000
     The non-local contrib.  to forces
     atom    1 type  1   force =     0.00000000    0.00000000    0.00000000
     atom    2 type  2   force =     0.00000000    0.00000000    0.00000000
     The ionic contribution  to forces
     atom    1 type  1   force =    -0.00000000   -0.00000000   -0.00000000
     atom    2 type  2   force =     0.00000000    0.00000000    0.00000000
     The local contribution  to forces
     atom    1 type  1   force =     0.00000000    0.00000000    0.00000000
     atom    2 type  2   force =     0.00000000    0.00000000    0.00000000
     The core correction contribution to forces
     atom    1 type  1   force =     0.00000000    0.00000000    0.00000000
     atom    2 type  2   force =     0.00000000    0.00000000    0.00000000
     The Hubbard contrib.    to forces
     atom    1 type  1   force =     0.00000000    0.00000000    0.00000000
     atom    2 type  2   force =     0.00000000    0.00000000    0.00000000
     The SCF correction term to forces
     atom    1 type  1   force =    -0.00000000   -0.00000000    0.00000000
     atom    2 type  2   force =    -0.00000000    0.00000000    0.00000000

     Total force =     0.000000     Total SCF correction =     0.000000


     Computing stress (Cartesian axis) and pressure

          total   stress  (Ry/bohr**3)                   (kbar)     P=        7.07
   0.00004806   0.00000000   0.00000000            7.07        0.00        0.00
   0.00000000   0.00004806   0.00000000            0.00        7.07        0.00
   0.00000000   0.00000000   0.00004806            0.00        0.00        7.07

     kinetic stress (kbar)   3021.53      0.00      0.00
                                0.00   3021.53      0.00
                                0.00      0.00   3021.53

     local   stress (kbar)  -1091.12     -0.00     -0.00
                               -0.00  -1091.12      0.00
                               -0.00      0.00  -1091.12

     nonloc. stress (kbar)   2494.99      0.00      0.00
                                0.00   2494.99      0.00
                                0.00      0.00   2494.99

     hartree stress (kbar)    627.11     -0.00      0.00
                               -0.00    627.11      0.00
                                0.00      0.00    627.11

     exc-cor stress (kbar)   4362.37     -0.00     -0.00
                               -0.00   4362.37     -0.00
                               -0.00     -0.00   4362.37

     corecor stress (kbar)  -5593.43     -0.00     -0.00
                               -0.00  -5593.43      0.00
                               -0.00      0.00  -5593.43

     ewald   stress (kbar)  -3814.38     -0.00     -0.00
                               -0.00  -3814.38     -0.00
                               -0.00     -0.00  -3814.38

     hubbard stress (kbar)      0.00      0.00      0.00
                                0.00      0.00      0.00
                                0.00      0.00      0.00

     DFT-D   stress (kbar)      0.00      0.00      0.00
                                0.00      0.00      0.00
                                0.00      0.00      0.00

     XDM     stress (kbar)      0.00      0.00      0.00
                                0.00      0.00      0.00
                                0.00      0.00      0.00

     dft-nl  stress (kbar)      0.00      0.00      0.00
                                0.00      0.00      0.00
                                0.00      0.00      0.00

     TS-vdW  stress (kbar)      0.00      0.00      0.00
                                0.00      0.00      0.00
                                0.00      0.00      0.00



     BFGS Geometry Optimization
     Energy error            =      0.0E+00
     Gradient error          =      0.0E+00
     Cell gradient error     =      4.8E-05


     number of scf cycles    =   1
     number of bfgs steps    =   0

     enthalpy new            =    -794.8862480620 Ry

     new trust radius        =       0.0062904946 bohr
     new conv_thr            =       0.0000010000 Ry

     new unit-cell volume =    687.66247 a.u.^3 (   101.90106 Ang^3 )
     density =      4.23360 g/cm^3

CELL_PARAMETERS (angstrom)
   4.670817583   0.000000000   0.000000000
   0.000000000   4.670817583   0.000000000
   0.000000000   0.000000000   4.670817583

ATOMIC_POSITIONS (crystal)
Cs            0.0000000000        0.0000000000        0.0000000000
I             0.5000000000        0.5000000000        0.5000000000



     Writing output data file ./out/CsSnI3.save/
     NEW-OLD atomic charge density approx. for the potential
     extrapolated charge   16.05739, renormalised to   16.00000

     total cpu time spent up to now is       14.3 secs

     Self-consistent Calculation

     iteration #  1     ecut=    70.00 Ry     beta= 0.50
     Davidson diagonalization with overlap
     ethr =  1.00E-06,  avg # of iterations =  2.0

     total cpu time spent up to now is       15.0 secs

     total energy              =    -794.88626955 Ry
     estimated scf accuracy    <       0.00004766 Ry

     iteration #  2     ecut=    70.00 Ry     beta= 0.50
     Davidson diagonalization with overlap
     ethr =  2.98E-07,  avg # of iterations =  5.0

     total cpu time spent up to now is       15.7 secs

     total energy              =    -794.88636740 Ry
     estimated scf accuracy    <       0.00003452 Ry

     iteration #  3     ecut=    70.00 Ry     beta= 0.50
     Davidson diagonalization with overlap
     ethr =  2.16E-07,  avg # of iterations =  1.2

     total cpu time spent up to now is       16.3 secs

     total energy              =    -794.88636090 Ry
     estimated scf accuracy    <       0.00001564 Ry

     iteration #  4     ecut=    70.00 Ry     beta= 0.50
     Davidson diagonalization with overlap
     ethr =  9.77E-08,  avg # of iterations =  2.0

     total cpu time spent up to now is       16.9 secs

     total energy              =    -794.88636303 Ry
     estimated scf accuracy    <       0.00000197 Ry

     iteration #  5     ecut=    70.00 Ry     beta= 0.50
     Davidson diagonalization with overlap
     ethr =  1.23E-08,  avg # of iterations =  6.5

     total cpu time spent up to now is       17.6 secs

     End of self-consistent calculation

          k = 0.0000 0.0000 0.0000 (  6763 PWs)   bands (ev):

   -17.9269  -7.8433  -4.6315  -4.6315  -4.6315   2.5864   2.5865   2.5865

     occupation numbers 
     1.0000   1.0000   1.0000   1.0000   1.0000   1.0000   1.0000   1.0000

          k = 0.0000 0.0000-0.4994 (  6816 PWs)   bands (ev):

   -17.9091  -7.8489  -4.7515  -4.5844  -4.5844   1.2692   2.4761   2.4761

     occupation numbers 
     1.0000   1.0000   1.0000   1.0000   1.0000   1.0000   1.0000   1.0000

          k = 0.0000-0.4994-0.4994 (  6784 PWs)   bands (ev):

   -17.8927  -7.6988  -4.9194  -4.9194  -4.5535   1.8680   1.8680   2.6845

     occupation numbers 
     1.0000   1.0000   1.0000   1.0000   1.0000   1.0000   1.0000   1.0000

          k =-0.4994-0.4994-0.4994 (  6776 PWs)   bands (ev):

   -17.8771  -7.6136  -4.8386  -4.8386  -4.8386   1.5276   1.5276   1.5276

     occupation numbers 
     1.0000   1.0000   1.0000   1.0000   1.0000   1.0000   1.0000   1.0000

     highest occupied level (ev):     2.6845

!    total energy              =    -794.88636468 Ry

     total all-electron energy =    -29807.052369 Ry
     estimated scf accuracy    <       0.00000040 Ry

     The total energy is the sum of the following terms:
     one-electron contribution =      -4.07180608 Ry
     hartree contribution      =       8.79508369 Ry
     xc contribution           =     -36.98384794 Ry
     ewald contribution        =     -53.23617407 Ry
     one-center paw contrib.   =    -709.38962028 Ry
      -> PAW hartree energy AE =      25.66253990 Ry
      -> PAW hartree energy PS =     -25.55304293 Ry
      -> PAW xc energy AE      =    -383.53407069 Ry
      -> PAW xc energy PS      =      20.51871549 Ry
      -> total E_H with PAW    =       8.90458065 Ry
      -> total E_XC with PAW   =    -399.99920315 Ry

     convergence has been achieved in   5 iterations

     Forces acting on atoms (cartesian axes, Ry/au):

     atom    1 type  1   force =     0.00000000    0.00000000    0.00000000
     atom    2 type  2   force =     0.00000000    0.00000000    0.00000000
     The non-local contrib.  to forces
     atom    1 type  1   force =     0.00000000    0.00000000    0.00000000
     atom    2 type  2   force =     0.00000000    0.00000000    0.00000000
     The ionic contribution  to forces
     atom    1 type  1   force =    -0.00000000   -0.00000000   -0.00000000
     atom    2 type  2   force =     0.00000000    0.00000000    0.00000000
     The local contribution  to forces
     atom    1 type  1   force =     0.00000000    0.00000000    0.00000000
     atom    2 type  2   force =     0.00000000    0.00000000    0.00000000
     The core correction contribution to forces
     atom    1 type  1   force =     0.00000000    0.00000000    0.00000000
     atom    2 type  2   force =     0.00000000    0.00000000    0.00000000
     The Hubbard contrib.    to forces
     atom    1 type  1   force =     0.00000000    0.00000000    0.00000000
     atom    2 type  2   force =     0.00000000    0.00000000    0.00000000
     The SCF correction term to forces
     atom    1 type  1   force =     0.00000000    0.00000000    0.00000000
     atom    2 type  2   force =     0.00000000   -0.00000000    0.00000000

     Total force =     0.000000     Total SCF correction =     0.000000


     Computing stress (Cartesian axis) and pressure

          total   stress  (Ry/bohr**3)                   (kbar)     P=        6.95
   0.00004723   0.00000000   0.00000000            6.95        0.00        0.00
   0.00000000   0.00004723   0.00000000            0.00        6.95        0.00
   0.00000000   0.00000000   0.00004723            0.00        0.00        6.95

     kinetic stress (kbar)   3010.39      0.00      0.00
                                0.00   3010.39      0.00
                                0.00      0.00   3010.39

     local   stress (kbar)  -1093.93     -0.00      0.00
                               -0.00  -1093.93      0.00
                                0.00      0.00  -1093.93

     nonloc. stress (kbar)   2486.06      0.00      0.00
                                0.00   2486.06      0.00
                                0.00      0.00   2486.06

     hartree stress (kbar)    627.15     -0.00     -0.00
                               -0.00    627.15      0.00
                               -0.00      0.00    627.15

     exc-cor stress (kbar)   4346.73     -0.00     -0.00
                               -0.00   4346.73     -0.00
                               -0.00     -0.00   4346.73

     corecor stress (kbar)  -5573.35     -0.00      0.00
                               -0.00  -5573.35     -0.00
                                0.00     -0.00  -5573.35

     ewald   stress (kbar)  -3796.10      0.00     -0.00
                                0.00  -3796.10     -0.00
                               -0.00     -0.00  -3796.10

     hubbard stress (kbar)      0.00      0.00      0.00
                                0.00      0.00      0.00
                                0.00      0.00      0.00

     DFT-D   stress (kbar)      0.00      0.00      0.00
                                0.00      0.00      0.00
                                0.00      0.00      0.00

     XDM     stress (kbar)      0.00      0.00      0.00
                                0.00      0.00      0.00
                                0.00      0.00      0.00

     dft-nl  stress (kbar)      0.00      0.00      0.00
                                0.00      0.00      0.00
                                0.00      0.00      0.00

     TS-vdW  stress (kbar)      0.00      0.00      0.00
                                0.00      0.00      0.00
                                0.00      0.00      0.00


     Energy error            =      1.2E-04
     Gradient error          =      0.0E+00
     Cell gradient error     =      4.7E-05


     number of scf cycles    =   2
     number of bfgs steps    =   1

     enthalpy old            =    -794.8862480620 Ry
     enthalpy new            =    -794.8863646821 Ry

     CASE: enthalpy_new < enthalpy_old


     WARNING: bfgs curvature condition failed, Theta= 0.812
     new trust radius        =       0.0069237000 bohr
     new conv_thr            =       0.0000000100 Ry

     new unit-cell volume =    690.38950 a.u.^3 (   102.30517 Ang^3 )
     density =      4.21687 g/cm^3

CELL_PARAMETERS (angstrom)
   4.676983725   0.000000000   0.000000000
   0.000000000   4.676983725   0.000000000
   0.000000000   0.000000000   4.676983725

ATOMIC_POSITIONS (crystal)
Cs            0.0000000000        0.0000000000        0.0000000000
I             0.5000000000        0.5000000000        0.5000000000



     Writing output data file ./out/CsSnI3.save/
     NEW-OLD atomic charge density approx. for the potential
     extrapolated charge   16.06304, renormalised to   16.00000

     total cpu time spent up to now is       21.5 secs

     Self-consistent Calculation

     iteration #  1     ecut=    70.00 Ry     beta= 0.50
     Davidson diagonalization with overlap
     ethr =  1.00E-06,  avg # of iterations =  2.0

     total cpu time spent up to now is       22.3 secs

     total energy              =    -794.88636703 Ry
     estimated scf accuracy    <       0.00006481 Ry

     iteration #  2     ecut=    70.00 Ry     beta= 0.50
     Davidson diagonalization with overlap
     ethr =  4.05E-07,  avg # of iterations =  5.0

     total cpu time spent up to now is       23.0 secs

     total energy              =    -794.88648688 Ry
     estimated scf accuracy    <       0.00003770 Ry

     iteration #  3     ecut=    70.00 Ry     beta= 0.50
     Davidson diagonalization with overlap
     ethr =  2.36E-07,  avg # of iterations =  1.2

     total cpu time spent up to now is       23.6 secs

     total energy              =    -794.88648070 Ry
     estimated scf accuracy    <       0.00001642 Ry

     iteration #  4     ecut=    70.00 Ry     beta= 0.50
     Davidson diagonalization with overlap
     ethr =  1.03E-07,  avg # of iterations =  2.0

     total cpu time spent up to now is       24.5 secs

     total energy              =    -794.88648227 Ry
     estimated scf accuracy    <       0.00000286 Ry

     iteration #  5     ecut=    70.00 Ry     beta= 0.50
     Davidson diagonalization with overlap
     ethr =  1.79E-08,  avg # of iterations =  7.0

     total cpu time spent up to now is       25.2 secs

     total energy              =    -794.88648814 Ry
     estimated scf accuracy    <       0.00000051 Ry

     iteration #  6     ecut=    70.00 Ry     beta= 0.50
     Davidson diagonalization with overlap
     ethr =  3.21E-09,  avg # of iterations =  6.2

     total cpu time spent up to now is       25.9 secs

     total energy              =    -794.88648302 Ry
     estimated scf accuracy    <       0.00000939 Ry

     iteration #  7     ecut=    70.00 Ry     beta= 0.50
     Davidson diagonalization with overlap
     ethr =  3.21E-09,  avg # of iterations =  6.0

     total cpu time spent up to now is       26.6 secs

     total energy              =    -794.88648521 Ry
     estimated scf accuracy    <       0.00000053 Ry

     iteration #  8     ecut=    70.00 Ry     beta= 0.50
     Davidson diagonalization with overlap
     ethr =  3.21E-09,  avg # of iterations =  2.0

     total cpu time spent up to now is       27.2 secs

     total energy              =    -794.88648535 Ry
     estimated scf accuracy    <       0.00000003 Ry

     iteration #  9     ecut=    70.00 Ry     beta= 0.50
     Davidson diagonalization with overlap
     ethr =  1.91E-10,  avg # of iterations =  8.2

     total cpu time spent up to now is       28.1 secs

     total energy              =    -794.88648537 Ry
     estimated scf accuracy    <       0.00000026 Ry

     iteration # 10     ecut=    70.00 Ry     beta= 0.50
     Davidson diagonalization with overlap
     ethr =  1.91E-10,  avg # of iterations =  2.5

     total cpu time spent up to now is       28.7 secs

     total energy              =    -794.88648536 Ry
     estimated scf accuracy    <       0.00000006 Ry

     iteration # 11     ecut=    70.00 Ry     beta= 0.50
     Davidson diagonalization with overlap
     ethr =  1.91E-10,  avg # of iterations =  4.8

     total cpu time spent up to now is       29.4 secs

     total energy              =    -794.88648538 Ry
     estimated scf accuracy    <       0.00000001 Ry

     iteration # 12     ecut=    70.00 Ry     beta= 0.50
     Davidson diagonalization with overlap
     ethr =  6.46E-11,  avg # of iterations =  2.2

     total cpu time spent up to now is       30.1 secs

     End of self-consistent calculation

          k = 0.0000 0.0000 0.0000 (  6763 PWs)   bands (ev):

   -17.9599  -7.8678  -4.6656  -4.6656  -4.6656   2.5562   2.5562   2.5562

     occupation numbers 
     1.0000   1.0000   1.0000   1.0000   1.0000   1.0000   1.0000   1.0000

          k = 0.0000 0.0000-0.4987 (  6816 PWs)   bands (ev):

   -17.9424  -7.8728  -4.7853  -4.6193  -4.6193   1.2480   2.4480   2.4480

     occupation numbers 
     1.0000   1.0000   1.0000   1.0000   1.0000   1.0000   1.0000   1.0000

          k = 0.0000-0.4987-0.4987 (  6784 PWs)   bands (ev):

   -17.9263  -7.7248  -4.9499  -4.9499  -4.5888   1.8414   1.8414   2.6545

     occupation numbers 
     1.0000   1.0000   1.0000   1.0000   1.0000   1.0000   1.0000   1.0000

          k =-0.4987-0.4987-0.4987 (  6776 PWs)   bands (ev):

   -17.9110  -7.6408  -4.8705  -4.8705  -4.8705   1.5063   1.5063   1.5063

     occupation numbers 
     1.0000   1.0000   1.0000   1.0000   1.0000   1.0000   1.0000   1.0000

     highest occupied level (ev):     2.6545

!    total energy              =    -794.88648538 Ry

     total all-electron energy =    -29807.052490 Ry
     estimated scf accuracy    <          1.5E-09 Ry

     The total energy is the sum of the following terms:
     one-electron contribution =      -4.17644162 Ry
     hartree contribution      =       8.82643350 Ry
     xc contribution           =     -36.98131005 Ry
     ewald contribution        =     -53.16598742 Ry
     one-center paw contrib.   =    -709.38917978 Ry
      -> PAW hartree energy AE =      25.64228692 Ry
      -> PAW hartree energy PS =     -25.53276402 Ry
      -> PAW xc energy AE      =    -383.53116090 Ry
      -> PAW xc energy PS      =      20.51594787 Ry
      -> total E_H with PAW    =       8.93595641 Ry
      -> total E_XC with PAW   =    -399.99652308 Ry

     convergence has been achieved in  12 iterations

     Forces acting on atoms (cartesian axes, Ry/au):

     atom    1 type  1   force =     0.00000000    0.00000000    0.00000000
     atom    2 type  2   force =     0.00000000    0.00000000    0.00000000
     The non-local contrib.  to forces
     atom    1 type  1   force =     0.00000000    0.00000000    0.00000000
     atom    2 type  2   force =     0.00000000    0.00000000    0.00000000
     The ionic contribution  to forces
     atom    1 type  1   force =    -0.00000000   -0.00000000   -0.00000000
     atom    2 type  2   force =    -0.00000000   -0.00000000    0.00000000
     The local contribution  to forces
     atom    1 type  1   force =     0.00000000    0.00000000    0.00000000
     atom    2 type  2   force =     0.00000000    0.00000000    0.00000000
     The core correction contribution to forces
     atom    1 type  1   force =     0.00000000    0.00000000    0.00000000
     atom    2 type  2   force =     0.00000000    0.00000000   -0.00000000
     The Hubbard contrib.    to forces
     atom    1 type  1   force =     0.00000000    0.00000000    0.00000000
     atom    2 type  2   force =     0.00000000    0.00000000    0.00000000
     The SCF correction term to forces
     atom    1 type  1   force =    -0.00000000   -0.00000000   -0.00000000
     atom    2 type  2   force =    -0.00000000   -0.00000000   -0.00000000

     Total force =     0.000000     Total SCF correction =     0.000000


     Computing stress (Cartesian axis) and pressure

          total   stress  (Ry/bohr**3)                   (kbar)     P=        6.23
   0.00004237   0.00000000   0.00000000            6.23        0.00        0.00
   0.00000000   0.00004237   0.00000000            0.00        6.23        0.00
   0.00000000   0.00000000   0.00004237            0.00        0.00        6.23

     kinetic stress (kbar)   2997.88      0.00      0.00
                                0.00   2997.88      0.00
                                0.00      0.00   2997.88

     local   stress (kbar)  -1096.79      0.00      0.00
                                0.00  -1096.79     -0.00
                                0.00     -0.00  -1096.79

     nonloc. stress (kbar)   2475.97      0.00      0.00
                                0.00   2475.97      0.00
                                0.00      0.00   2475.97

     hartree stress (kbar)    626.90     -0.00      0.00
                               -0.00    626.90      0.00
                                0.00      0.00    626.90

     exc-cor stress (kbar)   4329.66     -0.00     -0.00
                               -0.00   4329.66      0.00
                               -0.00      0.00   4329.66

     corecor stress (kbar)  -5551.26     -0.00      0.00
                               -0.00  -5551.26      0.00
                                0.00      0.00  -5551.26

     ewald   stress (kbar)  -3776.12      0.00     -0.00
                                0.00  -3776.12     -0.00
                               -0.00     -0.00  -3776.12

     hubbard stress (kbar)      0.00      0.00      0.00
                                0.00      0.00      0.00
                                0.00      0.00      0.00

     DFT-D   stress (kbar)      0.00      0.00      0.00
                                0.00      0.00      0.00
                                0.00      0.00      0.00

     XDM     stress (kbar)      0.00      0.00      0.00
                                0.00      0.00      0.00
                                0.00      0.00      0.00

     dft-nl  stress (kbar)      0.00      0.00      0.00
                                0.00      0.00      0.00
                                0.00      0.00      0.00

     TS-vdW  stress (kbar)      0.00      0.00      0.00
                                0.00      0.00      0.00
                                0.00      0.00      0.00


     Energy error            =      1.2E-04
     Gradient error          =      0.0E+00
     Cell gradient error     =      4.2E-05


     number of scf cycles    =   3
     number of bfgs steps    =   2

     enthalpy old            =    -794.8863646821 Ry
     enthalpy new            =    -794.8864853769 Ry

     CASE: enthalpy_new < enthalpy_old

     new trust radius        =       0.0103924029 bohr
     new conv_thr            =       0.0000000100 Ry

     new unit-cell volume =    694.49355 a.u.^3 (   102.91333 Ang^3 )
     density =      4.19196 g/cm^3

CELL_PARAMETERS (angstrom)
   4.686232937   0.000000000   0.000000000
   0.000000000   4.686232937   0.000000000
   0.000000000   0.000000000   4.686232937

ATOMIC_POSITIONS (crystal)
Cs            0.0000000000        0.0000000000        0.0000000000
I             0.5000000000        0.5000000000        0.5000000000



     Writing output data file ./out/CsSnI3.save/
     NEW-OLD atomic charge density approx. for the potential
     extrapolated charge   16.09432, renormalised to   16.00000

     total cpu time spent up to now is       34.0 secs

     Self-consistent Calculation

     iteration #  1     ecut=    70.00 Ry     beta= 0.50
     Davidson diagonalization with overlap
     ethr =  1.00E-06,  avg # of iterations =  2.5

     total cpu time spent up to now is       34.7 secs

     total energy              =    -794.88638639 Ry
     estimated scf accuracy    <       0.00013357 Ry

     iteration #  2     ecut=    70.00 Ry     beta= 0.50
     Davidson diagonalization with overlap
     ethr =  8.35E-07,  avg # of iterations =  4.8

     total cpu time spent up to now is       35.3 secs

     total energy              =    -794.88665614 Ry
     estimated scf accuracy    <       0.00009252 Ry

     iteration #  3     ecut=    70.00 Ry     beta= 0.50
     Davidson diagonalization with overlap
     ethr =  5.78E-07,  avg # of iterations =  1.5

     total cpu time spent up to now is       35.9 secs

     total energy              =    -794.88663779 Ry
     estimated scf accuracy    <       0.00004201 Ry

     iteration #  4     ecut=    70.00 Ry     beta= 0.50
     Davidson diagonalization with overlap
     ethr =  2.63E-07,  avg # of iterations =  2.0

     total cpu time spent up to now is       36.6 secs

     total energy              =    -794.88664414 Ry
     estimated scf accuracy    <       0.00000476 Ry

     iteration #  5     ecut=    70.00 Ry     beta= 0.50
     Davidson diagonalization with overlap
     ethr =  2.97E-08,  avg # of iterations =  6.5

     total cpu time spent up to now is       37.3 secs

     total energy              =    -794.88665501 Ry
     estimated scf accuracy    <       0.00000103 Ry

     iteration #  6     ecut=    70.00 Ry     beta= 0.50
     Davidson diagonalization with overlap
     ethr =  6.45E-09,  avg # of iterations =  6.0

     total cpu time spent up to now is       38.0 secs

     total energy              =    -794.88665091 Ry
     estimated scf accuracy    <       0.00001667 Ry

     iteration #  7     ecut=    70.00 Ry     beta= 0.50
     Davidson diagonalization with overlap
     ethr =  6.45E-09,  avg # of iterations =  4.2

     total cpu time spent up to now is       38.7 secs

     total energy              =    -794.88664869 Ry
     estimated scf accuracy    <       0.00000463 Ry

     iteration #  8     ecut=    70.00 Ry     beta= 0.50
     Davidson diagonalization with overlap
     ethr =  6.45E-09,  avg # of iterations =  4.5

     total cpu time spent up to now is       39.4 secs

     total energy              =    -794.88665008 Ry
     estimated scf accuracy    <       0.00000013 Ry

     iteration #  9     ecut=    70.00 Ry     beta= 0.50
     Davidson diagonalization with overlap
     ethr =  7.86E-10,  avg # of iterations =  4.2

     total cpu time spent up to now is       40.1 secs

     total energy              =    -794.88665009 Ry
     estimated scf accuracy    <       0.00000005 Ry

     iteration # 10     ecut=    70.00 Ry     beta= 0.50
     Davidson diagonalization with overlap
     ethr =  3.03E-10,  avg # of iterations =  4.0

     total cpu time spent up to now is       40.7 secs

     total energy              =    -794.88665012 Ry
     estimated scf accuracy    <       0.00000003 Ry

     iteration # 11     ecut=    70.00 Ry     beta= 0.50
     Davidson diagonalization with overlap
     ethr =  1.60E-10,  avg # of iterations =  3.8

     total cpu time spent up to now is       41.4 secs

     End of self-consistent calculation

          k = 0.0000 0.0000 0.0000 (  6763 PWs)   bands (ev):

   -18.0134  -7.9049  -4.7197  -4.7197  -4.7197   2.5108   2.5108   2.5108

     occupation numbers 
     1.0000   1.0000   1.0000   1.0000   1.0000   1.0000   1.0000   1.0000

          k = 0.0000 0.0000-0.4978 (  6816 PWs)   bands (ev):

   -17.9963  -7.9090  -4.8387  -4.6746  -4.6746   1.2162   2.4057   2.4057

     occupation numbers 
     1.0000   1.0000   1.0000   1.0000   1.0000   1.0000   1.0000   1.0000

          k = 0.0000-0.4978-0.4978 (  6784 PWs)   bands (ev):

   -17.9807  -7.7642  -4.9985  -4.9985  -4.6446   1.8012   1.8012   2.6095

     occupation numbers 
     1.0000   1.0000   1.0000   1.0000   1.0000   1.0000   1.0000   1.0000

          k =-0.4978-0.4978-0.4978 (  6776 PWs)   bands (ev):

   -17.9658  -7.6817  -4.9212  -4.9212  -4.9212   1.4742   1.4742   1.4742

     occupation numbers 
     1.0000   1.0000   1.0000   1.0000   1.0000   1.0000   1.0000   1.0000

     highest occupied level (ev):     2.6095

!    total energy              =    -794.88665013 Ry

     total all-electron energy =    -29807.052654 Ry
     estimated scf accuracy    <          2.0E-09 Ry

     The total energy is the sum of the following terms:
     one-electron contribution =      -4.33385915 Ry
     hartree contribution      =       8.87621398 Ry
     xc contribution           =     -36.97896600 Ry
     ewald contribution        =     -53.06105378 Ry
     one-center paw contrib.   =    -709.38898517 Ry
      -> PAW hartree energy AE =      25.63899733 Ry
      -> PAW hartree energy PS =     -25.52948568 Ry
      -> PAW xc energy AE      =    -383.53060187 Ry
      -> PAW xc energy PS      =      20.51546148 Ry
      -> total E_H with PAW    =       8.98572563 Ry
      -> total E_XC with PAW   =    -399.99410639 Ry

     convergence has been achieved in  11 iterations

     Forces acting on atoms (cartesian axes, Ry/au):

     atom    1 type  1   force =     0.00000000    0.00000000    0.00000000
     atom    2 type  2   force =     0.00000000    0.00000000    0.00000000
     The non-local contrib.  to forces
     atom    1 type  1   force =     0.00000000    0.00000000    0.00000000
     atom    2 type  2   force =     0.00000000    0.00000000    0.00000000
     The ionic contribution  to forces
     atom    1 type  1   force =    -0.00000000   -0.00000000   -0.00000000
     atom    2 type  2   force =    -0.00000000   -0.00000000   -0.00000000
     The local contribution  to forces
     atom    1 type  1   force =     0.00000000    0.00000000    0.00000000
     atom    2 type  2   force =     0.00000000    0.00000000    0.00000000
     The core correction contribution to forces
     atom    1 type  1   force =     0.00000000    0.00000000    0.00000000
     atom    2 type  2   force =     0.00000000    0.00000000    0.00000000
     The Hubbard contrib.    to forces
     atom    1 type  1   force =     0.00000000    0.00000000    0.00000000
     atom    2 type  2   force =     0.00000000    0.00000000    0.00000000
     The SCF correction term to forces
     atom    1 type  1   force =    -0.00000000   -0.00000000   -0.00000000
     atom    2 type  2   force =     0.00000000   -0.00000000    0.00000000

     Total force =     0.000000     Total SCF correction =     0.000000


     Computing stress (Cartesian axis) and pressure

          total   stress  (Ry/bohr**3)                   (kbar)     P=        5.56
   0.00003777   0.00000000   0.00000000            5.56        0.00        0.00
   0.00000000   0.00003777   0.00000000            0.00        5.56        0.00
   0.00000000   0.00000000   0.00003777            0.00        0.00        5.56

     kinetic stress (kbar)   2979.47      0.00      0.00
                                0.00   2979.47      0.00
                                0.00      0.00   2979.47

     local   stress (kbar)  -1101.11     -0.00      0.00
                               -0.00  -1101.11      0.00
                                0.00      0.00  -1101.11

     nonloc. stress (kbar)   2461.13      0.00      0.00
                                0.00   2461.13      0.00
                                0.00      0.00   2461.13

     hartree stress (kbar)    626.71      0.00     -0.00
                                0.00    626.71      0.00
                               -0.00      0.00    626.71

     exc-cor stress (kbar)   4304.18      0.00      0.00
                                0.00   4304.18      0.00
                                0.00      0.00   4304.18

     corecor stress (kbar)  -5518.42      0.00      0.00
                                0.00  -5518.42      0.00
                                0.00      0.00  -5518.42

     ewald   stress (kbar)  -3746.40      0.00     -0.00
                                0.00  -3746.40     -0.00
                               -0.00     -0.00  -3746.40

     hubbard stress (kbar)      0.00      0.00      0.00
                                0.00      0.00      0.00
                                0.00      0.00      0.00

     DFT-D   stress (kbar)      0.00      0.00      0.00
                                0.00      0.00      0.00
                                0.00      0.00      0.00

     XDM     stress (kbar)      0.00      0.00      0.00
                                0.00      0.00      0.00
                                0.00      0.00      0.00

     dft-nl  stress (kbar)      0.00      0.00      0.00
                                0.00      0.00      0.00
                                0.00      0.00      0.00

     TS-vdW  stress (kbar)      0.00      0.00      0.00
                                0.00      0.00      0.00
                                0.00      0.00      0.00


     Energy error            =      1.6E-04
     Gradient error          =      0.0E+00
     Cell gradient error     =      3.8E-05


     number of scf cycles    =   4
     number of bfgs steps    =   3

     enthalpy old            =    -794.8864853769 Ry
     enthalpy new            =    -794.8866501269 Ry

     CASE: enthalpy_new < enthalpy_old

     new trust radius        =       0.0156040108 bohr
     new conv_thr            =       0.0000000100 Ry

     new unit-cell volume =    700.68008 a.u.^3 (   103.83007 Ang^3 )
     density =      4.15494 g/cm^3

CELL_PARAMETERS (angstrom)
   4.700106756   0.000000000   0.000000000
   0.000000000   4.700106756   0.000000000
   0.000000000   0.000000000   4.700106756

ATOMIC_POSITIONS (crystal)
Cs            0.0000000000        0.0000000000        0.0000000000
I             0.5000000000        0.5000000000        0.5000000000



     Writing output data file ./out/CsSnI3.save/
     NEW-OLD atomic charge density approx. for the potential
     extrapolated charge   16.14092, renormalised to   16.00000

     total cpu time spent up to now is       45.3 secs

     Self-consistent Calculation

     iteration #  1     ecut=    70.00 Ry     beta= 0.50
     Davidson diagonalization with overlap
     ethr =  1.00E-06,  avg # of iterations =  3.0

     total cpu time spent up to now is       46.0 secs

     total energy              =    -794.88627253 Ry
     estimated scf accuracy    <       0.00029829 Ry

     iteration #  2     ecut=    70.00 Ry     beta= 0.50
     Davidson diagonalization with overlap
     ethr =  1.86E-06,  avg # of iterations =  4.8

     total cpu time spent up to now is       46.7 secs

     total energy              =    -794.88687802 Ry
     estimated scf accuracy    <       0.00020186 Ry

     iteration #  3     ecut=    70.00 Ry     beta= 0.50
     Davidson diagonalization with overlap
     ethr =  1.26E-06,  avg # of iterations =  1.5

     total cpu time spent up to now is       47.3 secs

     total energy              =    -794.88683537 Ry
     estimated scf accuracy    <       0.00009585 Ry

     iteration #  4     ecut=    70.00 Ry     beta= 0.50
     Davidson diagonalization with overlap
     ethr =  5.99E-07,  avg # of iterations =  2.0

     total cpu time spent up to now is       47.9 secs

     total energy              =    -794.88685056 Ry
     estimated scf accuracy    <       0.00001043 Ry

     iteration #  5     ecut=    70.00 Ry     beta= 0.50
     Davidson diagonalization with overlap
     ethr =  6.52E-08,  avg # of iterations =  6.2

     total cpu time spent up to now is       48.6 secs

     total energy              =    -794.88688079 Ry
     estimated scf accuracy    <       0.00000228 Ry

     iteration #  6     ecut=    70.00 Ry     beta= 0.50
     Davidson diagonalization with overlap
     ethr =  1.42E-08,  avg # of iterations =  6.0

     total cpu time spent up to now is       49.3 secs

     total energy              =    -794.88686256 Ry
     estimated scf accuracy    <       0.00006151 Ry

     iteration #  7     ecut=    70.00 Ry     beta= 0.50
     Davidson diagonalization with overlap
     ethr =  1.42E-08,  avg # of iterations =  5.2

     total cpu time spent up to now is       50.0 secs

     total energy              =    -794.88686060 Ry
     estimated scf accuracy    <       0.00001148 Ry

     iteration #  8     ecut=    70.00 Ry     beta= 0.50
     Davidson diagonalization with overlap
     ethr =  1.42E-08,  avg # of iterations =  4.5

     total cpu time spent up to now is       50.7 secs

     total energy              =    -794.88686264 Ry
     estimated scf accuracy    <       0.00000021 Ry

     iteration #  9     ecut=    70.00 Ry     beta= 0.50
     Davidson diagonalization with overlap
     ethr =  1.32E-09,  avg # of iterations =  4.8

     total cpu time spent up to now is       61.6 secs

     total energy              =    -794.88686279 Ry
     estimated scf accuracy    <       0.00000009 Ry

     iteration # 10     ecut=    70.00 Ry     beta= 0.50
     Davidson diagonalization with overlap
     ethr =  5.90E-10,  avg # of iterations =  2.5

     total cpu time spent up to now is       70.9 secs

     total energy              =    -794.88686279 Ry
     estimated scf accuracy    <       0.00000009 Ry

     iteration # 11     ecut=    70.00 Ry     beta= 0.50
     Davidson diagonalization with overlap
     ethr =  5.49E-10,  avg # of iterations =  1.0

     total cpu time spent up to now is       71.5 secs

     total energy              =    -794.88686288 Ry
     estimated scf accuracy    <       0.00000007 Ry

     iteration # 12     ecut=    70.00 Ry     beta= 0.50
     Davidson diagonalization with overlap
     ethr =  4.46E-10,  avg # of iterations =  5.8

     total cpu time spent up to now is       72.2 secs

     total energy              =    -794.88686278 Ry
     estimated scf accuracy    <       0.00000106 Ry

     iteration # 13     ecut=    70.00 Ry     beta= 0.50
     Davidson diagonalization with overlap
     ethr =  4.46E-10,  avg # of iterations =  3.8

     total cpu time spent up to now is       72.9 secs

     total energy              =    -794.88686268 Ry
     estimated scf accuracy    <       0.00000021 Ry

     iteration # 14     ecut=    70.00 Ry     beta= 0.50
     Davidson diagonalization with overlap
     ethr =  4.46E-10,  avg # of iterations =  5.0

     total cpu time spent up to now is       73.6 secs

     total energy              =    -794.88686286 Ry
     estimated scf accuracy    <       0.00000014 Ry

     iteration # 15     ecut=    70.00 Ry     beta= 0.50
     Davidson diagonalization with overlap
     ethr =  4.46E-10,  avg # of iterations =  2.0

     total cpu time spent up to now is       74.2 secs

     total energy              =    -794.88686285 Ry
     estimated scf accuracy    <       0.00000023 Ry

     iteration # 16     ecut=    70.00 Ry     beta= 0.50
     Davidson diagonalization with overlap
     ethr =  4.46E-10,  avg # of iterations =  1.0

     total cpu time spent up to now is       74.8 secs

     total energy              =    -794.88686279 Ry
     estimated scf accuracy    <       0.00000020 Ry

     iteration # 17     ecut=    70.00 Ry     beta= 0.50
     Davidson diagonalization with overlap
     ethr =  4.46E-10,  avg # of iterations =  2.0

     total cpu time spent up to now is       75.4 secs

     total energy              =    -794.88686276 Ry
     estimated scf accuracy    <       0.00000010 Ry

     iteration # 18     ecut=    70.00 Ry     beta= 0.50
     Davidson diagonalization with overlap
     ethr =  4.46E-10,  avg # of iterations =  2.5

     total cpu time spent up to now is       76.1 secs

     total energy              =    -794.88686276 Ry
     estimated scf accuracy    <       0.00000003 Ry

     iteration # 19     ecut=    70.00 Ry     beta= 0.50
     Davidson diagonalization with overlap
     ethr =  1.61E-10,  avg # of iterations =  3.8

     total cpu time spent up to now is       76.8 secs

     End of self-consistent calculation

          k = 0.0000 0.0000 0.0000 (  6763 PWs)   bands (ev):

   -18.0934  -7.9603  -4.8005  -4.8005  -4.8005   2.4433   2.4433   2.4433

     occupation numbers 
     1.0000   1.0000   1.0000   1.0000   1.0000   1.0000   1.0000   1.0000

          k = 0.0000 0.0000-0.4963 (  6816 PWs)   bands (ev):

   -18.0770  -7.9630  -4.9184  -4.7570  -4.7570   1.1687   2.3428   2.3428

     occupation numbers 
     1.0000   1.0000   1.0000   1.0000   1.0000   1.0000   1.0000   1.0000

          k = 0.0000-0.4963-0.4963 (  6784 PWs)   bands (ev):

   -18.0620  -7.8229  -5.0712  -5.0712  -4.7280   1.7416   1.7416   2.5425

     occupation numbers 
     1.0000   1.0000   1.0000   1.0000   1.0000   1.0000   1.0000   1.0000

          k =-0.4963-0.4963-0.4963 (  6776 PWs)   bands (ev):

   -18.0476  -7.7429  -4.9969  -4.9969  -4.9969   1.4263   1.4263   1.4263

     occupation numbers 
     1.0000   1.0000   1.0000   1.0000   1.0000   1.0000   1.0000   1.0000

     highest occupied level (ev):     2.5425

!    total energy              =    -794.88686277 Ry

     total all-electron energy =    -29807.052867 Ry
     estimated scf accuracy    <          1.5E-09 Ry

     The total energy is the sum of the following terms:
     one-electron contribution =      -4.56905610 Ry
     hartree contribution      =       8.95077331 Ry
     xc contribution           =     -36.97545725 Ry
     ewald contribution        =     -52.90442767 Ry
     one-center paw contrib.   =    -709.38869506 Ry
      -> PAW hartree energy AE =      25.63416822 Ry
      -> PAW hartree energy PS =     -25.52466597 Ry
      -> PAW xc energy AE      =    -383.52981968 Ry
      -> PAW xc energy PS      =      20.51475881 Ry
      -> total E_H with PAW    =       9.06027555 Ry
      -> total E_XC with PAW   =    -399.99051813 Ry

     convergence has been achieved in  19 iterations

     Forces acting on atoms (cartesian axes, Ry/au):

     atom    1 type  1   force =     0.00000000    0.00000000    0.00000000
     atom    2 type  2   force =     0.00000000    0.00000000    0.00000000
     The non-local contrib.  to forces
     atom    1 type  1   force =     0.00000000    0.00000000    0.00000000
     atom    2 type  2   force =     0.00000000    0.00000000    0.00000000
     The ionic contribution  to forces
     atom    1 type  1   force =    -0.00000000   -0.00000000   -0.00000000
     atom    2 type  2   force =    -0.00000000   -0.00000000   -0.00000000
     The local contribution  to forces
     atom    1 type  1   force =     0.00000000    0.00000000    0.00000000
     atom    2 type  2   force =     0.00000000    0.00000000    0.00000000
     The core correction contribution to forces
     atom    1 type  1   force =     0.00000000    0.00000000    0.00000000
     atom    2 type  2   force =     0.00000000    0.00000000    0.00000000
     The Hubbard contrib.    to forces
     atom    1 type  1   force =     0.00000000    0.00000000    0.00000000
     atom    2 type  2   force =     0.00000000    0.00000000    0.00000000
     The SCF correction term to forces
     atom    1 type  1   force =     0.00000000    0.00000000   -0.00000000
     atom    2 type  2   force =    -0.00000000   -0.00000000   -0.00000000

     Total force =     0.000000     Total SCF correction =     0.000000


     Computing stress (Cartesian axis) and pressure

          total   stress  (Ry/bohr**3)                   (kbar)     P=        4.54
   0.00003088   0.00000000   0.00000000            4.54        0.00        0.00
   0.00000000   0.00003088   0.00000000            0.00        4.54        0.00
   0.00000000   0.00000000   0.00003088            0.00        0.00        4.54

     kinetic stress (kbar)   2952.14      0.00      0.00
                                0.00   2952.14      0.00
                                0.00      0.00   2952.14

     local   stress (kbar)  -1107.40     -0.00      0.00
                               -0.00  -1107.40     -0.00
                                0.00     -0.00  -1107.40

     nonloc. stress (kbar)   2439.07      0.00      0.00
                                0.00   2439.07      0.00
                                0.00      0.00   2439.07

     hartree stress (kbar)    626.39      0.00     -0.00
                                0.00    626.39     -0.00
                               -0.00     -0.00    626.39

     exc-cor stress (kbar)   4266.34     -0.00     -0.00
                               -0.00   4266.34     -0.00
                               -0.00     -0.00   4266.34

     corecor stress (kbar)  -5469.64     -0.00      0.00
                               -0.00  -5469.64     -0.00
                                0.00     -0.00  -5469.64

     ewald   stress (kbar)  -3702.36     -0.00     -0.00
                               -0.00  -3702.36     -0.00
                               -0.00     -0.00  -3702.36

     hubbard stress (kbar)      0.00      0.00      0.00
                                0.00      0.00      0.00
                                0.00      0.00      0.00

     DFT-D   stress (kbar)      0.00      0.00      0.00
                                0.00      0.00      0.00
                                0.00      0.00      0.00

     XDM     stress (kbar)      0.00      0.00      0.00
                                0.00      0.00      0.00
                                0.00      0.00      0.00

     dft-nl  stress (kbar)      0.00      0.00      0.00
                                0.00      0.00      0.00
                                0.00      0.00      0.00

     TS-vdW  stress (kbar)      0.00      0.00      0.00
                                0.00      0.00      0.00
                                0.00      0.00      0.00


     Energy error            =      2.1E-04
     Gradient error          =      0.0E+00
     Cell gradient error     =      3.1E-05


     number of scf cycles    =   5
     number of bfgs steps    =   4

     enthalpy old            =    -794.8866501269 Ry
     enthalpy new            =    -794.8868627717 Ry

     CASE: enthalpy_new < enthalpy_old

     new trust radius        =       0.0234406379 bohr
     new conv_thr            =       0.0000000100 Ry

     new unit-cell volume =    710.02858 a.u.^3 (   105.21538 Ang^3 )
     density =      4.10024 g/cm^3

CELL_PARAMETERS (angstrom)
   4.720917484   0.000000000   0.000000000
   0.000000000   4.720917484   0.000000000
   0.000000000   0.000000000   4.720917484

ATOMIC_POSITIONS (crystal)
Cs            0.0000000000        0.0000000000        0.0000000000
I             0.5000000000        0.5000000000        0.5000000000



     Writing output data file ./out/CsSnI3.save/
     NEW-OLD atomic charge density approx. for the potential
     extrapolated charge   16.21014, renormalised to   16.00000

     total cpu time spent up to now is       80.7 secs

     Self-consistent Calculation

     iteration #  1     ecut=    70.00 Ry     beta= 0.50
     Davidson diagonalization with overlap
     ethr =  1.00E-06,  avg # of iterations =  4.8

     total cpu time spent up to now is       81.4 secs

     total energy              =    -794.88578342 Ry
     estimated scf accuracy    <       0.00066216 Ry

     iteration #  2     ecut=    70.00 Ry     beta= 0.50
     Davidson diagonalization with overlap
     ethr =  4.14E-06,  avg # of iterations =  4.8

     total cpu time spent up to now is       82.1 secs

     total energy              =    -794.88714702 Ry
     estimated scf accuracy    <       0.00046671 Ry

     iteration #  3     ecut=    70.00 Ry     beta= 0.50
     Davidson diagonalization with overlap
     ethr =  2.92E-06,  avg # of iterations =  1.2

     total cpu time spent up to now is       82.8 secs

     total energy              =    -794.88704728 Ry
     estimated scf accuracy    <       0.00022149 Ry

     iteration #  4     ecut=    70.00 Ry     beta= 0.50
[...]

 cryst.   s(38) = (     1          0          0      )
                  (     0          0          1      )
                  (     0          1          0      )

 cart.    s(38) = (  1.0000000  0.0000000  0.0000000 )
                  (  0.0000000  0.0000000  1.0000000 )
                  (  0.0000000  1.0000000  0.0000000 )


      isym = 39     inv.  90 deg rotation - cart. axis [-1,0,0]  

 cryst.   s(39) = (    -1          0          0      )
                  (     0          0          1      )
                  (     0         -1          0      )

 cart.    s(39) = ( -1.0000000  0.0000000  0.0000000 )
                  (  0.0000000  0.0000000 -1.0000000 )
                  (  0.0000000  1.0000000  0.0000000 )


      isym = 40     inv.  90 deg rotation - cart. axis [1,0,0]   

 cryst.   s(40) = (    -1          0          0      )
                  (     0          0         -1      )
                  (     0          1          0      )

 cart.    s(40) = ( -1.0000000  0.0000000  0.0000000 )
                  (  0.0000000  0.0000000  1.0000000 )
                  (  0.0000000 -1.0000000  0.0000000 )


      isym = 41     inv. 120 deg rotation - cart. axis [-1,-1,-1]

 cryst.   s(41) = (     0          0         -1      )
                  (    -1          0          0      )
                  (     0         -1          0      )

 cart.    s(41) = (  0.0000000 -1.0000000  0.0000000 )
                  (  0.0000000  0.0000000 -1.0000000 )
                  ( -1.0000000  0.0000000  0.0000000 )


      isym = 42     inv. 120 deg rotation - cart. axis [-1,1,1]  

 cryst.   s(42) = (     0          0          1      )
                  (     1          0          0      )
                  (     0         -1          0      )

 cart.    s(42) = (  0.0000000  1.0000000  0.0000000 )
                  (  0.0000000  0.0000000 -1.0000000 )
                  (  1.0000000  0.0000000  0.0000000 )


      isym = 43     inv. 120 deg rotation - cart. axis [1,1,-1]  

 cryst.   s(43) = (     0          0          1      )
                  (    -1          0          0      )
                  (     0          1          0      )

 cart.    s(43) = (  0.0000000 -1.0000000  0.0000000 )
                  (  0.0000000  0.0000000  1.0000000 )
                  (  1.0000000  0.0000000  0.0000000 )


      isym = 44     inv. 120 deg rotation - cart. axis [1,-1,1]  

 cryst.   s(44) = (     0          0         -1      )
                  (     1          0          0      )
                  (     0          1          0      )

 cart.    s(44) = (  0.0000000  1.0000000  0.0000000 )
                  (  0.0000000  0.0000000  1.0000000 )
                  ( -1.0000000  0.0000000  0.0000000 )


      isym = 45     inv. 120 deg rotation - cart. axis [1,1,1]   

 cryst.   s(45) = (     0         -1          0      )
                  (     0          0         -1      )
                  (    -1          0          0      )

 cart.    s(45) = (  0.0000000  0.0000000 -1.0000000 )
                  ( -1.0000000  0.0000000  0.0000000 )
                  (  0.0000000 -1.0000000  0.0000000 )


      isym = 46     inv. 120 deg rotation - cart. axis [-1,1,-1] 

 cryst.   s(46) = (     0          1          0      )
                  (     0          0          1      )
                  (    -1          0          0      )

 cart.    s(46) = (  0.0000000  0.0000000 -1.0000000 )
                  (  1.0000000  0.0000000  0.0000000 )
                  (  0.0000000  1.0000000  0.0000000 )


      isym = 47     inv. 120 deg rotation - cart. axis [1,-1,-1] 

 cryst.   s(47) = (     0          1          0      )
                  (     0          0         -1      )
                  (     1          0          0      )

 cart.    s(47) = (  0.0000000  0.0000000  1.0000000 )
                  (  1.0000000  0.0000000  0.0000000 )
                  (  0.0000000 -1.0000000  0.0000000 )


      isym = 48     inv. 120 deg rotation - cart. axis [-1,-1,1] 

 cryst.   s(48) = (     0         -1          0      )
                  (     0          0          1      )
                  (     1          0          0      )

 cart.    s(48) = (  0.0000000  0.0000000  1.0000000 )
                  ( -1.0000000  0.0000000  0.0000000 )
                  (  0.0000000  1.0000000  0.0000000 )


   Cartesian axes

     site n.     atom                  positions (alat units)
         1           Cs  tau(   1) = (   0.0000000   0.0000000   0.0000000  )
         2           I   tau(   2) = (   0.5114002   0.5114002   0.5114002  )

   Crystallographic axes

     site n.     atom                  positions (cryst. coord.)
         1           Cs  tau(   1) = (  0.0000000  0.0000000  0.0000000  )
         2           I   tau(   2) = (  0.5000000  0.5000000  0.5000000  )

     number of k points=     4
                       cart. coord. in units 2pi/alat
        k(    1) = (   0.0000000   0.0000000   0.0000000), wk =   0.2500000
        k(    2) = (   0.0000000   0.0000000  -0.4888539), wk =   0.7500000
        k(    3) = (   0.0000000  -0.4888539  -0.4888539), wk =   0.7500000
        k(    4) = (  -0.4888539  -0.4888539  -0.4888539), wk =   0.2500000

                       cryst. coord.
        k(    1) = (   0.0000000   0.0000000   0.0000000), wk =   0.2500000
        k(    2) = (   0.0000000   0.0000000  -0.5000000), wk =   0.7500000
        k(    3) = (   0.0000000  -0.5000000  -0.5000000), wk =   0.7500000
        k(    4) = (  -0.5000000  -0.5000000  -0.5000000), wk =   0.2500000

     Dense  grid:    57777 G-vectors     FFT dimensions: (  50,  50,  50)

     Dynamical RAM for                 wfc:       0.05 MB

     Dynamical RAM for     wfc (w. buffer):       0.23 MB

     Dynamical RAM for           str. fact:       0.09 MB

     Dynamical RAM for           local pot:       0.04 MB

     Dynamical RAM for          nlocal pot:       0.30 MB

     Dynamical RAM for                qrad:      16.12 MB

     Dynamical RAM for          rho,v,vnew:       0.31 MB

     Dynamical RAM for               rhoin:       0.10 MB

     Dynamical RAM for            rho*nmix:       0.74 MB

     Dynamical RAM for           G-vectors:       0.20 MB

     Dynamical RAM for          h,s,v(r/c):       0.01 MB

     Dynamical RAM for          <psi|beta>:       0.01 MB

     Dynamical RAM for                 psi:       0.09 MB

     Dynamical RAM for                hpsi:       0.09 MB

     Dynamical RAM for                spsi:       0.09 MB

     Dynamical RAM for      wfcinit/wfcrot:       0.11 MB

     Dynamical RAM for           addusdens:      27.37 MB

     Dynamical RAM for          addusforce:      27.40 MB

     Dynamical RAM for         addusstress:      28.57 MB

     Estimated static dynamical RAM per process >      18.57 MB

     Estimated max dynamical RAM per process >      47.14 MB

     Estimated total dynamical RAM >     895.71 MB

     Initial potential from superposition of free atoms

     starting charge   15.96031, renormalised to   16.00000
     Starting wfcs are    9 randomized atomic wfcs
     Checking if some PAW data can be deallocated... 
       PAW data deallocated on    9 nodes for type:  1
       PAW data deallocated on   10 nodes for type:  2

     total cpu time spent up to now is      132.7 secs

     Self-consistent Calculation

     iteration #  1     ecut=    70.00 Ry     beta= 0.50
     Davidson diagonalization with overlap
     ethr =  1.00E-06,  avg # of iterations = 18.5

     total cpu time spent up to now is      133.8 secs

     total energy              =    -794.87866944 Ry
     estimated scf accuracy    <       0.04394671 Ry

     iteration #  2     ecut=    70.00 Ry     beta= 0.50
     Davidson diagonalization with overlap
     ethr =  2.75E-04,  avg # of iterations =  2.0

     total cpu time spent up to now is      134.4 secs

     total energy              =    -794.88658801 Ry
     estimated scf accuracy    <       0.00256781 Ry

     iteration #  3     ecut=    70.00 Ry     beta= 0.50
     Davidson diagonalization with overlap
     ethr =  1.60E-05,  avg # of iterations =  3.5

     total cpu time spent up to now is      135.1 secs

     total energy              =    -794.88721037 Ry
     estimated scf accuracy    <       0.00046816 Ry

     iteration #  4     ecut=    70.00 Ry     beta= 0.50
     Davidson diagonalization with overlap
     ethr =  2.93E-06,  avg # of iterations =  3.0

     total cpu time spent up to now is      135.7 secs

     total energy              =    -794.88732045 Ry
     estimated scf accuracy    <       0.00000956 Ry

     iteration #  5     ecut=    70.00 Ry     beta= 0.50
     Davidson diagonalization with overlap
     ethr =  5.98E-08,  avg # of iterations = 10.8

     total cpu time spent up to now is      136.5 secs

     total energy              =    -794.88737561 Ry
     estimated scf accuracy    <       0.00000692 Ry

     iteration #  6     ecut=    70.00 Ry     beta= 0.50
     Davidson diagonalization with overlap
     ethr =  4.32E-08,  avg # of iterations =  4.0

     total cpu time spent up to now is      137.2 secs

     total energy              =    -794.88735696 Ry
     estimated scf accuracy    <       0.00003698 Ry

     iteration #  7     ecut=    70.00 Ry     beta= 0.50
     Davidson diagonalization with overlap
     ethr =  4.32E-08,  avg # of iterations =  5.0

     total cpu time spent up to now is      137.8 secs

     total energy              =    -794.88736476 Ry
     estimated scf accuracy    <       0.00000017 Ry

     iteration #  8     ecut=    70.00 Ry     beta= 0.50
     Davidson diagonalization with overlap
     ethr =  1.09E-09,  avg # of iterations =  8.0

     total cpu time spent up to now is      138.6 secs

     total energy              =    -794.88736512 Ry
     estimated scf accuracy    <       0.00000004 Ry

     iteration #  9     ecut=    70.00 Ry     beta= 0.50
     Davidson diagonalization with overlap
     ethr =  2.24E-10,  avg # of iterations =  6.5

     total cpu time spent up to now is      139.3 secs

     total energy              =    -794.88736510 Ry
     estimated scf accuracy    <       0.00000011 Ry

     iteration # 10     ecut=    70.00 Ry     beta= 0.50
     Davidson diagonalization with overlap
     ethr =  2.24E-10,  avg # of iterations =  4.5

     total cpu time spent up to now is      139.9 secs

     End of self-consistent calculation

          k = 0.0000 0.0000 0.0000 (  7153 PWs)   bands (ev):

   -18.4924  -8.2343  -5.2040  -5.2040  -5.2040   2.1110   2.1110   2.1110

     occupation numbers 
     1.0000   1.0000   1.0000   1.0000   1.0000   1.0000   1.0000   1.0000

          k = 0.0000 0.0000-0.4889 (  7224 PWs)   bands (ev):

   -18.4792  -8.2318  -5.3153  -5.1680  -5.1680   0.9347   2.0315   2.0315

     occupation numbers 
     1.0000   1.0000   1.0000   1.0000   1.0000   1.0000   1.0000   1.0000

          k = 0.0000-0.4889-0.4889 (  7248 PWs)   bands (ev):

   -18.4670  -8.1132  -5.4364  -5.4364  -5.1433   1.4494   1.4494   2.2118

     occupation numbers 
     1.0000   1.0000   1.0000   1.0000   1.0000   1.0000   1.0000   1.0000

          k =-0.4889-0.4889-0.4889 (  7208 PWs)   bands (ev):

   -18.4552  -8.0444  -5.3760  -5.3760  -5.3760   1.1890   1.1890   1.1890

     occupation numbers 
     1.0000   1.0000   1.0000   1.0000   1.0000   1.0000   1.0000   1.0000

     highest occupied level (ev):     2.2118

!    total energy              =    -794.88736512 Ry

     total all-electron energy =    -29807.053369 Ry
     estimated scf accuracy    <          2.7E-09 Ry

     The total energy is the sum of the following terms:
     one-electron contribution =      -5.76391568 Ry
     hartree contribution      =       9.33446400 Ry
     xc contribution           =     -36.95861643 Ry
     ewald contribution        =     -52.11196514 Ry
     one-center paw contrib.   =    -709.38733188 Ry
      -> PAW hartree energy AE =      25.60895314 Ry
      -> PAW hartree energy PS =     -25.49949481 Ry
      -> PAW xc energy AE      =    -383.52581190 Ry
      -> PAW xc energy PS      =      20.51114938 Ry
      -> total E_H with PAW    =       9.44392233 Ry
      -> total E_XC with PAW   =    -399.97327895 Ry

     convergence has been achieved in  10 iterations

     Forces acting on atoms (cartesian axes, Ry/au):

     atom    1 type  1   force =     0.00000000    0.00000000    0.00000000
     atom    2 type  2   force =     0.00000000    0.00000000    0.00000000
     The non-local contrib.  to forces
     atom    1 type  1   force =     0.00000000    0.00000000    0.00000000
     atom    2 type  2   force =     0.00000000    0.00000000    0.00000000
     The ionic contribution  to forces
     atom    1 type  1   force =    -0.00000000   -0.00000000   -0.00000000
     atom    2 type  2   force =     0.00000000    0.00000000    0.00000000
     The local contribution  to forces
     atom    1 type  1   force =     0.00000000    0.00000000    0.00000000
     atom    2 type  2   force =     0.00000000    0.00000000    0.00000000
     The core correction contribution to forces
     atom    1 type  1   force =    -0.00000000   -0.00000000   -0.00000000
     atom    2 type  2   force =    -0.00000000   -0.00000000   -0.00000000
     The Hubbard contrib.    to forces
     atom    1 type  1   force =     0.00000000    0.00000000    0.00000000
     atom    2 type  2   force =     0.00000000    0.00000000    0.00000000
     The SCF correction term to forces
     atom    1 type  1   force =     0.00000000   -0.00000000    0.00000000
     atom    2 type  2   force =    -0.00000000   -0.00000000    0.00000000

     Total force =     0.000000     Total SCF correction =     0.000000


     Computing stress (Cartesian axis) and pressure

          total   stress  (Ry/bohr**3)                   (kbar)     P=        0.11
   0.00000075   0.00000000   0.00000000            0.11        0.00        0.00
   0.00000000   0.00000075   0.00000000            0.00        0.11        0.00
   0.00000000   0.00000000   0.00000075            0.00        0.00        0.11

     kinetic stress (kbar)   2816.87      0.00      0.00
                                0.00   2816.87      0.00
                                0.00      0.00   2816.87

     local   stress (kbar)  -1136.25      0.00      0.00
                                0.00  -1136.25      0.00
                                0.00      0.00  -1136.25

     nonloc. stress (kbar)   2329.68      0.00      0.00
                                0.00   2329.68      0.00
                                0.00      0.00   2329.68

     hartree stress (kbar)    624.33     -0.00      0.00
                               -0.00    624.33     -0.00
                                0.00     -0.00    624.33

     exc-cor stress (kbar)   4078.21     -0.00     -0.00
                               -0.00   4078.21     -0.00
                               -0.00     -0.00   4078.21

     corecor stress (kbar)  -5227.26     -0.00     -0.00
                               -0.00  -5227.26      0.00
                               -0.00      0.00  -5227.26

     ewald   stress (kbar)  -3485.46     -0.00     -0.00
                               -0.00  -3485.46     -0.00
                               -0.00     -0.00  -3485.46

     hubbard stress (kbar)      0.00      0.00      0.00
                                0.00      0.00      0.00
                                0.00      0.00      0.00

     DFT-D   stress (kbar)      0.00      0.00      0.00
                                0.00      0.00      0.00
                                0.00      0.00      0.00

     XDM     stress (kbar)      0.00      0.00      0.00
                                0.00      0.00      0.00
                                0.00      0.00      0.00

     dft-nl  stress (kbar)      0.00      0.00      0.00
                                0.00      0.00      0.00
                                0.00      0.00      0.00

     TS-vdW  stress (kbar)      0.00      0.00      0.00
                                0.00      0.00      0.00
                                0.00      0.00      0.00



     Writing output data file ./out/CsSnI3.save/

     init_run     :      3.10s CPU      3.25s WALL (       2 calls)
     electrons    :    102.89s CPU    104.67s WALL (       9 calls)
     update_pot   :      8.33s CPU      8.37s WALL (       7 calls)
     forces       :      4.73s CPU      4.74s WALL (       9 calls)
     stress       :     15.76s CPU     15.80s WALL (       9 calls)

     Called by init_run:
     wfcinit      :      0.08s CPU      0.09s WALL (       2 calls)
     wfcinit:atom :      0.00s CPU      0.00s WALL (       8 calls)
     wfcinit:wfcr :      0.07s CPU      0.07s WALL (       8 calls)
     potinit      :      1.13s CPU      1.16s WALL (       2 calls)
     hinit0       :      1.52s CPU      1.54s WALL (       2 calls)

     Called by electrons:
     c_bands      :     33.74s CPU     34.82s WALL (     115 calls)
     sum_band     :     13.39s CPU     13.52s WALL (     115 calls)
     v_of_rho     :      2.92s CPU      2.95s WALL (     123 calls)
     v_h          :      0.38s CPU      0.38s WALL (     123 calls)
     v_xc         :      2.71s CPU      2.74s WALL (     141 calls)
     newd         :      8.04s CPU      8.09s WALL (     123 calls)
     PAW_pot      :     46.10s CPU     46.23s WALL (     130 calls)
     mix_rho      :      4.26s CPU      4.28s WALL (     115 calls)

     Called by c_bands:
     init_us_2    :      0.49s CPU      0.56s WALL (    1028 calls)
     cegterg      :     31.83s CPU     32.30s WALL (     460 calls)

     Called by sum_band:
     sum_band:wei :      0.00s CPU      0.00s WALL (     115 calls)
     sum_band:loo :      3.15s CPU      3.22s WALL (     115 calls)
     sum_band:buf :      0.01s CPU      0.01s WALL (     460 calls)
     sum_band:ini :      0.23s CPU      0.25s WALL (     460 calls)
     sum_band:cal :      0.61s CPU      0.62s WALL (     488 calls)
     sum_band:bec :      0.02s CPU      0.02s WALL (     488 calls)
     addusdens    :      8.15s CPU      8.20s WALL (     115 calls)
     addusd:skk   :      0.01s CPU      0.01s WALL (     230 calls)
     addusd:dgemm :      2.08s CPU      2.12s WALL (     230 calls)
     addusd:qvan2 :      4.90s CPU      4.91s WALL (     230 calls)

     Called by *egterg:
     cdiaghg      :      0.31s CPU      0.32s WALL (    2315 calls)
     cegterg:over :      4.30s CPU      4.32s WALL (    1887 calls)
     cegterg:upda :      0.19s CPU      0.20s WALL (    1887 calls)
     cegterg:last :      0.47s CPU      0.48s WALL (    1433 calls)
     h_psi        :     22.47s CPU     22.89s WALL (    2355 calls)
     s_psi        :      0.79s CPU      0.80s WALL (    2355 calls)
     g_psi        :      0.04s CPU      0.04s WALL (    1887 calls)

     Called by h_psi:
     h_psi:calbec :      2.95s CPU      2.98s WALL (    2355 calls)
     vloc_psi     :     18.69s CPU     19.06s WALL (    2355 calls)
     add_vuspsi   :      0.80s CPU      0.81s WALL (    2355 calls)

     General routines
     calbec       :      3.77s CPU      3.80s WALL (    3023 calls)
     fft          :      3.10s CPU      3.12s WALL (    1586 calls)
     ffts         :      0.21s CPU      0.21s WALL (     115 calls)
     fftw         :     20.45s CPU     20.85s WALL (   30386 calls)

     Parallel routines
     fft_scatt_xy :      0.65s CPU      0.67s WALL (   32087 calls)
     fft_scatt_yz :     16.66s CPU     16.89s WALL (   32087 calls)

     PAW routines
     PAW_pot      :     46.10s CPU     46.23s WALL (     130 calls)
     PAW_symme    :      0.94s CPU      0.94s WALL (     245 calls)

     PWSCF        :   2m18.94s CPU   2m22.48s WALL


   This run was terminated on:  13: 2:52  14Jan2021            

=------------------------------------------------------------------------------=
   JOB DONE.
=------------------------------------------------------------------------------=
