
     Program PWSCF v.6.7MaX starts on 15Jan2021 at 14: 7:31 

     This program is part of the open-source Quantum ESPRESSO suite
     for quantum simulation of materials; please cite
         "P. Giannozzi et al., J. Phys.:Condens. Matter 21 395502 (2009);
         "P. Giannozzi et al., J. Phys.:Condens. Matter 29 465901 (2017);
          URL http://www.quantum-espresso.org", 
     in publications or presentations arising from this work. More details at
     http://www.quantum-espresso.org/quote

     Parallel version (MPI), running on    19 processors

     MPI processes distributed on     1 nodes
     R & G space division:  proc/nbgrp/npool/nimage =      19
     Waiting for input...
     Reading input from standard input

     Current dimensions of program PWSCF are:
     Max number of different atomic species (ntypx) = 10
     Max number of k-points (npk) =  40000
     Max angular momentum in pseudopotentials (lmaxx) =  3
     file Sn.pbe-dn-kjpaw_psl.1.0.0.UPF: wavefunction(s)  5S 5P 4D renormalized
     file I.pbe-n-kjpaw_psl.1.0.0.UPF: wavefunction(s)  5S renormalized

     Subspace diagonalization in iterative solution of the eigenvalue problem:
     a serial algorithm will be used

     Message from routine setup:
     using ibrav=0 with symmetry is DISCOURAGED, use correct ibrav instead

     Parallelization info
     --------------------
     sticks:   dense  smooth     PW     G-vecs:    dense   smooth      PW
     Min         187     187     51                 8403     8403    1211
     Max         188     188     52                 8406     8406    1216
     Sum        3569    3569    973               159699   159699   23031


     Title: 
     SnI4un                                                                     


     bravais-lattice index     =            0
     lattice parameter (alat)  =      12.6355  a.u.
     unit-cell volume          =    2017.3401 (a.u.)^3
     number of atoms/cell      =            5
     number of atomic types    =            2
     number of electrons       =        42.00
     number of Kohn-Sham states=           23
     kinetic-energy cutoff     =      70.0000  Ry
     charge density cutoff     =     280.0000  Ry
     scf convergence threshold =      1.0E-06
     mixing beta               =       0.7000
     number of iterations used =            8  plain     mixing
     Exchange-correlation= SLA  PW   PBX  PBC
                           (   1   4   3   4   0   0   0)

     celldm(1)=  12.635518  celldm(2)=   0.000000  celldm(3)=   0.000000
     celldm(4)=   0.000000  celldm(5)=   0.000000  celldm(6)=   0.000000

     crystal axes: (cart. coord. in units of alat)
               a(1) = (   1.000000   0.000000   0.000000 )  
               a(2) = (   0.000000   1.000000   0.000000 )  
               a(3) = (   0.000000   0.000000   1.000000 )  

     reciprocal axes: (cart. coord. in units 2 pi/alat)
               b(1) = (  1.000000  0.000000  0.000000 )  
               b(2) = (  0.000000  1.000000  0.000000 )  
               b(3) = (  0.000000  0.000000  1.000000 )  


     PseudoPot. # 1 for Sn read from file:
     ../../../pseudo/Sn.pbe-dn-kjpaw_psl.1.0.0.UPF
     MD5 check sum: 67f11dec737d427557dc41ea34975807
     Pseudo is Projector augmented-wave + core cor, Zval = 14.0
     Generated using &quot;atomic&quot; code by A. Dal Corso  v.6.3
     Shape of augmentation charge: PSQ
     Using radial grid of 1243 points,  6 beta functions with: 
                l(1) =   0
                l(2) =   0
                l(3) =   1
                l(4) =   1
                l(5) =   2
                l(6) =   2
     Q(r) pseudized with 0 coefficients 


     PseudoPot. # 2 for I  read from file:
     ../../../pseudo/I.pbe-n-kjpaw_psl.1.0.0.UPF
     MD5 check sum: cd3d296c3308a581e1559a0c8a554cb5
     Pseudo is Projector augmented-wave + core cor, Zval =  7.0
     Generated using &quot;atomic&quot; code by A. Dal Corso  v.6.3
     Shape of augmentation charge: PSQ
     Using radial grid of 1247 points,  6 beta functions with: 
                l(1) =   0
                l(2) =   0
                l(3) =   1
                l(4) =   1
                l(5) =   2
                l(6) =   2
     Q(r) pseudized with 0 coefficients 


     atomic species   valence    mass     pseudopotential
        Sn            14.00   118.70000     Sn( 1.00)
        I              7.00   126.90000     I ( 1.00)

     24 Sym. Ops. (no inversion) found


                                    s                        frac. trans.

      isym =  1     identity                                     

 cryst.   s( 1) = (     1          0          0      )
                  (     0          1          0      )
                  (     0          0          1      )

 cart.    s( 1) = (  1.0000000  0.0000000  0.0000000 )
                  (  0.0000000  1.0000000  0.0000000 )
                  (  0.0000000  0.0000000  1.0000000 )


      isym =  2     180 deg rotation - cart. axis [0,0,1]        

 cryst.   s( 2) = (    -1          0          0      )
                  (     0         -1          0      )
                  (     0          0          1      )

 cart.    s( 2) = ( -1.0000000  0.0000000  0.0000000 )
                  (  0.0000000 -1.0000000  0.0000000 )
                  (  0.0000000  0.0000000  1.0000000 )


      isym =  3     180 deg rotation - cart. axis [0,1,0]        

 cryst.   s( 3) = (    -1          0          0      )
                  (     0          1          0      )
                  (     0          0         -1      )

 cart.    s( 3) = ( -1.0000000  0.0000000  0.0000000 )
                  (  0.0000000  1.0000000  0.0000000 )
                  (  0.0000000  0.0000000 -1.0000000 )


      isym =  4     180 deg rotation - cart. axis [1,0,0]        

 cryst.   s( 4) = (     1          0          0      )
                  (     0         -1          0      )
                  (     0          0         -1      )

 cart.    s( 4) = (  1.0000000  0.0000000  0.0000000 )
                  (  0.0000000 -1.0000000  0.0000000 )
                  (  0.0000000  0.0000000 -1.0000000 )


      isym =  5     120 deg rotation - cart. axis [-1,-1,-1]     

 cryst.   s( 5) = (     0          0          1      )
                  (     1          0          0      )
                  (     0          1          0      )

 cart.    s( 5) = (  0.0000000  1.0000000  0.0000000 )
                  (  0.0000000  0.0000000  1.0000000 )
                  (  1.0000000  0.0000000  0.0000000 )


      isym =  6     120 deg rotation - cart. axis [-1,1,1]       

 cryst.   s( 6) = (     0          0         -1      )
                  (    -1          0          0      )
                  (     0          1          0      )

 cart.    s( 6) = (  0.0000000 -1.0000000  0.0000000 )
                  (  0.0000000  0.0000000  1.0000000 )
                  ( -1.0000000  0.0000000  0.0000000 )


      isym =  7     120 deg rotation - cart. axis [1,1,-1]       

 cryst.   s( 7) = (     0          0         -1      )
                  (     1          0          0      )
                  (     0         -1          0      )

 cart.    s( 7) = (  0.0000000  1.0000000  0.0000000 )
                  (  0.0000000  0.0000000 -1.0000000 )
                  ( -1.0000000  0.0000000  0.0000000 )


      isym =  8     120 deg rotation - cart. axis [1,-1,1]       

 cryst.   s( 8) = (     0          0          1      )
                  (    -1          0          0      )
                  (     0         -1          0      )

 cart.    s( 8) = (  0.0000000 -1.0000000  0.0000000 )
                  (  0.0000000  0.0000000 -1.0000000 )
                  (  1.0000000  0.0000000  0.0000000 )


      isym =  9     120 deg rotation - cart. axis [1,1,1]        

 cryst.   s( 9) = (     0          1          0      )
                  (     0          0          1      )
                  (     1          0          0      )

 cart.    s( 9) = (  0.0000000  0.0000000  1.0000000 )
                  (  1.0000000  0.0000000  0.0000000 )
                  (  0.0000000  1.0000000  0.0000000 )


      isym = 10     120 deg rotation - cart. axis [-1,1,-1]      

 cryst.   s(10) = (     0         -1          0      )
                  (     0          0         -1      )
                  (     1          0          0      )

 cart.    s(10) = (  0.0000000  0.0000000  1.0000000 )
                  ( -1.0000000  0.0000000  0.0000000 )
                  (  0.0000000 -1.0000000  0.0000000 )


      isym = 11     120 deg rotation - cart. axis [1,-1,-1]      

 cryst.   s(11) = (     0         -1          0      )
                  (     0          0          1      )
                  (    -1          0          0      )

 cart.    s(11) = (  0.0000000  0.0000000 -1.0000000 )
                  ( -1.0000000  0.0000000  0.0000000 )
                  (  0.0000000  1.0000000  0.0000000 )


      isym = 12     120 deg rotation - cart. axis [-1,-1,1]      

 cryst.   s(12) = (     0          1          0      )
                  (     0          0         -1      )
                  (    -1          0          0      )

 cart.    s(12) = (  0.0000000  0.0000000 -1.0000000 )
                  (  1.0000000  0.0000000  0.0000000 )
                  (  0.0000000 -1.0000000  0.0000000 )


      isym = 13     inv. 180 deg rotation - cart. axis [1,1,0]   

 cryst.   s(13) = (     0         -1          0      )
                  (    -1          0          0      )
                  (     0          0          1      )

 cart.    s(13) = (  0.0000000 -1.0000000  0.0000000 )
                  ( -1.0000000  0.0000000  0.0000000 )
                  (  0.0000000  0.0000000  1.0000000 )


      isym = 14     inv. 180 deg rotation - cart. axis [1,-1,0]  

 cryst.   s(14) = (     0          1          0      )
                  (     1          0          0      )
                  (     0          0          1      )

 cart.    s(14) = (  0.0000000  1.0000000  0.0000000 )
                  (  1.0000000  0.0000000  0.0000000 )
                  (  0.0000000  0.0000000  1.0000000 )


      isym = 15     inv.  90 deg rotation - cart. axis [0,0,-1]  

 cryst.   s(15) = (     0          1          0      )
                  (    -1          0          0      )
                  (     0          0         -1      )

 cart.    s(15) = (  0.0000000 -1.0000000  0.0000000 )
                  (  1.0000000  0.0000000  0.0000000 )
                  (  0.0000000  0.0000000 -1.0000000 )


      isym = 16     inv.  90 deg rotation - cart. axis [0,0,1]   

 cryst.   s(16) = (     0         -1          0      )
                  (     1          0          0      )
                  (     0          0         -1      )

 cart.    s(16) = (  0.0000000  1.0000000  0.0000000 )
                  ( -1.0000000  0.0000000  0.0000000 )
                  (  0.0000000  0.0000000 -1.0000000 )


      isym = 17     inv. 180 deg rotation - cart. axis [1,0,1]   

 cryst.   s(17) = (     0          0         -1      )
                  (     0          1          0      )
                  (    -1          0          0      )

 cart.    s(17) = (  0.0000000  0.0000000 -1.0000000 )
                  (  0.0000000  1.0000000  0.0000000 )
                  ( -1.0000000  0.0000000  0.0000000 )


      isym = 18     inv. 180 deg rotation - cart. axis [-1,0,1]  

 cryst.   s(18) = (     0          0          1      )
                  (     0          1          0      )
                  (     1          0          0      )

 cart.    s(18) = (  0.0000000  0.0000000  1.0000000 )
                  (  0.0000000  1.0000000  0.0000000 )
                  (  1.0000000  0.0000000  0.0000000 )


      isym = 19     inv.  90 deg rotation - cart. axis [0,1,0]   

 cryst.   s(19) = (     0          0          1      )
                  (     0         -1          0      )
                  (    -1          0          0      )

 cart.    s(19) = (  0.0000000  0.0000000 -1.0000000 )
                  (  0.0000000 -1.0000000  0.0000000 )
                  (  1.0000000  0.0000000  0.0000000 )


      isym = 20     inv.  90 deg rotation - cart. axis [0,-1,0]  

 cryst.   s(20) = (     0          0         -1      )
                  (     0         -1          0      )
                  (     1          0          0      )

 cart.    s(20) = (  0.0000000  0.0000000  1.0000000 )
                  (  0.0000000 -1.0000000  0.0000000 )
                  ( -1.0000000  0.0000000  0.0000000 )


      isym = 21     inv. 180 deg rotation - cart. axis [0,1,1]   

 cryst.   s(21) = (     1          0          0      )
                  (     0          0         -1      )
                  (     0         -1          0      )

 cart.    s(21) = (  1.0000000  0.0000000  0.0000000 )
                  (  0.0000000  0.0000000 -1.0000000 )
                  (  0.0000000 -1.0000000  0.0000000 )


      isym = 22     inv. 180 deg rotation - cart. axis [0,1,-1]  

 cryst.   s(22) = (     1          0          0      )
                  (     0          0          1      )
                  (     0          1          0      )

 cart.    s(22) = (  1.0000000  0.0000000  0.0000000 )
                  (  0.0000000  0.0000000  1.0000000 )
                  (  0.0000000  1.0000000  0.0000000 )


      isym = 23     inv.  90 deg rotation - cart. axis [-1,0,0]  

 cryst.   s(23) = (    -1          0          0      )
                  (     0          0          1      )
                  (     0         -1          0      )

 cart.    s(23) = ( -1.0000000  0.0000000  0.0000000 )
                  (  0.0000000  0.0000000 -1.0000000 )
                  (  0.0000000  1.0000000  0.0000000 )


      isym = 24     inv.  90 deg rotation - cart. axis [1,0,0]   

 cryst.   s(24) = (    -1          0          0      )
                  (     0          0         -1      )
                  (     0          1          0      )

 cart.    s(24) = ( -1.0000000  0.0000000  0.0000000 )
                  (  0.0000000  0.0000000  1.0000000 )
                  (  0.0000000 -1.0000000  0.0000000 )


   Cartesian axes

     site n.     atom                  positions (alat units)
         1           Sn  tau(   1) = (   0.0000000   0.0000000   0.0000000  )
         2           I   tau(   2) = (   0.2339030   0.7660970   0.7660970  )
         3           I   tau(   3) = (   0.7660970   0.2339030   0.7660970  )
         4           I   tau(   4) = (   0.7660970   0.7660970   0.2339030  )
         5           I   tau(   5) = (   0.2339030   0.2339030   0.2339030  )

   Crystallographic axes

     site n.     atom                  positions (cryst. coord.)
         1           Sn  tau(   1) = (  0.0000000  0.0000000  0.0000000  )
         2           I   tau(   2) = (  0.2339030  0.7660970  0.7660970  )
         3           I   tau(   3) = (  0.7660970  0.2339030  0.7660970  )
         4           I   tau(   4) = (  0.7660970  0.7660970  0.2339030  )
         5           I   tau(   5) = (  0.2339030  0.2339030  0.2339030  )

     number of k points=    20
                       cart. coord. in units 2pi/alat
        k(    1) = (   0.0000000   0.0000000   0.0000000), wk =   0.0092593
        k(    2) = (   0.0000000   0.0000000   0.1666667), wk =   0.0555556
        k(    3) = (   0.0000000   0.0000000   0.3333333), wk =   0.0555556
        k(    4) = (   0.0000000   0.0000000  -0.5000000), wk =   0.0277778
        k(    5) = (   0.0000000   0.1666667   0.1666667), wk =   0.1111111
        k(    6) = (   0.0000000   0.1666667   0.3333333), wk =   0.2222222
        k(    7) = (   0.0000000   0.1666667  -0.5000000), wk =   0.1111111
        k(    8) = (   0.0000000   0.3333333   0.3333333), wk =   0.1111111
        k(    9) = (   0.0000000   0.3333333  -0.5000000), wk =   0.1111111
        k(   10) = (   0.0000000  -0.5000000  -0.5000000), wk =   0.0277778
        k(   11) = (   0.1666667   0.1666667   0.1666667), wk =   0.0740741
        k(   12) = (   0.1666667   0.1666667   0.3333333), wk =   0.2222222
        k(   13) = (   0.1666667   0.1666667  -0.5000000), wk =   0.1111111
        k(   14) = (   0.1666667   0.3333333   0.3333333), wk =   0.2222222
        k(   15) = (   0.1666667   0.3333333  -0.5000000), wk =   0.2222222
        k(   16) = (   0.1666667  -0.5000000  -0.5000000), wk =   0.0555556
        k(   17) = (   0.3333333   0.3333333   0.3333333), wk =   0.0740741
        k(   18) = (   0.3333333   0.3333333  -0.5000000), wk =   0.1111111
        k(   19) = (   0.3333333  -0.5000000  -0.5000000), wk =   0.0555556
        k(   20) = (  -0.5000000  -0.5000000  -0.5000000), wk =   0.0092593

                       cryst. coord.
        k(    1) = (   0.0000000   0.0000000   0.0000000), wk =   0.0092593
        k(    2) = (   0.0000000   0.0000000   0.1666667), wk =   0.0555556
        k(    3) = (   0.0000000   0.0000000   0.3333333), wk =   0.0555556
        k(    4) = (   0.0000000   0.0000000  -0.5000000), wk =   0.0277778
        k(    5) = (   0.0000000   0.1666667   0.1666667), wk =   0.1111111
        k(    6) = (   0.0000000   0.1666667   0.3333333), wk =   0.2222222
        k(    7) = (   0.0000000   0.1666667  -0.5000000), wk =   0.1111111
        k(    8) = (   0.0000000   0.3333333   0.3333333), wk =   0.1111111
        k(    9) = (   0.0000000   0.3333333  -0.5000000), wk =   0.1111111
        k(   10) = (   0.0000000  -0.5000000  -0.5000000), wk =   0.0277778
        k(   11) = (   0.1666667   0.1666667   0.1666667), wk =   0.0740741
        k(   12) = (   0.1666667   0.1666667   0.3333333), wk =   0.2222222
        k(   13) = (   0.1666667   0.1666667  -0.5000000), wk =   0.1111111
        k(   14) = (   0.1666667   0.3333333   0.3333333), wk =   0.2222222
        k(   15) = (   0.1666667   0.3333333  -0.5000000), wk =   0.2222222
        k(   16) = (   0.1666667  -0.5000000  -0.5000000), wk =   0.0555556
        k(   17) = (   0.3333333   0.3333333   0.3333333), wk =   0.0740741
        k(   18) = (   0.3333333   0.3333333  -0.5000000), wk =   0.1111111
        k(   19) = (   0.3333333  -0.5000000  -0.5000000), wk =   0.0555556
        k(   20) = (  -0.5000000  -0.5000000  -0.5000000), wk =   0.0092593

     Dense  grid:   159699 G-vectors     FFT dimensions: (  72,  72,  72)

     Dynamical RAM for                 wfc:       0.37 MB

     Dynamical RAM for     wfc (w. buffer):       7.74 MB

     Dynamical RAM for           str. fact:       0.26 MB

     Dynamical RAM for           local pot:       0.00 MB

     Dynamical RAM for          nlocal pot:       1.44 MB

     Dynamical RAM for                qrad:       2.69 MB

     Dynamical RAM for          rho,v,vnew:       0.86 MB

     Dynamical RAM for               rhoin:       0.29 MB

     Dynamical RAM for            rho*nmix:       2.05 MB

     Dynamical RAM for           G-vectors:       0.55 MB

     Dynamical RAM for          h,s,v(r/c):       0.10 MB

     Dynamical RAM for          <psi|beta>:       0.03 MB

     Dynamical RAM for                 psi:       0.74 MB

     Dynamical RAM for                hpsi:       0.74 MB

     Dynamical RAM for                spsi:       0.74 MB

     Dynamical RAM for      wfcinit/wfcrot:       0.82 MB

     Dynamical RAM for           addusdens:      24.37 MB

     Dynamical RAM for          addusforce:      25.22 MB

     Dynamical RAM for         addusstress:      25.78 MB

     Estimated static dynamical RAM per process >      17.04 MB

     Estimated max dynamical RAM per process >      42.82 MB

     Estimated total dynamical RAM >     813.66 MB

     Initial potential from superposition of free atoms

     starting charge   41.99831, renormalised to   42.00000
     Starting wfcs are   25 randomized atomic wfcs
     Checking if some PAW data can be deallocated... 
       PAW data deallocated on   15 nodes for type:  1
       PAW data deallocated on    4 nodes for type:  2

     total cpu time spent up to now is        4.2 secs

     Self-consistent Calculation

     iteration #  1     ecut=    70.00 Ry     beta= 0.70
     Davidson diagonalization with overlap
     ethr =  1.00E-02,  avg # of iterations =  2.0

     Threshold (ethr) on eigenvalues was too large:
     Diagonalizing with lowered threshold

     Davidson diagonalization with overlap
     ethr =  3.50E-04,  avg # of iterations =  3.8

     total cpu time spent up to now is       13.8 secs

     total energy              =   -1957.79647844 Ry
     estimated scf accuracy    <       0.12074035 Ry

     iteration #  2     ecut=    70.00 Ry     beta= 0.70
     Davidson diagonalization with overlap
     ethr =  2.87E-04,  avg # of iterations =  3.0

     total cpu time spent up to now is       19.9 secs

     total energy              =   -1957.81452952 Ry
     estimated scf accuracy    <       0.10775397 Ry

     iteration #  3     ecut=    70.00 Ry     beta= 0.70
     Davidson diagonalization with overlap
     ethr =  2.57E-04,  avg # of iterations =  2.4

     total cpu time spent up to now is       25.1 secs

     total energy              =   -1957.83981045 Ry
     estimated scf accuracy    <       0.00364809 Ry

     iteration #  4     ecut=    70.00 Ry     beta= 0.70
     Davidson diagonalization with overlap
     ethr =  8.69E-06,  avg # of iterations =  3.5

     total cpu time spent up to now is       30.9 secs

     total energy              =   -1957.84070459 Ry
     estimated scf accuracy    <       0.00022039 Ry

     iteration #  5     ecut=    70.00 Ry     beta= 0.70
     Davidson diagonalization with overlap
     ethr =  5.25E-07,  avg # of iterations =  5.1

     total cpu time spent up to now is       36.8 secs

     total energy              =   -1957.84077555 Ry
     estimated scf accuracy    <       0.00000602 Ry

     iteration #  6     ecut=    70.00 Ry     beta= 0.70
     Davidson diagonalization with overlap
     ethr =  1.43E-08,  avg # of iterations =  4.5

     total cpu time spent up to now is       43.4 secs

     End of self-consistent calculation

          k = 0.0000 0.0000 0.0000 ( 20005 PWs)   bands (ev):

   -21.3214 -21.3214 -21.3214 -21.2659 -21.2659 -11.8503 -11.1184 -11.1184
   -11.1184  -6.2868  -2.4223  -2.4223  -2.4223  -1.3500  -1.3500  -0.4684
    -0.4684  -0.4684  -0.2573  -0.2573  -0.2573   1.4101   4.1416

     occupation numbers 
     1.0000   1.0000   1.0000   1.0000   1.0000   1.0000   1.0000   1.0000
     1.0000   1.0000   1.0000   1.0000   1.0000   1.0000   1.0000   1.0000
     1.0000   1.0000   1.0000   1.0000   1.0000   0.0000   0.0000

          k = 0.0000 0.0000 0.1667 ( 19949 PWs)   bands (ev):

   -21.3213 -21.3213 -21.3213 -21.2658 -21.2658 -11.8376 -11.1362 -11.1180
   -11.1180  -6.2720  -2.4625  -2.4300  -2.4300  -1.3091  -1.2931  -0.5297
    -0.4772  -0.4772  -0.3751  -0.2605  -0.2605   1.5467   4.1266

     occupation numbers 
     1.0000   1.0000   1.0000   1.0000   1.0000   1.0000   1.0000   1.0000
     1.0000   1.0000   1.0000   1.0000   1.0000   1.0000   1.0000   1.0000
     1.0000   1.0000   1.0000   1.0000   1.0000   0.0000   0.0000

          k = 0.0000 0.0000 0.3333 ( 19950 PWs)   bands (ev):

   -21.3213 -21.3213 -21.3213 -21.2658 -21.2658 -11.8101 -11.1736 -11.1172
   -11.1172  -6.2422  -2.5392  -2.4454  -2.4454  -1.2019  -1.1384  -0.6769
    -0.6323  -0.4858  -0.4858  -0.2758  -0.2758   1.8185   4.0551

     occupation numbers 
     1.0000   1.0000   1.0000   1.0000   1.0000   1.0000   1.0000   1.0000
     1.0000   1.0000   1.0000   1.0000   1.0000   1.0000   1.0000   1.0000
     1.0000   1.0000   1.0000   1.0000   1.0000   0.0000   0.0000

          k = 0.0000 0.0000-0.5000 ( 19946 PWs)   bands (ev):

   -21.3213 -21.3213 -21.3213 -21.2658 -21.2658 -11.7951 -11.1934 -11.1168
   -11.1168  -6.2271  -2.5760  -2.4532  -2.4532  -1.1176  -0.9373  -0.8782
    -0.7807  -0.4856  -0.4856  -0.2880  -0.2880   1.9614   3.9956

     occupation numbers 
     1.0000   1.0000   1.0000   1.0000   1.0000   1.0000   1.0000   1.0000
     1.0000   1.0000   1.0000   1.0000   1.0000   1.0000   1.0000   1.0000
     1.0000   1.0000   1.0000   1.0000   1.0000   0.0000   0.0000

          k = 0.0000 0.1667 0.1667 ( 19940 PWs)   bands (ev):

   -21.3213 -21.3213 -21.3213 -21.2658 -21.2658 -11.8255 -11.1385 -11.1309
   -11.1185  -6.2605  -2.5055  -2.4377  -2.4320  -1.2578  -1.2545  -0.5921
    -0.4877  -0.4779  -0.4581  -0.2816  -0.2278   1.6424   4.1817

     occupation numbers 
     1.0000   1.0000   1.0000   1.0000   1.0000   1.0000   1.0000   1.0000
     1.0000   1.0000   1.0000   1.0000   1.0000   1.0000   1.0000   1.0000
     1.0000   1.0000   1.0000   1.0000   1.0000   0.0000   0.0000

          k = 0.0000 0.1667 0.3333 ( 19940 PWs)   bands (ev):

   -21.3213 -21.3213 -21.3213 -21.2658 -21.2658 -11.7996 -11.1704 -11.1307
   -11.1197  -6.2374  -2.5790  -2.4517  -2.4456  -1.1585  -1.1215  -0.7472
    -0.6535  -0.4712  -0.4548  -0.3095  -0.2308   1.8466   4.1273

     occupation numbers 
     1.0000   1.0000   1.0000   1.0000   1.0000   1.0000   1.0000   1.0000
     1.0000   1.0000   1.0000   1.0000   1.0000   1.0000   1.0000   1.0000
     1.0000   1.0000   1.0000   1.0000   1.0000   0.0000   0.0000

          k = 0.0000 0.1667-0.5000 ( 19980 PWs)   bands (ev):

   -21.3214 -21.3214 -21.3213 -21.2658 -21.2658 -11.7855 -11.1887 -11.1289
   -11.1208  -6.2258  -2.6132  -2.4571  -2.4548  -1.0807  -0.9710  -0.9134
    -0.7511  -0.4643  -0.4577  -0.3150  -0.2479   1.9591   4.0668

     occupation numbers 
     1.0000   1.0000   1.0000   1.0000   1.0000   1.0000   1.0000   1.0000
     1.0000   1.0000   1.0000   1.0000   1.0000   1.0000   1.0000   1.0000
     1.0000   1.0000   1.0000   1.0000   1.0000   0.0000   0.0000

          k = 0.0000 0.3333 0.3333 ( 19938 PWs)   bands (ev):

   -21.3213 -21.3213 -21.3213 -21.2658 -21.2658 -11.7772 -11.1661 -11.1555
   -11.1263  -6.2279  -2.6481  -2.4615  -2.4540  -1.1029  -1.0366  -0.8918
    -0.6660  -0.4520  -0.4009  -0.3772  -0.1741   1.9117   4.1792

     occupation numbers 
     1.0000   1.0000   1.0000   1.0000   1.0000   1.0000   1.0000   1.0000
     1.0000   1.0000   1.0000   1.0000   1.0000   1.0000   1.0000   1.0000
     1.0000   1.0000   1.0000   1.0000   1.0000   0.0000   0.0000

          k = 0.0000 0.3333-0.5000 ( 19952 PWs)   bands (ev):

   -21.3213 -21.3213 -21.3213 -21.2658 -21.2658 -11.7653 -11.1767 -11.1543
   -11.1311  -6.2231  -2.6795  -2.4637  -2.4617  -1.0419  -1.0318  -0.9345
    -0.6921  -0.4396  -0.4192  -0.3639  -0.1588   1.9501   4.1439

     occupation numbers 
     1.0000   1.0000   1.0000   1.0000   1.0000   1.0000   1.0000   1.0000
     1.0000   1.0000   1.0000   1.0000   1.0000   1.0000   1.0000   1.0000
     1.0000   1.0000   1.0000   1.0000   1.0000   0.0000   0.0000

          k = 0.0000-0.5000-0.5000 ( 19968 PWs)   bands (ev):

   -21.3214 -21.3213 -21.3213 -21.2658 -21.2658 -11.7545 -11.1677 -11.1677
   -11.1393  -6.2218  -2.7098  -2.4663  -2.4663  -1.0536  -1.0536  -0.9095
    -0.6839  -0.4112  -0.4112  -0.3806  -0.1179   1.9435   4.1291

     occupation numbers 
     1.0000   1.0000   1.0000   1.0000   1.0000   1.0000   1.0000   1.0000
     1.0000   1.0000   1.0000   1.0000   1.0000   1.0000   1.0000   1.0000
     1.0000   1.0000   1.0000   1.0000   1.0000   0.0000   0.0000

          k = 0.1667 0.1667 0.1667 ( 19945 PWs)   bands (ev):

   -21.3213 -21.3213 -21.3213 -21.2658 -21.2658 -11.8142 -11.1412 -11.1304
   -11.1304  -6.2525  -2.5296  -2.4491  -2.4491  -1.2157  -1.2157  -0.6029
    -0.5616  -0.5616  -0.3971  -0.2463  -0.2463   1.6992   4.2331

     occupation numbers 
     1.0000   1.0000   1.0000   1.0000   1.0000   1.0000   1.0000   1.0000
     1.0000   1.0000   1.0000   1.0000   1.0000   1.0000   1.0000   1.0000
     1.0000   1.0000   1.0000   1.0000   1.0000   0.0000   0.0000

          k = 0.1667 0.1667 0.3333 ( 19929 PWs)   bands (ev):

   -21.3213 -21.3213 -21.3213 -21.2658 -21.2658 -11.7898 -11.1681 -11.1346
   -11.1295  -6.2364  -2.5889  -2.4825  -2.4559  -1.1215  -1.1089  -0.7875
    -0.6571  -0.5009  -0.3871  -0.2615  -0.2528   1.8340   4.1945

     occupation numbers 
     1.0000   1.0000   1.0000   1.0000   1.0000   1.0000   1.0000   1.0000
     1.0000   1.0000   1.0000   1.0000   1.0000   1.0000   1.0000   1.0000
     1.0000   1.0000   1.0000   1.0000   1.0000   0.0000   0.0000

          k = 0.1667 0.1667-0.5000 ( 19978 PWs)   bands (ev):

   -21.3214 -21.3213 -21.3213 -21.2658 -21.2658 -11.7767 -11.1847 -11.1345
   -11.1291  -6.2282  -2.6194  -2.4987  -2.4563  -1.0574  -0.9936  -0.9303
    -0.7153  -0.4591  -0.3985  -0.2827  -0.2601   1.9138   4.1389

     occupation numbers 
     1.0000   1.0000   1.0000   1.0000   1.0000   1.0000   1.0000   1.0000
     1.0000   1.0000   1.0000   1.0000   1.0000   1.0000   1.0000   1.0000
     1.0000   1.0000   1.0000   1.0000   1.0000   0.0000   0.0000

          k = 0.1667 0.3333 0.3333 ( 19947 PWs)   bands (ev):

   -21.3213 -21.3213 -21.3213 -21.2658 -21.2658 -11.7692 -11.1657 -11.1550
   -11.1356  -6.2342  -2.6323  -2.4997  -2.4897  -1.0754  -1.0428  -0.9074
    -0.6155  -0.4700  -0.3369  -0.3104  -0.1926   1.8261   4.2490

     occupation numbers 
     1.0000   1.0000   1.0000   1.0000   1.0000   1.0000   1.0000   1.0000
     1.0000   1.0000   1.0000   1.0000   1.0000   1.0000   1.0000   1.0000
     1.0000   1.0000   1.0000   1.0000   1.0000   0.0000   0.0000

          k = 0.1667 0.3333-0.5000 ( 19962 PWs)   bands (ev):

   -21.3214 -21.3213 -21.3213 -21.2658 -21.2658 -11.7582 -11.1747 -11.1554
   -11.1388  -6.2330  -2.6595  -2.5148  -2.4913  -1.0279  -1.0240  -0.9662
    -0.6098  -0.4211  -0.3535  -0.3188  -0.1731   1.8313   4.2215

     occupation numbers 
     1.0000   1.0000   1.0000   1.0000   1.0000   1.0000   1.0000   1.0000
     1.0000   1.0000   1.0000   1.0000   1.0000   1.0000   1.0000   1.0000
     1.0000   1.0000   1.0000   1.0000   1.0000   0.0000   0.0000

          k = 0.1667-0.5000-0.5000 ( 19920 PWs)   bands (ev):

   -21.3213 -21.3213 -21.3213 -21.2658 -21.2658 -11.7484 -11.1671 -11.1671
   -11.1456  -6.2354  -2.6866  -2.5108  -2.5108  -1.0306  -1.0306  -0.9704
    -0.5605  -0.3697  -0.3526  -0.3526  -0.1279   1.7932   4.2113

     occupation numbers 
     1.0000   1.0000   1.0000   1.0000   1.0000   1.0000   1.0000   1.0000
     1.0000   1.0000   1.0000   1.0000   1.0000   1.0000   1.0000   1.0000
     1.0000   1.0000   1.0000   1.0000   1.0000   0.0000   0.0000

          k = 0.3333 0.3333 0.3333 ( 19976 PWs)   bands (ev):

   -21.3214 -21.3214 -21.3213 -21.2658 -21.2658 -11.7523 -11.1661 -11.1539
   -11.1539  -6.2464  -2.6166  -2.5557  -2.5557  -1.0251  -1.0251  -0.9679
    -0.4673  -0.4673  -0.2462  -0.2315  -0.2315   1.6769   4.3456

     occupation numbers 
     1.0000   1.0000   1.0000   1.0000   1.0000   1.0000   1.0000   1.0000
     1.0000   1.0000   1.0000   1.0000   1.0000   1.0000   1.0000   1.0000
     1.0000   1.0000   1.0000   1.0000   1.0000   0.0000   0.0000

          k = 0.3333 0.3333-0.5000 ( 19948 PWs)   bands (ev):

   -21.3214 -21.3213 -21.3213 -21.2658 -21.2658 -11.7435 -11.1698 -11.1600
   -11.1534  -6.2525  -2.6316  -2.5865  -2.5591  -1.0126  -1.0016  -0.9899
    -0.4580  -0.3832  -0.2613  -0.2174  -0.1987   1.6127   4.3422

     occupation numbers 
     1.0000   1.0000   1.0000   1.0000   1.0000   1.0000   1.0000   1.0000
     1.0000   1.0000   1.0000   1.0000   1.0000   1.0000   1.0000   1.0000
     1.0000   1.0000   1.0000   1.0000   1.0000   0.0000   0.0000

          k = 0.3333-0.5000-0.5000 ( 19984 PWs)   bands (ev):

   -21.3214 -21.3214 -21.3214 -21.2658 -21.2658 -11.7358 -11.1660 -11.1660
   -11.1587  -6.2620  -2.6460  -2.5917  -2.5917  -0.9957  -0.9957  -0.9943
    -0.3962  -0.3445  -0.2296  -0.2296  -0.1514   1.5105   4.3574

     occupation numbers 
     1.0000   1.0000   1.0000   1.0000   1.0000   1.0000   1.0000   1.0000
     1.0000   1.0000   1.0000   1.0000   1.0000   1.0000   1.0000   1.0000
     1.0000   1.0000   1.0000   1.0000   1.0000   0.0000   0.0000

          k =-0.5000-0.5000-0.5000 ( 19952 PWs)   bands (ev):

   -21.3213 -21.3213 -21.3213 -21.2658 -21.2658 -11.7292 -11.1654 -11.1654
   -11.1654  -6.2749  -2.6288  -2.6288  -2.6288  -0.9822  -0.9822  -0.9822
    -0.3292  -0.3292  -0.1659  -0.1659  -0.1659   1.3735   4.4144

     occupation numbers 
     1.0000   1.0000   1.0000   1.0000   1.0000   1.0000   1.0000   1.0000
     1.0000   1.0000   1.0000   1.0000   1.0000   1.0000   1.0000   1.0000
     1.0000   1.0000   1.0000   1.0000   1.0000   0.0000   0.0000

     highest occupied, lowest unoccupied level (ev):    -0.1179    1.3735

!    total energy              =   -1957.84077927 Ry

     total all-electron energy =    -69286.458341 Ry
     estimated scf accuracy    <       0.00000027 Ry

     The total energy is the sum of the following terms:
     one-electron contribution =    -155.27191746 Ry
     hartree contribution      =      94.72578131 Ry
     xc contribution           =    -110.98850130 Ry
     ewald contribution        =    -119.43299796 Ry
     one-center paw contrib.   =   -1666.87314386 Ry
      -> PAW hartree energy AE =     109.61355508 Ry
      -> PAW hartree energy PS =    -108.86862194 Ry
      -> PAW xc energy AE      =    -329.04164118 Ry
      -> PAW xc energy PS      =      47.34439909 Ry
      -> total E_H with PAW    =      95.47071445 Ry
      -> total E_XC with PAW   =    -392.68574338 Ry

     convergence has been achieved in   6 iterations

     Forces acting on atoms (cartesian axes, Ry/au):

     atom    1 type  1   force =     0.00000000    0.00000000    0.00000000
     atom    2 type  2   force =    -0.00043946    0.00043946    0.00043946
     atom    3 type  2   force =     0.00043946   -0.00043946    0.00043946
     atom    4 type  2   force =     0.00043946    0.00043946   -0.00043946
     atom    5 type  2   force =    -0.00043946   -0.00043946   -0.00043946
     The non-local contrib.  to forces
     atom    1 type  1   force =     0.00000000    0.00000000    0.00000000
     atom    2 type  2   force =    -0.09028562    0.09028562    0.09028562
     atom    3 type  2   force =     0.09028562   -0.09028562    0.09028562
     atom    4 type  2   force =     0.09028562    0.09028562   -0.09028562
     atom    5 type  2   force =    -0.09028562   -0.09028562   -0.09028562
     The ionic contribution  to forces
     atom    1 type  1   force =    -0.00000000   -0.00000000   -0.00000000
     atom    2 type  2   force =     3.79412130   -3.79412130   -3.79412130
     atom    3 type  2   force =    -3.79412130    3.79412130   -3.79412130
     atom    4 type  2   force =    -3.79412130   -3.79412130    3.79412130
     atom    5 type  2   force =     3.79412130    3.79412130    3.79412130
     The local contribution  to forces
     atom    1 type  1   force =     0.00000000    0.00000000    0.00000000
     atom    2 type  2   force =    -3.71542980    3.71542980    3.71542980
     atom    3 type  2   force =     3.71542980   -3.71542980    3.71542980
     atom    4 type  2   force =     3.71542980    3.71542980   -3.71542980
     atom    5 type  2   force =    -3.71542980   -3.71542980   -3.71542980
     The core correction contribution to forces
     atom    1 type  1   force =     0.00000000    0.00000000    0.00000000
     atom    2 type  2   force =     0.01132884   -0.01132884   -0.01132884
     atom    3 type  2   force =    -0.01132884    0.01132884   -0.01132884
     atom    4 type  2   force =    -0.01132884   -0.01132884    0.01132884
     atom    5 type  2   force =     0.01132884    0.01132884    0.01132884
     The Hubbard contrib.    to forces
     atom    1 type  1   force =     0.00000000    0.00000000    0.00000000
     atom    2 type  2   force =     0.00000000    0.00000000    0.00000000
     atom    3 type  2   force =     0.00000000    0.00000000    0.00000000
     atom    4 type  2   force =     0.00000000    0.00000000    0.00000000
     atom    5 type  2   force =     0.00000000    0.00000000    0.00000000
     The SCF correction term to forces
     atom    1 type  1   force =    -0.00000000    0.00000000    0.00000000
     atom    2 type  2   force =    -0.00017417    0.00017417    0.00017417
     atom    3 type  2   force =     0.00017417   -0.00017417    0.00017417
     atom    4 type  2   force =     0.00017417    0.00017417   -0.00017417
     atom    5 type  2   force =    -0.00017417   -0.00017417   -0.00017417

     Total force =     0.001522     Total SCF correction =     0.000603
     SCF correction compared to forces is large: reduce conv_thr to get better values


     Computing stress (Cartesian axis) and pressure

          total   stress  (Ry/bohr**3)                   (kbar)     P=        0.73
   0.00000495   0.00000000   0.00000000            0.73        0.00        0.00
   0.00000000   0.00000495   0.00000000            0.00        0.73        0.00
   0.00000000   0.00000000   0.00000495            0.00        0.00        0.73

     kinetic stress (kbar)   4002.76      0.00      0.00
                                0.00   4002.76      0.00
                                0.00      0.00   4002.76

     local   stress (kbar)  -2877.78      0.00     -0.00
                                0.00  -2877.78     -0.00
                               -0.00     -0.00  -2877.78

     nonloc. stress (kbar)    795.14      0.00      0.00
                                0.00    795.14      0.00
                                0.00      0.00    795.14

     hartree stress (kbar)   2302.48     -0.00      0.00
                               -0.00   2302.48     -0.00
                                0.00     -0.00   2302.48

     exc-cor stress (kbar)   4100.23      0.00      0.00
                                0.00   4100.23      0.00
                                0.00      0.00   4100.23

     corecor stress (kbar)  -5419.05     -0.00      0.00
                               -0.00  -5419.05      0.00
                                0.00      0.00  -5419.05

     ewald   stress (kbar)  -2903.03     -0.00     -0.00
                               -0.00  -2903.03     -0.00
                               -0.00     -0.00  -2903.03

     hubbard stress (kbar)      0.00      0.00      0.00
                                0.00      0.00      0.00
                                0.00      0.00      0.00

     DFT-D   stress (kbar)      0.00      0.00      0.00
                                0.00      0.00      0.00
                                0.00      0.00      0.00

     XDM     stress (kbar)      0.00      0.00      0.00
                                0.00      0.00      0.00
                                0.00      0.00      0.00

     dft-nl  stress (kbar)      0.00      0.00      0.00
                                0.00      0.00      0.00
                                0.00      0.00      0.00

     TS-vdW  stress (kbar)      0.00      0.00      0.00
                                0.00      0.00      0.00
                                0.00      0.00      0.00



     Writing output data file ./out/SnI4un.save/

     init_run     :      2.42s CPU      2.68s WALL (       1 calls)
     electrons    :     38.18s CPU     39.17s WALL (       1 calls)
     forces       :      1.10s CPU      1.11s WALL (       1 calls)
     stress       :      2.31s CPU      2.34s WALL (       1 calls)

     Called by init_run:
     wfcinit      :      1.63s CPU      1.68s WALL (       1 calls)
     wfcinit:atom :      0.02s CPU      0.02s WALL (      20 calls)
     wfcinit:wfcr :      1.51s CPU      1.53s WALL (      20 calls)
     potinit      :      0.24s CPU      0.28s WALL (       1 calls)
     hinit0       :      0.24s CPU      0.33s WALL (       1 calls)

     Called by electrons:
     c_bands      :     31.24s CPU     32.07s WALL (       7 calls)
     sum_band     :      5.14s CPU      5.23s WALL (       7 calls)
     v_of_rho     :      0.22s CPU      0.24s WALL (       7 calls)
     v_h          :      0.01s CPU      0.02s WALL (       7 calls)
     v_xc         :      0.27s CPU      0.28s WALL (       9 calls)
     newd         :      0.78s CPU      0.81s WALL (       7 calls)
     PAW_pot      :      1.01s CPU      1.04s WALL (       7 calls)
     mix_rho      :      0.03s CPU      0.04s WALL (       7 calls)

     Called by c_bands:
     init_us_2    :      0.46s CPU      0.49s WALL (     340 calls)
     cegterg      :     29.97s CPU     30.24s WALL (     140 calls)

     Called by sum_band:
     sum_band:wei :      0.00s CPU      0.00s WALL (       7 calls)
     sum_band:loo :      4.34s CPU      4.40s WALL (       7 calls)
     sum_band:buf :      0.04s CPU      0.04s WALL (     140 calls)
     sum_band:ini :      0.18s CPU      0.19s WALL (     140 calls)
     sum_band:cal :      1.08s CPU      1.09s WALL (     140 calls)
     sum_band:bec :      0.01s CPU      0.02s WALL (     140 calls)
     addusdens    :      0.75s CPU      0.77s WALL (       7 calls)
     addusd:skk   :      0.00s CPU      0.00s WALL (      14 calls)
     addusd:dgemm :      0.30s CPU      0.31s WALL (      14 calls)
     addusd:qvan2 :      0.36s CPU      0.37s WALL (      14 calls)

     Called by *egterg:
     cdiaghg      :      0.67s CPU      0.67s WALL (     607 calls)
     cegterg:over :      1.73s CPU      1.74s WALL (     487 calls)
     cegterg:upda :      0.87s CPU      0.88s WALL (     487 calls)
     cegterg:last :      2.11s CPU      2.12s WALL (     307 calls)
     h_psi        :     22.38s CPU     22.62s WALL (     647 calls)
     s_psi        :      2.69s CPU      2.70s WALL (     647 calls)
     g_psi        :      0.07s CPU      0.07s WALL (     487 calls)

     Called by h_psi:
     h_psi:calbec :      3.33s CPU      3.34s WALL (     647 calls)
     vloc_psi     :     16.25s CPU     16.47s WALL (     647 calls)
     add_vuspsi   :      2.73s CPU      2.74s WALL (     647 calls)

     General routines
     calbec       :      5.12s CPU      5.14s WALL (     887 calls)
     fft          :      0.17s CPU      0.17s WALL (     103 calls)
     ffts         :      0.01s CPU      0.01s WALL (       7 calls)
     fftw         :     18.02s CPU     18.26s WALL (   21642 calls)

     Parallel routines
     fft_scatt_xy :      1.28s CPU      1.30s WALL (   21752 calls)
     fft_scatt_yz :      3.49s CPU      3.54s WALL (   21752 calls)

     PAW routines
     PAW_pot      :      1.01s CPU      1.04s WALL (       7 calls)
     PAW_symme    :      0.01s CPU      0.01s WALL (      14 calls)

     PWSCF        :     44.88s CPU     47.47s WALL


   This run was terminated on:  14: 8:18  15Jan2021            

=------------------------------------------------------------------------------=
   JOB DONE.
=------------------------------------------------------------------------------=
