
     Program PWSCF v.6.7MaX starts on 31Jan2021 at 16: 6:15 

     This program is part of the open-source Quantum ESPRESSO suite
     for quantum simulation of materials; please cite
         "P. Giannozzi et al., J. Phys.:Condens. Matter 21 395502 (2009);
         "P. Giannozzi et al., J. Phys.:Condens. Matter 29 465901 (2017);
          URL http://www.quantum-espresso.org", 
     in publications or presentations arising from this work. More details at
     http://www.quantum-espresso.org/quote

     Parallel version (MPI & OpenMP), running on      96 processor cores
     Number of MPI processes:                48
     Threads/MPI process:                     2

     MPI processes distributed on     2 nodes
     R & G space division:  proc/nbgrp/npool/nimage =      48
     Waiting for input...
     Reading input from standard input

     Current dimensions of program PWSCF are:
     Max number of different atomic species (ntypx) = 10
     Max number of k-points (npk) =  40000
     Max angular momentum in pseudopotentials (lmaxx) =  3

     Atomic positions and unit cell read from directory:
     ./CsIbcc.save/

     file Cs.rel-pbesol-spn-rrkjus_psl.1.0.0.UPF: wavefunction(s)  5S 6S renormalized
     file I.rel-pbesol-n-rrkjus_psl.1.0.0.UPF: wavefunction(s)  5S renormalized

     Subspace diagonalization in iterative solution of the eigenvalue problem:
     a serial algorithm will be used


     Parallelization info
     --------------------
     sticks:   dense  smooth     PW     G-vecs:    dense   smooth      PW
     Min          25      20      6                  679      486      80
     Max          26      21      7                  684      493      85
     Sum        1229     989    293                32675    23439    3887


     Title: 
     CsIbcc                                                                     


     bravais-lattice index     =            1
     lattice parameter (alat)  =       8.8160  a.u.
     unit-cell volume          =     685.1896 (a.u.)^3
     number of atoms/cell      =            2
     number of atomic types    =            2
     number of electrons       =        16.00
     number of Kohn-Sham states=           20
     kinetic-energy cutoff     =      40.0000  Ry
     charge density cutoff     =     200.0000  Ry
     Exchange-correlation= PBESOL
                           (   1   4  10   8   0   0   0)
     Non magnetic calculation with spin-orbit


     celldm(1)=   8.815973  celldm(2)=   0.000000  celldm(3)=   0.000000
     celldm(4)=   0.000000  celldm(5)=   0.000000  celldm(6)=   0.000000

     crystal axes: (cart. coord. in units of alat)
               a(1) = (   1.000000   0.000000   0.000000 )  
               a(2) = (   0.000000   1.000000   0.000000 )  
               a(3) = (   0.000000   0.000000   1.000000 )  

     reciprocal axes: (cart. coord. in units 2 pi/alat)
               b(1) = (  1.000000  0.000000  0.000000 )  
               b(2) = (  0.000000  1.000000  0.000000 )  
               b(3) = (  0.000000  0.000000  1.000000 )  


     PseudoPot. # 1 for Cs read from file:
     /scratch/cmalosso/degironcoli/pseudo/pseudo-usp/Cs.rel-pbesol-spn-rrkjus_psl.1.0.0.UPF
     MD5 check sum: 846889b67fb1b19751b5b37931589d70
     Pseudo is Ultrasoft + core correction, Zval =  9.0
     Generated using &quot;atomic&quot; code by A. Dal Corso  v.6.4.1
     Using radial grid of 1251 points, 15 beta functions with: 
                l(1) =   0
                l(2) =   0
                l(3) =   0
                l(4) =   1
                l(5) =   1
                l(6) =   1
                l(7) =   1
                l(8) =   2
                l(9) =   2
               l(10) =   2
               l(11) =   2
               l(12) =   3
               l(13) =   3
               l(14) =   3
               l(15) =   3
     Q(r) pseudized with 0 coefficients 


     PseudoPot. # 2 for I  read from file:
     /scratch/cmalosso/degironcoli/pseudo/pseudo-usp/I.rel-pbesol-n-rrkjus_psl.1.0.0.UPF
     MD5 check sum: 0f96c6bfb1b448f280658f96eb466b08
     Pseudo is Ultrasoft + core correction, Zval =  7.0
     Generated using &quot;atomic&quot; code by A. Dal Corso  v.6.3
     Using radial grid of 1247 points, 10 beta functions with: 
                l(1) =   0
                l(2) =   0
                l(3) =   1
                l(4) =   1
                l(5) =   1
                l(6) =   1
                l(7) =   2
                l(8) =   2
                l(9) =   2
               l(10) =   2
     Q(r) pseudized with 0 coefficients 


     atomic species   valence    mass     pseudopotential
        Cs             9.00   132.90000     Cs( 1.00)
        I              7.00   126.90000     I ( 1.00)

     48 Sym. Ops., with inversion, found


                                    s                        frac. trans.

      isym =  1     identity                                     

 cryst.   s( 1) = (     1          0          0      )
                  (     0          1          0      )
                  (     0          0          1      )

 cart.    s( 1) = (  1.0000000  0.0000000  0.0000000 )
                  (  0.0000000  1.0000000  0.0000000 )
                  (  0.0000000  0.0000000  1.0000000 )


      isym =  2     180 deg rotation - cart. axis [0,0,1]        

 cryst.   s( 2) = (    -1          0          0      )
                  (     0         -1          0      )
                  (     0          0          1      )

 cart.    s( 2) = ( -1.0000000  0.0000000  0.0000000 )
                  (  0.0000000 -1.0000000  0.0000000 )
                  (  0.0000000  0.0000000  1.0000000 )


      isym =  3     180 deg rotation - cart. axis [0,1,0]        

 cryst.   s( 3) = (    -1          0          0      )
                  (     0          1          0      )
                  (     0          0         -1      )

 cart.    s( 3) = ( -1.0000000  0.0000000  0.0000000 )
                  (  0.0000000  1.0000000  0.0000000 )
                  (  0.0000000  0.0000000 -1.0000000 )


      isym =  4     180 deg rotation - cart. axis [1,0,0]        

 cryst.   s( 4) = (     1          0          0      )
                  (     0         -1          0      )
                  (     0          0         -1      )

 cart.    s( 4) = (  1.0000000  0.0000000  0.0000000 )
                  (  0.0000000 -1.0000000  0.0000000 )
                  (  0.0000000  0.0000000 -1.0000000 )


      isym =  5     180 deg rotation - cart. axis [1,1,0]        

 cryst.   s( 5) = (     0          1          0      )
                  (     1          0          0      )
                  (     0          0         -1      )

 cart.    s( 5) = (  0.0000000  1.0000000  0.0000000 )
                  (  1.0000000  0.0000000  0.0000000 )
                  (  0.0000000  0.0000000 -1.0000000 )


      isym =  6     180 deg rotation - cart. axis [1,-1,0]       

 cryst.   s( 6) = (     0         -1          0      )
                  (    -1          0          0      )
                  (     0          0         -1      )

 cart.    s( 6) = (  0.0000000 -1.0000000  0.0000000 )
                  ( -1.0000000  0.0000000  0.0000000 )
                  (  0.0000000  0.0000000 -1.0000000 )


      isym =  7      90 deg rotation - cart. axis [0,0,-1]       

 cryst.   s( 7) = (     0         -1          0      )
                  (     1          0          0      )
                  (     0          0          1      )

 cart.    s( 7) = (  0.0000000  1.0000000  0.0000000 )
                  ( -1.0000000  0.0000000  0.0000000 )
                  (  0.0000000  0.0000000  1.0000000 )


      isym =  8      90 deg rotation - cart. axis [0,0,1]        

 cryst.   s( 8) = (     0          1          0      )
                  (    -1          0          0      )
                  (     0          0          1      )

 cart.    s( 8) = (  0.0000000 -1.0000000  0.0000000 )
                  (  1.0000000  0.0000000  0.0000000 )
                  (  0.0000000  0.0000000  1.0000000 )


      isym =  9     180 deg rotation - cart. axis [1,0,1]        

 cryst.   s( 9) = (     0          0          1      )
                  (     0         -1          0      )
                  (     1          0          0      )

 cart.    s( 9) = (  0.0000000  0.0000000  1.0000000 )
                  (  0.0000000 -1.0000000  0.0000000 )
                  (  1.0000000  0.0000000  0.0000000 )


      isym = 10     180 deg rotation - cart. axis [-1,0,1]       

 cryst.   s(10) = (     0          0         -1      )
                  (     0         -1          0      )
                  (    -1          0          0      )

 cart.    s(10) = (  0.0000000  0.0000000 -1.0000000 )
                  (  0.0000000 -1.0000000  0.0000000 )
                  ( -1.0000000  0.0000000  0.0000000 )


      isym = 11      90 deg rotation - cart. axis [0,1,0]        

 cryst.   s(11) = (     0          0         -1      )
                  (     0          1          0      )
                  (     1          0          0      )

 cart.    s(11) = (  0.0000000  0.0000000  1.0000000 )
                  (  0.0000000  1.0000000  0.0000000 )
                  ( -1.0000000  0.0000000  0.0000000 )


      isym = 12      90 deg rotation - cart. axis [0,-1,0]       

 cryst.   s(12) = (     0          0          1      )
                  (     0          1          0      )
                  (    -1          0          0      )

 cart.    s(12) = (  0.0000000  0.0000000 -1.0000000 )
                  (  0.0000000  1.0000000  0.0000000 )
                  (  1.0000000  0.0000000  0.0000000 )


      isym = 13     180 deg rotation - cart. axis [0,1,1]        

 cryst.   s(13) = (    -1          0          0      )
                  (     0          0          1      )
                  (     0          1          0      )

 cart.    s(13) = ( -1.0000000  0.0000000  0.0000000 )
                  (  0.0000000  0.0000000  1.0000000 )
                  (  0.0000000  1.0000000  0.0000000 )


      isym = 14     180 deg rotation - cart. axis [0,1,-1]       

 cryst.   s(14) = (    -1          0          0      )
                  (     0          0         -1      )
                  (     0         -1          0      )

 cart.    s(14) = ( -1.0000000  0.0000000  0.0000000 )
                  (  0.0000000  0.0000000 -1.0000000 )
                  (  0.0000000 -1.0000000  0.0000000 )


      isym = 15      90 deg rotation - cart. axis [-1,0,0]       

 cryst.   s(15) = (     1          0          0      )
                  (     0          0         -1      )
                  (     0          1          0      )

 cart.    s(15) = (  1.0000000  0.0000000  0.0000000 )
                  (  0.0000000  0.0000000  1.0000000 )
                  (  0.0000000 -1.0000000  0.0000000 )


      isym = 16      90 deg rotation - cart. axis [1,0,0]        

 cryst.   s(16) = (     1          0          0      )
                  (     0          0          1      )
                  (     0         -1          0      )

 cart.    s(16) = (  1.0000000  0.0000000  0.0000000 )
                  (  0.0000000  0.0000000 -1.0000000 )
                  (  0.0000000  1.0000000  0.0000000 )


      isym = 17     120 deg rotation - cart. axis [-1,-1,-1]     

 cryst.   s(17) = (     0          0          1      )
                  (     1          0          0      )
                  (     0          1          0      )

 cart.    s(17) = (  0.0000000  1.0000000  0.0000000 )
                  (  0.0000000  0.0000000  1.0000000 )
                  (  1.0000000  0.0000000  0.0000000 )


      isym = 18     120 deg rotation - cart. axis [-1,1,1]       

 cryst.   s(18) = (     0          0         -1      )
                  (    -1          0          0      )
                  (     0          1          0      )

 cart.    s(18) = (  0.0000000 -1.0000000  0.0000000 )
                  (  0.0000000  0.0000000  1.0000000 )
                  ( -1.0000000  0.0000000  0.0000000 )


      isym = 19     120 deg rotation - cart. axis [1,1,-1]       

 cryst.   s(19) = (     0          0         -1      )
                  (     1          0          0      )
                  (     0         -1          0      )

 cart.    s(19) = (  0.0000000  1.0000000  0.0000000 )
                  (  0.0000000  0.0000000 -1.0000000 )
                  ( -1.0000000  0.0000000  0.0000000 )


      isym = 20     120 deg rotation - cart. axis [1,-1,1]       

 cryst.   s(20) = (     0          0          1      )
                  (    -1          0          0      )
                  (     0         -1          0      )

 cart.    s(20) = (  0.0000000 -1.0000000  0.0000000 )
                  (  0.0000000  0.0000000 -1.0000000 )
                  (  1.0000000  0.0000000  0.0000000 )


      isym = 21     120 deg rotation - cart. axis [1,1,1]        

 cryst.   s(21) = (     0          1          0      )
                  (     0          0          1      )
                  (     1          0          0      )

 cart.    s(21) = (  0.0000000  0.0000000  1.0000000 )
                  (  1.0000000  0.0000000  0.0000000 )
                  (  0.0000000  1.0000000  0.0000000 )


      isym = 22     120 deg rotation - cart. axis [-1,1,-1]      

 cryst.   s(22) = (     0         -1          0      )
                  (     0          0         -1      )
                  (     1          0          0      )

 cart.    s(22) = (  0.0000000  0.0000000  1.0000000 )
                  ( -1.0000000  0.0000000  0.0000000 )
                  (  0.0000000 -1.0000000  0.0000000 )


      isym = 23     120 deg rotation - cart. axis [1,-1,-1]      

 cryst.   s(23) = (     0         -1          0      )
                  (     0          0          1      )
                  (    -1          0          0      )

 cart.    s(23) = (  0.0000000  0.0000000 -1.0000000 )
                  ( -1.0000000  0.0000000  0.0000000 )
                  (  0.0000000  1.0000000  0.0000000 )


      isym = 24     120 deg rotation - cart. axis [-1,-1,1]      

 cryst.   s(24) = (     0          1          0      )
                  (     0          0         -1      )
                  (    -1          0          0      )

 cart.    s(24) = (  0.0000000  0.0000000 -1.0000000 )
                  (  1.0000000  0.0000000  0.0000000 )
                  (  0.0000000 -1.0000000  0.0000000 )


      isym = 25     inversion                                    

 cryst.   s(25) = (    -1          0          0      )
                  (     0         -1          0      )
                  (     0          0         -1      )

 cart.    s(25) = ( -1.0000000  0.0000000  0.0000000 )
                  (  0.0000000 -1.0000000  0.0000000 )
                  (  0.0000000  0.0000000 -1.0000000 )


      isym = 26     inv. 180 deg rotation - cart. axis [0,0,1]   

 cryst.   s(26) = (     1          0          0      )
                  (     0          1          0      )
                  (     0          0         -1      )

 cart.    s(26) = (  1.0000000  0.0000000  0.0000000 )
                  (  0.0000000  1.0000000  0.0000000 )
                  (  0.0000000  0.0000000 -1.0000000 )


      isym = 27     inv. 180 deg rotation - cart. axis [0,1,0]   

 cryst.   s(27) = (     1          0          0      )
                  (     0         -1          0      )
                  (     0          0          1      )

 cart.    s(27) = (  1.0000000  0.0000000  0.0000000 )
                  (  0.0000000 -1.0000000  0.0000000 )
                  (  0.0000000  0.0000000  1.0000000 )


      isym = 28     inv. 180 deg rotation - cart. axis [1,0,0]   

 cryst.   s(28) = (    -1          0          0      )
                  (     0          1          0      )
                  (     0          0          1      )

 cart.    s(28) = ( -1.0000000  0.0000000  0.0000000 )
                  (  0.0000000  1.0000000  0.0000000 )
                  (  0.0000000  0.0000000  1.0000000 )


      isym = 29     inv. 180 deg rotation - cart. axis [1,1,0]   

 cryst.   s(29) = (     0         -1          0      )
                  (    -1          0          0      )
                  (     0          0          1      )

 cart.    s(29) = (  0.0000000 -1.0000000  0.0000000 )
                  ( -1.0000000  0.0000000  0.0000000 )
                  (  0.0000000  0.0000000  1.0000000 )


      isym = 30     inv. 180 deg rotation - cart. axis [1,-1,0]  

 cryst.   s(30) = (     0          1          0      )
                  (     1          0          0      )
                  (     0          0          1      )

 cart.    s(30) = (  0.0000000  1.0000000  0.0000000 )
                  (  1.0000000  0.0000000  0.0000000 )
                  (  0.0000000  0.0000000  1.0000000 )


      isym = 31     inv.  90 deg rotation - cart. axis [0,0,-1]  

 cryst.   s(31) = (     0          1          0      )
                  (    -1          0          0      )
                  (     0          0         -1      )

 cart.    s(31) = (  0.0000000 -1.0000000  0.0000000 )
                  (  1.0000000  0.0000000  0.0000000 )
                  (  0.0000000  0.0000000 -1.0000000 )


      isym = 32     inv.  90 deg rotation - cart. axis [0,0,1]   

 cryst.   s(32) = (     0         -1          0      )
                  (     1          0          0      )
                  (     0          0         -1      )

 cart.    s(32) = (  0.0000000  1.0000000  0.0000000 )
                  ( -1.0000000  0.0000000  0.0000000 )
                  (  0.0000000  0.0000000 -1.0000000 )


      isym = 33     inv. 180 deg rotation - cart. axis [1,0,1]   

 cryst.   s(33) = (     0          0         -1      )
                  (     0          1          0      )
                  (    -1          0          0      )

 cart.    s(33) = (  0.0000000  0.0000000 -1.0000000 )
                  (  0.0000000  1.0000000  0.0000000 )
                  ( -1.0000000  0.0000000  0.0000000 )


      isym = 34     inv. 180 deg rotation - cart. axis [-1,0,1]  

 cryst.   s(34) = (     0          0          1      )
                  (     0          1          0      )
                  (     1          0          0      )

 cart.    s(34) = (  0.0000000  0.0000000  1.0000000 )
                  (  0.0000000  1.0000000  0.0000000 )
                  (  1.0000000  0.0000000  0.0000000 )


      isym = 35     inv.  90 deg rotation - cart. axis [0,1,0]   

 cryst.   s(35) = (     0          0          1      )
                  (     0         -1          0      )
                  (    -1          0          0      )

 cart.    s(35) = (  0.0000000  0.0000000 -1.0000000 )
                  (  0.0000000 -1.0000000  0.0000000 )
                  (  1.0000000  0.0000000  0.0000000 )


      isym = 36     inv.  90 deg rotation - cart. axis [0,-1,0]  

 cryst.   s(36) = (     0          0         -1      )
                  (     0         -1          0      )
                  (     1          0          0      )

 cart.    s(36) = (  0.0000000  0.0000000  1.0000000 )
                  (  0.0000000 -1.0000000  0.0000000 )
                  ( -1.0000000  0.0000000  0.0000000 )


      isym = 37     inv. 180 deg rotation - cart. axis [0,1,1]   

 cryst.   s(37) = (     1          0          0      )
                  (     0          0         -1      )
                  (     0         -1          0      )

 cart.    s(37) = (  1.0000000  0.0000000  0.0000000 )
                  (  0.0000000  0.0000000 -1.0000000 )
                  (  0.0000000 -1.0000000  0.0000000 )


      isym = 38     inv. 180 deg rotation - cart. axis [0,1,-1]  

 cryst.   s(38) = (     1          0          0      )
                  (     0          0          1      )
                  (     0          1          0      )

 cart.    s(38) = (  1.0000000  0.0000000  0.0000000 )
                  (  0.0000000  0.0000000  1.0000000 )
                  (  0.0000000  1.0000000  0.0000000 )


      isym = 39     inv.  90 deg rotation - cart. axis [-1,0,0]  

 cryst.   s(39) = (    -1          0          0      )
                  (     0          0          1      )
                  (     0         -1          0      )

 cart.    s(39) = ( -1.0000000  0.0000000  0.0000000 )
                  (  0.0000000  0.0000000 -1.0000000 )
                  (  0.0000000  1.0000000  0.0000000 )


      isym = 40     inv.  90 deg rotation - cart. axis [1,0,0]   

 cryst.   s(40) = (    -1          0          0      )
                  (     0          0         -1      )
                  (     0          1          0      )

 cart.    s(40) = ( -1.0000000  0.0000000  0.0000000 )
                  (  0.0000000  0.0000000  1.0000000 )
                  (  0.0000000 -1.0000000  0.0000000 )


      isym = 41     inv. 120 deg rotation - cart. axis [-1,-1,-1]

 cryst.   s(41) = (     0          0         -1      )
                  (    -1          0          0      )
                  (     0         -1          0      )

 cart.    s(41) = (  0.0000000 -1.0000000  0.0000000 )
                  (  0.0000000  0.0000000 -1.0000000 )
                  ( -1.0000000  0.0000000  0.0000000 )


      isym = 42     inv. 120 deg rotation - cart. axis [-1,1,1]  

 cryst.   s(42) = (     0          0          1      )
                  (     1          0          0      )
                  (     0         -1          0      )

 cart.    s(42) = (  0.0000000  1.0000000  0.0000000 )
                  (  0.0000000  0.0000000 -1.0000000 )
                  (  1.0000000  0.0000000  0.0000000 )


      isym = 43     inv. 120 deg rotation - cart. axis [1,1,-1]  

 cryst.   s(43) = (     0          0          1      )
                  (    -1          0          0      )
                  (     0          1          0      )

 cart.    s(43) = (  0.0000000 -1.0000000  0.0000000 )
                  (  0.0000000  0.0000000  1.0000000 )
                  (  1.0000000  0.0000000  0.0000000 )


      isym = 44     inv. 120 deg rotation - cart. axis [1,-1,1]  

 cryst.   s(44) = (     0          0         -1      )
                  (     1          0          0      )
                  (     0          1          0      )

 cart.    s(44) = (  0.0000000  1.0000000  0.0000000 )
                  (  0.0000000  0.0000000  1.0000000 )
                  ( -1.0000000  0.0000000  0.0000000 )


      isym = 45     inv. 120 deg rotation - cart. axis [1,1,1]   

 cryst.   s(45) = (     0         -1          0      )
                  (     0          0         -1      )
                  (    -1          0          0      )

 cart.    s(45) = (  0.0000000  0.0000000 -1.0000000 )
                  ( -1.0000000  0.0000000  0.0000000 )
                  (  0.0000000 -1.0000000  0.0000000 )


      isym = 46     inv. 120 deg rotation - cart. axis [-1,1,-1] 

 cryst.   s(46) = (     0          1          0      )
                  (     0          0          1      )
                  (    -1          0          0      )

 cart.    s(46) = (  0.0000000  0.0000000 -1.0000000 )
                  (  1.0000000  0.0000000  0.0000000 )
                  (  0.0000000  1.0000000  0.0000000 )


      isym = 47     inv. 120 deg rotation - cart. axis [1,-1,-1] 

 cryst.   s(47) = (     0          1          0      )
                  (     0          0         -1      )
                  (     1          0          0      )

 cart.    s(47) = (  0.0000000  0.0000000  1.0000000 )
                  (  1.0000000  0.0000000  0.0000000 )
                  (  0.0000000 -1.0000000  0.0000000 )


      isym = 48     inv. 120 deg rotation - cart. axis [-1,-1,1] 

 cryst.   s(48) = (     0         -1          0      )
                  (     0          0          1      )
                  (     1          0          0      )

 cart.    s(48) = (  0.0000000  0.0000000  1.0000000 )
                  ( -1.0000000  0.0000000  0.0000000 )
                  (  0.0000000  1.0000000  0.0000000 )


     double point group O_h (m-3m) 
     there are 16 classes and  6 irreducible representations
     the character table:

       E     -E    8C3   -8C3   3C2  6C4   -6C4   6C2' i     -i    8S6   -8S6 
                               -3C2              -6C2'                        
G_6+   2.00 -2.00  1.00 -1.00  0.00  1.41 -1.41  0.00  2.00 -2.00  1.00 -1.00
G_7+   2.00 -2.00  1.00 -1.00  0.00 -1.41  1.41  0.00  2.00 -2.00  1.00 -1.00
G_8+   4.00 -4.00 -1.00  1.00  0.00  0.00  0.00  0.00  4.00 -4.00 -1.00  1.00
G_6-   2.00 -2.00  1.00 -1.00  0.00  1.41 -1.41  0.00 -2.00  2.00 -1.00  1.00
G_7-   2.00 -2.00  1.00 -1.00  0.00 -1.41  1.41  0.00 -2.00  2.00 -1.00  1.00
G_8-   4.00 -4.00 -1.00  1.00  0.00  0.00  0.00  0.00 -4.00  4.00  1.00 -1.00

        3s_h 6S4   -6S4   6s_d
       -3s_h             -6s_d
G_6+   0.00  1.41 -1.41  0.00
G_7+   0.00 -1.41  1.41  0.00
G_8+   0.00  0.00  0.00  0.00
G_6-   0.00 -1.41  1.41  0.00
G_7-   0.00  1.41 -1.41  0.00
G_8-   0.00  0.00  0.00  0.00

     the symmetry operations in each class and the name of the first element:

     E             1
          identity                                               
     -E           -1
          identity E                                             
     8C3          17   19   20   18   24   21   22   23
          120 deg rotation - cart. axis [-1,-1,-1]               
     -8C3        -17  -19  -20  -18  -24  -21  -22  -23
          120 deg rotation - cart. axis [-1,-1,-1] E             
      3C2 -3C2     2   -2    4   -4    3   -3
          180 deg rotation - cart. axis [0,0,1]                  
     6C4           7    8   15   16   12   11
           90 deg rotation - cart. axis [0,0,-1]                 
     -6C4         -7   -8  -15  -16  -12  -11
           90 deg rotation - cart. axis [0,0,-1] E               
      6C2'-6C2'    5   -5   -6    6   14  -13  -14   13   10   -9  -10    9
          180 deg rotation - cart. axis [1,1,0]                  
     i            25
          inversion                                              
     -i          -25
          inversion E                                            
     8S6          41   43   44   42   48   45   46   47
          inv. 120 deg rotation - cart. axis [-1,-1,-1]          
     -8S6        -41  -43  -44  -42  -48  -45  -46  -47
          inv. 120 deg rotation - cart. axis [-1,-1,-1] E        
      3s_h-3s_h   26  -26   28  -28   27  -27
          inv. 180 deg rotation - cart. axis [0,0,1]             
     6S4          31   32   39   40   36   35
          inv.  90 deg rotation - cart. axis [0,0,-1]            
     -6S4        -31  -32  -39  -40  -36  -35
          inv.  90 deg rotation - cart. axis [0,0,-1] E          
      6s_d-6s_d   29  -29  -30   30   38  -37  -38   37   34  -33  -34   33
          inv. 180 deg rotation - cart. axis [1,1,0]             

   Cartesian axes

     site n.     atom                  positions (alat units)
         1           Cs  tau(   1) = (   0.0000000   0.0000000   0.0000000  )
         2           I   tau(   2) = (   0.5000000   0.5000000   0.5000000  )

   Crystallographic axes

     site n.     atom                  positions (cryst. coord.)
         1           Cs  tau(   1) = (  0.0000000  0.0000000  0.0000000  )
         2           I   tau(   2) = (  0.5000000  0.5000000  0.5000000  )

     number of k points=   220
                       cart. coord. in units 2pi/alat
        k(    1) = (   0.0250000   0.0250000   0.0250000), wk =   0.0010000
        k(    2) = (   0.0250000   0.0250000   0.0750000), wk =   0.0030000
        k(    3) = (   0.0250000   0.0250000   0.1250000), wk =   0.0030000
        k(    4) = (   0.0250000   0.0250000   0.1750000), wk =   0.0030000
        k(    5) = (   0.0250000   0.0250000   0.2250000), wk =   0.0030000
        k(    6) = (   0.0250000   0.0250000   0.2750000), wk =   0.0030000
        k(    7) = (   0.0250000   0.0250000   0.3250000), wk =   0.0030000
        k(    8) = (   0.0250000   0.0250000   0.3750000), wk =   0.0030000
        k(    9) = (   0.0250000   0.0250000   0.4250000), wk =   0.0030000
        k(   10) = (   0.0250000   0.0250000   0.4750000), wk =   0.0030000
        k(   11) = (   0.0250000   0.0750000   0.0750000), wk =   0.0030000
        k(   12) = (   0.0250000   0.0750000   0.1250000), wk =   0.0060000
        k(   13) = (   0.0250000   0.0750000   0.1750000), wk =   0.0060000
        k(   14) = (   0.0250000   0.0750000   0.2250000), wk =   0.0060000
        k(   15) = (   0.0250000   0.0750000   0.2750000), wk =   0.0060000
        k(   16) = (   0.0250000   0.0750000   0.3250000), wk =   0.0060000
        k(   17) = (   0.0250000   0.0750000   0.3750000), wk =   0.0060000
        k(   18) = (   0.0250000   0.0750000   0.4250000), wk =   0.0060000
        k(   19) = (   0.0250000   0.0750000   0.4750000), wk =   0.0060000
        k(   20) = (   0.0250000   0.1250000   0.1250000), wk =   0.0030000
        k(   21) = (   0.0250000   0.1250000   0.1750000), wk =   0.0060000
        k(   22) = (   0.0250000   0.1250000   0.2250000), wk =   0.0060000
        k(   23) = (   0.0250000   0.1250000   0.2750000), wk =   0.0060000
        k(   24) = (   0.0250000   0.1250000   0.3250000), wk =   0.0060000
        k(   25) = (   0.0250000   0.1250000   0.3750000), wk =   0.0060000
        k(   26) = (   0.0250000   0.1250000   0.4250000), wk =   0.0060000
        k(   27) = (   0.0250000   0.1250000   0.4750000), wk =   0.0060000
        k(   28) = (   0.0250000   0.1750000   0.1750000), wk =   0.0030000
        k(   29) = (   0.0250000   0.1750000   0.2250000), wk =   0.0060000
        k(   30) = (   0.0250000   0.1750000   0.2750000), wk =   0.0060000
        k(   31) = (   0.0250000   0.1750000   0.3250000), wk =   0.0060000
        k(   32) = (   0.0250000   0.1750000   0.3750000), wk =   0.0060000
        k(   33) = (   0.0250000   0.1750000   0.4250000), wk =   0.0060000
        k(   34) = (   0.0250000   0.1750000   0.4750000), wk =   0.0060000
        k(   35) = (   0.0250000   0.2250000   0.2250000), wk =   0.0030000
        k(   36) = (   0.0250000   0.2250000   0.2750000), wk =   0.0060000
        k(   37) = (   0.0250000   0.2250000   0.3250000), wk =   0.0060000
        k(   38) = (   0.0250000   0.2250000   0.3750000), wk =   0.0060000
        k(   39) = (   0.0250000   0.2250000   0.4250000), wk =   0.0060000
        k(   40) = (   0.0250000   0.2250000   0.4750000), wk =   0.0060000
        k(   41) = (   0.0250000   0.2750000   0.2750000), wk =   0.0030000
        k(   42) = (   0.0250000   0.2750000   0.3250000), wk =   0.0060000
        k(   43) = (   0.0250000   0.2750000   0.3750000), wk =   0.0060000
        k(   44) = (   0.0250000   0.2750000   0.4250000), wk =   0.0060000
        k(   45) = (   0.0250000   0.2750000   0.4750000), wk =   0.0060000
        k(   46) = (   0.0250000   0.3250000   0.3250000), wk =   0.0030000
        k(   47) = (   0.0250000   0.3250000   0.3750000), wk =   0.0060000
        k(   48) = (   0.0250000   0.3250000   0.4250000), wk =   0.0060000
        k(   49) = (   0.0250000   0.3250000   0.4750000), wk =   0.0060000
        k(   50) = (   0.0250000   0.3750000   0.3750000), wk =   0.0030000
        k(   51) = (   0.0250000   0.3750000   0.4250000), wk =   0.0060000
        k(   52) = (   0.0250000   0.3750000   0.4750000), wk =   0.0060000
        k(   53) = (   0.0250000   0.4250000   0.4250000), wk =   0.0030000
        k(   54) = (   0.0250000   0.4250000   0.4750000), wk =   0.0060000
        k(   55) = (   0.0250000   0.4750000   0.4750000), wk =   0.0030000
        k(   56) = (   0.0750000   0.0750000   0.0750000), wk =   0.0010000
        k(   57) = (   0.0750000   0.0750000   0.1250000), wk =   0.0030000
        k(   58) = (   0.0750000   0.0750000   0.1750000), wk =   0.0030000
        k(   59) = (   0.0750000   0.0750000   0.2250000), wk =   0.0030000
        k(   60) = (   0.0750000   0.0750000   0.2750000), wk =   0.0030000
        k(   61) = (   0.0750000   0.0750000   0.3250000), wk =   0.0030000
        k(   62) = (   0.0750000   0.0750000   0.3750000), wk =   0.0030000
        k(   63) = (   0.0750000   0.0750000   0.4250000), wk =   0.0030000
        k(   64) = (   0.0750000   0.0750000   0.4750000), wk =   0.0030000
        k(   65) = (   0.0750000   0.1250000   0.1250000), wk =   0.0030000
        k(   66) = (   0.0750000   0.1250000   0.1750000), wk =   0.0060000
        k(   67) = (   0.0750000   0.1250000   0.2250000), wk =   0.0060000
        k(   68) = (   0.0750000   0.1250000   0.2750000), wk =   0.0060000
        k(   69) = (   0.0750000   0.1250000   0.3250000), wk =   0.0060000
        k(   70) = (   0.0750000   0.1250000   0.3750000), wk =   0.0060000
        k(   71) = (   0.0750000   0.1250000   0.4250000), wk =   0.0060000
        k(   72) = (   0.0750000   0.1250000   0.4750000), wk =   0.0060000
        k(   73) = (   0.0750000   0.1750000   0.1750000), wk =   0.0030000
        k(   74) = (   0.0750000   0.1750000   0.2250000), wk =   0.0060000
        k(   75) = (   0.0750000   0.1750000   0.2750000), wk =   0.0060000
        k(   76) = (   0.0750000   0.1750000   0.3250000), wk =   0.0060000
        k(   77) = (   0.0750000   0.1750000   0.3750000), wk =   0.0060000
        k(   78) = (   0.0750000   0.1750000   0.4250000), wk =   0.0060000
        k(   79) = (   0.0750000   0.1750000   0.4750000), wk =   0.0060000
        k(   80) = (   0.0750000   0.2250000   0.2250000), wk =   0.0030000
        k(   81) = (   0.0750000   0.2250000   0.2750000), wk =   0.0060000
        k(   82) = (   0.0750000   0.2250000   0.3250000), wk =   0.0060000
        k(   83) = (   0.0750000   0.2250000   0.3750000), wk =   0.0060000
        k(   84) = (   0.0750000   0.2250000   0.4250000), wk =   0.0060000
        k(   85) = (   0.0750000   0.2250000   0.4750000), wk =   0.0060000
        k(   86) = (   0.0750000   0.2750000   0.2750000), wk =   0.0030000
        k(   87) = (   0.0750000   0.2750000   0.3250000), wk =   0.0060000
        k(   88) = (   0.0750000   0.2750000   0.3750000), wk =   0.0060000
        k(   89) = (   0.0750000   0.2750000   0.4250000), wk =   0.0060000
        k(   90) = (   0.0750000   0.2750000   0.4750000), wk =   0.0060000
        k(   91) = (   0.0750000   0.3250000   0.3250000), wk =   0.0030000
        k(   92) = (   0.0750000   0.3250000   0.3750000), wk =   0.0060000
        k(   93) = (   0.0750000   0.3250000   0.4250000), wk =   0.0060000
        k(   94) = (   0.0750000   0.3250000   0.4750000), wk =   0.0060000
        k(   95) = (   0.0750000   0.3750000   0.3750000), wk =   0.0030000
        k(   96) = (   0.0750000   0.3750000   0.4250000), wk =   0.0060000
        k(   97) = (   0.0750000   0.3750000   0.4750000), wk =   0.0060000
        k(   98) = (   0.0750000   0.4250000   0.4250000), wk =   0.0030000
        k(   99) = (   0.0750000   0.4250000   0.4750000), wk =   0.0060000
        k(  100) = (   0.0750000   0.4750000   0.4750000), wk =   0.0030000
        k(  101) = (   0.1250000   0.1250000   0.1250000), wk =   0.0010000
        k(  102) = (   0.1250000   0.1250000   0.1750000), wk =   0.0030000
        k(  103) = (   0.1250000   0.1250000   0.2250000), wk =   0.0030000
        k(  104) = (   0.1250000   0.1250000   0.2750000), wk =   0.0030000
        k(  105) = (   0.1250000   0.1250000   0.3250000), wk =   0.0030000
        k(  106) = (   0.1250000   0.1250000   0.3750000), wk =   0.0030000
        k(  107) = (   0.1250000   0.1250000   0.4250000), wk =   0.0030000
        k(  108) = (   0.1250000   0.1250000   0.4750000), wk =   0.0030000
        k(  109) = (   0.1250000   0.1750000   0.1750000), wk =   0.0030000
        k(  110) = (   0.1250000   0.1750000   0.2250000), wk =   0.0060000
        k(  111) = (   0.1250000   0.1750000   0.2750000), wk =   0.0060000
        k(  112) = (   0.1250000   0.1750000   0.3250000), wk =   0.0060000
        k(  113) = (   0.1250000   0.1750000   0.3750000), wk =   0.0060000
        k(  114) = (   0.1250000   0.1750000   0.4250000), wk =   0.0060000
        k(  115) = (   0.1250000   0.1750000   0.4750000), wk =   0.0060000
        k(  116) = (   0.1250000   0.2250000   0.2250000), wk =   0.0030000
        k(  117) = (   0.1250000   0.2250000   0.2750000), wk =   0.0060000
        k(  118) = (   0.1250000   0.2250000   0.3250000), wk =   0.0060000
        k(  119) = (   0.1250000   0.2250000   0.3750000), wk =   0.0060000
        k(  120) = (   0.1250000   0.2250000   0.4250000), wk =   0.0060000
        k(  121) = (   0.1250000   0.2250000   0.4750000), wk =   0.0060000
        k(  122) = (   0.1250000   0.2750000   0.2750000), wk =   0.0030000
        k(  123) = (   0.1250000   0.2750000   0.3250000), wk =   0.0060000
        k(  124) = (   0.1250000   0.2750000   0.3750000), wk =   0.0060000
        k(  125) = (   0.1250000   0.2750000   0.4250000), wk =   0.0060000
        k(  126) = (   0.1250000   0.2750000   0.4750000), wk =   0.0060000
        k(  127) = (   0.1250000   0.3250000   0.3250000), wk =   0.0030000
        k(  128) = (   0.1250000   0.3250000   0.3750000), wk =   0.0060000
        k(  129) = (   0.1250000   0.3250000   0.4250000), wk =   0.0060000
        k(  130) = (   0.1250000   0.3250000   0.4750000), wk =   0.0060000
        k(  131) = (   0.1250000   0.3750000   0.3750000), wk =   0.0030000
        k(  132) = (   0.1250000   0.3750000   0.4250000), wk =   0.0060000
        k(  133) = (   0.1250000   0.3750000   0.4750000), wk =   0.0060000
        k(  134) = (   0.1250000   0.4250000   0.4250000), wk =   0.0030000
        k(  135) = (   0.1250000   0.4250000   0.4750000), wk =   0.0060000
        k(  136) = (   0.1250000   0.4750000   0.4750000), wk =   0.0030000
        k(  137) = (   0.1750000   0.1750000   0.1750000), wk =   0.0010000
        k(  138) = (   0.1750000   0.1750000   0.2250000), wk =   0.0030000
        k(  139) = (   0.1750000   0.1750000   0.2750000), wk =   0.0030000
        k(  140) = (   0.1750000   0.1750000   0.3250000), wk =   0.0030000
        k(  141) = (   0.1750000   0.1750000   0.3750000), wk =   0.0030000
        k(  142) = (   0.1750000   0.1750000   0.4250000), wk =   0.0030000
        k(  143) = (   0.1750000   0.1750000   0.4750000), wk =   0.0030000
        k(  144) = (   0.1750000   0.2250000   0.2250000), wk =   0.0030000
        k(  145) = (   0.1750000   0.2250000   0.2750000), wk =   0.0060000
        k(  146) = (   0.1750000   0.2250000   0.3250000), wk =   0.0060000
        k(  147) = (   0.1750000   0.2250000   0.3750000), wk =   0.0060000
        k(  148) = (   0.1750000   0.2250000   0.4250000), wk =   0.0060000
        k(  149) = (   0.1750000   0.2250000   0.4750000), wk =   0.0060000
        k(  150) = (   0.1750000   0.2750000   0.2750000), wk =   0.0030000
        k(  151) = (   0.1750000   0.2750000   0.3250000), wk =   0.0060000
        k(  152) = (   0.1750000   0.2750000   0.3750000), wk =   0.0060000
        k(  153) = (   0.1750000   0.2750000   0.4250000), wk =   0.0060000
        k(  154) = (   0.1750000   0.2750000   0.4750000), wk =   0.0060000
        k(  155) = (   0.1750000   0.3250000   0.3250000), wk =   0.0030000
        k(  156) = (   0.1750000   0.3250000   0.3750000), wk =   0.0060000
        k(  157) = (   0.1750000   0.3250000   0.4250000), wk =   0.0060000
        k(  158) = (   0.1750000   0.3250000   0.4750000), wk =   0.0060000
        k(  159) = (   0.1750000   0.3750000   0.3750000), wk =   0.0030000
        k(  160) = (   0.1750000   0.3750000   0.4250000), wk =   0.0060000
        k(  161) = (   0.1750000   0.3750000   0.4750000), wk =   0.0060000
        k(  162) = (   0.1750000   0.4250000   0.4250000), wk =   0.0030000
        k(  163) = (   0.1750000   0.4250000   0.4750000), wk =   0.0060000
        k(  164) = (   0.1750000   0.4750000   0.4750000), wk =   0.0030000
        k(  165) = (   0.2250000   0.2250000   0.2250000), wk =   0.0010000
        k(  166) = (   0.2250000   0.2250000   0.2750000), wk =   0.0030000
        k(  167) = (   0.2250000   0.2250000   0.3250000), wk =   0.0030000
        k(  168) = (   0.2250000   0.2250000   0.3750000), wk =   0.0030000
        k(  169) = (   0.2250000   0.2250000   0.4250000), wk =   0.0030000
        k(  170) = (   0.2250000   0.2250000   0.4750000), wk =   0.0030000
        k(  171) = (   0.2250000   0.2750000   0.2750000), wk =   0.0030000
        k(  172) = (   0.2250000   0.2750000   0.3250000), wk =   0.0060000
        k(  173) = (   0.2250000   0.2750000   0.3750000), wk =   0.0060000
        k(  174) = (   0.2250000   0.2750000   0.4250000), wk =   0.0060000
        k(  175) = (   0.2250000   0.2750000   0.4750000), wk =   0.0060000
        k(  176) = (   0.2250000   0.3250000   0.3250000), wk =   0.0030000
        k(  177) = (   0.2250000   0.3250000   0.3750000), wk =   0.0060000
        k(  178) = (   0.2250000   0.3250000   0.4250000), wk =   0.0060000
        k(  179) = (   0.2250000   0.3250000   0.4750000), wk =   0.0060000
        k(  180) = (   0.2250000   0.3750000   0.3750000), wk =   0.0030000
        k(  181) = (   0.2250000   0.3750000   0.4250000), wk =   0.0060000
        k(  182) = (   0.2250000   0.3750000   0.4750000), wk =   0.0060000
        k(  183) = (   0.2250000   0.4250000   0.4250000), wk =   0.0030000
        k(  184) = (   0.2250000   0.4250000   0.4750000), wk =   0.0060000
        k(  185) = (   0.2250000   0.4750000   0.4750000), wk =   0.0030000
        k(  186) = (   0.2750000   0.2750000   0.2750000), wk =   0.0010000
        k(  187) = (   0.2750000   0.2750000   0.3250000), wk =   0.0030000
        k(  188) = (   0.2750000   0.2750000   0.3750000), wk =   0.0030000
        k(  189) = (   0.2750000   0.2750000   0.4250000), wk =   0.0030000
        k(  190) = (   0.2750000   0.2750000   0.4750000), wk =   0.0030000
        k(  191) = (   0.2750000   0.3250000   0.3250000), wk =   0.0030000
        k(  192) = (   0.2750000   0.3250000   0.3750000), wk =   0.0060000
        k(  193) = (   0.2750000   0.3250000   0.4250000), wk =   0.0060000
        k(  194) = (   0.2750000   0.3250000   0.4750000), wk =   0.0060000
        k(  195) = (   0.2750000   0.3750000   0.3750000), wk =   0.0030000
        k(  196) = (   0.2750000   0.3750000   0.4250000), wk =   0.0060000
        k(  197) = (   0.2750000   0.3750000   0.4750000), wk =   0.0060000
        k(  198) = (   0.2750000   0.4250000   0.4250000), wk =   0.0030000
        k(  199) = (   0.2750000   0.4250000   0.4750000), wk =   0.0060000
        k(  200) = (   0.2750000   0.4750000   0.4750000), wk =   0.0030000
        k(  201) = (   0.3250000   0.3250000   0.3250000), wk =   0.0010000
        k(  202) = (   0.3250000   0.3250000   0.3750000), wk =   0.0030000
        k(  203) = (   0.3250000   0.3250000   0.4250000), wk =   0.0030000
        k(  204) = (   0.3250000   0.3250000   0.4750000), wk =   0.0030000
        k(  205) = (   0.3250000   0.3750000   0.3750000), wk =   0.0030000
        k(  206) = (   0.3250000   0.3750000   0.4250000), wk =   0.0060000
        k(  207) = (   0.3250000   0.3750000   0.4750000), wk =   0.0060000
        k(  208) = (   0.3250000   0.4250000   0.4250000), wk =   0.0030000
        k(  209) = (   0.3250000   0.4250000   0.4750000), wk =   0.0060000
        k(  210) = (   0.3250000   0.4750000   0.4750000), wk =   0.0030000
        k(  211) = (   0.3750000   0.3750000   0.3750000), wk =   0.0010000
        k(  212) = (   0.3750000   0.3750000   0.4250000), wk =   0.0030000
        k(  213) = (   0.3750000   0.3750000   0.4750000), wk =   0.0030000
        k(  214) = (   0.3750000   0.4250000   0.4250000), wk =   0.0030000
        k(  215) = (   0.3750000   0.4250000   0.4750000), wk =   0.0060000
        k(  216) = (   0.3750000   0.4750000   0.4750000), wk =   0.0030000
        k(  217) = (   0.4250000   0.4250000   0.4250000), wk =   0.0010000
        k(  218) = (   0.4250000   0.4250000   0.4750000), wk =   0.0030000
        k(  219) = (   0.4250000   0.4750000   0.4750000), wk =   0.0030000
        k(  220) = (   0.4750000   0.4750000   0.4750000), wk =   0.0010000

                       cryst. coord.
        k(    1) = (   0.0250000   0.0250000   0.0250000), wk =   0.0010000
        k(    2) = (   0.0250000   0.0250000   0.0750000), wk =   0.0030000
        k(    3) = (   0.0250000   0.0250000   0.1250000), wk =   0.0030000
        k(    4) = (   0.0250000   0.0250000   0.1750000), wk =   0.0030000
        k(    5) = (   0.0250000   0.0250000   0.2250000), wk =   0.0030000
        k(    6) = (   0.0250000   0.0250000   0.2750000), wk =   0.0030000
        k(    7) = (   0.0250000   0.0250000   0.3250000), wk =   0.0030000
        k(    8) = (   0.0250000   0.0250000   0.3750000), wk =   0.0030000
        k(    9) = (   0.0250000   0.0250000   0.4250000), wk =   0.0030000
        k(   10) = (   0.0250000   0.0250000   0.4750000), wk =   0.0030000
        k(   11) = (   0.0250000   0.0750000   0.0750000), wk =   0.0030000
        k(   12) = (   0.0250000   0.0750000   0.1250000), wk =   0.0060000
        k(   13) = (   0.0250000   0.0750000   0.1750000), wk =   0.0060000
        k(   14) = (   0.0250000   0.0750000   0.2250000), wk =   0.0060000
        k(   15) = (   0.0250000   0.0750000   0.2750000), wk =   0.0060000
        k(   16) = (   0.0250000   0.0750000   0.3250000), wk =   0.0060000
        k(   17) = (   0.0250000   0.0750000   0.3750000), wk =   0.0060000
        k(   18) = (   0.0250000   0.0750000   0.4250000), wk =   0.0060000
        k(   19) = (   0.0250000   0.0750000   0.4750000), wk =   0.0060000
        k(   20) = (   0.0250000   0.1250000   0.1250000), wk =   0.0030000
        k(   21) = (   0.0250000   0.1250000   0.1750000), wk =   0.0060000
        k(   22) = (   0.0250000   0.1250000   0.2250000), wk =   0.0060000
        k(   23) = (   0.0250000   0.1250000   0.2750000), wk =   0.0060000
        k(   24) = (   0.0250000   0.1250000   0.3250000), wk =   0.0060000
        k(   25) = (   0.0250000   0.1250000   0.3750000), wk =   0.0060000
        k(   26) = (   0.0250000   0.1250000   0.4250000), wk =   0.0060000
        k(   27) = (   0.0250000   0.1250000   0.4750000), wk =   0.0060000
        k(   28) = (   0.0250000   0.1750000   0.1750000), wk =   0.0030000
        k(   29) = (   0.0250000   0.1750000   0.2250000), wk =   0.0060000
        k(   30) = (   0.0250000   0.1750000   0.2750000), wk =   0.0060000
        k(   31) = (   0.0250000   0.1750000   0.3250000), wk =   0.0060000
        k(   32) = (   0.0250000   0.1750000   0.3750000), wk =   0.0060000
        k(   33) = (   0.0250000   0.1750000   0.4250000), wk =   0.0060000
        k(   34) = (   0.0250000   0.1750000   0.4750000), wk =   0.0060000
        k(   35) = (   0.0250000   0.2250000   0.2250000), wk =   0.0030000
        k(   36) = (   0.0250000   0.2250000   0.2750000), wk =   0.0060000
        k(   37) = (   0.0250000   0.2250000   0.3250000), wk =   0.0060000
        k(   38) = (   0.0250000   0.2250000   0.3750000), wk =   0.0060000
        k(   39) = (   0.0250000   0.2250000   0.4250000), wk =   0.0060000
        k(   40) = (   0.0250000   0.2250000   0.4750000), wk =   0.0060000
        k(   41) = (   0.0250000   0.2750000   0.2750000), wk =   0.0030000
        k(   42) = (   0.0250000   0.2750000   0.3250000), wk =   0.0060000
        k(   43) = (   0.0250000   0.2750000   0.3750000), wk =   0.0060000
        k(   44) = (   0.0250000   0.2750000   0.4250000), wk =   0.0060000
        k(   45) = (   0.0250000   0.2750000   0.4750000), wk =   0.0060000
        k(   46) = (   0.0250000   0.3250000   0.3250000), wk =   0.0030000
        k(   47) = (   0.0250000   0.3250000   0.3750000), wk =   0.0060000
        k(   48) = (   0.0250000   0.3250000   0.4250000), wk =   0.0060000
        k(   49) = (   0.0250000   0.3250000   0.4750000), wk =   0.0060000
        k(   50) = (   0.0250000   0.3750000   0.3750000), wk =   0.0030000
        k(   51) = (   0.0250000   0.3750000   0.4250000), wk =   0.0060000
        k(   52) = (   0.0250000   0.3750000   0.4750000), wk =   0.0060000
        k(   53) = (   0.0250000   0.4250000   0.4250000), wk =   0.0030000
        k(   54) = (   0.0250000   0.4250000   0.4750000), wk =   0.0060000
        k(   55) = (   0.0250000   0.4750000   0.4750000), wk =   0.0030000
        k(   56) = (   0.0750000   0.0750000   0.0750000), wk =   0.0010000
        k(   57) = (   0.0750000   0.0750000   0.1250000), wk =   0.0030000
        k(   58) = (   0.0750000   0.0750000   0.1750000), wk =   0.0030000
        k(   59) = (   0.0750000   0.0750000   0.2250000), wk =   0.0030000
        k(   60) = (   0.0750000   0.0750000   0.2750000), wk =   0.0030000
        k(   61) = (   0.0750000   0.0750000   0.3250000), wk =   0.0030000
        k(   62) = (   0.0750000   0.0750000   0.3750000), wk =   0.0030000
        k(   63) = (   0.0750000   0.0750000   0.4250000), wk =   0.0030000
        k(   64) = (   0.0750000   0.0750000   0.4750000), wk =   0.0030000
        k(   65) = (   0.0750000   0.1250000   0.1250000), wk =   0.0030000
        k(   66) = (   0.0750000   0.1250000   0.1750000), wk =   0.0060000
        k(   67) = (   0.0750000   0.1250000   0.2250000), wk =   0.0060000
        k(   68) = (   0.0750000   0.1250000   0.2750000), wk =   0.0060000
        k(   69) = (   0.0750000   0.1250000   0.3250000), wk =   0.0060000
        k(   70) = (   0.0750000   0.1250000   0.3750000), wk =   0.0060000
        k(   71) = (   0.0750000   0.1250000   0.4250000), wk =   0.0060000
        k(   72) = (   0.0750000   0.1250000   0.4750000), wk =   0.0060000
        k(   73) = (   0.0750000   0.1750000   0.1750000), wk =   0.0030000
        k(   74) = (   0.0750000   0.1750000   0.2250000), wk =   0.0060000
        k(   75) = (   0.0750000   0.1750000   0.2750000), wk =   0.0060000
        k(   76) = (   0.0750000   0.1750000   0.3250000), wk =   0.0060000
        k(   77) = (   0.0750000   0.1750000   0.3750000), wk =   0.0060000
        k(   78) = (   0.0750000   0.1750000   0.4250000), wk =   0.0060000
        k(   79) = (   0.0750000   0.1750000   0.4750000), wk =   0.0060000
        k(   80) = (   0.0750000   0.2250000   0.2250000), wk =   0.0030000
        k(   81) = (   0.0750000   0.2250000   0.2750000), wk =   0.0060000
        k(   82) = (   0.0750000   0.2250000   0.3250000), wk =   0.0060000
        k(   83) = (   0.0750000   0.2250000   0.3750000), wk =   0.0060000
        k(   84) = (   0.0750000   0.2250000   0.4250000), wk =   0.0060000
        k(   85) = (   0.0750000   0.2250000   0.4750000), wk =   0.0060000
        k(   86) = (   0.0750000   0.2750000   0.2750000), wk =   0.0030000
        k(   87) = (   0.0750000   0.2750000   0.3250000), wk =   0.0060000
        k(   88) = (   0.0750000   0.2750000   0.3750000), wk =   0.0060000
        k(   89) = (   0.0750000   0.2750000   0.4250000), wk =   0.0060000
        k(   90) = (   0.0750000   0.2750000   0.4750000), wk =   0.0060000
        k(   91) = (   0.0750000   0.3250000   0.3250000), wk =   0.0030000
        k(   92) = (   0.0750000   0.3250000   0.3750000), wk =   0.0060000
        k(   93) = (   0.0750000   0.3250000   0.4250000), wk =   0.0060000
        k(   94) = (   0.0750000   0.3250000   0.4750000), wk =   0.0060000
        k(   95) = (   0.0750000   0.3750000   0.3750000), wk =   0.0030000
        k(   96) = (   0.0750000   0.3750000   0.4250000), wk =   0.0060000
        k(   97) = (   0.0750000   0.3750000   0.4750000), wk =   0.0060000
        k(   98) = (   0.0750000   0.4250000   0.4250000), wk =   0.0030000
        k(   99) = (   0.0750000   0.4250000   0.4750000), wk =   0.0060000
        k(  100) = (   0.0750000   0.4750000   0.4750000), wk =   0.0030000
        k(  101) = (   0.1250000   0.1250000   0.1250000), wk =   0.0010000
        k(  102) = (   0.1250000   0.1250000   0.1750000), wk =   0.0030000
        k(  103) = (   0.1250000   0.1250000   0.2250000), wk =   0.0030000
        k(  104) = (   0.1250000   0.1250000   0.2750000), wk =   0.0030000
        k(  105) = (   0.1250000   0.1250000   0.3250000), wk =   0.0030000
        k(  106) = (   0.1250000   0.1250000   0.3750000), wk =   0.0030000
        k(  107) = (   0.1250000   0.1250000   0.4250000), wk =   0.0030000
        k(  108) = (   0.1250000   0.1250000   0.4750000), wk =   0.0030000
        k(  109) = (   0.1250000   0.1750000   0.1750000), wk =   0.0030000
        k(  110) = (   0.1250000   0.1750000   0.2250000), wk =   0.0060000
        k(  111) = (   0.1250000   0.1750000   0.2750000), wk =   0.0060000
        k(  112) = (   0.1250000   0.1750000   0.3250000), wk =   0.0060000
        k(  113) = (   0.1250000   0.1750000   0.3750000), wk =   0.0060000
        k(  114) = (   0.1250000   0.1750000   0.4250000), wk =   0.0060000
        k(  115) = (   0.1250000   0.1750000   0.4750000), wk =   0.0060000
        k(  116) = (   0.1250000   0.2250000   0.2250000), wk =   0.0030000
        k(  117) = (   0.1250000   0.2250000   0.2750000), wk =   0.0060000
        k(  118) = (   0.1250000   0.2250000   0.3250000), wk =   0.0060000
        k(  119) = (   0.1250000   0.2250000   0.3750000), wk =   0.0060000
        k(  120) = (   0.1250000   0.2250000   0.4250000), wk =   0.0060000
        k(  121) = (   0.1250000   0.2250000   0.4750000), wk =   0.0060000
        k(  122) = (   0.1250000   0.2750000   0.2750000), wk =   0.0030000
        k(  123) = (   0.1250000   0.2750000   0.3250000), wk =   0.0060000
        k(  124) = (   0.1250000   0.2750000   0.3750000), wk =   0.0060000
        k(  125) = (   0.1250000   0.2750000   0.4250000), wk =   0.0060000
        k(  126) = (   0.1250000   0.2750000   0.4750000), wk =   0.0060000
        k(  127) = (   0.1250000   0.3250000   0.3250000), wk =   0.0030000
        k(  128) = (   0.1250000   0.3250000   0.3750000), wk =   0.0060000
        k(  129) = (   0.1250000   0.3250000   0.4250000), wk =   0.0060000
        k(  130) = (   0.1250000   0.3250000   0.4750000), wk =   0.0060000
        k(  131) = (   0.1250000   0.3750000   0.3750000), wk =   0.0030000
        k(  132) = (   0.1250000   0.3750000   0.4250000), wk =   0.0060000
        k(  133) = (   0.1250000   0.3750000   0.4750000), wk =   0.0060000
        k(  134) = (   0.1250000   0.4250000   0.4250000), wk =   0.0030000
        k(  135) = (   0.1250000   0.4250000   0.4750000), wk =   0.0060000
        k(  136) = (   0.1250000   0.4750000   0.4750000), wk =   0.0030000
        k(  137) = (   0.1750000   0.1750000   0.1750000), wk =   0.0010000
        k(  138) = (   0.1750000   0.1750000   0.2250000), wk =   0.0030000
        k(  139) = (   0.1750000   0.1750000   0.2750000), wk =   0.0030000
        k(  140) = (   0.1750000   0.1750000   0.3250000), wk =   0.0030000
        k(  141) = (   0.1750000   0.1750000   0.3750000), wk =   0.0030000
        k(  142) = (   0.1750000   0.1750000   0.4250000), wk =   0.0030000
        k(  143) = (   0.1750000   0.1750000   0.4750000), wk =   0.0030000
        k(  144) = (   0.1750000   0.2250000   0.2250000), wk =   0.0030000
        k(  145) = (   0.1750000   0.2250000   0.2750000), wk =   0.0060000
        k(  146) = (   0.1750000   0.2250000   0.3250000), wk =   0.0060000
        k(  147) = (   0.1750000   0.2250000   0.3750000), wk =   0.0060000
        k(  148) = (   0.1750000   0.2250000   0.4250000), wk =   0.0060000
        k(  149) = (   0.1750000   0.2250000   0.4750000), wk =   0.0060000
        k(  150) = (   0.1750000   0.2750000   0.2750000), wk =   0.0030000
        k(  151) = (   0.1750000   0.2750000   0.3250000), wk =   0.0060000
        k(  152) = (   0.1750000   0.2750000   0.3750000), wk =   0.0060000
        k(  153) = (   0.1750000   0.2750000   0.4250000), wk =   0.0060000
        k(  154) = (   0.1750000   0.2750000   0.4750000), wk =   0.0060000
        k(  155) = (   0.1750000   0.3250000   0.3250000), wk =   0.0030000
        k(  156) = (   0.1750000   0.3250000   0.3750000), wk =   0.0060000
        k(  157) = (   0.1750000   0.3250000   0.4250000), wk =   0.0060000
        k(  158) = (   0.1750000   0.3250000   0.4750000), wk =   0.0060000
        k(  159) = (   0.1750000   0.3750000   0.3750000), wk =   0.0030000
        k(  160) = (   0.1750000   0.3750000   0.4250000), wk =   0.0060000
        k(  161) = (   0.1750000   0.3750000   0.4750000), wk =   0.0060000
        k(  162) = (   0.1750000   0.4250000   0.4250000), wk =   0.0030000
        k(  163) = (   0.1750000   0.4250000   0.4750000), wk =   0.0060000
        k(  164) = (   0.1750000   0.4750000   0.4750000), wk =   0.0030000
        k(  165) = (   0.2250000   0.2250000   0.2250000), wk =   0.0010000
        k(  166) = (   0.2250000   0.2250000   0.2750000), wk =   0.0030000
        k(  167) = (   0.2250000   0.2250000   0.3250000), wk =   0.0030000
        k(  168) = (   0.2250000   0.2250000   0.3750000), wk =   0.0030000
        k(  169) = (   0.2250000   0.2250000   0.4250000), wk =   0.0030000
        k(  170) = (   0.2250000   0.2250000   0.4750000), wk =   0.0030000
        k(  171) = (   0.2250000   0.2750000   0.2750000), wk =   0.0030000
        k(  172) = (   0.2250000   0.2750000   0.3250000), wk =   0.0060000
        k(  173) = (   0.2250000   0.2750000   0.3750000), wk =   0.0060000
        k(  174) = (   0.2250000   0.2750000   0.4250000), wk =   0.0060000
        k(  175) = (   0.2250000   0.2750000   0.4750000), wk =   0.0060000
        k(  176) = (   0.2250000   0.3250000   0.3250000), wk =   0.0030000
        k(  177) = (   0.2250000   0.3250000   0.3750000), wk =   0.0060000
        k(  178) = (   0.2250000   0.3250000   0.4250000), wk =   0.0060000
        k(  179) = (   0.2250000   0.3250000   0.4750000), wk =   0.0060000
        k(  180) = (   0.2250000   0.3750000   0.3750000), wk =   0.0030000
        k(  181) = (   0.2250000   0.3750000   0.4250000), wk =   0.0060000
        k(  182) = (   0.2250000   0.3750000   0.4750000), wk =   0.0060000
        k(  183) = (   0.2250000   0.4250000   0.4250000), wk =   0.0030000
        k(  184) = (   0.2250000   0.4250000   0.4750000), wk =   0.0060000
        k(  185) = (   0.2250000   0.4750000   0.4750000), wk =   0.0030000
        k(  186) = (   0.2750000   0.2750000   0.2750000), wk =   0.0010000
        k(  187) = (   0.2750000   0.2750000   0.3250000), wk =   0.0030000
        k(  188) = (   0.2750000   0.2750000   0.3750000), wk =   0.0030000
        k(  189) = (   0.2750000   0.2750000   0.4250000), wk =   0.0030000
        k(  190) = (   0.2750000   0.2750000   0.4750000), wk =   0.0030000
        k(  191) = (   0.2750000   0.3250000   0.3250000), wk =   0.0030000
        k(  192) = (   0.2750000   0.3250000   0.3750000), wk =   0.0060000
        k(  193) = (   0.2750000   0.3250000   0.4250000), wk =   0.0060000
        k(  194) = (   0.2750000   0.3250000   0.4750000), wk =   0.0060000
        k(  195) = (   0.2750000   0.3750000   0.3750000), wk =   0.0030000
        k(  196) = (   0.2750000   0.3750000   0.4250000), wk =   0.0060000
        k(  197) = (   0.2750000   0.3750000   0.4750000), wk =   0.0060000
        k(  198) = (   0.2750000   0.4250000   0.4250000), wk =   0.0030000
        k(  199) = (   0.2750000   0.4250000   0.4750000), wk =   0.0060000
        k(  200) = (   0.2750000   0.4750000   0.4750000), wk =   0.0030000
        k(  201) = (   0.3250000   0.3250000   0.3250000), wk =   0.0010000
        k(  202) = (   0.3250000   0.3250000   0.3750000), wk =   0.0030000
        k(  203) = (   0.3250000   0.3250000   0.4250000), wk =   0.0030000
        k(  204) = (   0.3250000   0.3250000   0.4750000), wk =   0.0030000
        k(  205) = (   0.3250000   0.3750000   0.3750000), wk =   0.0030000
        k(  206) = (   0.3250000   0.3750000   0.4250000), wk =   0.0060000
        k(  207) = (   0.3250000   0.3750000   0.4750000), wk =   0.0060000
        k(  208) = (   0.3250000   0.4250000   0.4250000), wk =   0.0030000
        k(  209) = (   0.3250000   0.4250000   0.4750000), wk =   0.0060000
        k(  210) = (   0.3250000   0.4750000   0.4750000), wk =   0.0030000
        k(  211) = (   0.3750000   0.3750000   0.3750000), wk =   0.0010000
        k(  212) = (   0.3750000   0.3750000   0.4250000), wk =   0.0030000
        k(  213) = (   0.3750000   0.3750000   0.4750000), wk =   0.0030000
        k(  214) = (   0.3750000   0.4250000   0.4250000), wk =   0.0030000
        k(  215) = (   0.3750000   0.4250000   0.4750000), wk =   0.0060000
        k(  216) = (   0.3750000   0.4750000   0.4750000), wk =   0.0030000
        k(  217) = (   0.4250000   0.4250000   0.4250000), wk =   0.0010000
        k(  218) = (   0.4250000   0.4250000   0.4750000), wk =   0.0030000
        k(  219) = (   0.4250000   0.4750000   0.4750000), wk =   0.0030000
        k(  220) = (   0.4750000   0.4750000   0.4750000), wk =   0.0010000

     Dense  grid:    32675 G-vectors     FFT dimensions: (  40,  40,  40)

     Smooth grid:    23439 G-vectors     FFT dimensions: (  36,  36,  36)

     Dynamical RAM for                 wfc:       0.04 MB

     Dynamical RAM for     wfc (w. buffer):       0.04 MB

     Dynamical RAM for           str. fact:       0.02 MB

     Dynamical RAM for           local pot:       0.00 MB

     Dynamical RAM for          nlocal pot:       0.09 MB

     Dynamical RAM for                qrad:      18.18 MB

     Dynamical RAM for          rho,v,vnew:       0.27 MB

     Dynamical RAM for           G-vectors:       0.04 MB

     Dynamical RAM for          h,s,v(r/c):       0.07 MB

     Dynamical RAM for          <psi|beta>:       0.06 MB

     Dynamical RAM for                 psi:       0.07 MB

     Dynamical RAM for                hpsi:       0.07 MB

     Dynamical RAM for                spsi:       0.07 MB

     Dynamical RAM for      wfcinit/wfcrot:       0.06 MB

     Dynamical RAM for           addusdens:      21.24 MB

     Estimated static dynamical RAM per process >      18.76 MB

     Estimated max dynamical RAM per process >      40.00 MB

     Estimated total dynamical RAM >       1.88 GB

     The potential is recalculated from file :
     ./CsIbcc.save/charge-density

     Starting wfcs are   18 randomized atomic wfcs +    2 random wfcs

     Band Structure Calculation
     Davidson diagonalization with overlap

     Computing kpt #:     1  of   220
     total cpu time spent up to now is        4.9 secs

     Computing kpt #:     2  of   220
     total cpu time spent up to now is        5.7 secs

     Computing kpt #:     3  of   220
     total cpu time spent up to now is        6.6 secs

     Computing kpt #:     4  of   220
     total cpu time spent up to now is        7.6 secs

     Computing kpt #:     5  of   220
     total cpu time spent up to now is        8.5 secs

     Computing kpt #:     6  of   220
     total cpu time spent up to now is        9.2 secs

     Computing kpt #:     7  of   220
     total cpu time spent up to now is       10.0 secs

     Computing kpt #:     8  of   220
     total cpu time spent up to now is       11.0 secs

     Computing kpt #:     9  of   220
     total cpu time spent up to now is       11.9 secs

     Computing kpt #:    10  of   220
     total cpu time spent up to now is       12.8 secs

     Computing kpt #:    11  of   220
     c_bands:  2 eigenvalues not converged
     total cpu time spent up to now is       13.8 secs

     Computing kpt #:    12  of   220
     total cpu time spent up to now is       14.7 secs

     Computing kpt #:    13  of   220
     total cpu time spent up to now is       15.6 secs

     Computing kpt #:    14  of   220
     total cpu time spent up to now is       16.5 secs

     Computing kpt #:    15  of   220
     total cpu time spent up to now is       17.3 secs

     Computing kpt #:    16  of   220
     total cpu time spent up to now is       18.1 secs

     Computing kpt #:    17  of   220
     total cpu time spent up to now is       19.0 secs

     Computing kpt #:    18  of   220
     total cpu time spent up to now is       19.7 secs

     Computing kpt #:    19  of   220
     total cpu time spent up to now is       20.6 secs

     Computing kpt #:    20  of   220
     total cpu time spent up to now is       21.5 secs

     Computing kpt #:    21  of   220
     total cpu time spent up to now is       22.3 secs

     Computing kpt #:    22  of   220
     total cpu time spent up to now is       23.2 secs

     Computing kpt #:    23  of   220
     total cpu time spent up to now is       24.0 secs

     Computing kpt #:    24  of   220
     total cpu time spent up to now is       24.8 secs

     Computing kpt #:    25  of   220
     total cpu time spent up to now is       25.6 secs

     Computing kpt #:    26  of   220
     total cpu time spent up to now is       26.5 secs

     Computing kpt #:    27  of   220
     total cpu time spent up to now is       27.5 secs

     Computing kpt #:    28  of   220
     total cpu time spent up to now is       28.4 secs

     Computing kpt #:    29  of   220
     total cpu time spent up to now is       29.2 secs

     Computing kpt #:    30  of   220
     total cpu time spent up to now is       30.0 secs

     Computing kpt #:    31  of   220
     total cpu time spent up to now is       30.7 secs

     Computing kpt #:    32  of   220
     total cpu time spent up to now is       31.4 secs

     Computing kpt #:    33  of   220
     total cpu time spent up to now is       32.2 secs

     Computing kpt #:    34  of   220
     total cpu time spent up to now is       32.8 secs

     Computing kpt #:    35  of   220
     total cpu time spent up to now is       33.5 secs

     Computing kpt #:    36  of   220
     total cpu time spent up to now is       34.2 secs

     Computing kpt #:    37  of   220
     total cpu time spent up to now is       35.0 secs

     Computing kpt #:    38  of   220
     total cpu time spent up to now is       35.7 secs

     Computing kpt #:    39  of   220
     total cpu time spent up to now is       36.3 secs

     Computing kpt #:    40  of   220
     total cpu time spent up to now is       37.0 secs

     Computing kpt #:    41  of   220
     total cpu time spent up to now is       37.6 secs

     Computing kpt #:    42  of   220
     total cpu time spent up to now is       38.3 secs

     Computing kpt #:    43  of   220
     total cpu time spent up to now is       39.0 secs

     Computing kpt #:    44  of   220
     total cpu time spent up to now is       39.7 secs

     Computing kpt #:    45  of   220
     total cpu time spent up to now is       40.3 secs

     Computing kpt #:    46  of   220
     total cpu time spent up to now is       41.0 secs

     Computing kpt #:    47  of   220
     total cpu time spent up to now is       41.6 secs

     Computing kpt #:    48  of   220
     total cpu time spent up to now is       42.3 secs

     Computing kpt #:    49  of   220
     total cpu time spent up to now is       42.9 secs

     Computing kpt #:    50  of   220
     total cpu time spent up to now is       43.6 secs

     Computing kpt #:    51  of   220
     total cpu time spent up to now is       44.3 secs

     Computing kpt #:    52  of   220
     total cpu time spent up to now is       44.9 secs

     Computing kpt #:    53  of   220
     total cpu time spent up to now is       45.4 secs

     Computing kpt #:    54  of   220
     total cpu time spent up to now is       46.0 secs

     Computing kpt #:    55  of   220
     total cpu time spent up to now is       46.5 secs

     Computing kpt #:    56  of   220
     total cpu time spent up to now is       47.4 secs

     Computing kpt #:    57  of   220
     c_bands:  1 eigenvalues not converged
     total cpu time spent up to now is       48.4 secs

     Computing kpt #:    58  of   220
     total cpu time spent up to now is       49.2 secs

     Computing kpt #:    59  of   220
     total cpu time spent up to now is       49.9 secs

     Computing kpt #:    60  of   220
     total cpu time spent up to now is       50.7 secs

     Computing kpt #:    61  of   220
     total cpu time spent up to now is       51.5 secs

     Computing kpt #:    62  of   220
     total cpu time spent up to now is       52.3 secs

     Computing kpt #:    63  of   220
     total cpu time spent up to now is       53.3 secs

     Computing kpt #:    64  of   220
     total cpu time spent up to now is       54.2 secs

     Computing kpt #:    65  of   220
     total cpu time spent up to now is       55.2 secs

     Computing kpt #:    66  of   220
     total cpu time spent up to now is       56.2 secs

     Computing kpt #:    67  of   220
     total cpu time spent up to now is       57.1 secs

     Computing kpt #:    68  of   220
     total cpu time spent up to now is       58.0 secs

     Computing kpt #:    69  of   220
     total cpu time spent up to now is       58.8 secs

     Computing kpt #:    70  of   220
     total cpu time spent up to now is       59.7 secs

     Computing kpt #:    71  of   220
     total cpu time spent up to now is       60.5 secs

     Computing kpt #:    72  of   220
     total cpu time spent up to now is       61.3 secs

     Computing kpt #:    73  of   220
     total cpu time spent up to now is       62.2 secs

     Computing kpt #:    74  of   220
     total cpu time spent up to now is       62.9 secs

     Computing kpt #:    75  of   220
     total cpu time spent up to now is       63.8 secs

     Computing kpt #:    76  of   220
     total cpu time spent up to now is       64.6 secs

     Computing kpt #:    77  of   220
     total cpu time spent up to now is       65.4 secs

     Computing kpt #:    78  of   220
     total cpu time spent up to now is       66.3 secs

     Computing kpt #:    79  of   220
     total cpu time spent up to now is       67.2 secs

     Computing kpt #:    80  of   220
     total cpu time spent up to now is       68.1 secs

     Computing kpt #:    81  of   220
     total cpu time spent up to now is       68.9 secs

     Computing kpt #:    82  of   220
     total cpu time spent up to now is       69.7 secs

     Computing kpt #:    83  of   220
     total cpu time spent up to now is       70.7 secs

     Computing kpt #:    84  of   220
     total cpu time spent up to now is       71.5 secs

     Computing kpt #:    85  of   220
     total cpu time spent up to now is       72.3 secs

     Computing kpt #:    86  of   220
     total cpu time spent up to now is       73.3 secs

     Computing kpt #:    87  of   220
     total cpu time spent up to now is       74.5 secs

     Computing kpt #:    88  of   220
     total cpu time spent up to now is       75.4 secs

     Computing kpt #:    89  of   220
     total cpu time spent up to now is       76.1 secs

     Computing kpt #:    90  of   220
     total cpu time spent up to now is       76.7 secs

     Computing kpt #:    91  of   220
     total cpu time spent up to now is       77.5 secs

     Computing kpt #:    92  of   220
     total cpu time spent up to now is       78.1 secs

     Computing kpt #:    93  of   220
     total cpu time spent up to now is       78.7 secs

     Computing kpt #:    94  of   220
     total cpu time spent up to now is       79.6 secs

     Computing kpt #:    95  of   220
     total cpu time spent up to now is       80.4 secs

     Computing kpt #:    96  of   220
     total cpu time spent up to now is       80.9 secs

     Computing kpt #:    97  of   220
     total cpu time spent up to now is       81.5 secs

     Computing kpt #:    98  of   220
     total cpu time spent up to now is       82.2 secs

     Computing kpt #:    99  of   220
     total cpu time spent up to now is       82.9 secs

     Computing kpt #:   100  of   220
     total cpu time spent up to now is       83.5 secs

     Computing kpt #:   101  of   220
     c_bands:  1 eigenvalues not converged
     total cpu time spent up to now is       84.5 secs

     Computing kpt #:   102  of   220
     c_bands:  1 eigenvalues not converged
     total cpu time spent up to now is       85.5 secs

     Computing kpt #:   103  of   220
     total cpu time spent up to now is       86.3 secs

     Computing kpt #:   104  of   220
     total cpu time spent up to now is       87.2 secs

     Computing kpt #:   105  of   220
     total cpu time spent up to now is       88.0 secs

     Computing kpt #:   106  of   220
     total cpu time spent up to now is       88.9 secs

     Computing kpt #:   107  of   220
     total cpu time spent up to now is       89.8 secs

     Computing kpt #:   108  of   220
     c_bands:  2 eigenvalues not converged
     total cpu time spent up to now is       90.7 secs

     Computing kpt #:   109  of   220
     total cpu time spent up to now is       91.6 secs

     Computing kpt #:   110  of   220
     total cpu time spent up to now is       92.5 secs

     Computing kpt #:   111  of   220
     total cpu time spent up to now is       93.3 secs

     Computing kpt #:   112  of   220
     total cpu time spent up to now is       94.0 secs

     Computing kpt #:   113  of   220
     total cpu time spent up to now is       94.8 secs

     Computing kpt #:   114  of   220
     total cpu time spent up to now is       95.8 secs

     Computing kpt #:   115  of   220
     c_bands:  1 eigenvalues not converged
     total cpu time spent up to now is       96.7 secs

     Computing kpt #:   116  of   220
     total cpu time spent up to now is       97.5 secs

     Computing kpt #:   117  of   220
     total cpu time spent up to now is       98.3 secs

     Computing kpt #:   118  of   220
     total cpu time spent up to now is       99.1 secs

     Computing kpt #:   119  of   220
     total cpu time spent up to now is       99.9 secs

     Computing kpt #:   120  of   220
     total cpu time spent up to now is      100.7 secs

     Computing kpt #:   121  of   220
     total cpu time spent up to now is      101.4 secs

     Computing kpt #:   122  of   220
     total cpu time spent up to now is      102.1 secs

     Computing kpt #:   123  of   220
     total cpu time spent up to now is      102.8 secs

     Computing kpt #:   124  of   220
     total cpu time spent up to now is      103.5 secs

     Computing kpt #:   125  of   220
     total cpu time spent up to now is      104.2 secs

     Computing kpt #:   126  of   220
     total cpu time spent up to now is      105.0 secs

     Computing kpt #:   127  of   220
     total cpu time spent up to now is      105.7 secs

     Computing kpt #:   128  of   220
     total cpu time spent up to now is      106.3 secs

     Computing kpt #:   129  of   220
     total cpu time spent up to now is      106.9 secs

     Computing kpt #:   130  of   220
     total cpu time spent up to now is      107.6 secs

     Computing kpt #:   131  of   220
     total cpu time spent up to now is      108.2 secs

     Computing kpt #:   132  of   220
     total cpu time spent up to now is      108.8 secs

     Computing kpt #:   133  of   220
     total cpu time spent up to now is      109.4 secs

     Computing kpt #:   134  of   220
     total cpu time spent up to now is      110.0 secs

     Computing kpt #:   135  of   220
     total cpu time spent up to now is      110.6 secs

     Computing kpt #:   136  of   220
     total cpu time spent up to now is      111.2 secs

     Computing kpt #:   137  of   220
     c_bands:  2 eigenvalues not converged
     total cpu time spent up to now is      112.3 secs

     Computing kpt #:   138  of   220
     total cpu time spent up to now is      113.2 secs

     Computing kpt #:   139  of   220
     total cpu time spent up to now is      114.0 secs

     Computing kpt #:   140  of   220
     total cpu time spent up to now is      114.7 secs

     Computing kpt #:   141  of   220
     total cpu time spent up to now is      115.5 secs

     Computing kpt #:   142  of   220
     total cpu time spent up to now is      116.4 secs

     Computing kpt #:   143  of   220
     c_bands:  1 eigenvalues not converged
     total cpu time spent up to now is      117.4 secs

     Computing kpt #:   144  of   220
     total cpu time spent up to now is      118.4 secs

     Computing kpt #:   145  of   220
     total cpu time spent up to now is      119.2 secs

     Computing kpt #:   146  of   220
     total cpu time spent up to now is      120.0 secs

     Computing kpt #:   147  of   220
     total cpu time spent up to now is      120.9 secs

     Computing kpt #:   148  of   220
     c_bands:  2 eigenvalues not converged
     total cpu time spent up to now is      121.8 secs

     Computing kpt #:   149  of   220
     c_bands:  1 eigenvalues not converged
     total cpu time spent up to now is      122.9 secs

     Computing kpt #:   150  of   220
     total cpu time spent up to now is      123.8 secs

     Computing kpt #:   151  of   220
     total cpu time spent up to now is      124.6 secs

     Computing kpt #:   152  of   220
     total cpu time spent up to now is      125.5 secs

     Computing kpt #:   153  of   220
     total cpu time spent up to now is      126.4 secs

     Computing kpt #:   154  of   220
     total cpu time spent up to now is      127.2 secs

     Computing kpt #:   155  of   220
     total cpu time spent up to now is      128.1 secs

     Computing kpt #:   156  of   220
     total cpu time spent up to now is      128.9 secs

     Computing kpt #:   157  of   220
     total cpu time spent up to now is      129.7 secs

     Computing kpt #:   158  of   220
     total cpu time spent up to now is      130.4 secs

     Computing kpt #:   159  of   220
     total cpu time spent up to now is      131.1 secs

     Computing kpt #:   160  of   220
     total cpu time spent up to now is      131.8 secs

     Computing kpt #:   161  of   220
     total cpu time spent up to now is      132.5 secs

     Computing kpt #:   162  of   220
     total cpu time spent up to now is      133.1 secs

     Computing kpt #:   163  of   220
     total cpu time spent up to now is      133.7 secs

     Computing kpt #:   164  of   220
     total cpu time spent up to now is      134.3 secs

     Computing kpt #:   165  of   220
     c_bands:  3 eigenvalues not converged
     total cpu time spent up to now is      135.3 secs

     Computing kpt #:   166  of   220
     total cpu time spent up to now is      136.3 secs

     Computing kpt #:   167  of   220
     total cpu time spent up to now is      137.1 secs

     Computing kpt #:   168  of   220
     c_bands:  1 eigenvalues not converged
     total cpu time spent up to now is      138.1 secs

     Computing kpt #:   169  of   220
     c_bands:  2 eigenvalues not converged
     total cpu time spent up to now is      139.0 secs

     Computing kpt #:   170  of   220
     c_bands:  2 eigenvalues not converged
     total cpu time spent up to now is      139.9 secs

     Computing kpt #:   171  of   220
     c_bands:  2 eigenvalues not converged
     total cpu time spent up to now is      141.1 secs

     Computing kpt #:   172  of   220
     c_bands:  2 eigenvalues not converged
     total cpu time spent up to now is      142.0 secs

     Computing kpt #:   173  of   220
     c_bands:  2 eigenvalues not converged
     total cpu time spent up to now is      143.0 secs

     Computing kpt #:   174  of   220
     c_bands:  2 eigenvalues not converged
     total cpu time spent up to now is      144.0 secs

     Computing kpt #:   175  of   220
     c_bands:  2 eigenvalues not converged
     total cpu time spent up to now is      145.0 secs

     Computing kpt #:   176  of   220
     total cpu time spent up to now is      145.9 secs

     Computing kpt #:   177  of   220
     total cpu time spent up to now is      146.7 secs

     Computing kpt #:   178  of   220
     total cpu time spent up to now is      147.5 secs

     Computing kpt #:   179  of   220
[...]
    -4.2371  -4.2371   1.0765   1.0765   1.7629   1.7629   2.1021   2.1021
     7.5162   7.5162   8.3235   8.3235

     occupation numbers 
     1.0000   1.0000   1.0000   1.0000   1.0000   1.0000   1.0000   1.0000
     1.0000   1.0000   1.0000   1.0000   1.0000   1.0000   1.0000   1.0000
     0.0000   0.0000   0.0000   0.0000

          k = 0.2250 0.4750 0.4750 (  2935 PWs)   bands (ev):

   -17.8619 -17.8619  -7.8987  -7.8987  -5.9184  -5.9184  -4.4101  -4.4101
    -4.2379  -4.2379   1.0692   1.0692   1.7514   1.7514   2.0910   2.0910
     7.4894   7.4894   8.3955   8.3955

     occupation numbers 
     1.0000   1.0000   1.0000   1.0000   1.0000   1.0000   1.0000   1.0000
     1.0000   1.0000   1.0000   1.0000   1.0000   1.0000   1.0000   1.0000
     0.0000   0.0000   0.0000   0.0000

          k = 0.2750 0.2750 0.2750 (  2935 PWs)   bands (ev):

   -17.8734 -17.8734  -7.9764  -7.9764  -5.8539  -5.8539  -4.2627  -4.2627
    -4.2380  -4.2380   1.2086   1.2086   2.0351   2.0351   2.0566   2.0566
     8.3195   8.3195   8.4189   8.4189

     occupation numbers 
     1.0000   1.0000   1.0000   1.0000   1.0000   1.0000   1.0000   1.0000
     1.0000   1.0000   1.0000   1.0000   1.0000   1.0000   1.0000   1.0000
     0.0000   0.0000   0.0000   0.0000

          k = 0.2750 0.2750 0.3250 (  2932 PWs)   bands (ev):

   -17.8709 -17.8709  -7.9614  -7.9614  -5.8656  -5.8656  -4.2846  -4.2846
    -4.2467  -4.2467   1.1717   1.1717   1.9554   1.9554   2.0667   2.0667
     8.1470   8.1470   8.4245   8.4247

     occupation numbers 
     1.0000   1.0000   1.0000   1.0000   1.0000   1.0000   1.0000   1.0000
     1.0000   1.0000   1.0000   1.0000   1.0000   1.0000   1.0000   1.0000
     0.0000   0.0000   0.0000   0.0000

          k = 0.2750 0.2750 0.3750 (  2931 PWs)   bands (ev):

   -17.8687 -17.8687  -7.9486  -7.9486  -5.8759  -5.8759  -4.3100  -4.3100
    -4.2466  -4.2466   1.1340   1.1340   1.8853   1.8853   2.0898   2.0898
     8.0067   8.0067   8.3829   8.3842

     occupation numbers 
     1.0000   1.0000   1.0000   1.0000   1.0000   1.0000   1.0000   1.0000
     1.0000   1.0000   1.0000   1.0000   1.0000   1.0000   1.0000   1.0000
     0.0000   0.0000   0.0000   0.0000

          k = 0.2750 0.2750 0.4250 (  2929 PWs)   bands (ev):

   -17.8671 -17.8671  -7.9392  -7.9392  -5.8835  -5.8835  -4.3288  -4.3288
    -4.2457  -4.2457   1.1034   1.1034   1.8384   1.8384   2.1087   2.1087
     7.9130   7.9130   8.3093   8.3099

     occupation numbers 
     1.0000   1.0000   1.0000   1.0000   1.0000   1.0000   1.0000   1.0000
     1.0000   1.0000   1.0000   1.0000   1.0000   1.0000   1.0000   1.0000
     0.0000   0.0000   0.0000   0.0000

          k = 0.2750 0.2750 0.4750 (  2933 PWs)   bands (ev):

   -17.8663 -17.8663  -7.9343  -7.9343  -5.8875  -5.8875  -4.3387  -4.3387
    -4.2451  -4.2451   1.0864   1.0864   1.8149   1.8149   2.1192   2.1192
     7.8664   7.8664   8.2612   8.2613

     occupation numbers 
     1.0000   1.0000   1.0000   1.0000   1.0000   1.0000   1.0000   1.0000
     1.0000   1.0000   1.0000   1.0000   1.0000   1.0000   1.0000   1.0000
     0.0000   0.0000   0.0000   0.0000

          k = 0.2750 0.3250 0.3250 (  2937 PWs)   bands (ev):

   -17.8683 -17.8683  -7.9456  -7.9456  -5.8774  -5.8774  -4.3003  -4.3003
    -4.2612  -4.2612   1.1364   1.1364   1.9115   1.9115   2.0263   2.0263
     8.0504   8.0504   8.4573   8.4573

     occupation numbers 
     1.0000   1.0000   1.0000   1.0000   1.0000   1.0000   1.0000   1.0000
     1.0000   1.0000   1.0000   1.0000   1.0000   1.0000   1.0000   1.0000
     0.0000   0.0000   0.0000   0.0000

          k = 0.2750 0.3250 0.3750 (  2934 PWs)   bands (ev):

   -17.8662 -17.8662  -7.9321  -7.9321  -5.8878  -5.8878  -4.3237  -4.3237
    -4.2627  -4.2627   1.1011   1.1011   1.8494   1.8494   2.0272   2.0272
     7.9601   7.9601   8.4350   8.4350

     occupation numbers 
     1.0000   1.0000   1.0000   1.0000   1.0000   1.0000   1.0000   1.0000
     1.0000   1.0000   1.0000   1.0000   1.0000   1.0000   1.0000   1.0000
     0.0000   0.0000   0.0000   0.0000

          k = 0.2750 0.3250 0.4250 (  2934 PWs)   bands (ev):

   -17.8646 -17.8646  -7.9221  -7.9221  -5.8954  -5.8954  -4.3421  -4.3421
    -4.2618  -4.2618   1.0727   1.0727   1.8027   1.8027   2.0348   2.0348
     7.9028   7.9028   8.3870   8.3870

     occupation numbers 
     1.0000   1.0000   1.0000   1.0000   1.0000   1.0000   1.0000   1.0000
     1.0000   1.0000   1.0000   1.0000   1.0000   1.0000   1.0000   1.0000
     0.0000   0.0000   0.0000   0.0000

          k = 0.2750 0.3250 0.4750 (  2933 PWs)   bands (ev):

   -17.8638 -17.8638  -7.9169  -7.9169  -5.8995  -5.8995  -4.3520  -4.3520
    -4.2611  -4.2611   1.0569   1.0569   1.7786   1.7786   2.0399   2.0399
     7.8765   7.8765   8.3473   8.3473

     occupation numbers 
     1.0000   1.0000   1.0000   1.0000   1.0000   1.0000   1.0000   1.0000
     1.0000   1.0000   1.0000   1.0000   1.0000   1.0000   1.0000   1.0000
     0.0000   0.0000   0.0000   0.0000

          k = 0.2750 0.3750 0.3750 (  2937 PWs)   bands (ev):

   -17.8641 -17.8641  -7.9179  -7.9179  -5.8982  -5.8982  -4.3435  -4.3435
    -4.2674  -4.2674   1.0688   1.0688   1.8039   1.8039   1.9977   1.9977
     7.9078   7.9078   8.4552   8.4552

     occupation numbers 
     1.0000   1.0000   1.0000   1.0000   1.0000   1.0000   1.0000   1.0000
     1.0000   1.0000   1.0000   1.0000   1.0000   1.0000   1.0000   1.0000
     0.0000   0.0000   0.0000   0.0000

          k = 0.2750 0.3750 0.4250 (  2942 PWs)   bands (ev):

   -17.8625 -17.8625  -7.9074  -7.9074  -5.9060  -5.9060  -4.3603  -4.3603
    -4.2679  -4.2679   1.0431   1.0431   1.7651   1.7651   1.9864   1.9864
     7.8767   7.8767   8.4565   8.4565

     occupation numbers 
     1.0000   1.0000   1.0000   1.0000   1.0000   1.0000   1.0000   1.0000
     1.0000   1.0000   1.0000   1.0000   1.0000   1.0000   1.0000   1.0000
     0.0000   0.0000   0.0000   0.0000

          k = 0.2750 0.3750 0.4750 (  2942 PWs)   bands (ev):

   -17.8617 -17.8617  -7.9019  -7.9019  -5.9102  -5.9102  -4.3695  -4.3695
    -4.2676  -4.2676   1.0290   1.0290   1.7438   1.7438   1.9828   1.9828
     7.8644   7.8644   8.4472   8.4472

     occupation numbers 
     1.0000   1.0000   1.0000   1.0000   1.0000   1.0000   1.0000   1.0000
     1.0000   1.0000   1.0000   1.0000   1.0000   1.0000   1.0000   1.0000
     0.0000   0.0000   0.0000   0.0000

          k = 0.2750 0.4250 0.4250 (  2946 PWs)   bands (ev):

   -17.8610 -17.8610  -7.8966  -7.8966  -5.9140  -5.9140  -4.3760  -4.3760
    -4.2693  -4.2693   1.0200   1.0200   1.7337   1.7337   1.9592   1.9592
     7.8614   7.8614   8.5217   8.5217

     occupation numbers 
     1.0000   1.0000   1.0000   1.0000   1.0000   1.0000   1.0000   1.0000
     1.0000   1.0000   1.0000   1.0000   1.0000   1.0000   1.0000   1.0000
     0.0000   0.0000   0.0000   0.0000

          k = 0.2750 0.4250 0.4750 (  2948 PWs)   bands (ev):

   -17.8602 -17.8602  -7.8909  -7.8909  -5.9182  -5.9182  -4.3847  -4.3847
    -4.2694  -4.2694   1.0073   1.0073   1.7159   1.7159   1.9472   1.9472
     7.8561   7.8561   8.5665   8.5665

     occupation numbers 
     1.0000   1.0000   1.0000   1.0000   1.0000   1.0000   1.0000   1.0000
     1.0000   1.0000   1.0000   1.0000   1.0000   1.0000   1.0000   1.0000
     0.0000   0.0000   0.0000   0.0000

          k = 0.2750 0.4750 0.4750 (  2949 PWs)   bands (ev):

   -17.8594 -17.8594  -7.8851  -7.8851  -5.9225  -5.9225  -4.3933  -4.3933
    -4.2697  -4.2697   0.9954   0.9954   1.7004   1.7004   1.9304   1.9304
     7.8535   7.8535   8.6909   8.6909

     occupation numbers 
     1.0000   1.0000   1.0000   1.0000   1.0000   1.0000   1.0000   1.0000
     1.0000   1.0000   1.0000   1.0000   1.0000   1.0000   1.0000   1.0000
     0.0000   0.0000   0.0000   0.0000

          k = 0.3250 0.3250 0.3250 (  2944 PWs)   bands (ev):

   -17.8658 -17.8658  -7.9298  -7.9298  -5.8883  -5.8883  -4.2954  -4.2954
    -4.2939  -4.2939   1.0960   1.0960   1.8851   1.8851   1.9495   1.9495
     8.0560   8.0560   8.5856   8.5856

     occupation numbers 
     1.0000   1.0000   1.0000   1.0000   1.0000   1.0000   1.0000   1.0000
     1.0000   1.0000   1.0000   1.0000   1.0000   1.0000   1.0000   1.0000
     0.0000   0.0000   0.0000   0.0000

          k = 0.3250 0.3250 0.3750 (  2939 PWs)   bands (ev):

   -17.8637 -17.8637  -7.9163  -7.9163  -5.8979  -5.8979  -4.3221  -4.3221
    -4.2900  -4.2900   1.0576   1.0576   1.8202   1.8202   1.9358   1.9358
     8.0367   8.0367   8.5955   8.5955

     occupation numbers 
     1.0000   1.0000   1.0000   1.0000   1.0000   1.0000   1.0000   1.0000
     1.0000   1.0000   1.0000   1.0000   1.0000   1.0000   1.0000   1.0000
     0.0000   0.0000   0.0000   0.0000

          k = 0.3250 0.3250 0.4250 (  2941 PWs)   bands (ev):

   -17.8622 -17.8622  -7.9063  -7.9063  -5.9050  -5.9050  -4.3416  -4.3416
    -4.2866  -4.2866   1.0276   1.0276   1.7678   1.7678   1.9356   1.9356
     8.0334   8.0334   8.5404   8.5404

     occupation numbers 
     1.0000   1.0000   1.0000   1.0000   1.0000   1.0000   1.0000   1.0000
     1.0000   1.0000   1.0000   1.0000   1.0000   1.0000   1.0000   1.0000
     0.0000   0.0000   0.0000   0.0000

          k = 0.3250 0.3250 0.4750 (  2946 PWs)   bands (ev):

   -17.8614 -17.8614  -7.9010  -7.9010  -5.9089  -5.9089  -4.3517  -4.3517
    -4.2848  -4.2848   1.0112   1.0112   1.7408   1.7408   1.9364   1.9364
     8.0410   8.0410   8.4805   8.4805

     occupation numbers 
     1.0000   1.0000   1.0000   1.0000   1.0000   1.0000   1.0000   1.0000
     1.0000   1.0000   1.0000   1.0000   1.0000   1.0000   1.0000   1.0000
     0.0000   0.0000   0.0000   0.0000

          k = 0.3250 0.3750 0.3750 (  2945 PWs)   bands (ev):

   -17.8616 -17.8616  -7.9026  -7.9026  -5.9068  -5.9068  -4.3342  -4.3342
    -4.2989  -4.2989   1.0176   1.0176   1.7741   1.7741   1.8872   1.8872
     8.0749   8.0749   8.6485   8.6485

     occupation numbers 
     1.0000   1.0000   1.0000   1.0000   1.0000   1.0000   1.0000   1.0000
     1.0000   1.0000   1.0000   1.0000   1.0000   1.0000   1.0000   1.0000
     0.0000   0.0000   0.0000   0.0000

          k = 0.3250 0.3750 0.4250 (  2952 PWs)   bands (ev):

   -17.8601 -17.8601  -7.8927  -7.8927  -5.9136  -5.9136  -4.3502  -4.3502
    -4.2977  -4.2977   0.9871   0.9871   1.7288   1.7288   1.8676   1.8676
     8.1126   8.1126   8.6451   8.6451

     occupation numbers 
     1.0000   1.0000   1.0000   1.0000   1.0000   1.0000   1.0000   1.0000
     1.0000   1.0000   1.0000   1.0000   1.0000   1.0000   1.0000   1.0000
     0.0000   0.0000   0.0000   0.0000

          k = 0.3250 0.3750 0.4750 (  2950 PWs)   bands (ev):

   -17.8593 -17.8593  -7.8874  -7.8874  -5.9172  -5.9172  -4.3593  -4.3593
    -4.2962  -4.2962   0.9705   0.9705   1.7033   1.7033   1.8603   1.8603
     8.1436   8.1436   8.6132   8.6132

     occupation numbers 
     1.0000   1.0000   1.0000   1.0000   1.0000   1.0000   1.0000   1.0000
     1.0000   1.0000   1.0000   1.0000   1.0000   1.0000   1.0000   1.0000
     0.0000   0.0000   0.0000   0.0000

          k = 0.3250 0.4250 0.4250 (  2948 PWs)   bands (ev):

   -17.8585 -17.8585  -7.8827  -7.8827  -5.9200  -5.9200  -4.3625  -4.3625
    -4.2993  -4.2993   0.9565   0.9565   1.6927   1.6927   1.8296   1.8296
     8.1713   8.1713   8.7148   8.7148

     occupation numbers 
     1.0000   1.0000   1.0000   1.0000   1.0000   1.0000   1.0000   1.0000
     1.0000   1.0000   1.0000   1.0000   1.0000   1.0000   1.0000   1.0000
     0.0000   0.0000   0.0000   0.0000

          k = 0.3250 0.4250 0.4750 (  2952 PWs)   bands (ev):

   -17.8577 -17.8577  -7.8774  -7.8774  -5.9235  -5.9235  -4.3701  -4.3701
    -4.2987  -4.2987   0.9401   0.9401   1.6711   1.6711   1.8132   1.8132
     8.2087   8.2087   8.7481   8.7481

     occupation numbers 
     1.0000   1.0000   1.0000   1.0000   1.0000   1.0000   1.0000   1.0000
     1.0000   1.0000   1.0000   1.0000   1.0000   1.0000   1.0000   1.0000
     0.0000   0.0000   0.0000   0.0000

          k = 0.3250 0.4750 0.4750 (  2945 PWs)   bands (ev):

   -17.8569 -17.8569  -7.8721  -7.8721  -5.9268  -5.9268  -4.3771  -4.3771
    -4.2986  -4.2986   0.9239   0.9239   1.6522   1.6522   1.7916   1.7916
     8.2440   8.2440   8.8596   8.8597

     occupation numbers 
     1.0000   1.0000   1.0000   1.0000   1.0000   1.0000   1.0000   1.0000
     1.0000   1.0000   1.0000   1.0000   1.0000   1.0000   1.0000   1.0000
     0.0000   0.0000   0.0000   0.0000

          k = 0.3750 0.3750 0.3750 (  2941 PWs)   bands (ev):

   -17.8595 -17.8595  -7.8896  -7.8896  -5.9145  -5.9145  -4.3302  -4.3302
    -4.3209  -4.3209   0.9721   0.9721   1.7357   1.7357   1.8137   1.8137
     8.1929   8.1929   8.7669   8.7669

     occupation numbers 
     1.0000   1.0000   1.0000   1.0000   1.0000   1.0000   1.0000   1.0000
     1.0000   1.0000   1.0000   1.0000   1.0000   1.0000   1.0000   1.0000
     0.0000   0.0000   0.0000   0.0000

          k = 0.3750 0.3750 0.4250 (  2946 PWs)   bands (ev):

   -17.8580 -17.8580  -7.8800  -7.8800  -5.9204  -5.9204  -4.3451  -4.3451
    -4.3186  -4.3186   0.9379   0.9379   1.6922   1.6922   1.7798   1.7798
     8.2928   8.2928   8.7978   8.7978

     occupation numbers 
     1.0000   1.0000   1.0000   1.0000   1.0000   1.0000   1.0000   1.0000
     1.0000   1.0000   1.0000   1.0000   1.0000   1.0000   1.0000   1.0000
     0.0000   0.0000   0.0000   0.0000

          k = 0.3750 0.3750 0.4750 (  2951 PWs)   bands (ev):

   -17.8572 -17.8572  -7.8749  -7.8749  -5.9235  -5.9235  -4.3544  -4.3544
    -4.3157  -4.3157   0.9196   0.9196   1.6655   1.6655   1.7669   1.7669
     8.3676   8.3676   8.7675   8.7675

     occupation numbers 
     1.0000   1.0000   1.0000   1.0000   1.0000   1.0000   1.0000   1.0000
     1.0000   1.0000   1.0000   1.0000   1.0000   1.0000   1.0000   1.0000
     0.0000   0.0000   0.0000   0.0000

          k = 0.3750 0.4250 0.4250 (  2943 PWs)   bands (ev):

   -17.8565 -17.8565  -7.8707  -7.8707  -5.9255  -5.9255  -4.3510  -4.3510
    -4.3236  -4.3236   0.9014   0.9014   1.6562   1.6562   1.7291   1.7291
     8.4319   8.4319   8.8857   8.8857

     occupation numbers 
     1.0000   1.0000   1.0000   1.0000   1.0000   1.0000   1.0000   1.0000
     1.0000   1.0000   1.0000   1.0000   1.0000   1.0000   1.0000   1.0000
     0.0000   0.0000   0.0000   0.0000

          k = 0.3750 0.4250 0.4750 (  2947 PWs)   bands (ev):

   -17.8557 -17.8557  -7.8657  -7.8657  -5.9283  -5.9283  -4.3580  -4.3580
    -4.3222  -4.3222   0.8820   0.8820   1.6325   1.6325   1.7084   1.7084
     8.5247   8.5247   8.9102   8.9102

     occupation numbers 
     1.0000   1.0000   1.0000   1.0000   1.0000   1.0000   1.0000   1.0000
     1.0000   1.0000   1.0000   1.0000   1.0000   1.0000   1.0000   1.0000
     0.0000   0.0000   0.0000   0.0000

          k = 0.3750 0.4750 0.4750 (  2944 PWs)   bands (ev):

   -17.8549 -17.8549  -7.8609  -7.8609  -5.9309  -5.9309  -4.3631  -4.3631
    -4.3222  -4.3222   0.8621   0.8621   1.6115   1.6115   1.6825   1.6825
     8.6134   8.6134   9.0155   9.0155

     occupation numbers 
     1.0000   1.0000   1.0000   1.0000   1.0000   1.0000   1.0000   1.0000
     1.0000   1.0000   1.0000   1.0000   1.0000   1.0000   1.0000   1.0000
     0.0000   0.0000   0.0000   0.0000

          k = 0.4250 0.4250 0.4250 (  2950 PWs)   bands (ev):

   -17.8550 -17.8550  -7.8619  -7.8619  -5.9298  -5.9298  -4.3452  -4.3452
    -4.3382  -4.3382   0.8608   0.8608   1.6248   1.6248   1.6651   1.6651
     8.6292   8.6292   9.0070   9.0070

     occupation numbers 
     1.0000   1.0000   1.0000   1.0000   1.0000   1.0000   1.0000   1.0000
     1.0000   1.0000   1.0000   1.0000   1.0000   1.0000   1.0000   1.0000
     0.0000   0.0000   0.0000   0.0000

          k = 0.4250 0.4250 0.4750 (  2944 PWs)   bands (ev):

   -17.8542 -17.8542  -7.8572  -7.8572  -5.9321  -5.9321  -4.3511  -4.3511
    -4.3367  -4.3367   0.8392   0.8392   1.6022   1.6022   1.6388   1.6388
     8.7558   8.7558   9.0661   9.0661

     occupation numbers 
     1.0000   1.0000   1.0000   1.0000   1.0000   1.0000   1.0000   1.0000
     1.0000   1.0000   1.0000   1.0000   1.0000   1.0000   1.0000   1.0000
     0.0000   0.0000   0.0000   0.0000

          k = 0.4250 0.4750 0.4750 (  2944 PWs)   bands (ev):

   -17.8534 -17.8534  -7.8527  -7.8527  -5.9342  -5.9342  -4.3529  -4.3529
    -4.3387  -4.3387   0.8165   0.8165   1.5820   1.5820   1.6079   1.6079
     8.8820   8.8820   9.1959   9.1959

     occupation numbers 
     1.0000   1.0000   1.0000   1.0000   1.0000   1.0000   1.0000   1.0000
     1.0000   1.0000   1.0000   1.0000   1.0000   1.0000   1.0000   1.0000
     0.0000   0.0000   0.0000   0.0000

          k = 0.4750 0.4750 0.4750 (  2944 PWs)   bands (ev):

   -17.8526 -17.8526  -7.8484  -7.8484  -5.9359  -5.9359  -4.3479  -4.3479
    -4.3468  -4.3468   0.7924   0.7924   1.5658   1.5658   1.5709   1.5709
     9.0102   9.0102   9.3642   9.3642

     occupation numbers 
     1.0000   1.0000   1.0000   1.0000   1.0000   1.0000   1.0000   1.0000
     1.0000   1.0000   1.0000   1.0000   1.0000   1.0000   1.0000   1.0000
     0.0000   0.0000   0.0000   0.0000

     highest occupied, lowest unoccupied level (ev):     2.7244    6.0712

     Writing output data file ./CsIbcc.save/

     init_run     :      1.95s CPU      1.47s WALL (       1 calls)
     electrons    :    330.42s CPU    182.66s WALL (       1 calls)

     Called by init_run:
     wfcinit      :      0.00s CPU      0.01s WALL (       1 calls)
     wfcinit:atom :      0.05s CPU      0.02s WALL (     220 calls)
     wfcinit:wfcr :     16.36s CPU      9.20s WALL (     220 calls)
     potinit      :      0.15s CPU      0.20s WALL (       1 calls)
     hinit0       :      1.31s CPU      0.82s WALL (       1 calls)

     Called by electrons:
     c_bands      :    330.41s CPU    182.65s WALL (       1 calls)
     v_of_rho     :      0.07s CPU      0.04s WALL (       1 calls)
     v_h          :      0.01s CPU      0.01s WALL (       1 calls)
     v_xc         :      0.05s CPU      0.03s WALL (       1 calls)
     newd         :      0.46s CPU      0.41s WALL (       1 calls)

     Called by c_bands:
     init_us_2    :      0.13s CPU      0.10s WALL (     220 calls)
     cegterg      :    297.87s CPU    154.43s WALL (    1014 calls)

     Called by sum_band:

     Called by *egterg:
     cdiaghg      :     23.67s CPU     11.94s WALL (   18830 calls)
     cegterg:over :     13.70s CPU      6.93s WALL (   18610 calls)
     cegterg:upda :      1.35s CPU      0.69s WALL (   18610 calls)
     cegterg:last :      2.04s CPU      1.04s WALL (    9218 calls)
     h_psi        :    234.48s CPU    123.38s WALL (   19844 calls)
     s_psi        :     32.85s CPU     16.57s WALL (   19844 calls)
     g_psi        :      0.43s CPU      0.22s WALL (   18610 calls)

     Called by h_psi:
     h_psi:calbec :     10.68s CPU      5.53s WALL (   19844 calls)
     vloc_psi     :    204.79s CPU    108.24s WALL (   19844 calls)
     add_vuspsi   :     18.50s CPU      9.36s WALL (   19844 calls)

     General routines
     calbec       :     10.54s CPU      5.47s WALL (   19844 calls)
     fft          :      0.12s CPU      0.08s WALL (      19 calls)
     ffts         :      0.02s CPU      0.01s WALL (       4 calls)
     fftw         :    196.82s CPU    104.09s WALL (  738100 calls)
     interpolate  :      0.04s CPU      0.03s WALL (       4 calls)
     davcio       :      0.08s CPU      0.06s WALL (     440 calls)

     Parallel routines
     fft_scatt_xy :      7.27s CPU      3.80s WALL (  738123 calls)
     fft_scatt_yz :    135.88s CPU     72.19s WALL (  738123 calls)

     PWSCF        :   5m41.09s CPU   3m22.86s WALL


   This run was terminated on:  16: 9:37  31Jan2021            

=------------------------------------------------------------------------------=
   JOB DONE.
=------------------------------------------------------------------------------=
