
     Program PWSCF v.6.4.1 starts on 23Jan2021 at 18:48:56 

     This program is part of the open-source Quantum ESPRESSO suite
     for quantum simulation of materials; please cite
         "P. Giannozzi et al., J. Phys.:Condens. Matter 21 395502 (2009);
         "P. Giannozzi et al., J. Phys.:Condens. Matter 29 465901 (2017);
          URL http://www.quantum-espresso.org", 
     in publications or presentations arising from this work. More details at
     http://www.quantum-espresso.org/quote

     Parallel version (MPI & OpenMP), running on      48 processor cores
     Number of MPI processes:                24
     Threads/MPI process:                     2

     MPI processes distributed on     1 nodes
     R & G space division:  proc/nbgrp/npool/nimage =      24
     Waiting for input...
     Reading input from standard input

     Current dimensions of program PWSCF are:
     Max number of different atomic species (ntypx) = 10
     Max number of k-points (npk) =  40000
     Max angular momentum in pseudopotentials (lmaxx) =  3
               file Sn.rel-pbesol-dn-kjpaw_psl.1.0.0.UPF: wavefunction(s)  5S 5P 5P 4D 4D renormalized
               file I.rel-pbesol-n-kjpaw_psl.1.0.0.UPF: wavefunction(s)  5S renormalized

     Subspace diagonalization in iterative solution of the eigenvalue problem:
     one sub-group per band group will be used
     scalapack distributed-memory algorithm (size of sub-group:  3*  3 procs)

 
     Parallelization info
     --------------------
     sticks:   dense  smooth     PW     G-vecs:    dense   smooth      PW
     Min         166     109     30                 7840     4259     616
     Max         167     110     32                 7843     4264     617
     Sum        3985    2637    733               188183   102255   14795
 

     Title: 
     SnI2                                                                       


     bravais-lattice index     =            1
     lattice parameter (alat)  =      14.4199  a.u.
     unit-cell volume          =    2998.4083 (a.u.)^3
     number of atoms/cell      =            6
     number of atomic types    =            2
     number of electrons       =        56.00
     number of Kohn-Sham states=           56
     kinetic-energy cutoff     =      40.0000  Ry
     charge density cutoff     =     240.0000  Ry
     convergence threshold     =      1.0E-06
     mixing beta               =       0.3500
     number of iterations used =            8  plain     mixing
     Exchange-correlation      = SLA PW PSX PSC ( 1  4 10  8 0 0)
     Non magnetic calculation with spin-orbit


     celldm(1)=  14.419945  celldm(2)=   0.000000  celldm(3)=   0.000000
     celldm(4)=   0.000000  celldm(5)=   0.000000  celldm(6)=   0.000000

     crystal axes: (cart. coord. in units of alat)
               a(1) = (   1.000000   0.000000   0.000000 )  
               a(2) = (   0.000000   1.000000   0.000000 )  
               a(3) = (   0.000000   0.000000   1.000000 )  

     reciprocal axes: (cart. coord. in units 2 pi/alat)
               b(1) = (  1.000000  0.000000  0.000000 )  
               b(2) = (  0.000000  1.000000  0.000000 )  
               b(3) = (  0.000000  0.000000  1.000000 )  


     PseudoPot. # 1 for Sn read from file:
     /marconi_scratch/userexternal/cmalosso/degironcoli/pseudo/Sn.rel-pbesol-dn-kjpaw_psl.1.0.0.UPF
     MD5 check sum: e69eff64f15ae39ad43ef58bacbfdf88
     Pseudo is Projector augmented-wave + core cor, Zval = 14.0
     Generated using "atomic" code by A. Dal Corso v.6.3
     Shape of augmentation charge: PSQ
     Using radial grid of 1243 points, 10 beta functions with: 
                l(1) =   0
                l(2) =   0
                l(3) =   1
                l(4) =   1
                l(5) =   1
                l(6) =   1
                l(7) =   2
                l(8) =   2
                l(9) =   2
               l(10) =   2
     Q(r) pseudized with 0 coefficients 


     PseudoPot. # 2 for I  read from file:
     /marconi_scratch/userexternal/cmalosso/degironcoli/pseudo/I.rel-pbesol-n-kjpaw_psl.1.0.0.UPF
     MD5 check sum: 4478c427bd443f303eca1937a163b991
     Pseudo is Projector augmented-wave + core cor, Zval =  7.0
     Generated using "atomic" code by A. Dal Corso v.6.3
     Shape of augmentation charge: PSQ
     Using radial grid of 1247 points, 10 beta functions with: 
                l(1) =   0
                l(2) =   0
                l(3) =   1
                l(4) =   1
                l(5) =   1
                l(6) =   1
                l(7) =   2
                l(8) =   2
                l(9) =   2
               l(10) =   2
     Q(r) pseudized with 0 coefficients 


     atomic species   valence    mass     pseudopotential
        Sn            14.00   118.70000     Sn( 1.00)
        I              7.00   126.90000     I ( 1.00)

     16 Sym. Ops., with inversion, found ( 8 have fractional translation)


                                    s                        frac. trans.

      isym =  1     identity                                     

 cryst.   s( 1) = (     1          0          0      )
                  (     0          1          0      )
                  (     0          0          1      )

 cart.    s( 1) = (  1.0000000  0.0000000  0.0000000 )
                  (  0.0000000  1.0000000  0.0000000 )
                  (  0.0000000  0.0000000  1.0000000 )


      isym =  2     180 deg rotation - cart. axis [0,0,1]        

 cryst.   s( 2) = (    -1          0          0      )
                  (     0         -1          0      )
                  (     0          0          1      )

 cart.    s( 2) = ( -1.0000000  0.0000000  0.0000000 )
                  (  0.0000000 -1.0000000  0.0000000 )
                  (  0.0000000  0.0000000  1.0000000 )


      isym =  3     180 deg rotation - cart. axis [0,1,0]        

 cryst.   s( 3) = (    -1          0          0      )    f =(  0.5000000 )
                  (     0          1          0      )       ( -0.5000000 )
                  (     0          0         -1      )       (  0.5000000 )

 cart.    s( 3) = ( -1.0000000  0.0000000  0.0000000 )    f =(  0.5000000 )
                  (  0.0000000  1.0000000  0.0000000 )       ( -0.5000000 )
                  (  0.0000000  0.0000000 -1.0000000 )       (  0.5000000 )


      isym =  4     180 deg rotation - cart. axis [1,0,0]        

 cryst.   s( 4) = (     1          0          0      )    f =( -0.5000000 )
                  (     0         -1          0      )       (  0.5000000 )
                  (     0          0         -1      )       (  0.5000000 )

 cart.    s( 4) = (  1.0000000  0.0000000  0.0000000 )    f =( -0.5000000 )
                  (  0.0000000 -1.0000000  0.0000000 )       (  0.5000000 )
                  (  0.0000000  0.0000000 -1.0000000 )       (  0.5000000 )


      isym =  5     180 deg rotation - cart. axis [1,1,0]        

 cryst.   s( 5) = (     0          1          0      )
                  (     1          0          0      )
                  (     0          0         -1      )

 cart.    s( 5) = (  0.0000000  1.0000000  0.0000000 )
                  (  1.0000000  0.0000000  0.0000000 )
                  (  0.0000000  0.0000000 -1.0000000 )


      isym =  6     180 deg rotation - cart. axis [1,-1,0]       

 cryst.   s( 6) = (     0         -1          0      )
                  (    -1          0          0      )
                  (     0          0         -1      )

 cart.    s( 6) = (  0.0000000 -1.0000000  0.0000000 )
                  ( -1.0000000  0.0000000  0.0000000 )
                  (  0.0000000  0.0000000 -1.0000000 )


      isym =  7      90 deg rotation - cart. axis [0,0,-1]       

 cryst.   s( 7) = (     0         -1          0      )    f =( -0.5000000 )
                  (     1          0          0      )       (  0.5000000 )
                  (     0          0          1      )       ( -0.5000000 )

 cart.    s( 7) = (  0.0000000  1.0000000  0.0000000 )    f =( -0.5000000 )
                  ( -1.0000000  0.0000000  0.0000000 )       (  0.5000000 )
                  (  0.0000000  0.0000000  1.0000000 )       ( -0.5000000 )


      isym =  8      90 deg rotation - cart. axis [0,0,1]        

 cryst.   s( 8) = (     0          1          0      )    f =(  0.5000000 )
                  (    -1          0          0      )       ( -0.5000000 )
                  (     0          0          1      )       ( -0.5000000 )

 cart.    s( 8) = (  0.0000000 -1.0000000  0.0000000 )    f =(  0.5000000 )
                  (  1.0000000  0.0000000  0.0000000 )       ( -0.5000000 )
                  (  0.0000000  0.0000000  1.0000000 )       ( -0.5000000 )


      isym =  9     inversion                                    

 cryst.   s( 9) = (    -1          0          0      )
                  (     0         -1          0      )
                  (     0          0         -1      )

 cart.    s( 9) = ( -1.0000000  0.0000000  0.0000000 )
                  (  0.0000000 -1.0000000  0.0000000 )
                  (  0.0000000  0.0000000 -1.0000000 )


      isym = 10     inv. 180 deg rotation - cart. axis [0,0,1]   

 cryst.   s(10) = (     1          0          0      )
                  (     0          1          0      )
                  (     0          0         -1      )

 cart.    s(10) = (  1.0000000  0.0000000  0.0000000 )
                  (  0.0000000  1.0000000  0.0000000 )
                  (  0.0000000  0.0000000 -1.0000000 )


      isym = 11     inv. 180 deg rotation - cart. axis [0,1,0]   

 cryst.   s(11) = (     1          0          0      )    f =( -0.5000000 )
                  (     0         -1          0      )       (  0.5000000 )
                  (     0          0          1      )       ( -0.5000000 )

 cart.    s(11) = (  1.0000000  0.0000000  0.0000000 )    f =( -0.5000000 )
                  (  0.0000000 -1.0000000  0.0000000 )       (  0.5000000 )
                  (  0.0000000  0.0000000  1.0000000 )       ( -0.5000000 )


      isym = 12     inv. 180 deg rotation - cart. axis [1,0,0]   

 cryst.   s(12) = (    -1          0          0      )    f =(  0.5000000 )
                  (     0          1          0      )       ( -0.5000000 )
                  (     0          0          1      )       ( -0.5000000 )

 cart.    s(12) = ( -1.0000000  0.0000000  0.0000000 )    f =(  0.5000000 )
                  (  0.0000000  1.0000000  0.0000000 )       ( -0.5000000 )
                  (  0.0000000  0.0000000  1.0000000 )       ( -0.5000000 )


      isym = 13     inv. 180 deg rotation - cart. axis [1,1,0]   

 cryst.   s(13) = (     0         -1          0      )
                  (    -1          0          0      )
                  (     0          0          1      )

 cart.    s(13) = (  0.0000000 -1.0000000  0.0000000 )
                  ( -1.0000000  0.0000000  0.0000000 )
                  (  0.0000000  0.0000000  1.0000000 )


      isym = 14     inv. 180 deg rotation - cart. axis [1,-1,0]  

 cryst.   s(14) = (     0          1          0      )
                  (     1          0          0      )
                  (     0          0          1      )

 cart.    s(14) = (  0.0000000  1.0000000  0.0000000 )
                  (  1.0000000  0.0000000  0.0000000 )
                  (  0.0000000  0.0000000  1.0000000 )


      isym = 15     inv.  90 deg rotation - cart. axis [0,0,-1]  

 cryst.   s(15) = (     0          1          0      )    f =(  0.5000000 )
                  (    -1          0          0      )       ( -0.5000000 )
                  (     0          0         -1      )       (  0.5000000 )

 cart.    s(15) = (  0.0000000 -1.0000000  0.0000000 )    f =(  0.5000000 )
                  (  1.0000000  0.0000000  0.0000000 )       ( -0.5000000 )
                  (  0.0000000  0.0000000 -1.0000000 )       (  0.5000000 )


      isym = 16     inv.  90 deg rotation - cart. axis [0,0,1]   

 cryst.   s(16) = (     0         -1          0      )    f =( -0.5000000 )
                  (     1          0          0      )       (  0.5000000 )
                  (     0          0         -1      )       (  0.5000000 )

 cart.    s(16) = (  0.0000000  1.0000000  0.0000000 )    f =( -0.5000000 )
                  ( -1.0000000  0.0000000  0.0000000 )       (  0.5000000 )
                  (  0.0000000  0.0000000 -1.0000000 )       (  0.5000000 )


     double point group D_4h(4/mmm)
     there are 14 classes and  4 irreducible representations
     the character table:

       E     -E    2C4   -2C4   C2    2C2' 2C2'' i     -i    2S4   -2S4   s_h 
                               -C2   -2C2' -2C2'                         -s_h 
G_6+   2.00 -2.00  1.41 -1.41  0.00  0.00  0.00  2.00 -2.00  1.41 -1.41  0.00
G_7+   2.00 -2.00 -1.41  1.41  0.00  0.00  0.00  2.00 -2.00 -1.41  1.41  0.00
G_6-   2.00 -2.00  1.41 -1.41  0.00  0.00  0.00 -2.00  2.00 -1.41  1.41  0.00
G_7-   2.00 -2.00 -1.41  1.41  0.00  0.00  0.00 -2.00  2.00  1.41 -1.41  0.00

        2s_v  2s_d
       -2s_v -2s_d
G_6+   0.00  0.00
G_7+   0.00  0.00
G_6-   0.00  0.00
G_7-   0.00  0.00

     the symmetry operations in each class and the name of the first element:

     E             1
          identity                                               
     -E           -1
          identity E                                             
     2C4           7    8
           90 deg rotation - cart. axis [0,0,-1]                 
     -2C4         -7   -8
           90 deg rotation - cart. axis [0,0,-1] E               
      C2  -C2      2   -2
          180 deg rotation - cart. axis [0,0,1]                  
      2C2'-2C2'    3   -3    4   -4
          180 deg rotation - cart. axis [0,1,0]                  
     2C2''-2C2'    5   -5   -6    6
          180 deg rotation - cart. axis [1,1,0]                  
     i             9
          inversion                                              
     -i           -9
          inversion E                                            
     2S4          15   16
          inv.  90 deg rotation - cart. axis [0,0,-1]            
     -2S4        -15  -16
          inv.  90 deg rotation - cart. axis [0,0,-1] E          
      s_h -s_h    10  -10
          inv. 180 deg rotation - cart. axis [0,0,1]             
      2s_v-2s_v   11  -11   12  -12
          inv. 180 deg rotation - cart. axis [0,1,0]             
      2s_d-2s_d   13  -13  -14   14
          inv. 180 deg rotation - cart. axis [1,1,0]             

   Cartesian axes

     site n.     atom                  positions (alat units)
         1           Sn  tau(   1) = (   0.0000000   0.0000000   0.0000000  )
         2           Sn  tau(   2) = (   0.5000000   0.5000000   0.5000000  )
         3           I   tau(   3) = (   0.2985210   0.2985210   0.0000000  )
         4           I   tau(   4) = (   0.7014790   0.7014790   0.0000000  )
         5           I   tau(   5) = (   0.7985210   0.2014790   0.5000000  )
         6           I   tau(   6) = (   0.2014790   0.7985210   0.5000000  )

   Crystallographic axes

     site n.     atom                  positions (cryst. coord.)
         1           Sn  tau(   1) = (  0.0000000  0.0000000  0.0000000  )
         2           Sn  tau(   2) = (  0.5000000  0.5000000  0.5000000  )
         3           I   tau(   3) = (  0.2985210  0.2985210  0.0000000  )
         4           I   tau(   4) = (  0.7014790  0.7014790  0.0000000  )
         5           I   tau(   5) = (  0.7985210  0.2014790  0.5000000  )
         6           I   tau(   6) = (  0.2014790  0.7985210  0.5000000  )

     number of k points=    18
                       cart. coord. in units 2pi/alat
        k(    1) = (   0.0833333   0.0833333   0.0833333), wk =   0.0370370
        k(    2) = (   0.0833333   0.0833333   0.2500000), wk =   0.0370370
        k(    3) = (   0.0833333   0.0833333   0.4166667), wk =   0.0370370
        k(    4) = (   0.0833333   0.2500000   0.2500000), wk =   0.0740741
        k(    5) = (   0.0833333   0.2500000   0.4166667), wk =   0.0740741
        k(    6) = (   0.0833333   0.4166667   0.4166667), wk =   0.0740741
        k(    7) = (   0.2500000   0.2500000   0.2500000), wk =   0.0370370
        k(    8) = (   0.2500000   0.2500000   0.4166667), wk =   0.0370370
        k(    9) = (   0.2500000   0.4166667   0.4166667), wk =   0.0740741
        k(   10) = (   0.4166667   0.4166667   0.4166667), wk =   0.0370370
        k(   11) = (   0.0833333   0.2500000   0.0833333), wk =   0.0740741
        k(   12) = (   0.0833333   0.4166667   0.0833333), wk =   0.0740741
        k(   13) = (   0.2500000   0.2500000   0.0833333), wk =   0.0370370
        k(   14) = (   0.2500000   0.4166667   0.0833333), wk =   0.0740741
        k(   15) = (   0.4166667   0.0833333   0.2500000), wk =   0.0740741
        k(   16) = (   0.4166667   0.4166667   0.0833333), wk =   0.0370370
        k(   17) = (   0.2500000   0.4166667   0.2500000), wk =   0.0740741
        k(   18) = (   0.4166667   0.4166667   0.2500000), wk =   0.0370370

                       cryst. coord.
        k(    1) = (   0.0833333   0.0833333   0.0833333), wk =   0.0370370
        k(    2) = (   0.0833333   0.0833333   0.2500000), wk =   0.0370370
        k(    3) = (   0.0833333   0.0833333   0.4166667), wk =   0.0370370
        k(    4) = (   0.0833333   0.2500000   0.2500000), wk =   0.0740741
        k(    5) = (   0.0833333   0.2500000   0.4166667), wk =   0.0740741
        k(    6) = (   0.0833333   0.4166667   0.4166667), wk =   0.0740741
        k(    7) = (   0.2500000   0.2500000   0.2500000), wk =   0.0370370
        k(    8) = (   0.2500000   0.2500000   0.4166667), wk =   0.0370370
        k(    9) = (   0.2500000   0.4166667   0.4166667), wk =   0.0740741
        k(   10) = (   0.4166667   0.4166667   0.4166667), wk =   0.0370370
        k(   11) = (   0.0833333   0.2500000   0.0833333), wk =   0.0740741
        k(   12) = (   0.0833333   0.4166667   0.0833333), wk =   0.0740741
        k(   13) = (   0.2500000   0.2500000   0.0833333), wk =   0.0370370
        k(   14) = (   0.2500000   0.4166667   0.0833333), wk =   0.0740741
        k(   15) = (   0.4166667   0.0833333   0.2500000), wk =   0.0740741
        k(   16) = (   0.4166667   0.4166667   0.0833333), wk =   0.0370370
        k(   17) = (   0.2500000   0.4166667   0.2500000), wk =   0.0740741
        k(   18) = (   0.4166667   0.4166667   0.2500000), wk =   0.0370370

     Dense  grid:   188183 G-vectors     FFT dimensions: (  72,  72,  72)

     Smooth grid:   102255 G-vectors     FFT dimensions: (  60,  60,  60)

     Dynamical RAM for                 wfc:       0.91 MB

     Dynamical RAM for     wfc (w. buffer):      17.31 MB

     Dynamical RAM for           str. fact:       0.24 MB

     Dynamical RAM for           local pot:       0.00 MB

     Dynamical RAM for          nlocal pot:       1.66 MB

     Dynamical RAM for                qrad:      14.93 MB

     Dynamical RAM for          rho,v,vnew:       2.86 MB

     Dynamical RAM for               rhoin:       0.95 MB

     Dynamical RAM for            rho*nmix:       7.66 MB

     Dynamical RAM for           G-vectors:       0.48 MB

     Dynamical RAM for          h,s,v(r/c):       0.25 MB

     Dynamical RAM for          <psi|beta>:       0.35 MB

     Dynamical RAM for                 psi:       3.64 MB

     Dynamical RAM for                hpsi:       3.64 MB

     Dynamical RAM for                spsi:       3.64 MB

     Dynamical RAM for      wfcinit/wfcrot:       1.77 MB

     Dynamical RAM for           addusdens:      73.47 MB

     Dynamical RAM for          addusforce:      75.05 MB

     Dynamical RAM for         addusstress:      75.15 MB

     Estimated static dynamical RAM per process >      47.40 MB

     Estimated max dynamical RAM per process >     122.55 MB

     Estimated total dynamical RAM >       2.87 GB

     Initial potential from superposition of free atoms

     starting charge   55.99771, renormalised to   56.00000
     Starting wfcs are   68 randomized atomic wfcs
     Checking if some PAW data can be deallocated... 
       PAW data deallocated on   16 nodes for type:  1
       PAW data deallocated on    8 nodes for type:  2

     total cpu time spent up to now is       21.0 secs

     Self-consistent Calculation

     iteration #  1     ecut=    40.00 Ry     beta= 0.35
     Davidson diagonalization with overlap
     ethr =  1.00E-02,  avg # of iterations =  1.0

     total cpu time spent up to now is       57.3 secs

     total energy              =   -2370.78029902 Ry
     Harris-Foulkes estimate   =   -2371.06462857 Ry
     estimated scf accuracy    <       0.58865111 Ry

     iteration #  2     ecut=    40.00 Ry     beta= 0.35
     Davidson diagonalization with overlap
     ethr =  1.05E-03,  avg # of iterations =  3.0

     total cpu time spent up to now is       99.4 secs

     total energy              =   -2370.88366411 Ry
     Harris-Foulkes estimate   =   -2370.89409407 Ry
     estimated scf accuracy    <       0.03952573 Ry

     iteration #  3     ecut=    40.00 Ry     beta= 0.35
     Davidson diagonalization with overlap
     ethr =  7.06E-05,  avg # of iterations =  3.5

     total cpu time spent up to now is      140.8 secs

     total energy              =   -2370.88705826 Ry
     Harris-Foulkes estimate   =   -2370.88930163 Ry
     estimated scf accuracy    <       0.00907648 Ry

     iteration #  4     ecut=    40.00 Ry     beta= 0.35
     Davidson diagonalization with overlap
     ethr =  1.62E-05,  avg # of iterations =  2.4

     total cpu time spent up to now is      181.0 secs

     total energy              =   -2370.88816354 Ry
     Harris-Foulkes estimate   =   -2370.88812107 Ry
     estimated scf accuracy    <       0.00062114 Ry

     iteration #  5     ecut=    40.00 Ry     beta= 0.35
     Davidson diagonalization with overlap
     ethr =  1.11E-06,  avg # of iterations =  5.3

     total cpu time spent up to now is      235.0 secs

     total energy              =   -2370.88829453 Ry
     Harris-Foulkes estimate   =   -2370.88847349 Ry
     estimated scf accuracy    <       0.00035097 Ry

     iteration #  6     ecut=    40.00 Ry     beta= 0.35
     Davidson diagonalization with overlap
     ethr =  6.27E-07,  avg # of iterations =  3.1

     total cpu time spent up to now is      282.9 secs

     total energy              =   -2370.88837756 Ry
     Harris-Foulkes estimate   =   -2370.88839445 Ry
     estimated scf accuracy    <       0.00005181 Ry

     iteration #  7     ecut=    40.00 Ry     beta= 0.35
     Davidson diagonalization with overlap
     ethr =  9.25E-08,  avg # of iterations =  5.0

     total cpu time spent up to now is      335.4 secs

     total energy              =   -2370.88838953 Ry
     Harris-Foulkes estimate   =   -2370.88841192 Ry
     estimated scf accuracy    <       0.00006046 Ry

     iteration #  8     ecut=    40.00 Ry     beta= 0.35
     Davidson diagonalization with overlap
     ethr =  9.25E-08,  avg # of iterations =  3.0

     total cpu time spent up to now is      383.3 secs

     total energy              =   -2370.88839672 Ry
     Harris-Foulkes estimate   =   -2370.88839682 Ry
     estimated scf accuracy    <       0.00000147 Ry

     iteration #  9     ecut=    40.00 Ry     beta= 0.35
     Davidson diagonalization with overlap
     ethr =  2.63E-09,  avg # of iterations =  3.8

     total cpu time spent up to now is      425.8 secs

     End of self-consistent calculation

          k = 0.0833 0.0833 0.0833 ( 12860 PWs)   bands (ev):

   -23.2607 -23.2607 -23.2601 -23.2601 -23.1279 -23.1279 -23.1272 -23.1272
   -22.2414 -22.2414 -22.2405 -22.2405 -22.1259 -22.1259 -22.1252 -22.1252
   -22.0720 -22.0720 -22.0706 -22.0706 -11.6221 -11.6221 -11.5316 -11.5316
   -11.4819 -11.4819 -11.4777 -11.4777  -7.0728  -7.0728  -6.8734  -6.8734
    -2.6875  -2.6875  -2.5260  -2.5260  -2.1394  -2.1394  -2.0281  -2.0281
    -1.8807  -1.8807  -1.5290  -1.5290  -1.2254  -1.2254  -1.1322  -1.1322
    -1.1076  -1.1076  -0.9952  -0.9952  -0.9236  -0.9236  -0.8829  -0.8829

     occupation numbers 
     1.0000   1.0000   1.0000   1.0000   1.0000   1.0000   1.0000   1.0000
     1.0000   1.0000   1.0000   1.0000   1.0000   1.0000   1.0000   1.0000
     1.0000   1.0000   1.0000   1.0000   1.0000   1.0000   1.0000   1.0000
     1.0000   1.0000   1.0000   1.0000   1.0000   1.0000   1.0000   1.0000
     1.0000   1.0000   1.0000   1.0000   1.0000   1.0000   1.0000   1.0000
     1.0000   1.0000   1.0000   1.0000   1.0000   1.0000   1.0000   1.0000
     1.0000   1.0000   1.0000   1.0000   1.0000   1.0000   1.0000   1.0000

          k = 0.0833 0.0833 0.2500 ( 12833 PWs)   bands (ev):

   -23.2601 -23.2601 -23.2592 -23.2592 -23.1273 -23.1273 -23.1269 -23.1269
   -22.2403 -22.2403 -22.2400 -22.2400 -22.1252 -22.1252 -22.1249 -22.1249
   -22.0712 -22.0712 -22.0706 -22.0706 -11.6098 -11.6098 -11.5434 -11.5434
   -11.4819 -11.4819 -11.4775 -11.4775  -7.0527  -7.0527  -6.9071  -6.9071
    -2.6748  -2.6748  -2.5233  -2.5233  -2.1279  -2.1279  -2.0066  -2.0066
    -1.8552  -1.8552  -1.5536  -1.5536  -1.2232  -1.2232  -1.1734  -1.1734
    -1.1308  -1.1308  -1.0231  -1.0231  -0.9338  -0.9338  -0.8963  -0.8963

     occupation numbers 
     1.0000   1.0000   1.0000   1.0000   1.0000   1.0000   1.0000   1.0000
     1.0000   1.0000   1.0000   1.0000   1.0000   1.0000   1.0000   1.0000
     1.0000   1.0000   1.0000   1.0000   1.0000   1.0000   1.0000   1.0000
     1.0000   1.0000   1.0000   1.0000   1.0000   1.0000   1.0000   1.0000
     1.0000   1.0000   1.0000   1.0000   1.0000   1.0000   1.0000   1.0000
     1.0000   1.0000   1.0000   1.0000   1.0000   1.0000   1.0000   1.0000
     1.0000   1.0000   1.0000   1.0000   1.0000   1.0000   1.0000   1.0000

          k = 0.0833 0.0833 0.4167 ( 12816 PWs)   bands (ev):

   -23.2595 -23.2595 -23.2589 -23.2589 -23.1268 -23.1268 -23.1267 -23.1267
   -22.2401 -22.2401 -22.2394 -22.2394 -22.1247 -22.1247 -22.1244 -22.1244
   -22.0710 -22.0710 -22.0703 -22.0703 -11.5886 -11.5886 -11.5640 -11.5640
   -11.4818 -11.4818 -11.4773 -11.4773  -7.0134  -7.0134  -6.9600  -6.9600
    -2.6627  -2.6627  -2.5193  -2.5193  -2.1266  -2.1266  -1.9892  -1.9892
    -1.7888  -1.7888  -1.6105  -1.6105  -1.2220  -1.2220  -1.2022  -1.2022
    -1.1344  -1.1344  -1.0577  -1.0577  -0.9606  -0.9606  -0.9103  -0.9103

     occupation numbers 
     1.0000   1.0000   1.0000   1.0000   1.0000   1.0000   1.0000   1.0000
     1.0000   1.0000   1.0000   1.0000   1.0000   1.0000   1.0000   1.0000
     1.0000   1.0000   1.0000   1.0000   1.0000   1.0000   1.0000   1.0000
     1.0000   1.0000   1.0000   1.0000   1.0000   1.0000   1.0000   1.0000
     1.0000   1.0000   1.0000   1.0000   1.0000   1.0000   1.0000   1.0000
     1.0000   1.0000   1.0000   1.0000   1.0000   1.0000   1.0000   1.0000
     1.0000   1.0000   1.0000   1.0000   1.0000   1.0000   1.0000   1.0000

          k = 0.0833 0.2500 0.2500 ( 12812 PWs)   bands (ev):

   -23.2597 -23.2597 -23.2588 -23.2588 -23.1269 -23.1269 -23.1261 -23.1261
   -22.2402 -22.2402 -22.2395 -22.2395 -22.1249 -22.1249 -22.1241 -22.1241
   -22.0707 -22.0707 -22.0698 -22.0698 -11.5948 -11.5948 -11.5386 -11.5386
   -11.4964 -11.4964 -11.4835 -11.4835  -7.0297  -7.0297  -6.9223  -6.9223
    -2.8221  -2.8221  -2.6481  -2.6481  -2.0978  -2.0978  -1.9404  -1.9404
    -1.8132  -1.8132  -1.5754  -1.5754  -1.2487  -1.2487  -1.1810  -1.1810
    -1.0516  -1.0516  -0.9631  -0.9631  -0.8983  -0.8983  -0.7144  -0.7144

     occupation numbers 
     1.0000   1.0000   1.0000   1.0000   1.0000   1.0000   1.0000   1.0000
     1.0000   1.0000   1.0000   1.0000   1.0000   1.0000   1.0000   1.0000
     1.0000   1.0000   1.0000   1.0000   1.0000   1.0000   1.0000   1.0000
     1.0000   1.0000   1.0000   1.0000   1.0000   1.0000   1.0000   1.0000
     1.0000   1.0000   1.0000   1.0000   1.0000   1.0000   1.0000   1.0000
     1.0000   1.0000   1.0000   1.0000   1.0000   1.0000   1.0000   1.0000
     1.0000   1.0000   1.0000   1.0000   1.0000   1.0000   1.0000   1.0000

          k = 0.0833 0.2500 0.4167 ( 12801 PWs)   bands (ev):

   -23.2593 -23.2593 -23.2584 -23.2584 -23.1267 -23.1267 -23.1261 -23.1261
   -22.2398 -22.2398 -22.2389 -22.2389 -22.1245 -22.1245 -22.1243 -22.1243
   -22.0706 -22.0706 -22.0696 -22.0696 -11.5773 -11.5773 -11.5543 -11.5543
   -11.4962 -11.4962 -11.4845 -11.4845  -7.0028  -7.0028  -6.9622  -6.9622
    -2.8347  -2.8347  -2.6520  -2.6520  -2.0639  -2.0639  -1.8859  -1.8859
    -1.8336  -1.8336  -1.5835  -1.5835  -1.2557  -1.2557  -1.1767  -1.1767
    -1.0669  -1.0669  -0.9790  -0.9790  -0.8916  -0.8916  -0.7136  -0.7136

     occupation numbers 
     1.0000   1.0000   1.0000   1.0000   1.0000   1.0000   1.0000   1.0000
     1.0000   1.0000   1.0000   1.0000   1.0000   1.0000   1.0000   1.0000
     1.0000   1.0000   1.0000   1.0000   1.0000   1.0000   1.0000   1.0000
     1.0000   1.0000   1.0000   1.0000   1.0000   1.0000   1.0000   1.0000
     1.0000   1.0000   1.0000   1.0000   1.0000   1.0000   1.0000   1.0000
     1.0000   1.0000   1.0000   1.0000   1.0000   1.0000   1.0000   1.0000
     1.0000   1.0000   1.0000   1.0000   1.0000   1.0000   1.0000   1.0000

          k = 0.0833 0.4167 0.4167 ( 12780 PWs)   bands (ev):

   -23.2592 -23.2592 -23.2578 -23.2578 -23.1265 -23.1265 -23.1250 -23.1250
   -22.2396 -22.2396 -22.2384 -22.2384 -22.1240 -22.1240 -22.1237 -22.1237
   -22.0700 -22.0700 -22.0689 -22.0689 -11.5585 -11.5585 -11.5453 -11.5453
   -11.5094 -11.5094 -11.4997 -11.4997  -6.9866  -6.9866  -6.9701  -6.9701
    -2.9019  -2.9019  -2.8251  -2.8251  -2.0186  -2.0186  -1.9088  -1.9088
    -1.7848  -1.7848  -1.5854  -1.5854  -1.2431  -1.2431  -1.1963  -1.1963
    -0.9676  -0.9676  -0.9344  -0.9344  -0.7175  -0.7175  -0.5746  -0.5746

     occupation numbers 
     1.0000   1.0000   1.0000   1.0000   1.0000   1.0000   1.0000   1.0000
     1.0000   1.0000   1.0000   1.0000   1.0000   1.0000   1.0000   1.0000
     1.0000   1.0000   1.0000   1.0000   1.0000   1.0000   1.0000   1.0000
     1.0000   1.0000   1.0000   1.0000   1.0000   1.0000   1.0000   1.0000
     1.0000   1.0000   1.0000   1.0000   1.0000   1.0000   1.0000   1.0000
     1.0000   1.0000   1.0000   1.0000   1.0000   1.0000   1.0000   1.0000
     1.0000   1.0000   1.0000   1.0000   1.0000   1.0000   1.0000   1.0000

          k = 0.2500 0.2500 0.2500 ( 12776 PWs)   bands (ev):

   -23.2591 -23.2591 -23.2578 -23.2578 -23.1262 -23.1262 -23.1250 -23.1250
   -22.2394 -22.2394 -22.2387 -22.2387 -22.1244 -22.1244 -22.1227 -22.1227
   -22.0702 -22.0702 -22.0687 -22.0687 -11.5863 -11.5863 -11.5385 -11.5385
   -11.5055 -11.5055 -11.4824 -11.4824  -7.0196  -7.0196  -6.9390  -6.9390
    -2.8804  -2.8804  -2.5352  -2.5352  -2.0952  -2.0952  -1.9261  -1.9261
    -1.8719  -1.8719  -1.6030  -1.6030  -1.2948  -1.2948  -1.2273  -1.2273
    -1.1207  -1.1207  -0.9326  -0.9326  -0.8775  -0.8775  -0.5878  -0.5878

     occupation numbers 
     1.0000   1.0000   1.0000   1.0000   1.0000   1.0000   1.0000   1.0000
     1.0000   1.0000   1.0000   1.0000   1.0000   1.0000   1.0000   1.0000
     1.0000   1.0000   1.0000   1.0000   1.0000   1.0000   1.0000   1.0000
     1.0000   1.0000   1.0000   1.0000   1.0000   1.0000   1.0000   1.0000
     1.0000   1.0000   1.0000   1.0000   1.0000   1.0000   1.0000   1.0000
     1.0000   1.0000   1.0000   1.0000   1.0000   1.0000   1.0000   1.0000
     1.0000   1.0000   1.0000   1.0000   1.0000   1.0000   1.0000   1.0000

          k = 0.2500 0.2500 0.4167 ( 12815 PWs)   bands (ev):

   -23.2597 -23.2597 -23.2587 -23.2587 -23.1270 -23.1270 -23.1264 -23.1264
   -22.2403 -22.2403 -22.2391 -22.2391 -22.1252 -22.1252 -22.1246 -22.1246
   -22.0710 -22.0710 -22.0696 -22.0696 -11.5751 -11.5751 -11.5457 -11.5457
   -11.5086 -11.5086 -11.4822 -11.4822  -7.0037  -7.0037  -6.9682  -6.9682
    -2.8983  -2.8983  -2.5206  -2.5206  -2.1158  -2.1158  -1.8866  -1.8866
    -1.8726  -1.8726  -1.5825  -1.5825  -1.3073  -1.3073  -1.2054  -1.2054
    -1.1202  -1.1202  -0.9270  -0.9270  -0.8673  -0.8673  -0.5773  -0.5773

     occupation numbers 
     1.0000   1.0000   1.0000   1.0000   1.0000   1.0000   1.0000   1.0000
     1.0000   1.0000   1.0000   1.0000   1.0000   1.0000   1.0000   1.0000
     1.0000   1.0000   1.0000   1.0000   1.0000   1.0000   1.0000   1.0000
     1.0000   1.0000   1.0000   1.0000   1.0000   1.0000   1.0000   1.0000
     1.0000   1.0000   1.0000   1.0000   1.0000   1.0000   1.0000   1.0000
     1.0000   1.0000   1.0000   1.0000   1.0000   1.0000   1.0000   1.0000
     1.0000   1.0000   1.0000   1.0000   1.0000   1.0000   1.0000   1.0000

          k = 0.2500 0.4167 0.4167 ( 12803 PWs)   bands (ev):

   -23.2599 -23.2599 -23.2582 -23.2582 -23.1271 -23.1271 -23.1255 -23.1255
   -22.2404 -22.2404 -22.2389 -22.2389 -22.1246 -22.1246 -22.1239 -22.1239
   -22.0708 -22.0708 -22.0695 -22.0695 -11.5655 -11.5655 -11.5512 -11.5512
   -11.5039 -11.5039 -11.4901 -11.4901  -6.9972  -6.9972  -6.9819  -6.9819
    -2.8237  -2.8237  -2.6471  -2.6471  -2.0785  -2.0785  -1.9392  -1.9392
    -1.8220  -1.8220  -1.5885  -1.5885  -1.2917  -1.2917  -1.2349  -1.2349
    -1.0289  -1.0289  -0.8975  -0.8975  -0.8312  -0.8312  -0.7214  -0.7214

     occupation numbers 
     1.0000   1.0000   1.0000   1.0000   1.0000   1.0000   1.0000   1.0000
     1.0000   1.0000   1.0000   1.0000   1.0000   1.0000   1.0000   1.0000
     1.0000   1.0000   1.0000   1.0000   1.0000   1.0000   1.0000   1.0000
     1.0000   1.0000   1.0000   1.0000   1.0000   1.0000   1.0000   1.0000
     1.0000   1.0000   1.0000   1.0000   1.0000   1.0000   1.0000   1.0000
     1.0000   1.0000   1.0000   1.0000   1.0000   1.0000   1.0000   1.0000
     1.0000   1.0000   1.0000   1.0000   1.0000   1.0000   1.0000   1.0000

          k = 0.4167 0.4167 0.4167 ( 12802 PWs)   bands (ev):

   -23.2597 -23.2597 -23.2586 -23.2586 -23.1268 -23.1268 -23.1258 -23.1258
   -22.2402 -22.2402 -22.2394 -22.2394 -22.1245 -22.1245 -22.1235 -22.1235
   -22.0708 -22.0708 -22.0698 -22.0698 -11.5672 -11.5672 -11.5615 -11.5615
   -11.4929 -11.4929 -11.4872 -11.4872  -7.0041  -7.0041  -6.9973  -6.9973
    -2.6444  -2.6444  -2.5221  -2.5221  -2.1143  -2.1143  -1.9809  -1.9809
    -1.8664  -1.8664  -1.6636  -1.6636  -1.3319  -1.3319  -1.2804  -1.2804
    -1.0929  -1.0929  -1.0107  -1.0107  -0.8097  -0.8097  -0.7949  -0.7949

     occupation numbers 
     1.0000   1.0000   1.0000   1.0000   1.0000   1.0000   1.0000   1.0000
     1.0000   1.0000   1.0000   1.0000   1.0000   1.0000   1.0000   1.0000
     1.0000   1.0000   1.0000   1.0000   1.0000   1.0000   1.0000   1.0000
     1.0000   1.0000   1.0000   1.0000   1.0000   1.0000   1.0000   1.0000
     1.0000   1.0000   1.0000   1.0000   1.0000   1.0000   1.0000   1.0000
     1.0000   1.0000   1.0000   1.0000   1.0000   1.0000   1.0000   1.0000
     1.0000   1.0000   1.0000   1.0000   1.0000   1.0000   1.0000   1.0000

          k = 0.0833 0.2500 0.0833 ( 12833 PWs)   bands (ev):

   -23.2602 -23.2602 -23.2596 -23.2596 -23.1273 -23.1273 -23.1264 -23.1264
   -22.2409 -22.2409 -22.2401 -22.2401 -22.1253 -22.1253 -22.1244 -22.1244
   -22.0713 -22.0713 -22.0700 -22.0700 -11.6054 -11.6054 -11.5302 -11.5302
   -11.4960 -11.4960 -11.4827 -11.4827  -7.0427  -7.0427  -6.8961  -6.8961
    -2.8065  -2.8065  -2.6431  -2.6431  -2.1551  -2.1551  -1.9706  -1.9706
    -1.8015  -1.8015  -1.5543  -1.5543  -1.2417  -1.2417  -1.1852  -1.1852
    -1.0379  -1.0379  -0.9553  -0.9553  -0.9010  -0.9010  -0.7143  -0.7143

     occupation numbers 
     1.0000   1.0000   1.0000   1.0000   1.0000   1.0000   1.0000   1.0000
     1.0000   1.0000   1.0000   1.0000   1.0000   1.0000   1.0000   1.0000
     1.0000   1.0000   1.0000   1.0000   1.0000   1.0000   1.0000   1.0000
     1.0000   1.0000   1.0000   1.0000   1.0000   1.0000   1.0000   1.0000
     1.0000   1.0000   1.0000   1.0000   1.0000   1.0000   1.0000   1.0000
     1.0000   1.0000   1.0000   1.0000   1.0000   1.0000   1.0000   1.0000
     1.0000   1.0000   1.0000   1.0000   1.0000   1.0000   1.0000   1.0000

          k = 0.0833 0.4167 0.0833 ( 12816 PWs)   bands (ev):

   -23.2596 -23.2596 -23.2594 -23.2594 -23.1268 -23.1268 -23.1262 -23.1262
   -22.2402 -22.2402 -22.2400 -22.2400 -22.1249 -22.1249 -22.1241 -22.1241
   -22.0706 -22.0706 -22.0700 -22.0700 -11.5765 -11.5765 -11.5451 -11.5451
   -11.5013 -11.5013 -11.4924 -11.4924  -6.9927  -6.9927  -6.9388  -6.9388
    -2.8593  -2.8593  -2.7924  -2.7924  -2.0998  -2.0998  -2.0120  -2.0120
    -1.7048  -1.7048  -1.6050  -1.6050  -1.2678  -1.2678  -1.2435  -1.2435
    -0.9962  -0.9962  -0.9476  -0.9476  -0.7235  -0.7235  -0.5955  -0.5955

     occupation numbers 
     1.0000   1.0000   1.0000   1.0000   1.0000   1.0000   1.0000   1.0000
     1.0000   1.0000   1.0000   1.0000   1.0000   1.0000   1.0000   1.0000
     1.0000   1.0000   1.0000   1.0000   1.0000   1.0000   1.0000   1.0000
     1.0000   1.0000   1.0000   1.0000   1.0000   1.0000   1.0000   1.0000
     1.0000   1.0000   1.0000   1.0000   1.0000   1.0000   1.0000   1.0000
     1.0000   1.0000   1.0000   1.0000   1.0000   1.0000   1.0000   1.0000
     1.0000   1.0000   1.0000   1.0000   1.0000   1.0000   1.0000   1.0000

          k = 0.2500 0.2500 0.0833 ( 12812 PWs)   bands (ev):

   -23.2596 -23.2596 -23.2592 -23.2592 -23.1269 -23.1269 -23.1259 -23.1259
   -22.2405 -22.2405 -22.2397 -22.2397 -22.1247 -22.1247 -22.1238 -22.1238
   -22.0711 -22.0711 -22.0696 -22.0696 -11.5944 -11.5944 -11.5349 -11.5349
   -11.5020 -11.5020 -11.4826 -11.4826  -7.0269  -7.0269  -6.9184  -6.9184
    -2.8588  -2.8588  -2.5514  -2.5514  -2.0845  -2.0845  -1.9793  -1.9793
    -1.8683  -1.8683  -1.5859  -1.5859  -1.2941  -1.2941  -1.2486  -1.2486
    -1.1208  -1.1208  -0.9319  -0.9319  -0.8970  -0.8970  -0.5970  -0.5970

     occupation numbers 
     1.0000   1.0000   1.0000   1.0000   1.0000   1.0000   1.0000   1.0000
     1.0000   1.0000   1.0000   1.0000   1.0000   1.0000   1.0000   1.0000
     1.0000   1.0000   1.0000   1.0000   1.0000   1.0000   1.0000   1.0000
     1.0000   1.0000   1.0000   1.0000   1.0000   1.0000   1.0000   1.0000
     1.0000   1.0000   1.0000   1.0000   1.0000   1.0000   1.0000   1.0000
     1.0000   1.0000   1.0000   1.0000   1.0000   1.0000   1.0000   1.0000
     1.0000   1.0000   1.0000   1.0000   1.0000   1.0000   1.0000   1.0000

          k = 0.2500 0.4167 0.0833 ( 12801 PWs)   bands (ev):

   -23.2593 -23.2593 -23.2590 -23.2590 -23.1264 -23.1264 -23.1258 -23.1258
   -22.2400 -22.2400 -22.2397 -22.2397 -22.1241 -22.1241 -22.1236 -22.1236
   -22.0705 -22.0705 -22.0698 -22.0698 -11.5751 -11.5751 -11.5525 -11.5525
   -11.4975 -11.4975 -11.4886 -11.4886  -6.9960  -6.9960  -6.9558  -6.9558
    -2.7896  -2.7896  -2.6392  -2.6392  -2.0644  -2.0644  -2.0063  -2.0063
    -1.7661  -1.7661  -1.6396  -1.6396  -1.3484  -1.3484  -1.3207  -1.3207
    -1.0329  -1.0329  -0.9314  -0.9314  -0.8570  -0.8570  -0.7074  -0.7074

     occupation numbers 
     1.0000   1.0000   1.0000   1.0000   1.0000   1.0000   1.0000   1.0000
     1.0000   1.0000   1.0000   1.0000   1.0000   1.0000   1.0000   1.0000
     1.0000   1.0000   1.0000   1.0000   1.0000   1.0000   1.0000   1.0000
     1.0000   1.0000   1.0000   1.0000   1.0000   1.0000   1.0000   1.0000
     1.0000   1.0000   1.0000   1.0000   1.0000   1.0000   1.0000   1.0000
     1.0000   1.0000   1.0000   1.0000   1.0000   1.0000   1.0000   1.0000
     1.0000   1.0000   1.0000   1.0000   1.0000   1.0000   1.0000   1.0000

          k = 0.4167 0.0833 0.2500 ( 12801 PWs)   bands (ev):

   -23.2595 -23.2595 -23.2588 -23.2588 -23.1265 -23.1265 -23.1257 -23.1257
   -22.2400 -22.2400 -22.2396 -22.2396 -22.1245 -22.1245 -22.1237 -22.1237
   -22.0703 -22.0703 -22.0696 -22.0696 -11.5693 -11.5693 -11.5437 -11.5437
   -11.5056 -11.5056 -11.4956 -11.4956  -6.9919  -6.9919  -6.9522  -6.9522
    -2.8826  -2.8826  -2.8099  -2.8099  -2.0475  -2.0475  -1.9594  -1.9594
    -1.7548  -1.7548  -1.5923  -1.5923  -1.2585  -1.2585  -1.2239  -1.2239
    -0.9977  -0.9977  -0.9261  -0.9261  -0.7243  -0.7243  -0.5879  -0.5879

     occupation numbers 
     1.0000   1.0000   1.0000   1.0000   1.0000   1.0000   1.0000   1.0000
     1.0000   1.0000   1.0000   1.0000   1.0000   1.0000   1.0000   1.0000
     1.0000   1.0000   1.0000   1.0000   1.0000   1.0000   1.0000   1.0000
     1.0000   1.0000   1.0000   1.0000   1.0000   1.0000   1.0000   1.0000
     1.0000   1.0000   1.0000   1.0000   1.0000   1.0000   1.0000   1.0000
     1.0000   1.0000   1.0000   1.0000   1.0000   1.0000   1.0000   1.0000
     1.0000   1.0000   1.0000   1.0000   1.0000   1.0000   1.0000   1.0000

          k = 0.4167 0.4167 0.0833 ( 12780 PWs)   bands (ev):

   -23.2589 -23.2589 -23.2585 -23.2585 -23.1258 -23.1258 -23.1254 -23.1254
   -22.2397 -22.2397 -22.2393 -22.2393 -22.1232 -22.1232 -22.1229 -22.1229
   -22.0700 -22.0700 -22.0697 -22.0697 -11.5705 -11.5705 -11.5624 -11.5624
   -11.4914 -11.4914 -11.4876 -11.4876  -6.9934  -6.9934  -6.9785  -6.9785
    -2.6346  -2.6346  -2.5411  -2.5411  -2.0219  -2.0219  -1.9597  -1.9597
    -1.8483  -1.8483  -1.7220  -1.7220  -1.4094  -1.4094  -1.3998  -1.3998
    -1.1207  -1.1207  -1.0262  -1.0262  -0.8395  -0.8395  -0.8154  -0.8154

     occupation numbers 
     1.0000   1.0000   1.0000   1.0000   1.0000   1.0000   1.0000   1.0000
     1.0000   1.0000   1.0000   1.0000   1.0000   1.0000   1.0000   1.0000
     1.0000   1.0000   1.0000   1.0000   1.0000   1.0000   1.0000   1.0000
     1.0000   1.0000   1.0000   1.0000   1.0000   1.0000   1.0000   1.0000
     1.0000   1.0000   1.0000   1.0000   1.0000   1.0000   1.0000   1.0000
     1.0000   1.0000   1.0000   1.0000   1.0000   1.0000   1.0000   1.0000
     1.0000   1.0000   1.0000   1.0000   1.0000   1.0000   1.0000   1.0000

          k = 0.2500 0.4167 0.2500 ( 12815 PWs)   bands (ev):

   -23.2597 -23.2597 -23.2592 -23.2592 -23.1268 -23.1268 -23.1261 -23.1261
   -22.2403 -22.2403 -22.2400 -22.2400 -22.1247 -22.1247 -22.1239 -22.1239
   -22.0708 -22.0708 -22.0700 -22.0700 -11.5707 -11.5707 -11.5517 -11.5517
   -11.5006 -11.5006 -11.4893 -11.4893  -6.9979  -6.9979  -6.9676  -6.9676
    -2.8083  -2.8083  -2.6433  -2.6433  -2.0651  -2.0651  -1.9610  -1.9610
    -1.8059  -1.8059  -1.6244  -1.6244  -1.3187  -1.3187  -1.2826  -1.2826
    -1.0268  -1.0268  -0.9152  -0.9152  -0.8450  -0.8450  -0.7130  -0.7130

     occupation numbers 
     1.0000   1.0000   1.0000   1.0000   1.0000   1.0000   1.0000   1.0000
     1.0000   1.0000   1.0000   1.0000   1.0000   1.0000   1.0000   1.0000
     1.0000   1.0000   1.0000   1.0000   1.0000   1.0000   1.0000   1.0000
     1.0000   1.0000   1.0000   1.0000   1.0000   1.0000   1.0000   1.0000
     1.0000   1.0000   1.0000   1.0000   1.0000   1.0000   1.0000   1.0000
     1.0000   1.0000   1.0000   1.0000   1.0000   1.0000   1.0000   1.0000
     1.0000   1.0000   1.0000   1.0000   1.0000   1.0000   1.0000   1.0000

          k = 0.4167 0.4167 0.2500 ( 12803 PWs)   bands (ev):

   -23.2595 -23.2595 -23.2591 -23.2591 -23.1266 -23.1266 -23.1257 -23.1257
   -22.2401 -22.2401 -22.2399 -22.2399 -22.1242 -22.1242 -22.1235 -22.1235
   -22.0707 -22.0707 -22.0697 -22.0697 -11.5689 -11.5689 -11.5619 -11.5619
   -11.4921 -11.4921 -11.4874 -11.4874  -6.9991  -6.9991  -6.9875  -6.9875
    -2.6400  -2.6400  -2.5312  -2.5312  -2.0687  -2.0687  -1.9616  -1.9616
    -1.8629  -1.8629  -1.6999  -1.6999  -1.3717  -1.3717  -1.3519  -1.3519
    -1.0978  -1.0978  -1.0080  -1.0080  -0.8254  -0.8254  -0.8087  -0.8087

     occupation numbers 
     1.0000   1.0000   1.0000   1.0000   1.0000   1.0000   1.0000   1.0000
     1.0000   1.0000   1.0000   1.0000   1.0000   1.0000   1.0000   1.0000
     1.0000   1.0000   1.0000   1.0000   1.0000   1.0000   1.0000   1.0000
     1.0000   1.0000   1.0000   1.0000   1.0000   1.0000   1.0000   1.0000
     1.0000   1.0000   1.0000   1.0000   1.0000   1.0000   1.0000   1.0000
     1.0000   1.0000   1.0000   1.0000   1.0000   1.0000   1.0000   1.0000
     1.0000   1.0000   1.0000   1.0000   1.0000   1.0000   1.0000   1.0000

     highest occupied level (ev):    -0.5746

!    total energy              =   -2370.88839649 Ry
     Harris-Foulkes estimate   =   -2370.88839706 Ry
     estimated scf accuracy    <       0.00000075 Ry

     total all-electron energy =    -81634.410602 Ry

     The total energy is the sum of the following terms:

     one-electron contribution =    -248.63819197 Ry
     hartree contribution      =     145.40663522 Ry
     xc contribution           =    -157.07546834 Ry
     ewald contribution        =    -190.25175951 Ry
     one-center paw contrib.   =   -1920.32961189 Ry
      -> PAW hartree energy AE =     107.66843714 Ry
      -> PAW hartree energy PS =    -106.87992539 Ry
      -> PAW xc energy AE      =    -324.25320793 Ry
      -> PAW xc energy PS      =      46.62049955 Ry
      -> total E_H with PAW    =     146.19514697 Ry
      -> total E_XC with PAW   =    -434.70817673 Ry

     convergence has been achieved in   9 iterations

     Forces acting on atoms (cartesian axes, Ry/au):

     atom    1 type  1   force =     0.00000000    0.00000000    0.00000000
     atom    2 type  1   force =     0.00000000    0.00000000    0.00000000
     atom    3 type  2   force =    -0.01803538   -0.01803538   -0.00000000
     atom    4 type  2   force =     0.01803538    0.01803538   -0.00000000
     atom    5 type  2   force =    -0.01803538    0.01803538    0.00000000
     atom    6 type  2   force =     0.01803538   -0.01803538    0.00000000
     The non-local contrib.  to forces
     atom    1 type  1   force =     0.00000000    0.00000000    0.00000000
     atom    2 type  1   force =     0.00000000    0.00000000    0.00000000
     atom    3 type  2   force =    -0.04134228   -0.04134228    0.00000000
     atom    4 type  2   force =     0.04134228    0.04134228    0.00000000
     atom    5 type  2   force =    -0.04134228    0.04134228    0.00000000
     atom    6 type  2   force =     0.04134228   -0.04134228    0.00000000
     The ionic contribution  to forces
     atom    1 type  1   force =    -0.00000000   -0.00000000   -0.00000000
     atom    2 type  1   force =     0.00000000    0.00000000    0.00000000
     atom    3 type  2   force =     1.38633657    1.38633657    0.00000000
     atom    4 type  2   force =    -1.38633657   -1.38633657   -0.00000000
     atom    5 type  2   force =     1.38633657   -1.38633657    0.00000000
     atom    6 type  2   force =    -1.38633657    1.38633657    0.00000000
     The local contribution  to forces
     atom    1 type  1   force =     0.00000000    0.00000000    0.00000000
     atom    2 type  1   force =     0.00000000    0.00000000    0.00000000
     atom    3 type  2   force =    -1.36692567   -1.36692567    0.00000000
     atom    4 type  2   force =     1.36692567    1.36692567   -0.00000000
     atom    5 type  2   force =    -1.36692567    1.36692567    0.00000000
     atom    6 type  2   force =     1.36692567   -1.36692567    0.00000000
     The core correction contribution to forces
     atom    1 type  1   force =     0.00000000    0.00000000    0.00000000
     atom    2 type  1   force =    -0.00000000   -0.00000000   -0.00000000
     atom    3 type  2   force =     0.00391122    0.00391122   -0.00000000
     atom    4 type  2   force =    -0.00391122   -0.00391122   -0.00000000
     atom    5 type  2   force =     0.00391122   -0.00391122   -0.00000000
     atom    6 type  2   force =    -0.00391122    0.00391122   -0.00000000
     The Hubbard contrib.    to forces
     atom    1 type  1   force =     0.00000000    0.00000000    0.00000000
     atom    2 type  1   force =     0.00000000    0.00000000    0.00000000
     atom    3 type  2   force =     0.00000000    0.00000000    0.00000000
     atom    4 type  2   force =     0.00000000    0.00000000    0.00000000
     atom    5 type  2   force =     0.00000000    0.00000000    0.00000000
     atom    6 type  2   force =     0.00000000    0.00000000    0.00000000
     The SCF correction term to forces
     atom    1 type  1   force =    -0.00000000    0.00000000   -0.00000000
     atom    2 type  1   force =     0.00000000    0.00000000    0.00000000
     atom    3 type  2   force =    -0.00001522   -0.00001522    0.00000000
     atom    4 type  2   force =     0.00001522    0.00001522    0.00000000
     atom    5 type  2   force =    -0.00001522    0.00001522   -0.00000000
     atom    6 type  2   force =     0.00001522   -0.00001522   -0.00000000

     Total force =     0.051012     Total SCF correction =     0.000043


     Computing stress (Cartesian axis) and pressure

     Message from routine stres:
     noncollinear stress + GGA not implemented

     Writing output data file SnI2.save/
 
     init_run     :      8.74s CPU     13.73s WALL (       1 calls)
     electrons    :    260.02s CPU    404.92s WALL (       1 calls)
     forces       :      3.31s CPU      4.59s WALL (       1 calls)

     Called by init_run:
     wfcinit      :      6.93s CPU     11.12s WALL (       1 calls)
     wfcinit:atom :      0.03s CPU      0.03s WALL (      18 calls)
     wfcinit:wfcr :      6.79s CPU     10.94s WALL (      18 calls)
     potinit      :      0.70s CPU      1.10s WALL (       1 calls)
     hinit0       :      0.57s CPU      0.82s WALL (       1 calls)

     Called by electrons:
     c_bands      :    220.28s CPU    342.70s WALL (       9 calls)
     sum_band     :     29.71s CPU     47.97s WALL (       9 calls)
     v_of_rho     :      1.17s CPU      2.03s WALL (      10 calls)
     v_h          :      0.09s CPU      0.13s WALL (      10 calls)
     v_xc         :      1.11s CPU      1.93s WALL (      11 calls)
     newd         :      4.09s CPU      5.43s WALL (      10 calls)
     PAW_pot      :      2.66s CPU      3.75s WALL (      10 calls)
     mix_rho      :      1.05s CPU      1.46s WALL (       9 calls)

     Called by c_bands:
     init_us_2    :      0.67s CPU      1.10s WALL (     360 calls)
     cegterg      :    211.89s CPU    330.96s WALL (     162 calls)

     Called by sum_band:
     sum_band:bec :      1.60s CPU      2.27s WALL (     162 calls)
     addusdens    :      2.35s CPU      2.98s WALL (       9 calls)

     Called by *egterg:
     h_psi        :    124.56s CPU    205.75s WALL (     722 calls)
     s_psi        :      3.05s CPU      3.80s WALL (     722 calls)
     g_psi        :      0.16s CPU      0.17s WALL (     542 calls)
     cdiaghg      :     27.94s CPU     42.53s WALL (     704 calls)
     cegterg:over :     24.23s CPU     32.30s WALL (     542 calls)
     cegterg:upda :     21.17s CPU     30.65s WALL (     542 calls)
     cegterg:last :      3.69s CPU      5.50s WALL (     162 calls)
     cdiaghg:chol :      1.61s CPU      2.45s WALL (     704 calls)
     cdiaghg:inve :      0.91s CPU      1.47s WALL (     704 calls)
     cdiaghg:para :      8.03s CPU     12.68s WALL (    1408 calls)

     Called by h_psi:
     h_psi:pot    :    124.05s CPU    205.18s WALL (     722 calls)
     h_psi:calbec :      2.87s CPU      3.48s WALL (     722 calls)
     vloc_psi     :    118.23s CPU    197.93s WALL (     722 calls)
     add_vuspsi   :      2.95s CPU      3.76s WALL (     722 calls)

     General routines
     calbec       :      5.01s CPU      6.40s WALL (     956 calls)
     fft          :      2.79s CPU      4.69s WALL (     220 calls)
     ffts         :      0.52s CPU      0.74s WALL (      76 calls)
     fftw         :    139.63s CPU    234.41s WALL (  121596 calls)
     interpolate  :      0.96s CPU      1.54s WALL (      40 calls)
 
     Parallel routines
     fft_scatt_xy :      3.15s CPU      4.23s WALL (  121892 calls)
     fft_scatt_yz :    122.87s CPU    214.89s WALL (  121892 calls)

     PAW routines
     PAW_pot      :      2.66s CPU      3.75s WALL (      10 calls)
     PAW_symme    :      0.03s CPU      0.04s WALL (      19 calls)
 
     PWSCF        :   4m39.08s CPU   7m14.70s WALL

 
   This run was terminated on:  18:56:11  23Jan2021            

=------------------------------------------------------------------------------=
   JOB DONE.
=------------------------------------------------------------------------------=
