
     Program PWSCF v.6.4.1 starts on 23Jan2021 at 18:48:55 

     This program is part of the open-source Quantum ESPRESSO suite
     for quantum simulation of materials; please cite
         "P. Giannozzi et al., J. Phys.:Condens. Matter 21 395502 (2009);
         "P. Giannozzi et al., J. Phys.:Condens. Matter 29 465901 (2017);
          URL http://www.quantum-espresso.org", 
     in publications or presentations arising from this work. More details at
     http://www.quantum-espresso.org/quote

     Parallel version (MPI & OpenMP), running on      48 processor cores
     Number of MPI processes:                24
     Threads/MPI process:                     2

     MPI processes distributed on     1 nodes
     R & G space division:  proc/nbgrp/npool/nimage =      24
     Waiting for input...
     Reading input from standard input

     Current dimensions of program PWSCF are:
     Max number of different atomic species (ntypx) = 10
     Max number of k-points (npk) =  40000
     Max angular momentum in pseudopotentials (lmaxx) =  3
               file Sn.rel-pbesol-dn-kjpaw_psl.1.0.0.UPF: wavefunction(s)  5S 5P 5P 4D 4D renormalized
               file I.rel-pbesol-n-kjpaw_psl.1.0.0.UPF: wavefunction(s)  5S renormalized

     Subspace diagonalization in iterative solution of the eigenvalue problem:
     one sub-group per band group will be used
     scalapack distributed-memory algorithm (size of sub-group:  3*  3 procs)

 
     Parallelization info
     --------------------
     sticks:   dense  smooth     PW     G-vecs:    dense   smooth      PW
     Min         289     193     51                18153     9879    1375
     Max         290     194     52                18156     9884    1380
     Sum        6953    4637   1237               435703   237129   33059
 

     Title: 
     SnI2                                                                       


     bravais-lattice index     =            1
     lattice parameter (alat)  =      14.4199  a.u.
     unit-cell volume          =    2998.4083 (a.u.)^3
     number of atoms/cell      =            6
     number of atomic types    =            2
     number of electrons       =        56.00
     number of Kohn-Sham states=           56
     kinetic-energy cutoff     =      70.0000  Ry
     charge density cutoff     =     420.0000  Ry
     convergence threshold     =      1.0E-06
     mixing beta               =       0.3500
     number of iterations used =            8  plain     mixing
     Exchange-correlation      = SLA PW PSX PSC ( 1  4 10  8 0 0)
     Non magnetic calculation with spin-orbit


     celldm(1)=  14.419945  celldm(2)=   0.000000  celldm(3)=   0.000000
     celldm(4)=   0.000000  celldm(5)=   0.000000  celldm(6)=   0.000000

     crystal axes: (cart. coord. in units of alat)
               a(1) = (   1.000000   0.000000   0.000000 )  
               a(2) = (   0.000000   1.000000   0.000000 )  
               a(3) = (   0.000000   0.000000   1.000000 )  

     reciprocal axes: (cart. coord. in units 2 pi/alat)
               b(1) = (  1.000000  0.000000  0.000000 )  
               b(2) = (  0.000000  1.000000  0.000000 )  
               b(3) = (  0.000000  0.000000  1.000000 )  


     PseudoPot. # 1 for Sn read from file:
     /marconi_scratch/userexternal/cmalosso/degironcoli/pseudo/Sn.rel-pbesol-dn-kjpaw_psl.1.0.0.UPF
     MD5 check sum: e69eff64f15ae39ad43ef58bacbfdf88
     Pseudo is Projector augmented-wave + core cor, Zval = 14.0
     Generated using "atomic" code by A. Dal Corso v.6.3
     Shape of augmentation charge: PSQ
     Using radial grid of 1243 points, 10 beta functions with: 
                l(1) =   0
                l(2) =   0
                l(3) =   1
                l(4) =   1
                l(5) =   1
                l(6) =   1
                l(7) =   2
                l(8) =   2
                l(9) =   2
               l(10) =   2
     Q(r) pseudized with 0 coefficients 


     PseudoPot. # 2 for I  read from file:
     /marconi_scratch/userexternal/cmalosso/degironcoli/pseudo/I.rel-pbesol-n-kjpaw_psl.1.0.0.UPF
     MD5 check sum: 4478c427bd443f303eca1937a163b991
     Pseudo is Projector augmented-wave + core cor, Zval =  7.0
     Generated using "atomic" code by A. Dal Corso v.6.3
     Shape of augmentation charge: PSQ
     Using radial grid of 1247 points, 10 beta functions with: 
                l(1) =   0
                l(2) =   0
                l(3) =   1
                l(4) =   1
                l(5) =   1
                l(6) =   1
                l(7) =   2
                l(8) =   2
                l(9) =   2
               l(10) =   2
     Q(r) pseudized with 0 coefficients 


     atomic species   valence    mass     pseudopotential
        Sn            14.00   118.70000     Sn( 1.00)
        I              7.00   126.90000     I ( 1.00)

     16 Sym. Ops., with inversion, found ( 8 have fractional translation)


                                    s                        frac. trans.

      isym =  1     identity                                     

 cryst.   s( 1) = (     1          0          0      )
                  (     0          1          0      )
                  (     0          0          1      )

 cart.    s( 1) = (  1.0000000  0.0000000  0.0000000 )
                  (  0.0000000  1.0000000  0.0000000 )
                  (  0.0000000  0.0000000  1.0000000 )


      isym =  2     180 deg rotation - cart. axis [0,0,1]        

 cryst.   s( 2) = (    -1          0          0      )
                  (     0         -1          0      )
                  (     0          0          1      )

 cart.    s( 2) = ( -1.0000000  0.0000000  0.0000000 )
                  (  0.0000000 -1.0000000  0.0000000 )
                  (  0.0000000  0.0000000  1.0000000 )


      isym =  3     180 deg rotation - cart. axis [0,1,0]        

 cryst.   s( 3) = (    -1          0          0      )    f =(  0.5000000 )
                  (     0          1          0      )       ( -0.5000000 )
                  (     0          0         -1      )       (  0.5000000 )

 cart.    s( 3) = ( -1.0000000  0.0000000  0.0000000 )    f =(  0.5000000 )
                  (  0.0000000  1.0000000  0.0000000 )       ( -0.5000000 )
                  (  0.0000000  0.0000000 -1.0000000 )       (  0.5000000 )


      isym =  4     180 deg rotation - cart. axis [1,0,0]        

 cryst.   s( 4) = (     1          0          0      )    f =( -0.5000000 )
                  (     0         -1          0      )       (  0.5000000 )
                  (     0          0         -1      )       (  0.5000000 )

 cart.    s( 4) = (  1.0000000  0.0000000  0.0000000 )    f =( -0.5000000 )
                  (  0.0000000 -1.0000000  0.0000000 )       (  0.5000000 )
                  (  0.0000000  0.0000000 -1.0000000 )       (  0.5000000 )


      isym =  5     180 deg rotation - cart. axis [1,1,0]        

 cryst.   s( 5) = (     0          1          0      )
                  (     1          0          0      )
                  (     0          0         -1      )

 cart.    s( 5) = (  0.0000000  1.0000000  0.0000000 )
                  (  1.0000000  0.0000000  0.0000000 )
                  (  0.0000000  0.0000000 -1.0000000 )


      isym =  6     180 deg rotation - cart. axis [1,-1,0]       

 cryst.   s( 6) = (     0         -1          0      )
                  (    -1          0          0      )
                  (     0          0         -1      )

 cart.    s( 6) = (  0.0000000 -1.0000000  0.0000000 )
                  ( -1.0000000  0.0000000  0.0000000 )
                  (  0.0000000  0.0000000 -1.0000000 )


      isym =  7      90 deg rotation - cart. axis [0,0,-1]       

 cryst.   s( 7) = (     0         -1          0      )    f =( -0.5000000 )
                  (     1          0          0      )       (  0.5000000 )
                  (     0          0          1      )       ( -0.5000000 )

 cart.    s( 7) = (  0.0000000  1.0000000  0.0000000 )    f =( -0.5000000 )
                  ( -1.0000000  0.0000000  0.0000000 )       (  0.5000000 )
                  (  0.0000000  0.0000000  1.0000000 )       ( -0.5000000 )


      isym =  8      90 deg rotation - cart. axis [0,0,1]        

 cryst.   s( 8) = (     0          1          0      )    f =(  0.5000000 )
                  (    -1          0          0      )       ( -0.5000000 )
                  (     0          0          1      )       ( -0.5000000 )

 cart.    s( 8) = (  0.0000000 -1.0000000  0.0000000 )    f =(  0.5000000 )
                  (  1.0000000  0.0000000  0.0000000 )       ( -0.5000000 )
                  (  0.0000000  0.0000000  1.0000000 )       ( -0.5000000 )


      isym =  9     inversion                                    

 cryst.   s( 9) = (    -1          0          0      )
                  (     0         -1          0      )
                  (     0          0         -1      )

 cart.    s( 9) = ( -1.0000000  0.0000000  0.0000000 )
                  (  0.0000000 -1.0000000  0.0000000 )
                  (  0.0000000  0.0000000 -1.0000000 )


      isym = 10     inv. 180 deg rotation - cart. axis [0,0,1]   

 cryst.   s(10) = (     1          0          0      )
                  (     0          1          0      )
                  (     0          0         -1      )

 cart.    s(10) = (  1.0000000  0.0000000  0.0000000 )
                  (  0.0000000  1.0000000  0.0000000 )
                  (  0.0000000  0.0000000 -1.0000000 )


      isym = 11     inv. 180 deg rotation - cart. axis [0,1,0]   

 cryst.   s(11) = (     1          0          0      )    f =( -0.5000000 )
                  (     0         -1          0      )       (  0.5000000 )
                  (     0          0          1      )       ( -0.5000000 )

 cart.    s(11) = (  1.0000000  0.0000000  0.0000000 )    f =( -0.5000000 )
                  (  0.0000000 -1.0000000  0.0000000 )       (  0.5000000 )
                  (  0.0000000  0.0000000  1.0000000 )       ( -0.5000000 )


      isym = 12     inv. 180 deg rotation - cart. axis [1,0,0]   

 cryst.   s(12) = (    -1          0          0      )    f =(  0.5000000 )
                  (     0          1          0      )       ( -0.5000000 )
                  (     0          0          1      )       ( -0.5000000 )

 cart.    s(12) = ( -1.0000000  0.0000000  0.0000000 )    f =(  0.5000000 )
                  (  0.0000000  1.0000000  0.0000000 )       ( -0.5000000 )
                  (  0.0000000  0.0000000  1.0000000 )       ( -0.5000000 )


      isym = 13     inv. 180 deg rotation - cart. axis [1,1,0]   

 cryst.   s(13) = (     0         -1          0      )
                  (    -1          0          0      )
                  (     0          0          1      )

 cart.    s(13) = (  0.0000000 -1.0000000  0.0000000 )
                  ( -1.0000000  0.0000000  0.0000000 )
                  (  0.0000000  0.0000000  1.0000000 )


      isym = 14     inv. 180 deg rotation - cart. axis [1,-1,0]  

 cryst.   s(14) = (     0          1          0      )
                  (     1          0          0      )
                  (     0          0          1      )

 cart.    s(14) = (  0.0000000  1.0000000  0.0000000 )
                  (  1.0000000  0.0000000  0.0000000 )
                  (  0.0000000  0.0000000  1.0000000 )


      isym = 15     inv.  90 deg rotation - cart. axis [0,0,-1]  

 cryst.   s(15) = (     0          1          0      )    f =(  0.5000000 )
                  (    -1          0          0      )       ( -0.5000000 )
                  (     0          0         -1      )       (  0.5000000 )

 cart.    s(15) = (  0.0000000 -1.0000000  0.0000000 )    f =(  0.5000000 )
                  (  1.0000000  0.0000000  0.0000000 )       ( -0.5000000 )
                  (  0.0000000  0.0000000 -1.0000000 )       (  0.5000000 )


      isym = 16     inv.  90 deg rotation - cart. axis [0,0,1]   

 cryst.   s(16) = (     0         -1          0      )    f =( -0.5000000 )
                  (     1          0          0      )       (  0.5000000 )
                  (     0          0         -1      )       (  0.5000000 )

 cart.    s(16) = (  0.0000000  1.0000000  0.0000000 )    f =( -0.5000000 )
                  ( -1.0000000  0.0000000  0.0000000 )       (  0.5000000 )
                  (  0.0000000  0.0000000 -1.0000000 )       (  0.5000000 )


     double point group D_4h(4/mmm)
     there are 14 classes and  4 irreducible representations
     the character table:

       E     -E    2C4   -2C4   C2    2C2' 2C2'' i     -i    2S4   -2S4   s_h 
                               -C2   -2C2' -2C2'                         -s_h 
G_6+   2.00 -2.00  1.41 -1.41  0.00  0.00  0.00  2.00 -2.00  1.41 -1.41  0.00
G_7+   2.00 -2.00 -1.41  1.41  0.00  0.00  0.00  2.00 -2.00 -1.41  1.41  0.00
G_6-   2.00 -2.00  1.41 -1.41  0.00  0.00  0.00 -2.00  2.00 -1.41  1.41  0.00
G_7-   2.00 -2.00 -1.41  1.41  0.00  0.00  0.00 -2.00  2.00  1.41 -1.41  0.00

        2s_v  2s_d
       -2s_v -2s_d
G_6+   0.00  0.00
G_7+   0.00  0.00
G_6-   0.00  0.00
G_7-   0.00  0.00

     the symmetry operations in each class and the name of the first element:

     E             1
          identity                                               
     -E           -1
          identity E                                             
     2C4           7    8
           90 deg rotation - cart. axis [0,0,-1]                 
     -2C4         -7   -8
           90 deg rotation - cart. axis [0,0,-1] E               
      C2  -C2      2   -2
          180 deg rotation - cart. axis [0,0,1]                  
      2C2'-2C2'    3   -3    4   -4
          180 deg rotation - cart. axis [0,1,0]                  
     2C2''-2C2'    5   -5   -6    6
          180 deg rotation - cart. axis [1,1,0]                  
     i             9
          inversion                                              
     -i           -9
          inversion E                                            
     2S4          15   16
          inv.  90 deg rotation - cart. axis [0,0,-1]            
     -2S4        -15  -16
          inv.  90 deg rotation - cart. axis [0,0,-1] E          
      s_h -s_h    10  -10
          inv. 180 deg rotation - cart. axis [0,0,1]             
      2s_v-2s_v   11  -11   12  -12
          inv. 180 deg rotation - cart. axis [0,1,0]             
      2s_d-2s_d   13  -13  -14   14
          inv. 180 deg rotation - cart. axis [1,1,0]             

   Cartesian axes

     site n.     atom                  positions (alat units)
         1           Sn  tau(   1) = (   0.0000000   0.0000000   0.0000000  )
         2           Sn  tau(   2) = (   0.5000000   0.5000000   0.5000000  )
         3           I   tau(   3) = (   0.2985210   0.2985210   0.0000000  )
         4           I   tau(   4) = (   0.7014790   0.7014790   0.0000000  )
         5           I   tau(   5) = (   0.7985210   0.2014790   0.5000000  )
         6           I   tau(   6) = (   0.2014790   0.7985210   0.5000000  )

   Crystallographic axes

     site n.     atom                  positions (cryst. coord.)
         1           Sn  tau(   1) = (  0.0000000  0.0000000  0.0000000  )
         2           Sn  tau(   2) = (  0.5000000  0.5000000  0.5000000  )
         3           I   tau(   3) = (  0.2985210  0.2985210  0.0000000  )
         4           I   tau(   4) = (  0.7014790  0.7014790  0.0000000  )
         5           I   tau(   5) = (  0.7985210  0.2014790  0.5000000  )
         6           I   tau(   6) = (  0.2014790  0.7985210  0.5000000  )

     number of k points=    18
                       cart. coord. in units 2pi/alat
        k(    1) = (   0.0833333   0.0833333   0.0833333), wk =   0.0370370
        k(    2) = (   0.0833333   0.0833333   0.2500000), wk =   0.0370370
        k(    3) = (   0.0833333   0.0833333   0.4166667), wk =   0.0370370
        k(    4) = (   0.0833333   0.2500000   0.2500000), wk =   0.0740741
        k(    5) = (   0.0833333   0.2500000   0.4166667), wk =   0.0740741
        k(    6) = (   0.0833333   0.4166667   0.4166667), wk =   0.0740741
        k(    7) = (   0.2500000   0.2500000   0.2500000), wk =   0.0370370
        k(    8) = (   0.2500000   0.2500000   0.4166667), wk =   0.0370370
        k(    9) = (   0.2500000   0.4166667   0.4166667), wk =   0.0740741
        k(   10) = (   0.4166667   0.4166667   0.4166667), wk =   0.0370370
        k(   11) = (   0.0833333   0.2500000   0.0833333), wk =   0.0740741
        k(   12) = (   0.0833333   0.4166667   0.0833333), wk =   0.0740741
        k(   13) = (   0.2500000   0.2500000   0.0833333), wk =   0.0370370
        k(   14) = (   0.2500000   0.4166667   0.0833333), wk =   0.0740741
        k(   15) = (   0.4166667   0.0833333   0.2500000), wk =   0.0740741
        k(   16) = (   0.4166667   0.4166667   0.0833333), wk =   0.0370370
        k(   17) = (   0.2500000   0.4166667   0.2500000), wk =   0.0740741
        k(   18) = (   0.4166667   0.4166667   0.2500000), wk =   0.0370370

                       cryst. coord.
        k(    1) = (   0.0833333   0.0833333   0.0833333), wk =   0.0370370
        k(    2) = (   0.0833333   0.0833333   0.2500000), wk =   0.0370370
        k(    3) = (   0.0833333   0.0833333   0.4166667), wk =   0.0370370
        k(    4) = (   0.0833333   0.2500000   0.2500000), wk =   0.0740741
        k(    5) = (   0.0833333   0.2500000   0.4166667), wk =   0.0740741
        k(    6) = (   0.0833333   0.4166667   0.4166667), wk =   0.0740741
        k(    7) = (   0.2500000   0.2500000   0.2500000), wk =   0.0370370
        k(    8) = (   0.2500000   0.2500000   0.4166667), wk =   0.0370370
        k(    9) = (   0.2500000   0.4166667   0.4166667), wk =   0.0740741
        k(   10) = (   0.4166667   0.4166667   0.4166667), wk =   0.0370370
        k(   11) = (   0.0833333   0.2500000   0.0833333), wk =   0.0740741
        k(   12) = (   0.0833333   0.4166667   0.0833333), wk =   0.0740741
        k(   13) = (   0.2500000   0.2500000   0.0833333), wk =   0.0370370
        k(   14) = (   0.2500000   0.4166667   0.0833333), wk =   0.0740741
        k(   15) = (   0.4166667   0.0833333   0.2500000), wk =   0.0740741
        k(   16) = (   0.4166667   0.4166667   0.0833333), wk =   0.0370370
        k(   17) = (   0.2500000   0.4166667   0.2500000), wk =   0.0740741
        k(   18) = (   0.4166667   0.4166667   0.2500000), wk =   0.0370370

     Dense  grid:   435703 G-vectors     FFT dimensions: (  96,  96,  96)

     Smooth grid:   237129 G-vectors     FFT dimensions: (  80,  80,  80)

     Dynamical RAM for                 wfc:       2.11 MB

     Dynamical RAM for     wfc (w. buffer):      40.10 MB

     Dynamical RAM for           str. fact:       0.55 MB

     Dynamical RAM for           local pot:       0.00 MB

     Dynamical RAM for          nlocal pot:       3.84 MB

     Dynamical RAM for                qrad:      19.75 MB

     Dynamical RAM for          rho,v,vnew:       6.70 MB

     Dynamical RAM for               rhoin:       2.23 MB

     Dynamical RAM for            rho*nmix:      17.73 MB

     Dynamical RAM for           G-vectors:       1.11 MB

     Dynamical RAM for          h,s,v(r/c):       0.25 MB

     Dynamical RAM for          <psi|beta>:       0.35 MB

     Dynamical RAM for                 psi:       8.44 MB

     Dynamical RAM for                hpsi:       8.44 MB

     Dynamical RAM for                spsi:       8.44 MB

     Dynamical RAM for      wfcinit/wfcrot:       3.95 MB

     Dynamical RAM for           addusdens:     170.10 MB

     Dynamical RAM for          addusforce:     173.65 MB

     Dynamical RAM for         addusstress:     173.98 MB

     Estimated static dynamical RAM per process >      95.11 MB

     Estimated max dynamical RAM per process >     269.09 MB

     Estimated total dynamical RAM >       6.31 GB

     Initial potential from superposition of free atoms

     starting charge   55.99771, renormalised to   56.00000
     Starting wfcs are   68 randomized atomic wfcs
     Checking if some PAW data can be deallocated... 
       PAW data deallocated on   16 nodes for type:  1
       PAW data deallocated on    8 nodes for type:  2

     total cpu time spent up to now is       29.5 secs

     Self-consistent Calculation

     iteration #  1     ecut=    70.00 Ry     beta= 0.35
     Davidson diagonalization with overlap
     ethr =  1.00E-02,  avg # of iterations =  1.0

     total cpu time spent up to now is       92.7 secs

     total energy              =   -2370.83234858 Ry
     Harris-Foulkes estimate   =   -2371.11704121 Ry
     estimated scf accuracy    <       0.58861937 Ry

     iteration #  2     ecut=    70.00 Ry     beta= 0.35
     Davidson diagonalization with overlap
     ethr =  1.05E-03,  avg # of iterations =  3.1

     total cpu time spent up to now is      168.7 secs

     total energy              =   -2370.93537982 Ry
     Harris-Foulkes estimate   =   -2370.94630903 Ry
     estimated scf accuracy    <       0.04054149 Ry

     iteration #  3     ecut=    70.00 Ry     beta= 0.35
     Davidson diagonalization with overlap
     ethr =  7.24E-05,  avg # of iterations =  3.5

     total cpu time spent up to now is      248.5 secs

     total energy              =   -2370.93927091 Ry
     Harris-Foulkes estimate   =   -2370.94154596 Ry
     estimated scf accuracy    <       0.00903050 Ry

     iteration #  4     ecut=    70.00 Ry     beta= 0.35
     Davidson diagonalization with overlap
     ethr =  1.61E-05,  avg # of iterations =  2.8

     total cpu time spent up to now is      321.0 secs

     WARNING: integrated charge=    56.01504052, expected=    56.00000000

     total energy              =   -2370.94043352 Ry
     Harris-Foulkes estimate   =   -2370.94037320 Ry
     estimated scf accuracy    <       0.00059692 Ry

     iteration #  5     ecut=    70.00 Ry     beta= 0.35
     Davidson diagonalization with overlap
     ethr =  1.07E-06,  avg # of iterations =  5.3

     total cpu time spent up to now is      419.6 secs

     WARNING: integrated charge=    56.01116720, expected=    56.00000000

     total energy              =   -2370.94052774 Ry
     Harris-Foulkes estimate   =   -2370.94075009 Ry
     estimated scf accuracy    <       0.00052539 Ry

     iteration #  6     ecut=    70.00 Ry     beta= 0.35
     Davidson diagonalization with overlap
     ethr =  9.38E-07,  avg # of iterations =  3.1

     total cpu time spent up to now is      488.3 secs

     WARNING: integrated charge=    56.00478128, expected=    56.00000000

     total energy              =   -2370.94063574 Ry
     Harris-Foulkes estimate   =   -2370.94062723 Ry
     estimated scf accuracy    <       0.00001449 Ry

     iteration #  7     ecut=    70.00 Ry     beta= 0.35
     Davidson diagonalization with overlap
     ethr =  2.59E-08,  avg # of iterations =  5.1

     total cpu time spent up to now is      588.9 secs

     WARNING: integrated charge=    56.00115417, expected=    56.00000000

     total energy              =   -2370.94063091 Ry
     Harris-Foulkes estimate   =   -2370.94064906 Ry
     estimated scf accuracy    <       0.00004518 Ry

     iteration #  8     ecut=    70.00 Ry     beta= 0.35
     Davidson diagonalization with overlap
     ethr =  2.59E-08,  avg # of iterations =  4.0

     total cpu time spent up to now is      670.7 secs

     End of self-consistent calculation

          k = 0.0833 0.0833 0.0833 ( 29624 PWs)   bands (ev):

   -23.2725 -23.2725 -23.2725 -23.2725 -23.1402 -23.1402 -23.1402 -23.1402
   -22.2530 -22.2530 -22.2529 -22.2529 -22.1378 -22.1378 -22.1378 -22.1378
   -22.0841 -22.0841 -22.0840 -22.0840 -11.6248 -11.6248 -11.5343 -11.5343
   -11.4847 -11.4847 -11.4804 -11.4804  -7.0752  -7.0752  -6.8759  -6.8759
    -2.6892  -2.6892  -2.5275  -2.5275  -2.1413  -2.1413  -2.0302  -2.0302
    -1.8827  -1.8827  -1.5309  -1.5309  -1.2276  -1.2276  -1.1344  -1.1344
    -1.1095  -1.1095  -0.9971  -0.9971  -0.9254  -0.9254  -0.8849  -0.8849

     occupation numbers 
     1.0000   1.0000   1.0000   1.0000   1.0000   1.0000   1.0000   1.0000
     1.0000   1.0000   1.0000   1.0000   1.0000   1.0000   1.0000   1.0000
     1.0000   1.0000   1.0000   1.0000   1.0000   1.0000   1.0000   1.0000
     1.0000   1.0000   1.0000   1.0000   1.0000   1.0000   1.0000   1.0000
     1.0000   1.0000   1.0000   1.0000   1.0000   1.0000   1.0000   1.0000
     1.0000   1.0000   1.0000   1.0000   1.0000   1.0000   1.0000   1.0000
     1.0000   1.0000   1.0000   1.0000   1.0000   1.0000   1.0000   1.0000

          k = 0.0833 0.0833 0.2500 ( 29627 PWs)   bands (ev):

   -23.2726 -23.2726 -23.2725 -23.2725 -23.1402 -23.1402 -23.1402 -23.1402
   -22.2530 -22.2530 -22.2530 -22.2530 -22.1378 -22.1378 -22.1378 -22.1378
   -22.0841 -22.0841 -22.0840 -22.0840 -11.6125 -11.6125 -11.5461 -11.5461
   -11.4846 -11.4846 -11.4802 -11.4802  -7.0552  -7.0552  -6.9096  -6.9096
    -2.6764  -2.6764  -2.5248  -2.5248  -2.1299  -2.1299  -2.0086  -2.0086
    -1.8572  -1.8572  -1.5554  -1.5554  -1.2254  -1.2254  -1.1755  -1.1755
    -1.1329  -1.1329  -1.0251  -1.0251  -0.9358  -0.9358  -0.8984  -0.8984

     occupation numbers 
     1.0000   1.0000   1.0000   1.0000   1.0000   1.0000   1.0000   1.0000
     1.0000   1.0000   1.0000   1.0000   1.0000   1.0000   1.0000   1.0000
     1.0000   1.0000   1.0000   1.0000   1.0000   1.0000   1.0000   1.0000
     1.0000   1.0000   1.0000   1.0000   1.0000   1.0000   1.0000   1.0000
     1.0000   1.0000   1.0000   1.0000   1.0000   1.0000   1.0000   1.0000
     1.0000   1.0000   1.0000   1.0000   1.0000   1.0000   1.0000   1.0000
     1.0000   1.0000   1.0000   1.0000   1.0000   1.0000   1.0000   1.0000

          k = 0.0833 0.0833 0.4167 ( 29662 PWs)   bands (ev):

   -23.2726 -23.2726 -23.2726 -23.2726 -23.1402 -23.1402 -23.1402 -23.1402
   -22.2530 -22.2530 -22.2530 -22.2530 -22.1378 -22.1378 -22.1378 -22.1378
   -22.0841 -22.0841 -22.0841 -22.0841 -11.5913 -11.5913 -11.5667 -11.5667
   -11.4846 -11.4846 -11.4800 -11.4800  -7.0159  -7.0159  -6.9624  -6.9624
    -2.6642  -2.6642  -2.5208  -2.5208  -2.1287  -2.1287  -1.9912  -1.9912
    -1.7907  -1.7907  -1.6123  -1.6123  -1.2242  -1.2242  -1.2043  -1.2043
    -1.1366  -1.1366  -1.0598  -1.0598  -0.9628  -0.9628  -0.9124  -0.9124

     occupation numbers 
     1.0000   1.0000   1.0000   1.0000   1.0000   1.0000   1.0000   1.0000
     1.0000   1.0000   1.0000   1.0000   1.0000   1.0000   1.0000   1.0000
     1.0000   1.0000   1.0000   1.0000   1.0000   1.0000   1.0000   1.0000
     1.0000   1.0000   1.0000   1.0000   1.0000   1.0000   1.0000   1.0000
     1.0000   1.0000   1.0000   1.0000   1.0000   1.0000   1.0000   1.0000
     1.0000   1.0000   1.0000   1.0000   1.0000   1.0000   1.0000   1.0000
     1.0000   1.0000   1.0000   1.0000   1.0000   1.0000   1.0000   1.0000

          k = 0.0833 0.2500 0.2500 ( 29680 PWs)   bands (ev):

   -23.2726 -23.2726 -23.2726 -23.2726 -23.1403 -23.1403 -23.1402 -23.1402
   -22.2530 -22.2530 -22.2530 -22.2530 -22.1378 -22.1378 -22.1378 -22.1378
   -22.0841 -22.0841 -22.0841 -22.0841 -11.5975 -11.5975 -11.5413 -11.5413
   -11.4992 -11.4992 -11.4863 -11.4863  -7.0321  -7.0321  -6.9248  -6.9248
    -2.8237  -2.8237  -2.6496  -2.6496  -2.0998  -2.0998  -1.9424  -1.9424
    -1.8152  -1.8152  -1.5773  -1.5773  -1.2508  -1.2508  -1.1832  -1.1832
    -1.0537  -1.0537  -0.9651  -0.9651  -0.9003  -0.9003  -0.7164  -0.7164

     occupation numbers 
     1.0000   1.0000   1.0000   1.0000   1.0000   1.0000   1.0000   1.0000
     1.0000   1.0000   1.0000   1.0000   1.0000   1.0000   1.0000   1.0000
     1.0000   1.0000   1.0000   1.0000   1.0000   1.0000   1.0000   1.0000
     1.0000   1.0000   1.0000   1.0000   1.0000   1.0000   1.0000   1.0000
     1.0000   1.0000   1.0000   1.0000   1.0000   1.0000   1.0000   1.0000
     1.0000   1.0000   1.0000   1.0000   1.0000   1.0000   1.0000   1.0000
     1.0000   1.0000   1.0000   1.0000   1.0000   1.0000   1.0000   1.0000

          k = 0.0833 0.2500 0.4167 ( 29646 PWs)   bands (ev):

   -23.2726 -23.2726 -23.2726 -23.2726 -23.1402 -23.1402 -23.1402 -23.1402
   -22.2530 -22.2530 -22.2530 -22.2530 -22.1378 -22.1378 -22.1378 -22.1378
   -22.0841 -22.0841 -22.0841 -22.0841 -11.5801 -11.5801 -11.5570 -11.5570
   -11.4990 -11.4990 -11.4872 -11.4872  -7.0053  -7.0053  -6.9647  -6.9647
    -2.8362  -2.8362  -2.6536  -2.6536  -2.0660  -2.0660  -1.8880  -1.8880
    -1.8356  -1.8356  -1.5854  -1.5854  -1.2578  -1.2578  -1.1790  -1.1790
    -1.0690  -1.0690  -0.9811  -0.9811  -0.8936  -0.8936  -0.7157  -0.7157

     occupation numbers 
     1.0000   1.0000   1.0000   1.0000   1.0000   1.0000   1.0000   1.0000
     1.0000   1.0000   1.0000   1.0000   1.0000   1.0000   1.0000   1.0000
     1.0000   1.0000   1.0000   1.0000   1.0000   1.0000   1.0000   1.0000
     1.0000   1.0000   1.0000   1.0000   1.0000   1.0000   1.0000   1.0000
     1.0000   1.0000   1.0000   1.0000   1.0000   1.0000   1.0000   1.0000
     1.0000   1.0000   1.0000   1.0000   1.0000   1.0000   1.0000   1.0000
     1.0000   1.0000   1.0000   1.0000   1.0000   1.0000   1.0000   1.0000

          k = 0.0833 0.4167 0.4167 ( 29697 PWs)   bands (ev):

   -23.2726 -23.2726 -23.2726 -23.2726 -23.1403 -23.1403 -23.1402 -23.1402
   -22.2530 -22.2530 -22.2530 -22.2530 -22.1378 -22.1378 -22.1378 -22.1378
   -22.0841 -22.0841 -22.0841 -22.0841 -11.5613 -11.5613 -11.5481 -11.5481
   -11.5121 -11.5121 -11.5025 -11.5025  -6.9890  -6.9890  -6.9726  -6.9726
    -2.9034  -2.9034  -2.8266  -2.8266  -2.0208  -2.0208  -1.9109  -1.9109
    -1.7868  -1.7868  -1.5873  -1.5873  -1.2452  -1.2452  -1.1987  -1.1987
    -0.9697  -0.9697  -0.9363  -0.9363  -0.7195  -0.7195  -0.5766  -0.5766

     occupation numbers 
     1.0000   1.0000   1.0000   1.0000   1.0000   1.0000   1.0000   1.0000
     1.0000   1.0000   1.0000   1.0000   1.0000   1.0000   1.0000   1.0000
     1.0000   1.0000   1.0000   1.0000   1.0000   1.0000   1.0000   1.0000
     1.0000   1.0000   1.0000   1.0000   1.0000   1.0000   1.0000   1.0000
     1.0000   1.0000   1.0000   1.0000   1.0000   1.0000   1.0000   1.0000
     1.0000   1.0000   1.0000   1.0000   1.0000   1.0000   1.0000   1.0000
     1.0000   1.0000   1.0000   1.0000   1.0000   1.0000   1.0000   1.0000

          k = 0.2500 0.2500 0.2500 ( 29677 PWs)   bands (ev):

   -23.2726 -23.2726 -23.2726 -23.2726 -23.1403 -23.1403 -23.1402 -23.1402
   -22.2530 -22.2530 -22.2530 -22.2530 -22.1378 -22.1378 -22.1378 -22.1378
   -22.0841 -22.0841 -22.0841 -22.0841 -11.5891 -11.5891 -11.5412 -11.5412
   -11.5083 -11.5083 -11.4852 -11.4852  -7.0221  -7.0221  -6.9415  -6.9415
    -2.8820  -2.8820  -2.5368  -2.5368  -2.0972  -2.0972  -1.9281  -1.9281
    -1.8739  -1.8739  -1.6049  -1.6049  -1.2970  -1.2970  -1.2295  -1.2295
    -1.1228  -1.1228  -0.9346  -0.9346  -0.8795  -0.8795  -0.5898  -0.5898

     occupation numbers 
     1.0000   1.0000   1.0000   1.0000   1.0000   1.0000   1.0000   1.0000
     1.0000   1.0000   1.0000   1.0000   1.0000   1.0000   1.0000   1.0000
     1.0000   1.0000   1.0000   1.0000   1.0000   1.0000   1.0000   1.0000
     1.0000   1.0000   1.0000   1.0000   1.0000   1.0000   1.0000   1.0000
     1.0000   1.0000   1.0000   1.0000   1.0000   1.0000   1.0000   1.0000
     1.0000   1.0000   1.0000   1.0000   1.0000   1.0000   1.0000   1.0000
     1.0000   1.0000   1.0000   1.0000   1.0000   1.0000   1.0000   1.0000

          k = 0.2500 0.2500 0.4167 ( 29643 PWs)   bands (ev):

   -23.2726 -23.2726 -23.2725 -23.2725 -23.1402 -23.1402 -23.1402 -23.1402
   -22.2530 -22.2530 -22.2530 -22.2530 -22.1378 -22.1378 -22.1378 -22.1378
   -22.0841 -22.0841 -22.0841 -22.0841 -11.5778 -11.5778 -11.5484 -11.5484
   -11.5114 -11.5114 -11.4850 -11.4850  -7.0062  -7.0062  -6.9707  -6.9707
    -2.8998  -2.8998  -2.5221  -2.5221  -2.1179  -2.1179  -1.8887  -1.8887
    -1.8747  -1.8747  -1.5843  -1.5843  -1.3094  -1.3094  -1.2077  -1.2077
    -1.1222  -1.1222  -0.9290  -0.9290  -0.8693  -0.8693  -0.5793  -0.5793

     occupation numbers 
     1.0000   1.0000   1.0000   1.0000   1.0000   1.0000   1.0000   1.0000
     1.0000   1.0000   1.0000   1.0000   1.0000   1.0000   1.0000   1.0000
     1.0000   1.0000   1.0000   1.0000   1.0000   1.0000   1.0000   1.0000
     1.0000   1.0000   1.0000   1.0000   1.0000   1.0000   1.0000   1.0000
     1.0000   1.0000   1.0000   1.0000   1.0000   1.0000   1.0000   1.0000
     1.0000   1.0000   1.0000   1.0000   1.0000   1.0000   1.0000   1.0000
     1.0000   1.0000   1.0000   1.0000   1.0000   1.0000   1.0000   1.0000

          k = 0.2500 0.4167 0.4167 ( 29645 PWs)   bands (ev):

   -23.2726 -23.2726 -23.2725 -23.2725 -23.1403 -23.1403 -23.1402 -23.1402
   -22.2530 -22.2530 -22.2530 -22.2530 -22.1378 -22.1378 -22.1378 -22.1378
   -22.0841 -22.0841 -22.0841 -22.0841 -11.5683 -11.5683 -11.5540 -11.5540
   -11.5067 -11.5067 -11.4929 -11.4929  -6.9997  -6.9997  -6.9843  -6.9843
    -2.8253  -2.8253  -2.6486  -2.6486  -2.0808  -2.0808  -1.9414  -1.9414
    -1.8240  -1.8240  -1.5903  -1.5903  -1.2938  -1.2938  -1.2371  -1.2371
    -1.0308  -1.0308  -0.8994  -0.8994  -0.8332  -0.8332  -0.7233  -0.7233

     occupation numbers 
     1.0000   1.0000   1.0000   1.0000   1.0000   1.0000   1.0000   1.0000
     1.0000   1.0000   1.0000   1.0000   1.0000   1.0000   1.0000   1.0000
     1.0000   1.0000   1.0000   1.0000   1.0000   1.0000   1.0000   1.0000
     1.0000   1.0000   1.0000   1.0000   1.0000   1.0000   1.0000   1.0000
     1.0000   1.0000   1.0000   1.0000   1.0000   1.0000   1.0000   1.0000
     1.0000   1.0000   1.0000   1.0000   1.0000   1.0000   1.0000   1.0000
     1.0000   1.0000   1.0000   1.0000   1.0000   1.0000   1.0000   1.0000

          k = 0.4167 0.4167 0.4167 ( 29662 PWs)   bands (ev):

   -23.2726 -23.2726 -23.2726 -23.2726 -23.1403 -23.1403 -23.1402 -23.1402
   -22.2530 -22.2530 -22.2530 -22.2530 -22.1378 -22.1378 -22.1378 -22.1378
   -22.0841 -22.0841 -22.0841 -22.0841 -11.5699 -11.5699 -11.5643 -11.5643
   -11.4956 -11.4956 -11.4899 -11.4899  -7.0065  -7.0065  -6.9998  -6.9998
    -2.6460  -2.6460  -2.5237  -2.5237  -2.1165  -2.1165  -1.9830  -1.9830
    -1.8685  -1.8685  -1.6654  -1.6654  -1.3339  -1.3339  -1.2824  -1.2824
    -1.0948  -1.0948  -1.0126  -1.0126  -0.8116  -0.8116  -0.7968  -0.7968

     occupation numbers 
     1.0000   1.0000   1.0000   1.0000   1.0000   1.0000   1.0000   1.0000
     1.0000   1.0000   1.0000   1.0000   1.0000   1.0000   1.0000   1.0000
     1.0000   1.0000   1.0000   1.0000   1.0000   1.0000   1.0000   1.0000
     1.0000   1.0000   1.0000   1.0000   1.0000   1.0000   1.0000   1.0000
     1.0000   1.0000   1.0000   1.0000   1.0000   1.0000   1.0000   1.0000
     1.0000   1.0000   1.0000   1.0000   1.0000   1.0000   1.0000   1.0000
     1.0000   1.0000   1.0000   1.0000   1.0000   1.0000   1.0000   1.0000

          k = 0.0833 0.2500 0.0833 ( 29627 PWs)   bands (ev):

   -23.2726 -23.2726 -23.2725 -23.2725 -23.1402 -23.1402 -23.1402 -23.1402
   -22.2530 -22.2530 -22.2529 -22.2529 -22.1378 -22.1378 -22.1378 -22.1378
   -22.0841 -22.0841 -22.0840 -22.0840 -11.6081 -11.6081 -11.5330 -11.5330
   -11.4987 -11.4987 -11.4855 -11.4855  -7.0452  -7.0452  -6.8986  -6.8986
    -2.8081  -2.8081  -2.6447  -2.6447  -2.1570  -2.1570  -1.9727  -1.9727
    -1.8036  -1.8036  -1.5562  -1.5562  -1.2439  -1.2439  -1.1873  -1.1873
    -1.0399  -1.0399  -0.9573  -0.9573  -0.9029  -0.9029  -0.7163  -0.7163

     occupation numbers 
     1.0000   1.0000   1.0000   1.0000   1.0000   1.0000   1.0000   1.0000
     1.0000   1.0000   1.0000   1.0000   1.0000   1.0000   1.0000   1.0000
     1.0000   1.0000   1.0000   1.0000   1.0000   1.0000   1.0000   1.0000
     1.0000   1.0000   1.0000   1.0000   1.0000   1.0000   1.0000   1.0000
     1.0000   1.0000   1.0000   1.0000   1.0000   1.0000   1.0000   1.0000
     1.0000   1.0000   1.0000   1.0000   1.0000   1.0000   1.0000   1.0000
     1.0000   1.0000   1.0000   1.0000   1.0000   1.0000   1.0000   1.0000

          k = 0.0833 0.4167 0.0833 ( 29662 PWs)   bands (ev):

   -23.2726 -23.2726 -23.2726 -23.2726 -23.1403 -23.1403 -23.1402 -23.1402
   -22.2530 -22.2530 -22.2530 -22.2530 -22.1378 -22.1378 -22.1378 -22.1378
   -22.0841 -22.0841 -22.0841 -22.0841 -11.5793 -11.5793 -11.5478 -11.5478
   -11.5040 -11.5040 -11.4952 -11.4952  -6.9952  -6.9952  -6.9413  -6.9413
    -2.8608  -2.8608  -2.7939  -2.7939  -2.1018  -2.1018  -2.0140  -2.0140
    -1.7069  -1.7069  -1.6070  -1.6070  -1.2699  -1.2699  -1.2456  -1.2456
    -0.9982  -0.9982  -0.9496  -0.9496  -0.7255  -0.7255  -0.5975  -0.5975

     occupation numbers 
     1.0000   1.0000   1.0000   1.0000   1.0000   1.0000   1.0000   1.0000
     1.0000   1.0000   1.0000   1.0000   1.0000   1.0000   1.0000   1.0000
     1.0000   1.0000   1.0000   1.0000   1.0000   1.0000   1.0000   1.0000
     1.0000   1.0000   1.0000   1.0000   1.0000   1.0000   1.0000   1.0000
     1.0000   1.0000   1.0000   1.0000   1.0000   1.0000   1.0000   1.0000
     1.0000   1.0000   1.0000   1.0000   1.0000   1.0000   1.0000   1.0000
     1.0000   1.0000   1.0000   1.0000   1.0000   1.0000   1.0000   1.0000

          k = 0.2500 0.2500 0.0833 ( 29680 PWs)   bands (ev):

   -23.2726 -23.2726 -23.2726 -23.2726 -23.1403 -23.1403 -23.1402 -23.1402
   -22.2530 -22.2530 -22.2530 -22.2530 -22.1378 -22.1378 -22.1378 -22.1378
   -22.0841 -22.0841 -22.0841 -22.0841 -11.5971 -11.5971 -11.5376 -11.5376
   -11.5048 -11.5048 -11.4854 -11.4854  -7.0293  -7.0293  -6.9209  -6.9209
    -2.8604  -2.8604  -2.5530  -2.5530  -2.0864  -2.0864  -1.9813  -1.9813
    -1.8702  -1.8702  -1.5879  -1.5879  -1.2963  -1.2963  -1.2507  -1.2507
    -1.1228  -1.1228  -0.9339  -0.9339  -0.8990  -0.8990  -0.5990  -0.5990

     occupation numbers 
     1.0000   1.0000   1.0000   1.0000   1.0000   1.0000   1.0000   1.0000
     1.0000   1.0000   1.0000   1.0000   1.0000   1.0000   1.0000   1.0000
     1.0000   1.0000   1.0000   1.0000   1.0000   1.0000   1.0000   1.0000
     1.0000   1.0000   1.0000   1.0000   1.0000   1.0000   1.0000   1.0000
     1.0000   1.0000   1.0000   1.0000   1.0000   1.0000   1.0000   1.0000
     1.0000   1.0000   1.0000   1.0000   1.0000   1.0000   1.0000   1.0000
     1.0000   1.0000   1.0000   1.0000   1.0000   1.0000   1.0000   1.0000

          k = 0.2500 0.4167 0.0833 ( 29646 PWs)   bands (ev):

   -23.2726 -23.2726 -23.2725 -23.2725 -23.1402 -23.1402 -23.1402 -23.1402
   -22.2530 -22.2530 -22.2530 -22.2530 -22.1378 -22.1378 -22.1378 -22.1378
   -22.0841 -22.0841 -22.0841 -22.0841 -11.5778 -11.5778 -11.5552 -11.5552
   -11.5003 -11.5003 -11.4913 -11.4913  -6.9985  -6.9985  -6.9583  -6.9583
    -2.7912  -2.7912  -2.6408  -2.6408  -2.0664  -2.0664  -2.0082  -2.0082
    -1.7681  -1.7681  -1.6416  -1.6416  -1.3506  -1.3506  -1.3228  -1.3228
    -1.0350  -1.0350  -0.9334  -0.9334  -0.8590  -0.8590  -0.7094  -0.7094

     occupation numbers 
     1.0000   1.0000   1.0000   1.0000   1.0000   1.0000   1.0000   1.0000
     1.0000   1.0000   1.0000   1.0000   1.0000   1.0000   1.0000   1.0000
     1.0000   1.0000   1.0000   1.0000   1.0000   1.0000   1.0000   1.0000
     1.0000   1.0000   1.0000   1.0000   1.0000   1.0000   1.0000   1.0000
     1.0000   1.0000   1.0000   1.0000   1.0000   1.0000   1.0000   1.0000
     1.0000   1.0000   1.0000   1.0000   1.0000   1.0000   1.0000   1.0000
     1.0000   1.0000   1.0000   1.0000   1.0000   1.0000   1.0000   1.0000

          k = 0.4167 0.0833 0.2500 ( 29646 PWs)   bands (ev):

   -23.2726 -23.2726 -23.2725 -23.2725 -23.1403 -23.1403 -23.1402 -23.1402
   -22.2530 -22.2530 -22.2530 -22.2530 -22.1378 -22.1378 -22.1378 -22.1378
   -22.0841 -22.0841 -22.0841 -22.0841 -11.5720 -11.5720 -11.5464 -11.5464
   -11.5083 -11.5083 -11.4984 -11.4984  -6.9944  -6.9944  -6.9546  -6.9546
    -2.8842  -2.8842  -2.8114  -2.8114  -2.0496  -2.0496  -1.9615  -1.9615
    -1.7569  -1.7569  -1.5943  -1.5943  -1.2606  -1.2606  -1.2261  -1.2261
    -0.9997  -0.9997  -0.9281  -0.9281  -0.7263  -0.7263  -0.5900  -0.5900

     occupation numbers 
     1.0000   1.0000   1.0000   1.0000   1.0000   1.0000   1.0000   1.0000
     1.0000   1.0000   1.0000   1.0000   1.0000   1.0000   1.0000   1.0000
     1.0000   1.0000   1.0000   1.0000   1.0000   1.0000   1.0000   1.0000
     1.0000   1.0000   1.0000   1.0000   1.0000   1.0000   1.0000   1.0000
     1.0000   1.0000   1.0000   1.0000   1.0000   1.0000   1.0000   1.0000
     1.0000   1.0000   1.0000   1.0000   1.0000   1.0000   1.0000   1.0000
     1.0000   1.0000   1.0000   1.0000   1.0000   1.0000   1.0000   1.0000

          k = 0.4167 0.4167 0.0833 ( 29697 PWs)   bands (ev):

   -23.2726 -23.2726 -23.2726 -23.2726 -23.1403 -23.1403 -23.1403 -23.1403
   -22.2530 -22.2530 -22.2530 -22.2530 -22.1378 -22.1378 -22.1378 -22.1378
   -22.0841 -22.0841 -22.0841 -22.0841 -11.5733 -11.5733 -11.5652 -11.5652
   -11.4941 -11.4941 -11.4903 -11.4903  -6.9959  -6.9959  -6.9810  -6.9810
    -2.6362  -2.6362  -2.5427  -2.5427  -2.0239  -2.0239  -1.9617  -1.9617
    -1.8501  -1.8501  -1.7239  -1.7239  -1.4116  -1.4116  -1.4019  -1.4019
    -1.1228  -1.1228  -1.0283  -1.0283  -0.8415  -0.8415  -0.8174  -0.8174

     occupation numbers 
     1.0000   1.0000   1.0000   1.0000   1.0000   1.0000   1.0000   1.0000
     1.0000   1.0000   1.0000   1.0000   1.0000   1.0000   1.0000   1.0000
     1.0000   1.0000   1.0000   1.0000   1.0000   1.0000   1.0000   1.0000
     1.0000   1.0000   1.0000   1.0000   1.0000   1.0000   1.0000   1.0000
     1.0000   1.0000   1.0000   1.0000   1.0000   1.0000   1.0000   1.0000
     1.0000   1.0000   1.0000   1.0000   1.0000   1.0000   1.0000   1.0000
     1.0000   1.0000   1.0000   1.0000   1.0000   1.0000   1.0000   1.0000

          k = 0.2500 0.4167 0.2500 ( 29643 PWs)   bands (ev):

   -23.2726 -23.2726 -23.2725 -23.2725 -23.1402 -23.1402 -23.1402 -23.1402
   -22.2530 -22.2530 -22.2530 -22.2530 -22.1378 -22.1378 -22.1378 -22.1378
   -22.0841 -22.0841 -22.0841 -22.0841 -11.5734 -11.5734 -11.5544 -11.5544
   -11.5033 -11.5033 -11.4921 -11.4921  -7.0004  -7.0004  -6.9701  -6.9701
    -2.8098  -2.8098  -2.6449  -2.6449  -2.0673  -2.0673  -1.9630  -1.9630
    -1.8080  -1.8080  -1.6263  -1.6263  -1.3208  -1.3208  -1.2848  -1.2848
    -1.0288  -1.0288  -0.9172  -0.9172  -0.8470  -0.8470  -0.7149  -0.7149

     occupation numbers 
     1.0000   1.0000   1.0000   1.0000   1.0000   1.0000   1.0000   1.0000
     1.0000   1.0000   1.0000   1.0000   1.0000   1.0000   1.0000   1.0000
     1.0000   1.0000   1.0000   1.0000   1.0000   1.0000   1.0000   1.0000
     1.0000   1.0000   1.0000   1.0000   1.0000   1.0000   1.0000   1.0000
     1.0000   1.0000   1.0000   1.0000   1.0000   1.0000   1.0000   1.0000
     1.0000   1.0000   1.0000   1.0000   1.0000   1.0000   1.0000   1.0000
     1.0000   1.0000   1.0000   1.0000   1.0000   1.0000   1.0000   1.0000

          k = 0.4167 0.4167 0.2500 ( 29645 PWs)   bands (ev):

   -23.2726 -23.2726 -23.2726 -23.2726 -23.1402 -23.1402 -23.1402 -23.1402
   -22.2530 -22.2530 -22.2530 -22.2530 -22.1378 -22.1378 -22.1378 -22.1378
   -22.0841 -22.0841 -22.0841 -22.0841 -11.5716 -11.5716 -11.5647 -11.5647
   -11.4949 -11.4949 -11.4901 -11.4901  -7.0016  -7.0016  -6.9900  -6.9900
    -2.6416  -2.6416  -2.5328  -2.5328  -2.0708  -2.0708  -1.9636  -1.9636
    -1.8649  -1.8649  -1.7017  -1.7017  -1.3738  -1.3738  -1.3540  -1.3540
    -1.0998  -1.0998  -1.0100  -1.0100  -0.8274  -0.8274  -0.8107  -0.8107

     occupation numbers 
     1.0000   1.0000   1.0000   1.0000   1.0000   1.0000   1.0000   1.0000
     1.0000   1.0000   1.0000   1.0000   1.0000   1.0000   1.0000   1.0000
     1.0000   1.0000   1.0000   1.0000   1.0000   1.0000   1.0000   1.0000
     1.0000   1.0000   1.0000   1.0000   1.0000   1.0000   1.0000   1.0000
     1.0000   1.0000   1.0000   1.0000   1.0000   1.0000   1.0000   1.0000
     1.0000   1.0000   1.0000   1.0000   1.0000   1.0000   1.0000   1.0000
     1.0000   1.0000   1.0000   1.0000   1.0000   1.0000   1.0000   1.0000

     highest occupied level (ev):    -0.5766

!    total energy              =   -2370.94063855 Ry
     Harris-Foulkes estimate   =   -2370.94063846 Ry
     estimated scf accuracy    <       0.00000005 Ry

     total all-electron energy =    -81634.462844 Ry

     The total energy is the sum of the following terms:

     one-electron contribution =    -248.68296266 Ry
     hartree contribution      =     145.43168365 Ry
     xc contribution           =    -157.08797497 Ry
     ewald contribution        =    -190.25175950 Ry
     one-center paw contrib.   =   -1920.34962507 Ry
      -> PAW hartree energy AE =     107.24421998 Ry
      -> PAW hartree energy PS =    -106.45942230 Ry
      -> PAW xc energy AE      =    -324.23283741 Ry
      -> PAW xc energy PS      =      46.59355837 Ry
      -> total E_H with PAW    =     146.21648133 Ry
      -> total E_XC with PAW   =    -434.72725401 Ry

     convergence has been achieved in   8 iterations

     Forces acting on atoms (cartesian axes, Ry/au):

     atom    1 type  1   force =     0.00000000    0.00000000    0.00000000
     atom    2 type  1   force =     0.00000000    0.00000000    0.00000000
     atom    3 type  2   force =    -0.01804222   -0.01804222    0.00000000
     atom    4 type  2   force =     0.01804222    0.01804222    0.00000000
     atom    5 type  2   force =    -0.01804222    0.01804222    0.00000000
     atom    6 type  2   force =     0.01804222   -0.01804222    0.00000000
     The non-local contrib.  to forces
     atom    1 type  1   force =     0.00000000    0.00000000    0.00000000
     atom    2 type  1   force =     0.00000000    0.00000000    0.00000000
     atom    3 type  2   force =    -0.04127492   -0.04127492    0.00000000
     atom    4 type  2   force =     0.04127492    0.04127492    0.00000000
     atom    5 type  2   force =    -0.04127492    0.04127492   -0.00000000
     atom    6 type  2   force =     0.04127492   -0.04127492   -0.00000000
     The ionic contribution  to forces
     atom    1 type  1   force =    -0.00000000   -0.00000000   -0.00000000
     atom    2 type  1   force =     0.00000000    0.00000000    0.00000000
     atom    3 type  2   force =     1.38633657    1.38633657    0.00000000
     atom    4 type  2   force =    -1.38633657   -1.38633657   -0.00000000
     atom    5 type  2   force =     1.38633657   -1.38633657    0.00000000
     atom    6 type  2   force =    -1.38633657    1.38633657    0.00000000
     The local contribution  to forces
     atom    1 type  1   force =     0.00000000   -0.00000000    0.00000000
     atom    2 type  1   force =     0.00000000    0.00000000    0.00000000
     atom    3 type  2   force =    -1.36696208   -1.36696208    0.00000000
     atom    4 type  2   force =     1.36696208    1.36696208    0.00000000
     atom    5 type  2   force =    -1.36696208    1.36696208    0.00000000
     atom    6 type  2   force =     1.36696208   -1.36696208    0.00000000
     The core correction contribution to forces
     atom    1 type  1   force =     0.00000000    0.00000000    0.00000000
     atom    2 type  1   force =     0.00000000    0.00000000    0.00000000
     atom    3 type  2   force =     0.00389931    0.00389931   -0.00000000
     atom    4 type  2   force =    -0.00389931   -0.00389931    0.00000000
     atom    5 type  2   force =     0.00389931   -0.00389931    0.00000000
     atom    6 type  2   force =    -0.00389931    0.00389931    0.00000000
     The Hubbard contrib.    to forces
     atom    1 type  1   force =     0.00000000    0.00000000    0.00000000
     atom    2 type  1   force =     0.00000000    0.00000000    0.00000000
     atom    3 type  2   force =     0.00000000    0.00000000    0.00000000
     atom    4 type  2   force =     0.00000000    0.00000000    0.00000000
     atom    5 type  2   force =     0.00000000    0.00000000    0.00000000
     atom    6 type  2   force =     0.00000000    0.00000000    0.00000000
     The SCF correction term to forces
     atom    1 type  1   force =    -0.00000000    0.00000000   -0.00000000
     atom    2 type  1   force =    -0.00000000   -0.00000000    0.00000000
     atom    3 type  2   force =    -0.00004110   -0.00004110   -0.00000000
     atom    4 type  2   force =     0.00004110    0.00004110    0.00000000
     atom    5 type  2   force =    -0.00004110    0.00004110    0.00000000
     atom    6 type  2   force =     0.00004110   -0.00004110    0.00000000

     Total force =     0.051031     Total SCF correction =     0.000116


     Computing stress (Cartesian axis) and pressure

     Message from routine stres:
     noncollinear stress + GGA not implemented

     Writing output data file SnI2.save/
 
     init_run     :     16.83s CPU     24.55s WALL (       1 calls)
     electrons    :    451.09s CPU    641.43s WALL (       1 calls)
     forces       :      4.13s CPU      5.55s WALL (       1 calls)

     Called by init_run:
     wfcinit      :     14.05s CPU     20.88s WALL (       1 calls)
     wfcinit:atom :      0.03s CPU      0.04s WALL (      18 calls)
     wfcinit:wfcr :     13.78s CPU     20.45s WALL (      18 calls)
     potinit      :      0.97s CPU      1.38s WALL (       1 calls)
     hinit0       :      0.47s CPU      0.63s WALL (       1 calls)

     Called by electrons:
     c_bands      :    356.54s CPU    509.01s WALL (       8 calls)
     sum_band     :     81.91s CPU    115.00s WALL (       8 calls)
     v_of_rho     :      0.76s CPU      1.15s WALL (       9 calls)
     v_h          :      0.08s CPU      0.12s WALL (       9 calls)
     v_xc         :      0.71s CPU      1.05s WALL (      10 calls)
     newd         :      6.30s CPU      8.43s WALL (       9 calls)
     PAW_pot      :      2.69s CPU      3.66s WALL (       9 calls)
     mix_rho      :      1.77s CPU      2.60s WALL (       8 calls)

     Called by c_bands:
     init_us_2    :      0.95s CPU      1.44s WALL (     324 calls)
     cegterg      :    342.86s CPU    493.18s WALL (     144 calls)

     Called by sum_band:
     sum_band:bec :      1.66s CPU      2.32s WALL (     144 calls)
     addusdens    :      4.48s CPU      5.69s WALL (       8 calls)

     Called by *egterg:
     h_psi        :    210.41s CPU    317.51s WALL (     663 calls)
     s_psi        :      4.00s CPU      4.70s WALL (     663 calls)
     g_psi        :      0.35s CPU      0.37s WALL (     501 calls)
     cdiaghg      :     36.40s CPU     52.19s WALL (     645 calls)
     cegterg:over :     42.59s CPU     55.02s WALL (     501 calls)
     cegterg:upda :     31.29s CPU     41.49s WALL (     501 calls)
     cegterg:last :      5.93s CPU      7.69s WALL (     146 calls)
     cdiaghg:chol :      2.21s CPU      2.95s WALL (     645 calls)
     cdiaghg:inve :      1.34s CPU      1.94s WALL (     645 calls)
     cdiaghg:para :     11.88s CPU     16.28s WALL (    1290 calls)

     Called by h_psi:
     h_psi:pot    :    209.47s CPU    316.47s WALL (     663 calls)
     h_psi:calbec :      4.83s CPU      5.63s WALL (     663 calls)
     vloc_psi     :    200.43s CPU    305.91s WALL (     663 calls)
     add_vuspsi   :      4.21s CPU      4.93s WALL (     663 calls)

     General routines
     calbec       :      8.46s CPU     10.18s WALL (     879 calls)
     fft          :      3.16s CPU      4.57s WALL (     198 calls)
     ffts         :      1.53s CPU      2.25s WALL (      68 calls)
     fftw         :    263.69s CPU    397.83s WALL (  111324 calls)
     interpolate  :      1.34s CPU      1.96s WALL (      36 calls)
 
     Parallel routines
     fft_scatt_xy :      6.04s CPU      7.62s WALL (  111590 calls)
     fft_scatt_yz :    234.89s CPU    361.56s WALL (  111590 calls)

     PAW routines
     PAW_pot      :      2.69s CPU      3.66s WALL (       9 calls)
     PAW_symme    :      0.26s CPU      0.35s WALL (      17 calls)
 
     PWSCF        :   7m59.77s CPU  11m21.66s WALL

 
   This run was terminated on:  19: 0:17  23Jan2021            

=------------------------------------------------------------------------------=
   JOB DONE.
=------------------------------------------------------------------------------=
