
     Program PWSCF v.6.4.1 starts on 25Jan2021 at 10: 6:44 

     This program is part of the open-source Quantum ESPRESSO suite
     for quantum simulation of materials; please cite
         "P. Giannozzi et al., J. Phys.:Condens. Matter 21 395502 (2009);
         "P. Giannozzi et al., J. Phys.:Condens. Matter 29 465901 (2017);
          URL http://www.quantum-espresso.org", 
     in publications or presentations arising from this work. More details at
     http://www.quantum-espresso.org/quote

     Parallel version (MPI & OpenMP), running on      48 processor cores
     Number of MPI processes:                24
     Threads/MPI process:                     2

     MPI processes distributed on     1 nodes
     R & G space division:  proc/nbgrp/npool/nimage =      24
     Waiting for input...
     Reading input from standard input

     Current dimensions of program PWSCF are:
     Max number of different atomic species (ntypx) = 10
     Max number of k-points (npk) =  40000
     Max angular momentum in pseudopotentials (lmaxx) =  3
               file Cs.rel-pbesol-spn-kjpaw_psl.1.0.0.UPF: wavefunction(s)  5S 6S renormalized
               file I.rel-pbesol-n-kjpaw_psl.1.0.0.UPF: wavefunction(s)  5S renormalized

     Subspace diagonalization in iterative solution of the eigenvalue problem:
     one sub-group per band group will be used
     scalapack distributed-memory algorithm (size of sub-group:  3*  3 procs)

     Found symmetry operation: I + (  0.0000 -0.5000 -0.5000)
     This is a supercell, fractional translations are disabled
 
     Parallelization info
     --------------------
     sticks:   dense  smooth     PW     G-vecs:    dense   smooth      PW
     Min         123      82     23                 5061     2762     417
     Max         124      84     24                 5064     2763     422
     Sum        2965    1993    561               121481    66299   10059
 

     Title: 
     CsIsalt                                                                    


     bravais-lattice index     =            1
     lattice parameter (alat)  =       8.8160  a.u.
     unit-cell volume          =     685.1896 (a.u.)^3
     number of atoms/cell      =            8
     number of atomic types    =            2
     number of electrons       =        64.00
     number of Kohn-Sham states=           64
     kinetic-energy cutoff     =      80.0000  Ry
     charge density cutoff     =     480.0000  Ry
     convergence threshold     =      1.0E-06
     mixing beta               =       0.3500
     number of iterations used =            8  plain     mixing
     Exchange-correlation      = SLA PW PSX PSC ( 1  4 10  8 0 0)
     Non magnetic calculation with spin-orbit


     celldm(1)=   8.815973  celldm(2)=   0.000000  celldm(3)=   0.000000
     celldm(4)=   0.000000  celldm(5)=   0.000000  celldm(6)=   0.000000

     crystal axes: (cart. coord. in units of alat)
               a(1) = (   1.000000   0.000000   0.000000 )  
               a(2) = (   0.000000   1.000000   0.000000 )  
               a(3) = (   0.000000   0.000000   1.000000 )  

     reciprocal axes: (cart. coord. in units 2 pi/alat)
               b(1) = (  1.000000  0.000000  0.000000 )  
               b(2) = (  0.000000  1.000000  0.000000 )  
               b(3) = (  0.000000  0.000000  1.000000 )  


     PseudoPot. # 1 for Cs read from file:
     /marconi_scratch/userexternal/cmalosso/degironcoli/pseudo/Cs.rel-pbesol-spn-kjpaw_psl.1.0.0.UPF
     MD5 check sum: 2adfb289dd462649b099d7edbec69378
     Pseudo is Projector augmented-wave + core cor, Zval =  9.0
     Generated using "atomic" code by A. Dal Corso v.6.4.1
     Shape of augmentation charge: PSQ
     Using radial grid of 1251 points, 15 beta functions with: 
                l(1) =   0
                l(2) =   0
                l(3) =   0
                l(4) =   1
                l(5) =   1
                l(6) =   1
                l(7) =   1
                l(8) =   2
                l(9) =   2
               l(10) =   2
               l(11) =   2
               l(12) =   3
               l(13) =   3
               l(14) =   3
               l(15) =   3
     Q(r) pseudized with 0 coefficients 


     PseudoPot. # 2 for I  read from file:
     /marconi_scratch/userexternal/cmalosso/degironcoli/pseudo/I.rel-pbesol-n-kjpaw_psl.1.0.0.UPF
     MD5 check sum: 4478c427bd443f303eca1937a163b991
     Pseudo is Projector augmented-wave + core cor, Zval =  7.0
     Generated using "atomic" code by A. Dal Corso v.6.3
     Shape of augmentation charge: PSQ
     Using radial grid of 1247 points, 10 beta functions with: 
                l(1) =   0
                l(2) =   0
                l(3) =   1
                l(4) =   1
                l(5) =   1
                l(6) =   1
                l(7) =   2
                l(8) =   2
                l(9) =   2
               l(10) =   2
     Q(r) pseudized with 0 coefficients 


     atomic species   valence    mass     pseudopotential
        Cs             9.00   132.90000     Cs( 1.00)
        I              7.00   126.90000     I ( 1.00)

     48 Sym. Ops., with inversion, found


                                    s                        frac. trans.

      isym =  1     identity                                     

 cryst.   s( 1) = (     1          0          0      )
                  (     0          1          0      )
                  (     0          0          1      )

 cart.    s( 1) = (  1.0000000  0.0000000  0.0000000 )
                  (  0.0000000  1.0000000  0.0000000 )
                  (  0.0000000  0.0000000  1.0000000 )


      isym =  2     180 deg rotation - cart. axis [0,0,1]        

 cryst.   s( 2) = (    -1          0          0      )
                  (     0         -1          0      )
                  (     0          0          1      )

 cart.    s( 2) = ( -1.0000000  0.0000000  0.0000000 )
                  (  0.0000000 -1.0000000  0.0000000 )
                  (  0.0000000  0.0000000  1.0000000 )


      isym =  3     180 deg rotation - cart. axis [0,1,0]        

 cryst.   s( 3) = (    -1          0          0      )
                  (     0          1          0      )
                  (     0          0         -1      )

 cart.    s( 3) = ( -1.0000000  0.0000000  0.0000000 )
                  (  0.0000000  1.0000000  0.0000000 )
                  (  0.0000000  0.0000000 -1.0000000 )


      isym =  4     180 deg rotation - cart. axis [1,0,0]        

 cryst.   s( 4) = (     1          0          0      )
                  (     0         -1          0      )
                  (     0          0         -1      )

 cart.    s( 4) = (  1.0000000  0.0000000  0.0000000 )
                  (  0.0000000 -1.0000000  0.0000000 )
                  (  0.0000000  0.0000000 -1.0000000 )


      isym =  5     180 deg rotation - cart. axis [1,1,0]        

 cryst.   s( 5) = (     0          1          0      )
                  (     1          0          0      )
                  (     0          0         -1      )

 cart.    s( 5) = (  0.0000000  1.0000000  0.0000000 )
                  (  1.0000000  0.0000000  0.0000000 )
                  (  0.0000000  0.0000000 -1.0000000 )


      isym =  6     180 deg rotation - cart. axis [1,-1,0]       

 cryst.   s( 6) = (     0         -1          0      )
                  (    -1          0          0      )
                  (     0          0         -1      )

 cart.    s( 6) = (  0.0000000 -1.0000000  0.0000000 )
                  ( -1.0000000  0.0000000  0.0000000 )
                  (  0.0000000  0.0000000 -1.0000000 )


      isym =  7      90 deg rotation - cart. axis [0,0,-1]       

 cryst.   s( 7) = (     0         -1          0      )
                  (     1          0          0      )
                  (     0          0          1      )

 cart.    s( 7) = (  0.0000000  1.0000000  0.0000000 )
                  ( -1.0000000  0.0000000  0.0000000 )
                  (  0.0000000  0.0000000  1.0000000 )


      isym =  8      90 deg rotation - cart. axis [0,0,1]        

 cryst.   s( 8) = (     0          1          0      )
                  (    -1          0          0      )
                  (     0          0          1      )

 cart.    s( 8) = (  0.0000000 -1.0000000  0.0000000 )
                  (  1.0000000  0.0000000  0.0000000 )
                  (  0.0000000  0.0000000  1.0000000 )


      isym =  9     180 deg rotation - cart. axis [1,0,1]        

 cryst.   s( 9) = (     0          0          1      )
                  (     0         -1          0      )
                  (     1          0          0      )

 cart.    s( 9) = (  0.0000000  0.0000000  1.0000000 )
                  (  0.0000000 -1.0000000  0.0000000 )
                  (  1.0000000  0.0000000  0.0000000 )


      isym = 10     180 deg rotation - cart. axis [-1,0,1]       

 cryst.   s(10) = (     0          0         -1      )
                  (     0         -1          0      )
                  (    -1          0          0      )

 cart.    s(10) = (  0.0000000  0.0000000 -1.0000000 )
                  (  0.0000000 -1.0000000  0.0000000 )
                  ( -1.0000000  0.0000000  0.0000000 )


      isym = 11      90 deg rotation - cart. axis [0,1,0]        

 cryst.   s(11) = (     0          0         -1      )
                  (     0          1          0      )
                  (     1          0          0      )

 cart.    s(11) = (  0.0000000  0.0000000  1.0000000 )
                  (  0.0000000  1.0000000  0.0000000 )
                  ( -1.0000000  0.0000000  0.0000000 )


      isym = 12      90 deg rotation - cart. axis [0,-1,0]       

 cryst.   s(12) = (     0          0          1      )
                  (     0          1          0      )
                  (    -1          0          0      )

 cart.    s(12) = (  0.0000000  0.0000000 -1.0000000 )
                  (  0.0000000  1.0000000  0.0000000 )
                  (  1.0000000  0.0000000  0.0000000 )


      isym = 13     180 deg rotation - cart. axis [0,1,1]        

 cryst.   s(13) = (    -1          0          0      )
                  (     0          0          1      )
                  (     0          1          0      )

 cart.    s(13) = ( -1.0000000  0.0000000  0.0000000 )
                  (  0.0000000  0.0000000  1.0000000 )
                  (  0.0000000  1.0000000  0.0000000 )


      isym = 14     180 deg rotation - cart. axis [0,1,-1]       

 cryst.   s(14) = (    -1          0          0      )
                  (     0          0         -1      )
                  (     0         -1          0      )

 cart.    s(14) = ( -1.0000000  0.0000000  0.0000000 )
                  (  0.0000000  0.0000000 -1.0000000 )
                  (  0.0000000 -1.0000000  0.0000000 )


      isym = 15      90 deg rotation - cart. axis [-1,0,0]       

 cryst.   s(15) = (     1          0          0      )
                  (     0          0         -1      )
                  (     0          1          0      )

 cart.    s(15) = (  1.0000000  0.0000000  0.0000000 )
                  (  0.0000000  0.0000000  1.0000000 )
                  (  0.0000000 -1.0000000  0.0000000 )


      isym = 16      90 deg rotation - cart. axis [1,0,0]        

 cryst.   s(16) = (     1          0          0      )
                  (     0          0          1      )
                  (     0         -1          0      )

 cart.    s(16) = (  1.0000000  0.0000000  0.0000000 )
                  (  0.0000000  0.0000000 -1.0000000 )
                  (  0.0000000  1.0000000  0.0000000 )


      isym = 17     120 deg rotation - cart. axis [-1,-1,-1]     

 cryst.   s(17) = (     0          0          1      )
                  (     1          0          0      )
                  (     0          1          0      )

 cart.    s(17) = (  0.0000000  1.0000000  0.0000000 )
                  (  0.0000000  0.0000000  1.0000000 )
                  (  1.0000000  0.0000000  0.0000000 )


      isym = 18     120 deg rotation - cart. axis [-1,1,1]       

 cryst.   s(18) = (     0          0         -1      )
                  (    -1          0          0      )
                  (     0          1          0      )

 cart.    s(18) = (  0.0000000 -1.0000000  0.0000000 )
                  (  0.0000000  0.0000000  1.0000000 )
                  ( -1.0000000  0.0000000  0.0000000 )


      isym = 19     120 deg rotation - cart. axis [1,1,-1]       

 cryst.   s(19) = (     0          0         -1      )
                  (     1          0          0      )
                  (     0         -1          0      )

 cart.    s(19) = (  0.0000000  1.0000000  0.0000000 )
                  (  0.0000000  0.0000000 -1.0000000 )
                  ( -1.0000000  0.0000000  0.0000000 )


      isym = 20     120 deg rotation - cart. axis [1,-1,1]       

 cryst.   s(20) = (     0          0          1      )
                  (    -1          0          0      )
                  (     0         -1          0      )

 cart.    s(20) = (  0.0000000 -1.0000000  0.0000000 )
                  (  0.0000000  0.0000000 -1.0000000 )
                  (  1.0000000  0.0000000  0.0000000 )


      isym = 21     120 deg rotation - cart. axis [1,1,1]        

 cryst.   s(21) = (     0          1          0      )
                  (     0          0          1      )
                  (     1          0          0      )

 cart.    s(21) = (  0.0000000  0.0000000  1.0000000 )
                  (  1.0000000  0.0000000  0.0000000 )
                  (  0.0000000  1.0000000  0.0000000 )


      isym = 22     120 deg rotation - cart. axis [-1,1,-1]      

 cryst.   s(22) = (     0         -1          0      )
                  (     0          0         -1      )
                  (     1          0          0      )

 cart.    s(22) = (  0.0000000  0.0000000  1.0000000 )
                  ( -1.0000000  0.0000000  0.0000000 )
                  (  0.0000000 -1.0000000  0.0000000 )


      isym = 23     120 deg rotation - cart. axis [1,-1,-1]      

 cryst.   s(23) = (     0         -1          0      )
                  (     0          0          1      )
                  (    -1          0          0      )

 cart.    s(23) = (  0.0000000  0.0000000 -1.0000000 )
                  ( -1.0000000  0.0000000  0.0000000 )
                  (  0.0000000  1.0000000  0.0000000 )


      isym = 24     120 deg rotation - cart. axis [-1,-1,1]      

 cryst.   s(24) = (     0          1          0      )
                  (     0          0         -1      )
                  (    -1          0          0      )

 cart.    s(24) = (  0.0000000  0.0000000 -1.0000000 )
                  (  1.0000000  0.0000000  0.0000000 )
                  (  0.0000000 -1.0000000  0.0000000 )


      isym = 25     inversion                                    

 cryst.   s(25) = (    -1          0          0      )
                  (     0         -1          0      )
                  (     0          0         -1      )

 cart.    s(25) = ( -1.0000000  0.0000000  0.0000000 )
                  (  0.0000000 -1.0000000  0.0000000 )
                  (  0.0000000  0.0000000 -1.0000000 )


      isym = 26     inv. 180 deg rotation - cart. axis [0,0,1]   

 cryst.   s(26) = (     1          0          0      )
                  (     0          1          0      )
                  (     0          0         -1      )

 cart.    s(26) = (  1.0000000  0.0000000  0.0000000 )
                  (  0.0000000  1.0000000  0.0000000 )
                  (  0.0000000  0.0000000 -1.0000000 )


      isym = 27     inv. 180 deg rotation - cart. axis [0,1,0]   

 cryst.   s(27) = (     1          0          0      )
                  (     0         -1          0      )
                  (     0          0          1      )

 cart.    s(27) = (  1.0000000  0.0000000  0.0000000 )
                  (  0.0000000 -1.0000000  0.0000000 )
                  (  0.0000000  0.0000000  1.0000000 )


      isym = 28     inv. 180 deg rotation - cart. axis [1,0,0]   

 cryst.   s(28) = (    -1          0          0      )
                  (     0          1          0      )
                  (     0          0          1      )

 cart.    s(28) = ( -1.0000000  0.0000000  0.0000000 )
                  (  0.0000000  1.0000000  0.0000000 )
                  (  0.0000000  0.0000000  1.0000000 )


      isym = 29     inv. 180 deg rotation - cart. axis [1,1,0]   

 cryst.   s(29) = (     0         -1          0      )
                  (    -1          0          0      )
                  (     0          0          1      )

 cart.    s(29) = (  0.0000000 -1.0000000  0.0000000 )
                  ( -1.0000000  0.0000000  0.0000000 )
                  (  0.0000000  0.0000000  1.0000000 )


      isym = 30     inv. 180 deg rotation - cart. axis [1,-1,0]  

 cryst.   s(30) = (     0          1          0      )
                  (     1          0          0      )
                  (     0          0          1      )

 cart.    s(30) = (  0.0000000  1.0000000  0.0000000 )
                  (  1.0000000  0.0000000  0.0000000 )
                  (  0.0000000  0.0000000  1.0000000 )


      isym = 31     inv.  90 deg rotation - cart. axis [0,0,-1]  

 cryst.   s(31) = (     0          1          0      )
                  (    -1          0          0      )
                  (     0          0         -1      )

 cart.    s(31) = (  0.0000000 -1.0000000  0.0000000 )
                  (  1.0000000  0.0000000  0.0000000 )
                  (  0.0000000  0.0000000 -1.0000000 )


      isym = 32     inv.  90 deg rotation - cart. axis [0,0,1]   

 cryst.   s(32) = (     0         -1          0      )
                  (     1          0          0      )
                  (     0          0         -1      )

 cart.    s(32) = (  0.0000000  1.0000000  0.0000000 )
                  ( -1.0000000  0.0000000  0.0000000 )
                  (  0.0000000  0.0000000 -1.0000000 )


      isym = 33     inv. 180 deg rotation - cart. axis [1,0,1]   

 cryst.   s(33) = (     0          0         -1      )
                  (     0          1          0      )
                  (    -1          0          0      )

 cart.    s(33) = (  0.0000000  0.0000000 -1.0000000 )
                  (  0.0000000  1.0000000  0.0000000 )
                  ( -1.0000000  0.0000000  0.0000000 )


      isym = 34     inv. 180 deg rotation - cart. axis [-1,0,1]  

 cryst.   s(34) = (     0          0          1      )
                  (     0          1          0      )
                  (     1          0          0      )

 cart.    s(34) = (  0.0000000  0.0000000  1.0000000 )
                  (  0.0000000  1.0000000  0.0000000 )
                  (  1.0000000  0.0000000  0.0000000 )


      isym = 35     inv.  90 deg rotation - cart. axis [0,1,0]   

 cryst.   s(35) = (     0          0          1      )
                  (     0         -1          0      )
                  (    -1          0          0      )

 cart.    s(35) = (  0.0000000  0.0000000 -1.0000000 )
                  (  0.0000000 -1.0000000  0.0000000 )
                  (  1.0000000  0.0000000  0.0000000 )


      isym = 36     inv.  90 deg rotation - cart. axis [0,-1,0]  

 cryst.   s(36) = (     0          0         -1      )
                  (     0         -1          0      )
                  (     1          0          0      )

 cart.    s(36) = (  0.0000000  0.0000000  1.0000000 )
                  (  0.0000000 -1.0000000  0.0000000 )
                  ( -1.0000000  0.0000000  0.0000000 )


      isym = 37     inv. 180 deg rotation - cart. axis [0,1,1]   

 cryst.   s(37) = (     1          0          0      )
                  (     0          0         -1      )
                  (     0         -1          0      )

 cart.    s(37) = (  1.0000000  0.0000000  0.0000000 )
                  (  0.0000000  0.0000000 -1.0000000 )
                  (  0.0000000 -1.0000000  0.0000000 )


      isym = 38     inv. 180 deg rotation - cart. axis [0,1,-1]  

 cryst.   s(38) = (     1          0          0      )
                  (     0          0          1      )
                  (     0          1          0      )

 cart.    s(38) = (  1.0000000  0.0000000  0.0000000 )
                  (  0.0000000  0.0000000  1.0000000 )
                  (  0.0000000  1.0000000  0.0000000 )


      isym = 39     inv.  90 deg rotation - cart. axis [-1,0,0]  

 cryst.   s(39) = (    -1          0          0      )
                  (     0          0          1      )
                  (     0         -1          0      )

 cart.    s(39) = ( -1.0000000  0.0000000  0.0000000 )
                  (  0.0000000  0.0000000 -1.0000000 )
                  (  0.0000000  1.0000000  0.0000000 )


      isym = 40     inv.  90 deg rotation - cart. axis [1,0,0]   

 cryst.   s(40) = (    -1          0          0      )
                  (     0          0         -1      )
                  (     0          1          0      )

 cart.    s(40) = ( -1.0000000  0.0000000  0.0000000 )
                  (  0.0000000  0.0000000  1.0000000 )
                  (  0.0000000 -1.0000000  0.0000000 )


      isym = 41     inv. 120 deg rotation - cart. axis [-1,-1,-1]

 cryst.   s(41) = (     0          0         -1      )
                  (    -1          0          0      )
                  (     0         -1          0      )

 cart.    s(41) = (  0.0000000 -1.0000000  0.0000000 )
                  (  0.0000000  0.0000000 -1.0000000 )
                  ( -1.0000000  0.0000000  0.0000000 )


      isym = 42     inv. 120 deg rotation - cart. axis [-1,1,1]  

 cryst.   s(42) = (     0          0          1      )
                  (     1          0          0      )
                  (     0         -1          0      )

 cart.    s(42) = (  0.0000000  1.0000000  0.0000000 )
                  (  0.0000000  0.0000000 -1.0000000 )
                  (  1.0000000  0.0000000  0.0000000 )


      isym = 43     inv. 120 deg rotation - cart. axis [1,1,-1]  

 cryst.   s(43) = (     0          0          1      )
                  (    -1          0          0      )
                  (     0          1          0      )

 cart.    s(43) = (  0.0000000 -1.0000000  0.0000000 )
                  (  0.0000000  0.0000000  1.0000000 )
                  (  1.0000000  0.0000000  0.0000000 )


      isym = 44     inv. 120 deg rotation - cart. axis [1,-1,1]  

 cryst.   s(44) = (     0          0         -1      )
                  (     1          0          0      )
                  (     0          1          0      )

 cart.    s(44) = (  0.0000000  1.0000000  0.0000000 )
                  (  0.0000000  0.0000000  1.0000000 )
                  ( -1.0000000  0.0000000  0.0000000 )


      isym = 45     inv. 120 deg rotation - cart. axis [1,1,1]   

 cryst.   s(45) = (     0         -1          0      )
                  (     0          0         -1      )
                  (    -1          0          0      )

 cart.    s(45) = (  0.0000000  0.0000000 -1.0000000 )
                  ( -1.0000000  0.0000000  0.0000000 )
                  (  0.0000000 -1.0000000  0.0000000 )


      isym = 46     inv. 120 deg rotation - cart. axis [-1,1,-1] 

 cryst.   s(46) = (     0          1          0      )
                  (     0          0          1      )
                  (    -1          0          0      )

 cart.    s(46) = (  0.0000000  0.0000000 -1.0000000 )
                  (  1.0000000  0.0000000  0.0000000 )
                  (  0.0000000  1.0000000  0.0000000 )


      isym = 47     inv. 120 deg rotation - cart. axis [1,-1,-1] 

 cryst.   s(47) = (     0          1          0      )
                  (     0          0         -1      )
                  (     1          0          0      )

 cart.    s(47) = (  0.0000000  0.0000000  1.0000000 )
                  (  1.0000000  0.0000000  0.0000000 )
                  (  0.0000000 -1.0000000  0.0000000 )


      isym = 48     inv. 120 deg rotation - cart. axis [-1,-1,1] 

 cryst.   s(48) = (     0         -1          0      )
                  (     0          0          1      )
                  (     1          0          0      )

 cart.    s(48) = (  0.0000000  0.0000000  1.0000000 )
                  ( -1.0000000  0.0000000  0.0000000 )
                  (  0.0000000  1.0000000  0.0000000 )


     double point group O_h (m-3m) 
     there are 16 classes and  6 irreducible representations
     the character table:

       E     -E    8C3   -8C3   3C2  6C4   -6C4   6C2' i     -i    8S6   -8S6 
                               -3C2              -6C2'                        
G_6+   2.00 -2.00  1.00 -1.00  0.00  1.41 -1.41  0.00  2.00 -2.00  1.00 -1.00
G_7+   2.00 -2.00  1.00 -1.00  0.00 -1.41  1.41  0.00  2.00 -2.00  1.00 -1.00
G_8+   4.00 -4.00 -1.00  1.00  0.00  0.00  0.00  0.00  4.00 -4.00 -1.00  1.00
G_6-   2.00 -2.00  1.00 -1.00  0.00  1.41 -1.41  0.00 -2.00  2.00 -1.00  1.00
G_7-   2.00 -2.00  1.00 -1.00  0.00 -1.41  1.41  0.00 -2.00  2.00 -1.00  1.00
G_8-   4.00 -4.00 -1.00  1.00  0.00  0.00  0.00  0.00 -4.00  4.00  1.00 -1.00

        3s_h 6S4   -6S4   6s_d
       -3s_h             -6s_d
G_6+   0.00  1.41 -1.41  0.00
G_7+   0.00 -1.41  1.41  0.00
G_8+   0.00  0.00  0.00  0.00
G_6-   0.00 -1.41  1.41  0.00
G_7-   0.00  1.41 -1.41  0.00
G_8-   0.00  0.00  0.00  0.00

     the symmetry operations in each class and the name of the first element:

     E             1
          identity                                               
     -E           -1
          identity E                                             
     8C3          17   19   20   18   24   21   22   23
          120 deg rotation - cart. axis [-1,-1,-1]               
     -8C3        -17  -19  -20  -18  -24  -21  -22  -23
          120 deg rotation - cart. axis [-1,-1,-1] E             
      3C2 -3C2     2   -2    4   -4    3   -3
          180 deg rotation - cart. axis [0,0,1]                  
     6C4           7    8   15   16   12   11
           90 deg rotation - cart. axis [0,0,-1]                 
     -6C4         -7   -8  -15  -16  -12  -11
           90 deg rotation - cart. axis [0,0,-1] E               
      6C2'-6C2'    5   -5   -6    6   14  -13  -14   13   10   -9  -10    9
          180 deg rotation - cart. axis [1,1,0]                  
     i            25
          inversion                                              
     -i          -25
          inversion E                                            
     8S6          41   43   44   42   48   45   46   47
          inv. 120 deg rotation - cart. axis [-1,-1,-1]          
     -8S6        -41  -43  -44  -42  -48  -45  -46  -47
          inv. 120 deg rotation - cart. axis [-1,-1,-1] E        
      3s_h-3s_h   26  -26   28  -28   27  -27
          inv. 180 deg rotation - cart. axis [0,0,1]             
     6S4          31   32   39   40   36   35
          inv.  90 deg rotation - cart. axis [0,0,-1]            
     -6S4        -31  -32  -39  -40  -36  -35
          inv.  90 deg rotation - cart. axis [0,0,-1] E          
      6s_d-6s_d   29  -29  -30   30   38  -37  -38   37   34  -33  -34   33
          inv. 180 deg rotation - cart. axis [1,1,0]             

   Cartesian axes

     site n.     atom                  positions (alat units)
         1           Cs  tau(   1) = (   0.0000000   0.0000000   0.0000000  )
         2           Cs  tau(   2) = (   0.0000000   0.5000000   0.5000000  )
         3           Cs  tau(   3) = (   0.5000000   0.0000000   0.5000000  )
         4           Cs  tau(   4) = (   0.5000000   0.5000000   0.0000000  )
         5           I   tau(   5) = (   0.5000000   0.0000000   0.0000000  )
         6           I   tau(   6) = (   0.5000000   0.5000000   0.5000000  )
         7           I   tau(   7) = (   0.0000000   0.0000000   0.5000000  )
         8           I   tau(   8) = (   0.0000000   0.5000000   0.0000000  )

   Crystallographic axes

     site n.     atom                  positions (cryst. coord.)
         1           Cs  tau(   1) = (  0.0000000  0.0000000  0.0000000  )
         2           Cs  tau(   2) = (  0.0000000  0.5000000  0.5000000  )
         3           Cs  tau(   3) = (  0.5000000  0.0000000  0.5000000  )
         4           Cs  tau(   4) = (  0.5000000  0.5000000  0.0000000  )
         5           I   tau(   5) = (  0.5000000  0.0000000  0.0000000  )
         6           I   tau(   6) = (  0.5000000  0.5000000  0.5000000  )
         7           I   tau(   7) = (  0.0000000  0.0000000  0.5000000  )
         8           I   tau(   8) = (  0.0000000  0.5000000  0.0000000  )

     number of k points=     4
                       cart. coord. in units 2pi/alat
        k(    1) = (   0.1666667   0.1666667   0.1666667), wk =   0.2962963
        k(    2) = (   0.1666667   0.1666667  -0.5000000), wk =   0.4444444
        k(    3) = (   0.1666667  -0.5000000  -0.5000000), wk =   0.2222222
        k(    4) = (  -0.5000000  -0.5000000  -0.5000000), wk =   0.0370370

                       cryst. coord.
        k(    1) = (   0.1666667   0.1666667   0.1666667), wk =   0.2962963
        k(    2) = (   0.1666667   0.1666667  -0.5000000), wk =   0.4444444
        k(    3) = (   0.1666667  -0.5000000  -0.5000000), wk =   0.2222222
        k(    4) = (  -0.5000000  -0.5000000  -0.5000000), wk =   0.0370370

     Dense  grid:   121481 G-vectors     FFT dimensions: (  64,  64,  64)

     Smooth grid:    66299 G-vectors     FFT dimensions: (  54,  54,  54)

     Dynamical RAM for                 wfc:       0.67 MB

     Dynamical RAM for     wfc (w. buffer):       3.36 MB

     Dynamical RAM for           str. fact:       0.15 MB

     Dynamical RAM for           local pot:       0.00 MB

     Dynamical RAM for          nlocal pot:       2.04 MB

     Dynamical RAM for                qrad:      39.45 MB

     Dynamical RAM for          rho,v,vnew:       2.05 MB

     Dynamical RAM for               rhoin:       0.68 MB

     Dynamical RAM for            rho*nmix:       4.94 MB

     Dynamical RAM for           G-vectors:       0.31 MB

     Dynamical RAM for          h,s,v(r/c):       0.33 MB

     Dynamical RAM for          <psi|beta>:       0.76 MB

     Dynamical RAM for                 psi:       2.69 MB

     Dynamical RAM for                hpsi:       2.69 MB

     Dynamical RAM for                spsi:       2.69 MB

     Dynamical RAM for      wfcinit/wfcrot:       1.25 MB

     Dynamical RAM for           addusdens:     158.08 MB

     Dynamical RAM for          addusforce:     159.88 MB

     Dynamical RAM for         addusstress:     160.09 MB

     Estimated static dynamical RAM per process >      53.97 MB

     Estimated max dynamical RAM per process >     214.06 MB

     Estimated total dynamical RAM >       5.02 GB

     Initial potential from superposition of free atoms

     starting charge   63.84620, renormalised to   64.00000
     Starting wfcs are   72 randomized atomic wfcs
     Checking if some PAW data can be deallocated... 
       PAW data deallocated on   12 nodes for type:  1
       PAW data deallocated on   12 nodes for type:  2

     total cpu time spent up to now is       16.6 secs

     Self-consistent Calculation

     iteration #  1     ecut=    80.00 Ry     beta= 0.35
     Davidson diagonalization with overlap
     ethr =  1.00E-02,  avg # of iterations =  5.0

     Threshold (ethr) on eigenvalues was too large:
     Diagonalizing with lowered threshold

     Davidson diagonalization with overlap
     ethr =  1.49E-04,  avg # of iterations =  7.2

     total cpu time spent up to now is       55.5 secs

     total energy              =   -3131.14456044 Ry
     Harris-Foulkes estimate   =   -3131.17390942 Ry
     estimated scf accuracy    <       0.11674688 Ry

     iteration #  2     ecut=    80.00 Ry     beta= 0.35
     Davidson diagonalization with overlap
     ethr =  1.82E-04,  avg # of iterations =  1.0

     total cpu time spent up to now is       65.0 secs

     total energy              =   -3131.13534176 Ry
     Harris-Foulkes estimate   =   -3131.14786546 Ry
     estimated scf accuracy    <       0.04057657 Ry

     iteration #  3     ecut=    80.00 Ry     beta= 0.35
     Davidson diagonalization with overlap
     ethr =  6.34E-05,  avg # of iterations =  4.2

     total cpu time spent up to now is       84.5 secs

     total energy              =   -3131.15075721 Ry
     Harris-Foulkes estimate   =   -3131.14892312 Ry
     estimated scf accuracy    <       0.00587665 Ry

     iteration #  4     ecut=    80.00 Ry     beta= 0.35
     Davidson diagonalization with overlap
     ethr =  9.18E-06,  avg # of iterations =  4.0

     total cpu time spent up to now is      101.2 secs

     total energy              =   -3131.14821187 Ry
     Harris-Foulkes estimate   =   -3131.15223498 Ry
     estimated scf accuracy    <       0.01074386 Ry

     iteration #  5     ecut=    80.00 Ry     beta= 0.35
     Davidson diagonalization with overlap
     ethr =  9.18E-06,  avg # of iterations =  2.0

     total cpu time spent up to now is      114.5 secs

     total energy              =   -3131.14624492 Ry
     Harris-Foulkes estimate   =   -3131.14860273 Ry
     estimated scf accuracy    <       0.00429511 Ry

     iteration #  6     ecut=    80.00 Ry     beta= 0.35
     Davidson diagonalization with overlap
     ethr =  6.71E-06,  avg # of iterations =  4.0

     total cpu time spent up to now is      131.5 secs

     total energy              =   -3131.14735998 Ry
     Harris-Foulkes estimate   =   -3131.14732120 Ry
     estimated scf accuracy    <       0.00024918 Ry

     iteration #  7     ecut=    80.00 Ry     beta= 0.35
     Davidson diagonalization with overlap
     ethr =  3.89E-07,  avg # of iterations =  4.8

     total cpu time spent up to now is      151.6 secs

     total energy              =   -3131.14747652 Ry
     Harris-Foulkes estimate   =   -3131.14755087 Ry
     estimated scf accuracy    <       0.00019938 Ry

     iteration #  8     ecut=    80.00 Ry     beta= 0.35
     Davidson diagonalization with overlap
     ethr =  3.12E-07,  avg # of iterations =  3.0

     total cpu time spent up to now is      164.7 secs

     total energy              =   -3131.14745576 Ry
     Harris-Foulkes estimate   =   -3131.14749424 Ry
     estimated scf accuracy    <       0.00007718 Ry

     iteration #  9     ecut=    80.00 Ry     beta= 0.35
     Davidson diagonalization with overlap
     ethr =  1.21E-07,  avg # of iterations =  4.5

     total cpu time spent up to now is      188.5 secs

     total energy              =   -3131.14748752 Ry
     Harris-Foulkes estimate   =   -3131.14749596 Ry
     estimated scf accuracy    <       0.00006207 Ry

     iteration # 10     ecut=    80.00 Ry     beta= 0.35
     Davidson diagonalization with overlap
     ethr =  9.70E-08,  avg # of iterations =  3.5

     total cpu time spent up to now is      205.8 secs

     total energy              =   -3131.14753191 Ry
     Harris-Foulkes estimate   =   -3131.14749327 Ry
     estimated scf accuracy    <       0.00004012 Ry

     iteration # 11     ecut=    80.00 Ry     beta= 0.35
     Davidson diagonalization with overlap
     ethr =  6.27E-08,  avg # of iterations =  4.2

     total cpu time spent up to now is      222.9 secs

     total energy              =   -3131.14754412 Ry
     Harris-Foulkes estimate   =   -3131.14755878 Ry
     estimated scf accuracy    <       0.00018655 Ry

     iteration # 12     ecut=    80.00 Ry     beta= 0.35
     Davidson diagonalization with overlap
     ethr =  6.27E-08,  avg # of iterations =  1.0

     total cpu time spent up to now is      234.4 secs

     total energy              =   -3131.14754623 Ry
     Harris-Foulkes estimate   =   -3131.14754460 Ry
     estimated scf accuracy    <       0.00016274 Ry

     iteration # 13     ecut=    80.00 Ry     beta= 0.35
     Davidson diagonalization with overlap
     ethr =  6.27E-08,  avg # of iterations =  1.0

     total cpu time spent up to now is      245.8 secs

     total energy              =   -3131.14751236 Ry
     Harris-Foulkes estimate   =   -3131.14754636 Ry
     estimated scf accuracy    <       0.00016489 Ry

     iteration # 14     ecut=    80.00 Ry     beta= 0.35
     Davidson diagonalization with overlap
     ethr =  6.27E-08,  avg # of iterations =  2.0

     total cpu time spent up to now is      256.1 secs

     total energy              =   -3131.14748650 Ry
     Harris-Foulkes estimate   =   -3131.14751560 Ry
     estimated scf accuracy    <       0.00011517 Ry

     iteration # 15     ecut=    80.00 Ry     beta= 0.35
     Davidson diagonalization with overlap
     ethr =  6.27E-08,  avg # of iterations =  3.0

     total cpu time spent up to now is      268.7 secs

     total energy              =   -3131.14746055 Ry
     Harris-Foulkes estimate   =   -3131.14749020 Ry
     estimated scf accuracy    <       0.00006195 Ry

     iteration # 16     ecut=    80.00 Ry     beta= 0.35
     Davidson diagonalization with overlap
     ethr =  6.27E-08,  avg # of iterations =  4.5

     total cpu time spent up to now is      286.4 secs

     total energy              =   -3131.14747780 Ry
     Harris-Foulkes estimate   =   -3131.14747925 Ry
     estimated scf accuracy    <       0.00000320 Ry

     iteration # 17     ecut=    80.00 Ry     beta= 0.35
     Davidson diagonalization with overlap
     ethr =  5.01E-09,  avg # of iterations =  4.5

     total cpu time spent up to now is      305.1 secs

     End of self-consistent calculation

          k = 0.1667 0.1667 0.1667 (  8292 PWs)   bands (ev):

    -1.3787  -1.3787   2.2543   2.2543   2.2543   2.2543   2.2554   2.2554
     8.3431   8.3431   8.3432   8.3432   8.3442   8.3442  10.5902  10.5902
    10.5902  10.5902  10.5905  10.5905  12.1475  12.1475  13.1094  13.1094
    13.1101  13.1101  13.1103  13.1103  15.1415  15.1415  15.1417  15.1417
    15.1427  15.1427  15.5833  15.5833  16.6972  16.6972  20.9642  20.9642
    23.4823  23.4823  23.7583  23.7583  23.7583  23.7583  23.7583  23.7583
    24.4812  24.4812  25.2669  25.2669  27.0705  27.0705  27.2495  27.2495
    27.2501  27.2501  27.2504  27.2504  27.7588  27.7588  27.8156  27.8156

     occupation numbers 
     1.0000   1.0000   1.0000   1.0000   1.0000   1.0000   1.0000   1.0000
     1.0000   1.0000   1.0000   1.0000   1.0000   1.0000   1.0000   1.0000
     1.0000   1.0000   1.0000   1.0000   1.0000   1.0000   1.0000   1.0000
     1.0000   1.0000   1.0000   1.0000   1.0000   1.0000   1.0000   1.0000
     1.0000   1.0000   1.0000   1.0000   1.0000   1.0000   1.0000   1.0000
     1.0000   1.0000   1.0000   1.0000   1.0000   1.0000   1.0000   1.0000
     1.0000   1.0000   1.0000   1.0000   1.0000   1.0000   1.0000   1.0000
     1.0000   1.0000   1.0000   1.0000   1.0000   1.0000   1.0000   1.0000

          k = 0.1667 0.1667-0.5000 (  8262 PWs)   bands (ev):

     0.0165   0.0165   0.0167   0.0167   2.6136   2.6136   2.6143   2.6143
     6.8054   6.8054   6.8063   6.8063   9.4562   9.4562   9.4567   9.4567
    11.3873  11.3873  11.3874  11.3874  12.1194  12.1194  12.1199  12.1199
    14.1964  14.1964  14.1965  14.1965  15.2734  15.2734  15.2737  15.2737
    17.6272  17.6272  17.6273  17.6273  19.7222  19.7222  19.7231  19.7231
    21.5960  21.5960  21.5969  21.5969  24.4213  24.4213  24.4215  24.4215
    25.2269  25.2269  25.2273  25.2273  25.7683  25.7683  25.7685  25.7685
    26.8987  26.8987  26.8990  26.8990  27.7069  27.7069  27.7069  27.7069

     occupation numbers 
     1.0000   1.0000   1.0000   1.0000   1.0000   1.0000   1.0000   1.0000
     1.0000   1.0000   1.0000   1.0000   1.0000   1.0000   1.0000   1.0000
     1.0000   1.0000   1.0000   1.0000   1.0000   1.0000   1.0000   1.0000
     1.0000   1.0000   1.0000   1.0000   1.0000   1.0000   1.0000   1.0000
     1.0000   1.0000   1.0000   1.0000   1.0000   1.0000   1.0000   1.0000
     1.0000   1.0000   1.0000   1.0000   1.0000   1.0000   1.0000   1.0000
     1.0000   1.0000   1.0000   1.0000   1.0000   1.0000   1.0000   1.0000
     1.0000   1.0000   1.0000   1.0000   1.0000   1.0000   1.0000   1.0000

          k = 0.1667-0.5000-0.5000 (  8284 PWs)   bands (ev):

     1.2324   1.2324   1.2324   1.2324   1.2326   1.2326   1.2333   1.2333
     6.9670   6.9670   6.9670   6.9670   6.9671   6.9671   6.9683   6.9683
    12.9252  12.9252  12.9252  12.9252  12.9259  12.9259  12.9263  12.9263
    16.2945  16.2945  16.2951  16.2951  16.2952  16.2952  16.2952  16.2952
    19.4222  19.4222  19.4224  19.4224  19.4225  19.4225  19.4226  19.4226
    21.2115  21.2115  21.2116  21.2116  21.2122  21.2122  21.2122  21.2122
    23.9166  23.9166  23.9167  23.9167  23.9167  23.9167  23.9168  23.9168
    27.3809  27.3809  27.3809  27.3809  27.3813  27.3813  27.3818  27.3818

     occupation numbers 
     1.0000   1.0000   1.0000   1.0000   1.0000   1.0000   1.0000   1.0000
     1.0000   1.0000   1.0000   1.0000   1.0000   1.0000   1.0000   1.0000
     1.0000   1.0000   1.0000   1.0000   1.0000   1.0000   1.0000   1.0000
     1.0000   1.0000   1.0000   1.0000   1.0000   1.0000   1.0000   1.0000
     1.0000   1.0000   1.0000   1.0000   1.0000   1.0000   1.0000   1.0000
     1.0000   1.0000   1.0000   1.0000   1.0000   1.0000   1.0000   1.0000
     1.0000   1.0000   1.0000   1.0000   1.0000   1.0000   1.0000   1.0000
     1.0000   1.0000   1.0000   1.0000   1.0000   1.0000   1.0000   1.0000

          k =-0.5000-0.5000-0.5000 (  8240 PWs)   bands (ev):

     1.6652   1.6652   1.6652   1.6652   1.6652   1.6652   1.6663   1.6663
     5.3186   5.3186   5.3186   5.3186   5.3186   5.3186   5.3202   5.3202
    16.1701  16.1701  16.1707  16.1707  16.1707  16.1707  16.1711  16.1711
    17.2955  17.2955  17.2955  17.2955  17.2962  17.2962  17.2962  17.2962
    19.7246  19.7246  19.7249  19.7249  19.7249  19.7249  19.7260  19.7260
    20.5030  20.5030  20.5030  20.5030  20.5039  20.5039  20.5039  20.5039
    21.5503  21.5503  21.5504  21.5504  21.5505  21.5505  21.5505  21.5505
    22.9639  22.9639  22.9639  22.9639  22.9639  22.9639  22.9646  22.9646

     occupation numbers 
     1.0000   1.0000   1.0000   1.0000   1.0000   1.0000   1.0000   1.0000
     1.0000   1.0000   1.0000   1.0000   1.0000   1.0000   1.0000   1.0000
     1.0000   1.0000   1.0000   1.0000   1.0000   1.0000   1.0000   1.0000
     1.0000   1.0000   1.0000   1.0000   1.0000   1.0000   1.0000   1.0000
     1.0000   1.0000   1.0000   1.0000   1.0000   1.0000   1.0000   1.0000
     1.0000   1.0000   1.0000   1.0000   1.0000   1.0000   1.0000   1.0000
     1.0000   1.0000   1.0000   1.0000   1.0000   1.0000   1.0000   1.0000
     1.0000   1.0000   1.0000   1.0000   1.0000   1.0000   1.0000   1.0000

     highest occupied level (ev):    27.8156

!    total energy              =   -3131.14747816 Ry
     Harris-Foulkes estimate   =   -3131.14747869 Ry
     estimated scf accuracy    <       0.00000064 Ry

     total all-electron energy =   -119218.203606 Ry

     The total energy is the sum of the following terms:

     one-electron contribution =     153.67806611 Ry
     hartree contribution      =       5.48576565 Ry
     xc contribution           =    -157.44601326 Ry
     ewald contribution        =    -332.73169529 Ry
     one-center paw contrib.   =   -2800.13360137 Ry
      -> PAW hartree energy AE =      42.97688573 Ry
      -> PAW hartree energy PS =     -42.86415311 Ry
      -> PAW xc energy AE      =    -381.09733178 Ry
      -> PAW xc energy PS      =      22.85005837 Ry
      -> total E_H with PAW    =       5.59849827 Ry
      -> total E_XC with PAW   =    -515.69328667 Ry

     convergence has been achieved in  17 iterations

     Forces acting on atoms (cartesian axes, Ry/au):

     atom    1 type  1   force =     0.00000000    0.00000000    0.00000000
     atom    2 type  1   force =     0.00000000    0.00000000    0.00000000
     atom    3 type  1   force =     0.00000000    0.00000000    0.00000000
     atom    4 type  1   force =     0.00000000    0.00000000    0.00000000
     atom    5 type  2   force =     0.00000000    0.00000000    0.00000000
     atom    6 type  2   force =     0.00000000    0.00000000    0.00000000
     atom    7 type  2   force =     0.00000000    0.00000000    0.00000000
     atom    8 type  2   force =     0.00000000    0.00000000    0.00000000
     The non-local contrib.  to forces
     atom    1 type  1   force =     0.00000000    0.00000000    0.00000000
     atom    2 type  1   force =     0.00000000    0.00000000    0.00000000
     atom    3 type  1   force =     0.00000000    0.00000000    0.00000000
     atom    4 type  1   force =     0.00000000    0.00000000   -0.00000000
     atom    5 type  2   force =     0.00000000    0.00000000    0.00000000
     atom    6 type  2   force =     0.00000000    0.00000000    0.00000000
     atom    7 type  2   force =     0.00000000    0.00000000    0.00000000
     atom    8 type  2   force =     0.00000000    0.00000000    0.00000000
     The ionic contribution  to forces
     atom    1 type  1   force =    -0.00000000   -0.00000000   -0.00000000
     atom    2 type  1   force =    -0.00000000    0.00000000    0.00000000
     atom    3 type  1   force =     0.00000000   -0.00000000    0.00000000
     atom    4 type  1   force =     0.00000000    0.00000000   -0.00000000
     atom    5 type  2   force =     0.00000000   -0.00000000   -0.00000000
     atom    6 type  2   force =     0.00000000    0.00000000    0.00000000
     atom    7 type  2   force =    -0.00000000   -0.00000000    0.00000000
     atom    8 type  2   force =    -0.00000000    0.00000000   -0.00000000
     The local contribution  to forces
     atom    1 type  1   force =    -0.00000000   -0.00000000   -0.00000000
     atom    2 type  1   force =    -0.00000000    0.00000000    0.00000000
     atom    3 type  1   force =     0.00000000   -0.00000000    0.00000000
     atom    4 type  1   force =     0.00000000    0.00000000   -0.00000000
     atom    5 type  2   force =     0.00000000   -0.00000000   -0.00000000
     atom    6 type  2   force =     0.00000000    0.00000000    0.00000000
     atom    7 type  2   force =    -0.00000000   -0.00000000    0.00000000
     atom    8 type  2   force =    -0.00000000    0.00000000   -0.00000000
     The core correction contribution to forces
     atom    1 type  1   force =    -0.00000000   -0.00000000    0.00000000
     atom    2 type  1   force =    -0.00000000   -0.00000000    0.00000000
     atom    3 type  1   force =    -0.00000000   -0.00000000    0.00000000
     atom    4 type  1   force =    -0.00000000   -0.00000000    0.00000000
     atom    5 type  2   force =    -0.00000000   -0.00000000    0.00000000
     atom    6 type  2   force =    -0.00000000   -0.00000000    0.00000000
     atom    7 type  2   force =    -0.00000000   -0.00000000    0.00000000
     atom    8 type  2   force =    -0.00000000   -0.00000000    0.00000000
     The Hubbard contrib.    to forces
     atom    1 type  1   force =     0.00000000    0.00000000    0.00000000
     atom    2 type  1   force =     0.00000000    0.00000000    0.00000000
     atom    3 type  1   force =     0.00000000    0.00000000    0.00000000
     atom    4 type  1   force =     0.00000000    0.00000000    0.00000000
     atom    5 type  2   force =     0.00000000    0.00000000    0.00000000
     atom    6 type  2   force =     0.00000000    0.00000000    0.00000000
     atom    7 type  2   force =     0.00000000    0.00000000    0.00000000
     atom    8 type  2   force =     0.00000000    0.00000000    0.00000000
     The SCF correction term to forces
     atom    1 type  1   force =    -0.00000000   -0.00000000   -0.00000000
     atom    2 type  1   force =    -0.00000000   -0.00000000   -0.00000000
     atom    3 type  1   force =    -0.00000000   -0.00000000    0.00000000
     atom    4 type  1   force =    -0.00000000    0.00000000   -0.00000000
     atom    5 type  2   force =    -0.00000000   -0.00000000   -0.00000000
     atom    6 type  2   force =     0.00000000    0.00000000    0.00000000
     atom    7 type  2   force =    -0.00000000    0.00000000   -0.00000000
     atom    8 type  2   force =     0.00000000   -0.00000000    0.00000000

     Total force =     0.000000     Total SCF correction =     0.000000


     Computing stress (Cartesian axis) and pressure

     Message from routine stres:
     noncollinear stress + GGA not implemented

     Writing output data file CsIsalt.save/
 
     init_run     :      6.17s CPU      9.32s WALL (       1 calls)
     electrons    :    198.25s CPU    288.84s WALL (       1 calls)
     forces       :      2.73s CPU      3.77s WALL (       1 calls)

     Called by init_run:
     wfcinit      :      2.28s CPU      4.02s WALL (       1 calls)
     wfcinit:atom :      0.00s CPU      0.00s WALL (       4 calls)
     wfcinit:wfcr :      2.26s CPU      3.99s WALL (       4 calls)
     potinit      :      1.60s CPU      2.41s WALL (       1 calls)
     hinit0       :      0.93s CPU      1.28s WALL (       1 calls)

     Called by electrons:
     c_bands      :    127.99s CPU    192.44s WALL (      18 calls)
     sum_band     :     27.89s CPU     43.33s WALL (      18 calls)
     v_of_rho     :      1.01s CPU      1.65s WALL (      18 calls)
     v_h          :      0.01s CPU      0.03s WALL (      18 calls)
     v_xc         :      1.01s CPU      1.63s WALL (      19 calls)
     newd         :     22.55s CPU     26.17s WALL (      18 calls)
     PAW_pot      :     13.53s CPU     16.52s WALL (      18 calls)
     mix_rho      :      3.10s CPU      4.75s WALL (      18 calls)

     Called by c_bands:
     init_us_2    :      0.27s CPU      0.49s WALL (     152 calls)
     cegterg      :    122.09s CPU    184.90s WALL (      72 calls)

     Called by sum_band:
     sum_band:bec :      4.33s CPU      6.09s WALL (      72 calls)
     addusdens    :      7.34s CPU      9.53s WALL (      18 calls)

     Called by *egterg:
     h_psi        :     69.25s CPU    104.52s WALL (     330 calls)
     s_psi        :      3.33s CPU      4.45s WALL (     330 calls)
     g_psi        :      0.06s CPU      0.07s WALL (     254 calls)
     cdiaghg      :     14.01s CPU     22.56s WALL (     322 calls)
     cegterg:over :     12.41s CPU     18.08s WALL (     254 calls)
     cegterg:upda :     14.13s CPU     21.45s WALL (     254 calls)
     cegterg:last :      2.04s CPU      2.98s WALL (      83 calls)
     cdiaghg:chol :      1.01s CPU      1.30s WALL (     322 calls)
     cdiaghg:inve :      0.59s CPU      0.99s WALL (     322 calls)
     cdiaghg:para :      3.68s CPU      5.99s WALL (     644 calls)

     Called by h_psi:
     h_psi:pot    :     69.00s CPU    104.26s WALL (     330 calls)
     h_psi:calbec :      1.42s CPU      1.88s WALL (     330 calls)
     vloc_psi     :     64.41s CPU     98.11s WALL (     330 calls)
     add_vuspsi   :      3.17s CPU      4.27s WALL (     330 calls)

     General routines
     calbec       :      2.35s CPU      3.21s WALL (     418 calls)
     fft          :      4.97s CPU      7.88s WALL (     397 calls)
     ffts         :      3.28s CPU      5.63s WALL (     144 calls)
     fftw         :     74.66s CPU    116.56s WALL (   63656 calls)
     interpolate  :      3.04s CPU      5.01s WALL (      72 calls)
 
     Parallel routines
     fft_scatt_xy :      1.87s CPU      2.36s WALL (   64197 calls)
     fft_scatt_yz :     72.98s CPU    117.38s WALL (   64197 calls)

     PAW routines
     PAW_pot      :     13.53s CPU     16.52s WALL (      18 calls)
     PAW_symme    :      0.65s CPU      0.85s WALL (      36 calls)
 
     PWSCF        :   3m34.53s CPU   5m10.27s WALL

 
   This run was terminated on:  10:11:54  25Jan2021            

=------------------------------------------------------------------------------=
   JOB DONE.
=------------------------------------------------------------------------------=
