
     Program PWSCF v.6.7MaX starts on 31Jan2021 at 10:57:15 

     This program is part of the open-source Quantum ESPRESSO suite
     for quantum simulation of materials; please cite
         "P. Giannozzi et al., J. Phys.:Condens. Matter 21 395502 (2009);
         "P. Giannozzi et al., J. Phys.:Condens. Matter 29 465901 (2017);
          URL http://www.quantum-espresso.org", 
     in publications or presentations arising from this work. More details at
     http://www.quantum-espresso.org/quote

     Parallel version (MPI & OpenMP), running on      96 processor cores
     Number of MPI processes:                48
     Threads/MPI process:                     2

     MPI processes distributed on     2 nodes
     R & G space division:  proc/nbgrp/npool/nimage =      48
     Waiting for input...
     Reading input from standard input

     Current dimensions of program PWSCF are:
     Max number of different atomic species (ntypx) = 10
     Max number of k-points (npk) =  40000
     Max angular momentum in pseudopotentials (lmaxx) =  3
     file Sn.rel-pbesol-dn-rrkjus_psl.1.0.0.UPF: wavefunction(s)  5S 4D 4D renormalized
     file I.rel-pbesol-n-rrkjus_psl.1.0.0.UPF: wavefunction(s)  5S renormalized

     Subspace diagonalization in iterative solution of the eigenvalue problem:
     a serial algorithm will be used


     Parallelization info
     --------------------
     sticks:   dense  smooth     PW     G-vecs:    dense   smooth      PW
     Min         120      96     26                 6900     4938     704
     Max         121      97     27                 6907     4943     708
     Sum        5761    4637   1265               331237   237129   33833


     Title: 
     SnI2                                                                       


     bravais-lattice index     =            1
     lattice parameter (alat)  =      14.4199  a.u.
     unit-cell volume          =    2998.4083 (a.u.)^3
     number of atoms/cell      =            6
     number of atomic types    =            2
     number of electrons       =        56.00
     number of Kohn-Sham states=           56
     kinetic-energy cutoff     =      70.0000  Ry
     charge density cutoff     =     350.0000  Ry
     scf convergence threshold =      1.0E-06
     mixing beta               =       0.3500
     number of iterations used =            8  plain     mixing
     Exchange-correlation= PBESOL
                           (   1   4  10   8   0   0   0)
     Non magnetic calculation with spin-orbit


     celldm(1)=  14.419944  celldm(2)=   0.000000  celldm(3)=   0.000000
     celldm(4)=   0.000000  celldm(5)=   0.000000  celldm(6)=   0.000000

     crystal axes: (cart. coord. in units of alat)
               a(1) = (   1.000000   0.000000   0.000000 )  
               a(2) = (   0.000000   1.000000   0.000000 )  
               a(3) = (   0.000000   0.000000   1.000000 )  

     reciprocal axes: (cart. coord. in units 2 pi/alat)
               b(1) = (  1.000000  0.000000  0.000000 )  
               b(2) = (  0.000000  1.000000  0.000000 )  
               b(3) = (  0.000000  0.000000  1.000000 )  


     PseudoPot. # 1 for Sn read from file:
     /scratch/cmalosso/degironcoli/pseudo/pseudo-usp/Sn.rel-pbesol-dn-rrkjus_psl.1.0.0.UPF
     MD5 check sum: c1cf6ea56b96a3656bdf0d1db379e093
     Pseudo is Ultrasoft + core correction, Zval = 14.0
     Generated using &quot;atomic&quot; code by A. Dal Corso  v.6.3
     Using radial grid of 1243 points, 10 beta functions with: 
                l(1) =   0
                l(2) =   0
                l(3) =   1
                l(4) =   1
                l(5) =   1
                l(6) =   1
                l(7) =   2
                l(8) =   2
                l(9) =   2
               l(10) =   2
     Q(r) pseudized with 0 coefficients 


     PseudoPot. # 2 for I  read from file:
     /scratch/cmalosso/degironcoli/pseudo/pseudo-usp/I.rel-pbesol-n-rrkjus_psl.1.0.0.UPF
     MD5 check sum: 0f96c6bfb1b448f280658f96eb466b08
     Pseudo is Ultrasoft + core correction, Zval =  7.0
     Generated using &quot;atomic&quot; code by A. Dal Corso  v.6.3
     Using radial grid of 1247 points, 10 beta functions with: 
                l(1) =   0
                l(2) =   0
                l(3) =   1
                l(4) =   1
                l(5) =   1
                l(6) =   1
                l(7) =   2
                l(8) =   2
                l(9) =   2
               l(10) =   2
     Q(r) pseudized with 0 coefficients 


     atomic species   valence    mass     pseudopotential
        Sn            14.00   118.70000     Sn( 1.00)
        I              7.00   126.90000     I ( 1.00)

     16 Sym. Ops., with inversion, found ( 8 have fractional translation)


                                    s                        frac. trans.

      isym =  1     identity                                     

 cryst.   s( 1) = (     1          0          0      )
                  (     0          1          0      )
                  (     0          0          1      )

 cart.    s( 1) = (  1.0000000  0.0000000  0.0000000 )
                  (  0.0000000  1.0000000  0.0000000 )
                  (  0.0000000  0.0000000  1.0000000 )


      isym =  2     180 deg rotation - cart. axis [0,0,1]        

 cryst.   s( 2) = (    -1          0          0      )
                  (     0         -1          0      )
                  (     0          0          1      )

 cart.    s( 2) = ( -1.0000000  0.0000000  0.0000000 )
                  (  0.0000000 -1.0000000  0.0000000 )
                  (  0.0000000  0.0000000  1.0000000 )


      isym =  3     180 deg rotation - cart. axis [0,1,0]        

 cryst.   s( 3) = (    -1          0          0      )    f =(  0.5000000 )
                  (     0          1          0      )       ( -0.5000000 )
                  (     0          0         -1      )       (  0.5000000 )

 cart.    s( 3) = ( -1.0000000  0.0000000  0.0000000 )    f =(  0.5000000 )
                  (  0.0000000  1.0000000  0.0000000 )       ( -0.5000000 )
                  (  0.0000000  0.0000000 -1.0000000 )       (  0.5000000 )


      isym =  4     180 deg rotation - cart. axis [1,0,0]        

 cryst.   s( 4) = (     1          0          0      )    f =( -0.5000000 )
                  (     0         -1          0      )       (  0.5000000 )
                  (     0          0         -1      )       (  0.5000000 )

 cart.    s( 4) = (  1.0000000  0.0000000  0.0000000 )    f =( -0.5000000 )
                  (  0.0000000 -1.0000000  0.0000000 )       (  0.5000000 )
                  (  0.0000000  0.0000000 -1.0000000 )       (  0.5000000 )


      isym =  5     180 deg rotation - cart. axis [1,1,0]        

 cryst.   s( 5) = (     0          1          0      )
                  (     1          0          0      )
                  (     0          0         -1      )

 cart.    s( 5) = (  0.0000000  1.0000000  0.0000000 )
                  (  1.0000000  0.0000000  0.0000000 )
                  (  0.0000000  0.0000000 -1.0000000 )


      isym =  6     180 deg rotation - cart. axis [1,-1,0]       

 cryst.   s( 6) = (     0         -1          0      )
                  (    -1          0          0      )
                  (     0          0         -1      )

 cart.    s( 6) = (  0.0000000 -1.0000000  0.0000000 )
                  ( -1.0000000  0.0000000  0.0000000 )
                  (  0.0000000  0.0000000 -1.0000000 )


      isym =  7      90 deg rotation - cart. axis [0,0,-1]       

 cryst.   s( 7) = (     0         -1          0      )    f =( -0.5000000 )
                  (     1          0          0      )       (  0.5000000 )
                  (     0          0          1      )       ( -0.5000000 )

 cart.    s( 7) = (  0.0000000  1.0000000  0.0000000 )    f =( -0.5000000 )
                  ( -1.0000000  0.0000000  0.0000000 )       (  0.5000000 )
                  (  0.0000000  0.0000000  1.0000000 )       ( -0.5000000 )


      isym =  8      90 deg rotation - cart. axis [0,0,1]        

 cryst.   s( 8) = (     0          1          0      )    f =(  0.5000000 )
                  (    -1          0          0      )       ( -0.5000000 )
                  (     0          0          1      )       ( -0.5000000 )

 cart.    s( 8) = (  0.0000000 -1.0000000  0.0000000 )    f =(  0.5000000 )
                  (  1.0000000  0.0000000  0.0000000 )       ( -0.5000000 )
                  (  0.0000000  0.0000000  1.0000000 )       ( -0.5000000 )


      isym =  9     inversion                                    

 cryst.   s( 9) = (    -1          0          0      )
                  (     0         -1          0      )
                  (     0          0         -1      )

 cart.    s( 9) = ( -1.0000000  0.0000000  0.0000000 )
                  (  0.0000000 -1.0000000  0.0000000 )
                  (  0.0000000  0.0000000 -1.0000000 )


      isym = 10     inv. 180 deg rotation - cart. axis [0,0,1]   

 cryst.   s(10) = (     1          0          0      )
                  (     0          1          0      )
                  (     0          0         -1      )

 cart.    s(10) = (  1.0000000  0.0000000  0.0000000 )
                  (  0.0000000  1.0000000  0.0000000 )
                  (  0.0000000  0.0000000 -1.0000000 )


      isym = 11     inv. 180 deg rotation - cart. axis [0,1,0]   

 cryst.   s(11) = (     1          0          0      )    f =( -0.5000000 )
                  (     0         -1          0      )       (  0.5000000 )
                  (     0          0          1      )       ( -0.5000000 )

 cart.    s(11) = (  1.0000000  0.0000000  0.0000000 )    f =( -0.5000000 )
                  (  0.0000000 -1.0000000  0.0000000 )       (  0.5000000 )
                  (  0.0000000  0.0000000  1.0000000 )       ( -0.5000000 )


      isym = 12     inv. 180 deg rotation - cart. axis [1,0,0]   

 cryst.   s(12) = (    -1          0          0      )    f =(  0.5000000 )
                  (     0          1          0      )       ( -0.5000000 )
                  (     0          0          1      )       ( -0.5000000 )

 cart.    s(12) = ( -1.0000000  0.0000000  0.0000000 )    f =(  0.5000000 )
                  (  0.0000000  1.0000000  0.0000000 )       ( -0.5000000 )
                  (  0.0000000  0.0000000  1.0000000 )       ( -0.5000000 )


      isym = 13     inv. 180 deg rotation - cart. axis [1,1,0]   

 cryst.   s(13) = (     0         -1          0      )
                  (    -1          0          0      )
                  (     0          0          1      )

 cart.    s(13) = (  0.0000000 -1.0000000  0.0000000 )
                  ( -1.0000000  0.0000000  0.0000000 )
                  (  0.0000000  0.0000000  1.0000000 )


      isym = 14     inv. 180 deg rotation - cart. axis [1,-1,0]  

 cryst.   s(14) = (     0          1          0      )
                  (     1          0          0      )
                  (     0          0          1      )

 cart.    s(14) = (  0.0000000  1.0000000  0.0000000 )
                  (  1.0000000  0.0000000  0.0000000 )
                  (  0.0000000  0.0000000  1.0000000 )


      isym = 15     inv.  90 deg rotation - cart. axis [0,0,-1]  

 cryst.   s(15) = (     0          1          0      )    f =(  0.5000000 )
                  (    -1          0          0      )       ( -0.5000000 )
                  (     0          0         -1      )       (  0.5000000 )

 cart.    s(15) = (  0.0000000 -1.0000000  0.0000000 )    f =(  0.5000000 )
                  (  1.0000000  0.0000000  0.0000000 )       ( -0.5000000 )
                  (  0.0000000  0.0000000 -1.0000000 )       (  0.5000000 )


      isym = 16     inv.  90 deg rotation - cart. axis [0,0,1]   

 cryst.   s(16) = (     0         -1          0      )    f =( -0.5000000 )
                  (     1          0          0      )       (  0.5000000 )
                  (     0          0         -1      )       (  0.5000000 )

 cart.    s(16) = (  0.0000000  1.0000000  0.0000000 )    f =( -0.5000000 )
                  ( -1.0000000  0.0000000  0.0000000 )       (  0.5000000 )
                  (  0.0000000  0.0000000 -1.0000000 )       (  0.5000000 )


     double point group D_4h(4/mmm)
     there are 14 classes and  4 irreducible representations
     the character table:

       E     -E    2C4   -2C4   C2    2C2' 2C2'' i     -i    2S4   -2S4   s_h 
                               -C2   -2C2' -2C2'                         -s_h 
G_6+   2.00 -2.00  1.41 -1.41  0.00  0.00  0.00  2.00 -2.00  1.41 -1.41  0.00
G_7+   2.00 -2.00 -1.41  1.41  0.00  0.00  0.00  2.00 -2.00 -1.41  1.41  0.00
G_6-   2.00 -2.00  1.41 -1.41  0.00  0.00  0.00 -2.00  2.00 -1.41  1.41  0.00
G_7-   2.00 -2.00 -1.41  1.41  0.00  0.00  0.00 -2.00  2.00  1.41 -1.41  0.00

        2s_v  2s_d
       -2s_v -2s_d
G_6+   0.00  0.00
G_7+   0.00  0.00
G_6-   0.00  0.00
G_7-   0.00  0.00

     the symmetry operations in each class and the name of the first element:

     E             1
          identity                                               
     -E           -1
          identity E                                             
     2C4           7    8
           90 deg rotation - cart. axis [0,0,-1]                 
     -2C4         -7   -8
           90 deg rotation - cart. axis [0,0,-1] E               
      C2  -C2      2   -2
          180 deg rotation - cart. axis [0,0,1]                  
      2C2'-2C2'    3   -3    4   -4
          180 deg rotation - cart. axis [0,1,0]                  
     2C2''-2C2'    5   -5   -6    6
          180 deg rotation - cart. axis [1,1,0]                  
     i             9
          inversion                                              
     -i           -9
          inversion E                                            
     2S4          15   16
          inv.  90 deg rotation - cart. axis [0,0,-1]            
     -2S4        -15  -16
          inv.  90 deg rotation - cart. axis [0,0,-1] E          
      s_h -s_h    10  -10
          inv. 180 deg rotation - cart. axis [0,0,1]             
      2s_v-2s_v   11  -11   12  -12
          inv. 180 deg rotation - cart. axis [0,1,0]             
      2s_d-2s_d   13  -13  -14   14
          inv. 180 deg rotation - cart. axis [1,1,0]             

   Cartesian axes

     site n.     atom                  positions (alat units)
         1           Sn  tau(   1) = (   0.0000000   0.0000000   0.0000000  )
         2           Sn  tau(   2) = (   0.5000000   0.5000000   0.5000000  )
         3           I   tau(   3) = (   0.2985210   0.2985210   0.0000000  )
         4           I   tau(   4) = (   0.7014790   0.7014790   0.0000000  )
         5           I   tau(   5) = (   0.7985210   0.2014790   0.5000000  )
         6           I   tau(   6) = (   0.2014790   0.7985210   0.5000000  )

   Crystallographic axes

     site n.     atom                  positions (cryst. coord.)
         1           Sn  tau(   1) = (  0.0000000  0.0000000  0.0000000  )
         2           Sn  tau(   2) = (  0.5000000  0.5000000  0.5000000  )
         3           I   tau(   3) = (  0.2985210  0.2985210  0.0000000  )
         4           I   tau(   4) = (  0.7014790  0.7014790  0.0000000  )
         5           I   tau(   5) = (  0.7985210  0.2014790  0.5000000  )
         6           I   tau(   6) = (  0.2014790  0.7985210  0.5000000  )

     number of k points=    18
                       cart. coord. in units 2pi/alat
        k(    1) = (   0.1000000   0.1000000   0.1000000), wk =   0.0640000
        k(    2) = (   0.1000000   0.1000000   0.3000000), wk =   0.0640000
        k(    3) = (   0.1000000   0.1000000  -0.5000000), wk =   0.0320000
        k(    4) = (   0.1000000   0.3000000   0.3000000), wk =   0.1280000
        k(    5) = (   0.1000000   0.3000000  -0.5000000), wk =   0.0640000
        k(    6) = (   0.1000000  -0.5000000  -0.5000000), wk =   0.0320000
        k(    7) = (   0.3000000   0.3000000   0.3000000), wk =   0.0640000
        k(    8) = (   0.3000000   0.3000000  -0.5000000), wk =   0.0320000
        k(    9) = (   0.3000000  -0.5000000  -0.5000000), wk =   0.0320000
        k(   10) = (  -0.5000000  -0.5000000  -0.5000000), wk =   0.0080000
        k(   11) = (   0.1000000   0.3000000   0.1000000), wk =   0.1280000
        k(   12) = (   0.1000000  -0.5000000   0.1000000), wk =   0.0640000
        k(   13) = (   0.3000000   0.3000000   0.1000000), wk =   0.0640000
        k(   14) = (   0.3000000  -0.5000000   0.1000000), wk =   0.0640000
        k(   15) = (  -0.5000000   0.1000000   0.3000000), wk =   0.0640000
        k(   16) = (  -0.5000000  -0.5000000   0.1000000), wk =   0.0160000
        k(   17) = (   0.3000000  -0.5000000   0.3000000), wk =   0.0640000
        k(   18) = (  -0.5000000  -0.5000000   0.3000000), wk =   0.0160000

                       cryst. coord.
        k(    1) = (   0.1000000   0.1000000   0.1000000), wk =   0.0640000
        k(    2) = (   0.1000000   0.1000000   0.3000000), wk =   0.0640000
        k(    3) = (   0.1000000   0.1000000  -0.5000000), wk =   0.0320000
        k(    4) = (   0.1000000   0.3000000   0.3000000), wk =   0.1280000
        k(    5) = (   0.1000000   0.3000000  -0.5000000), wk =   0.0640000
        k(    6) = (   0.1000000  -0.5000000  -0.5000000), wk =   0.0320000
        k(    7) = (   0.3000000   0.3000000   0.3000000), wk =   0.0640000
        k(    8) = (   0.3000000   0.3000000  -0.5000000), wk =   0.0320000
        k(    9) = (   0.3000000  -0.5000000  -0.5000000), wk =   0.0320000
        k(   10) = (  -0.5000000  -0.5000000  -0.5000000), wk =   0.0080000
        k(   11) = (   0.1000000   0.3000000   0.1000000), wk =   0.1280000
        k(   12) = (   0.1000000  -0.5000000   0.1000000), wk =   0.0640000
        k(   13) = (   0.3000000   0.3000000   0.1000000), wk =   0.0640000
        k(   14) = (   0.3000000  -0.5000000   0.1000000), wk =   0.0640000
        k(   15) = (  -0.5000000   0.1000000   0.3000000), wk =   0.0640000
        k(   16) = (  -0.5000000  -0.5000000   0.1000000), wk =   0.0160000
        k(   17) = (   0.3000000  -0.5000000   0.3000000), wk =   0.0640000
        k(   18) = (  -0.5000000  -0.5000000   0.3000000), wk =   0.0160000

     Dense  grid:   331237 G-vectors     FFT dimensions: (  90,  90,  90)

     Smooth grid:   237129 G-vectors     FFT dimensions: (  80,  80,  80)

     Dynamical RAM for                 wfc:       1.05 MB

     Dynamical RAM for     wfc (w. buffer):      20.03 MB

     Dynamical RAM for           str. fact:       0.21 MB

     Dynamical RAM for           local pot:       0.00 MB

     Dynamical RAM for          nlocal pot:       1.92 MB

     Dynamical RAM for                qrad:       7.86 MB

     Dynamical RAM for          rho,v,vnew:       2.75 MB

     Dynamical RAM for               rhoin:       0.92 MB

     Dynamical RAM for            rho*nmix:       6.74 MB

     Dynamical RAM for           G-vectors:       0.43 MB

     Dynamical RAM for          h,s,v(r/c):       0.57 MB

     Dynamical RAM for          <psi|beta>:       0.35 MB

     Dynamical RAM for                 psi:       2.11 MB

     Dynamical RAM for                hpsi:       2.11 MB

     Dynamical RAM for                spsi:       2.11 MB

     Dynamical RAM for      wfcinit/wfcrot:       2.03 MB

     Dynamical RAM for           addusdens:      64.66 MB

     Dynamical RAM for          addusforce:      65.40 MB

     Dynamical RAM for         addusstress:      66.14 MB

     Estimated static dynamical RAM per process >      42.17 MB

     Estimated max dynamical RAM per process >     108.31 MB

     Estimated total dynamical RAM >       5.08 GB

     Initial potential from superposition of free atoms

     starting charge   55.99772, renormalised to   56.00000
     Starting wfcs are   68 randomized atomic wfcs

     total cpu time spent up to now is        5.9 secs

     Self-consistent Calculation

     iteration #  1     ecut=    70.00 Ry     beta= 0.35
     Davidson diagonalization with overlap
     ethr =  1.00E-02,  avg # of iterations =  1.0

     total cpu time spent up to now is       15.0 secs

     total energy              =    -458.29948539 Ry
     estimated scf accuracy    <       0.58812566 Ry

     iteration #  2     ecut=    70.00 Ry     beta= 0.35
     Davidson diagonalization with overlap
     ethr =  1.05E-03,  avg # of iterations =  3.0

     total cpu time spent up to now is       25.9 secs

     total energy              =    -458.37649320 Ry
     estimated scf accuracy    <       0.06215596 Ry

     iteration #  3     ecut=    70.00 Ry     beta= 0.35
     Davidson diagonalization with overlap
     ethr =  1.11E-04,  avg # of iterations =  5.9

     total cpu time spent up to now is       40.0 secs

     total energy              =    -458.39001786 Ry
     estimated scf accuracy    <       0.04713797 Ry

     iteration #  4     ecut=    70.00 Ry     beta= 0.35
     Davidson diagonalization with overlap
     ethr =  8.42E-05,  avg # of iterations =  5.3

     total cpu time spent up to now is       53.5 secs

     total energy              =    -458.39976467 Ry
     estimated scf accuracy    <       0.03470377 Ry

     iteration #  5     ecut=    70.00 Ry     beta= 0.35
     Davidson diagonalization with overlap
     ethr =  6.20E-05,  avg # of iterations =  5.3

     total cpu time spent up to now is       64.9 secs

     total energy              =    -458.40750553 Ry
     estimated scf accuracy    <       0.00121886 Ry

     iteration #  6     ecut=    70.00 Ry     beta= 0.35
     Davidson diagonalization with overlap
     ethr =  2.18E-06,  avg # of iterations =  9.8

     total cpu time spent up to now is       81.1 secs

     total energy              =    -458.40546388 Ry
     estimated scf accuracy    <       0.00851108 Ry

     iteration #  7     ecut=    70.00 Ry     beta= 0.35
     Davidson diagonalization with overlap
     ethr =  2.18E-06,  avg # of iterations =  7.0

     total cpu time spent up to now is       96.3 secs

     total energy              =    -458.40743798 Ry
     estimated scf accuracy    <       0.00038173 Ry

     iteration #  8     ecut=    70.00 Ry     beta= 0.35
     Davidson diagonalization with overlap
     ethr =  6.82E-07,  avg # of iterations =  4.9

     total cpu time spent up to now is      107.9 secs

     total energy              =    -458.40752226 Ry
     estimated scf accuracy    <       0.00000238 Ry

     iteration #  9     ecut=    70.00 Ry     beta= 0.35
     Davidson diagonalization with overlap
     ethr =  4.24E-09,  avg # of iterations = 10.6

     total cpu time spent up to now is      125.7 secs

     total energy              =    -458.40752372 Ry
     estimated scf accuracy    <       0.00001968 Ry

     iteration # 10     ecut=    70.00 Ry     beta= 0.35
     Davidson diagonalization with overlap
     ethr =  4.24E-09,  avg # of iterations =  6.3

     total cpu time spent up to now is      139.6 secs

     End of self-consistent calculation

          k = 0.1000 0.1000 0.1000 ( 29617 PWs)   bands (ev):

   -23.2587 -23.2587 -23.2587 -23.2587 -23.1339 -23.1339 -23.1338 -23.1338
   -22.2384 -22.2384 -22.2383 -22.2383 -22.1295 -22.1295 -22.1295 -22.1295
   -22.0787 -22.0787 -22.0786 -22.0786 -11.6186 -11.6186 -11.5308 -11.5308
   -11.4829 -11.4829 -11.4769 -11.4769  -7.0695  -7.0695  -6.8790  -6.8790
    -2.7095  -2.7095  -2.5367  -2.5367  -2.1394  -2.1394  -2.0206  -2.0206
    -1.8705  -1.8705  -1.5339  -1.5339  -1.2231  -1.2231  -1.1424  -1.1424
    -1.1144  -1.1144  -0.9819  -0.9819  -0.9201  -0.9201  -0.8676  -0.8676

     occupation numbers 
     1.0000   1.0000   1.0000   1.0000   1.0000   1.0000   1.0000   1.0000
     1.0000   1.0000   1.0000   1.0000   1.0000   1.0000   1.0000   1.0000
     1.0000   1.0000   1.0000   1.0000   1.0000   1.0000   1.0000   1.0000
     1.0000   1.0000   1.0000   1.0000   1.0000   1.0000   1.0000   1.0000
     1.0000   1.0000   1.0000   1.0000   1.0000   1.0000   1.0000   1.0000
     1.0000   1.0000   1.0000   1.0000   1.0000   1.0000   1.0000   1.0000
     1.0000   1.0000   1.0000   1.0000   1.0000   1.0000   1.0000   1.0000

          k = 0.1000 0.1000 0.3000 ( 29657 PWs)   bands (ev):

   -23.2587 -23.2587 -23.2587 -23.2587 -23.1339 -23.1339 -23.1338 -23.1338
   -22.2384 -22.2384 -22.2384 -22.2384 -22.1295 -22.1295 -22.1295 -22.1295
   -22.0787 -22.0787 -22.0786 -22.0786 -11.6015 -11.6015 -11.5470 -11.5470
   -11.4830 -11.4830 -11.4766 -11.4766  -7.0418  -7.0418  -6.9242  -6.9242
    -2.7042  -2.7042  -2.5263  -2.5263  -2.1269  -2.1269  -1.9817  -1.9817
    -1.8405  -1.8405  -1.5708  -1.5708  -1.2182  -1.2182  -1.1948  -1.1948
    -1.1337  -1.1337  -1.0167  -1.0167  -0.9343  -0.9343  -0.8809  -0.8809

     occupation numbers 
     1.0000   1.0000   1.0000   1.0000   1.0000   1.0000   1.0000   1.0000
     1.0000   1.0000   1.0000   1.0000   1.0000   1.0000   1.0000   1.0000
     1.0000   1.0000   1.0000   1.0000   1.0000   1.0000   1.0000   1.0000
     1.0000   1.0000   1.0000   1.0000   1.0000   1.0000   1.0000   1.0000
     1.0000   1.0000   1.0000   1.0000   1.0000   1.0000   1.0000   1.0000
     1.0000   1.0000   1.0000   1.0000   1.0000   1.0000   1.0000   1.0000
     1.0000   1.0000   1.0000   1.0000   1.0000   1.0000   1.0000   1.0000

          k = 0.1000 0.1000-0.5000 ( 29690 PWs)   bands (ev):

   -23.2587 -23.2587 -23.2587 -23.2587 -23.1339 -23.1339 -23.1339 -23.1339
   -22.2384 -22.2384 -22.2384 -22.2384 -22.1295 -22.1295 -22.1295 -22.1295
   -22.0787 -22.0787 -22.0786 -22.0786 -11.5769 -11.5769 -11.5711 -11.5711
   -11.4829 -11.4829 -11.4765 -11.4765  -6.9922  -6.9922  -6.9845  -6.9845
    -2.7010  -2.7010  -2.5190  -2.5190  -2.1279  -2.1279  -1.9641  -1.9641
    -1.7843  -1.7843  -1.6174  -1.6174  -1.2350  -1.2350  -1.2029  -1.2029
    -1.1253  -1.1253  -1.0503  -1.0503  -0.9556  -0.9556  -0.8887  -0.8887

     occupation numbers 
     1.0000   1.0000   1.0000   1.0000   1.0000   1.0000   1.0000   1.0000
     1.0000   1.0000   1.0000   1.0000   1.0000   1.0000   1.0000   1.0000
     1.0000   1.0000   1.0000   1.0000   1.0000   1.0000   1.0000   1.0000
     1.0000   1.0000   1.0000   1.0000   1.0000   1.0000   1.0000   1.0000
     1.0000   1.0000   1.0000   1.0000   1.0000   1.0000   1.0000   1.0000
     1.0000   1.0000   1.0000   1.0000   1.0000   1.0000   1.0000   1.0000
     1.0000   1.0000   1.0000   1.0000   1.0000   1.0000   1.0000   1.0000

          k = 0.1000 0.3000 0.3000 ( 29688 PWs)   bands (ev):

   -23.2587 -23.2587 -23.2587 -23.2587 -23.1339 -23.1339 -23.1339 -23.1339
   -22.2384 -22.2384 -22.2384 -22.2384 -22.1295 -22.1295 -22.1295 -22.1295
   -22.0787 -22.0787 -22.0786 -22.0786 -11.5823 -11.5823 -11.5397 -11.5397
   -11.5013 -11.5013 -11.4856 -11.4856  -7.0153  -7.0153  -6.9416  -6.9416
    -2.8673  -2.8673  -2.6872  -2.6872  -2.0688  -2.0688  -1.9263  -1.9263
    -1.8049  -1.8049  -1.5855  -1.5855  -1.2625  -1.2625  -1.1925  -1.1925
    -1.0274  -1.0274  -0.9523  -0.9523  -0.8734  -0.8734  -0.6356  -0.6356

     occupation numbers 
     1.0000   1.0000   1.0000   1.0000   1.0000   1.0000   1.0000   1.0000
     1.0000   1.0000   1.0000   1.0000   1.0000   1.0000   1.0000   1.0000
     1.0000   1.0000   1.0000   1.0000   1.0000   1.0000   1.0000   1.0000
     1.0000   1.0000   1.0000   1.0000   1.0000   1.0000   1.0000   1.0000
     1.0000   1.0000   1.0000   1.0000   1.0000   1.0000   1.0000   1.0000
     1.0000   1.0000   1.0000   1.0000   1.0000   1.0000   1.0000   1.0000
     1.0000   1.0000   1.0000   1.0000   1.0000   1.0000   1.0000   1.0000

          k = 0.1000 0.3000-0.5000 ( 29616 PWs)   bands (ev):

   -23.2587 -23.2587 -23.2587 -23.2587 -23.1338 -23.1338 -23.1338 -23.1338
   -22.2384 -22.2384 -22.2383 -22.2383 -22.1295 -22.1295 -22.1295 -22.1295
   -22.0786 -22.0786 -22.0786 -22.0786 -11.5667 -11.5667 -11.5530 -11.5530
   -11.5016 -11.5016 -11.4868 -11.4868  -6.9900  -6.9900  -6.9771  -6.9771
    -2.8797  -2.8797  -2.6925  -2.6925  -2.0477  -2.0477  -1.8799  -1.8799
    -1.8291  -1.8291  -1.5802  -1.5802  -1.2589  -1.2589  -1.1809  -1.1809
    -1.0429  -1.0429  -0.9591  -0.9591  -0.8613  -0.8613  -0.6294  -0.6294

     occupation numbers 
     1.0000   1.0000   1.0000   1.0000   1.0000   1.0000   1.0000   1.0000
     1.0000   1.0000   1.0000   1.0000   1.0000   1.0000   1.0000   1.0000
     1.0000   1.0000   1.0000   1.0000   1.0000   1.0000   1.0000   1.0000
     1.0000   1.0000   1.0000   1.0000   1.0000   1.0000   1.0000   1.0000
     1.0000   1.0000   1.0000   1.0000   1.0000   1.0000   1.0000   1.0000
     1.0000   1.0000   1.0000   1.0000   1.0000   1.0000   1.0000   1.0000
     1.0000   1.0000   1.0000   1.0000   1.0000   1.0000   1.0000   1.0000

          k = 0.1000-0.5000-0.5000 ( 29680 PWs)   bands (ev):

   -23.2587 -23.2587 -23.2587 -23.2587 -23.1339 -23.1339 -23.1338 -23.1338
   -22.2384 -22.2384 -22.2384 -22.2384 -22.1295 -22.1295 -22.1295 -22.1295
   -22.0787 -22.0787 -22.0786 -22.0786 -11.5484 -11.5484 -11.5481 -11.5481
   -11.5060 -11.5060 -11.5060 -11.5060  -6.9839  -6.9839  -6.9773  -6.9773
    -2.8901  -2.8901  -2.8596  -2.8596  -2.0169  -2.0169  -1.9138  -1.9138
    -1.7783  -1.7783  -1.5866  -1.5866  -1.2364  -1.2364  -1.2002  -1.2002
    -0.9461  -0.9461  -0.9293  -0.9293  -0.6389  -0.6389  -0.6275  -0.6275

     occupation numbers 
     1.0000   1.0000   1.0000   1.0000   1.0000   1.0000   1.0000   1.0000
     1.0000   1.0000   1.0000   1.0000   1.0000   1.0000   1.0000   1.0000
     1.0000   1.0000   1.0000   1.0000   1.0000   1.0000   1.0000   1.0000
     1.0000   1.0000   1.0000   1.0000   1.0000   1.0000   1.0000   1.0000
     1.0000   1.0000   1.0000   1.0000   1.0000   1.0000   1.0000   1.0000
     1.0000   1.0000   1.0000   1.0000   1.0000   1.0000   1.0000   1.0000
     1.0000   1.0000   1.0000   1.0000   1.0000   1.0000   1.0000   1.0000

          k = 0.3000 0.3000 0.3000 ( 29683 PWs)   bands (ev):

   -23.2587 -23.2587 -23.2587 -23.2587 -23.1339 -23.1339 -23.1339 -23.1339
   -22.2384 -22.2384 -22.2384 -22.2384 -22.1295 -22.1295 -22.1295 -22.1295
   -22.0787 -22.0787 -22.0786 -22.0786 -11.5760 -11.5760 -11.5438 -11.5438
   -11.5047 -11.5047 -11.4830 -11.4830  -7.0105  -7.0105  -6.9621  -6.9621
    -2.8587  -2.8587  -2.5295  -2.5295  -2.0965  -2.0965  -1.9116  -1.9116
    -1.8844  -1.8844  -1.6158  -1.6158  -1.3229  -1.3229  -1.2499  -1.2499
    -1.1095  -1.1095  -0.9093  -0.9093  -0.8547  -0.8547  -0.6403  -0.6403

     occupation numbers 
     1.0000   1.0000   1.0000   1.0000   1.0000   1.0000   1.0000   1.0000
     1.0000   1.0000   1.0000   1.0000   1.0000   1.0000   1.0000   1.0000
     1.0000   1.0000   1.0000   1.0000   1.0000   1.0000   1.0000   1.0000
     1.0000   1.0000   1.0000   1.0000   1.0000   1.0000   1.0000   1.0000
     1.0000   1.0000   1.0000   1.0000   1.0000   1.0000   1.0000   1.0000
     1.0000   1.0000   1.0000   1.0000   1.0000   1.0000   1.0000   1.0000
     1.0000   1.0000   1.0000   1.0000   1.0000   1.0000   1.0000   1.0000

          k = 0.3000 0.3000-0.5000 ( 29632 PWs)   bands (ev):

   -23.2587 -23.2587 -23.2587 -23.2587 -23.1339 -23.1339 -23.1338 -23.1338
   -22.2384 -22.2384 -22.2384 -22.2384 -22.1295 -22.1295 -22.1295 -22.1295
   -22.0786 -22.0786 -22.0786 -22.0786 -11.5696 -11.5696 -11.5460 -11.5460
   -11.5080 -11.5080 -11.4829 -11.4829  -7.0014  -7.0014  -6.9821  -6.9821
    -2.8718  -2.8718  -2.5194  -2.5194  -2.1206  -2.1206  -1.9076  -1.9076
    -1.8782  -1.8782  -1.5786  -1.5786  -1.3212  -1.3212  -1.2188  -1.2188
    -1.1118  -1.1118  -0.8942  -0.8942  -0.8425  -0.8425  -0.6414  -0.6414

     occupation numbers 
     1.0000   1.0000   1.0000   1.0000   1.0000   1.0000   1.0000   1.0000
     1.0000   1.0000   1.0000   1.0000   1.0000   1.0000   1.0000   1.0000
     1.0000   1.0000   1.0000   1.0000   1.0000   1.0000   1.0000   1.0000
     1.0000   1.0000   1.0000   1.0000   1.0000   1.0000   1.0000   1.0000
     1.0000   1.0000   1.0000   1.0000   1.0000   1.0000   1.0000   1.0000
     1.0000   1.0000   1.0000   1.0000   1.0000   1.0000   1.0000   1.0000
     1.0000   1.0000   1.0000   1.0000   1.0000   1.0000   1.0000   1.0000

          k = 0.3000-0.5000-0.5000 ( 29708 PWs)   bands (ev):

   -23.2587 -23.2587 -23.2587 -23.2587 -23.1339 -23.1339 -23.1339 -23.1339
   -22.2384 -22.2384 -22.2384 -22.2384 -22.1295 -22.1295 -22.1295 -22.1295
   -22.0787 -22.0787 -22.0786 -22.0786 -11.5598 -11.5598 -11.5597 -11.5597
   -11.4930 -11.4930 -11.4930 -11.4930  -6.9988  -6.9988  -6.9948  -6.9948
    -2.6941  -2.6941  -2.6784  -2.6784  -2.0948  -2.0948  -1.9604  -1.9604
    -1.8278  -1.8278  -1.6011  -1.6011  -1.2936  -1.2936  -1.2462  -1.2462
    -0.9914  -0.9914  -0.9802  -0.9802  -0.8236  -0.8236  -0.8004  -0.8004

     occupation numbers 
     1.0000   1.0000   1.0000   1.0000   1.0000   1.0000   1.0000   1.0000
     1.0000   1.0000   1.0000   1.0000   1.0000   1.0000   1.0000   1.0000
     1.0000   1.0000   1.0000   1.0000   1.0000   1.0000   1.0000   1.0000
     1.0000   1.0000   1.0000   1.0000   1.0000   1.0000   1.0000   1.0000
     1.0000   1.0000   1.0000   1.0000   1.0000   1.0000   1.0000   1.0000
     1.0000   1.0000   1.0000   1.0000   1.0000   1.0000   1.0000   1.0000
     1.0000   1.0000   1.0000   1.0000   1.0000   1.0000   1.0000   1.0000

          k =-0.5000-0.5000-0.5000 ( 29464 PWs)   bands (ev):

   -23.2586 -23.2586 -23.2586 -23.2586 -23.1338 -23.1338 -23.1338 -23.1338
   -22.2383 -22.2383 -22.2383 -22.2383 -22.1294 -22.1294 -22.1294 -22.1294
   -22.0786 -22.0786 -22.0786 -22.0786 -11.5650 -11.5650 -11.5650 -11.5650
   -11.4868 -11.4868 -11.4868 -11.4868  -7.0066  -7.0066  -7.0066  -7.0066
    -2.5220  -2.5220  -2.5220  -2.5220  -2.0816  -2.0816  -2.0816  -2.0816
    -1.7864  -1.7864  -1.7864  -1.7864  -1.3085  -1.3085  -1.3085  -1.3085
    -1.0931  -1.0931  -1.0931  -1.0931  -0.7893  -0.7893  -0.7893  -0.7893

     occupation numbers 
     1.0000   1.0000   1.0000   1.0000   1.0000   1.0000   1.0000   1.0000
     1.0000   1.0000   1.0000   1.0000   1.0000   1.0000   1.0000   1.0000
     1.0000   1.0000   1.0000   1.0000   1.0000   1.0000   1.0000   1.0000
     1.0000   1.0000   1.0000   1.0000   1.0000   1.0000   1.0000   1.0000
     1.0000   1.0000   1.0000   1.0000   1.0000   1.0000   1.0000   1.0000
     1.0000   1.0000   1.0000   1.0000   1.0000   1.0000   1.0000   1.0000
     1.0000   1.0000   1.0000   1.0000   1.0000   1.0000   1.0000   1.0000

          k = 0.1000 0.3000 0.1000 ( 29657 PWs)   bands (ev):

   -23.2587 -23.2587 -23.2587 -23.2587 -23.1339 -23.1339 -23.1338 -23.1338
   -22.2384 -22.2384 -22.2384 -22.2384 -22.1295 -22.1295 -22.1295 -22.1295
   -22.0787 -22.0787 -22.0786 -22.0786 -11.5957 -11.5957 -11.5313 -11.5313
   -11.4993 -11.4993 -11.4840 -11.4840  -7.0293  -7.0293  -6.9108  -6.9108
    -2.8429  -2.8429  -2.6769  -2.6769  -2.1376  -2.1376  -1.9733  -1.9733
    -1.7783  -1.7783  -1.5711  -1.5711  -1.2592  -1.2592  -1.2091  -1.2091
    -1.0207  -1.0207  -0.9472  -0.9472  -0.8807  -0.8807  -0.6430  -0.6430

     occupation numbers 
     1.0000   1.0000   1.0000   1.0000   1.0000   1.0000   1.0000   1.0000
     1.0000   1.0000   1.0000   1.0000   1.0000   1.0000   1.0000   1.0000
     1.0000   1.0000   1.0000   1.0000   1.0000   1.0000   1.0000   1.0000
     1.0000   1.0000   1.0000   1.0000   1.0000   1.0000   1.0000   1.0000
     1.0000   1.0000   1.0000   1.0000   1.0000   1.0000   1.0000   1.0000
     1.0000   1.0000   1.0000   1.0000   1.0000   1.0000   1.0000   1.0000
     1.0000   1.0000   1.0000   1.0000   1.0000   1.0000   1.0000   1.0000

          k = 0.1000-0.5000 0.1000 ( 29690 PWs)   bands (ev):

   -23.2587 -23.2587 -23.2587 -23.2587 -23.1339 -23.1339 -23.1339 -23.1339
   -22.2384 -22.2384 -22.2384 -22.2384 -22.1295 -22.1295 -22.1295 -22.1295
   -22.0787 -22.0787 -22.0786 -22.0786 -11.5592 -11.5592 -11.5591 -11.5591
   -11.4964 -11.4964 -11.4964 -11.4964  -6.9685  -6.9685  -6.9665  -6.9665
    -2.8411  -2.8411  -2.8289  -2.8289  -2.0636  -2.0636  -2.0395  -2.0395
    -1.6910  -1.6910  -1.6226  -1.6226  -1.2690  -1.2690  -1.2656  -1.2656
    -0.9930  -0.9930  -0.9449  -0.9449  -0.6476  -0.6476  -0.6441  -0.6441

     occupation numbers 
     1.0000   1.0000   1.0000   1.0000   1.0000   1.0000   1.0000   1.0000
     1.0000   1.0000   1.0000   1.0000   1.0000   1.0000   1.0000   1.0000
     1.0000   1.0000   1.0000   1.0000   1.0000   1.0000   1.0000   1.0000
     1.0000   1.0000   1.0000   1.0000   1.0000   1.0000   1.0000   1.0000
     1.0000   1.0000   1.0000   1.0000   1.0000   1.0000   1.0000   1.0000
     1.0000   1.0000   1.0000   1.0000   1.0000   1.0000   1.0000   1.0000
     1.0000   1.0000   1.0000   1.0000   1.0000   1.0000   1.0000   1.0000

          k = 0.3000 0.3000 0.1000 ( 29688 PWs)   bands (ev):

   -23.2587 -23.2587 -23.2587 -23.2587 -23.1339 -23.1339 -23.1339 -23.1339
   -22.2384 -22.2384 -22.2384 -22.2384 -22.1295 -22.1295 -22.1295 -22.1295
   -22.0787 -22.0787 -22.0786 -22.0786 -11.5840 -11.5840 -11.5422 -11.5422
   -11.4998 -11.4998 -11.4833 -11.4833  -7.0147  -7.0147  -6.9402  -6.9402
    -2.8332  -2.8332  -2.5473  -2.5473  -2.0644  -2.0644  -1.9665  -1.9665
    -1.8751  -1.8751  -1.6172  -1.6172  -1.3350  -1.3350  -1.2940  -1.2940
    -1.1208  -1.1208  -0.9193  -0.9193  -0.8835  -0.8835  -0.6405  -0.6405

     occupation numbers 
     1.0000   1.0000   1.0000   1.0000   1.0000   1.0000   1.0000   1.0000
     1.0000   1.0000   1.0000   1.0000   1.0000   1.0000   1.0000   1.0000
     1.0000   1.0000   1.0000   1.0000   1.0000   1.0000   1.0000   1.0000
     1.0000   1.0000   1.0000   1.0000   1.0000   1.0000   1.0000   1.0000
     1.0000   1.0000   1.0000   1.0000   1.0000   1.0000   1.0000   1.0000
     1.0000   1.0000   1.0000   1.0000   1.0000   1.0000   1.0000   1.0000
     1.0000   1.0000   1.0000   1.0000   1.0000   1.0000   1.0000   1.0000

          k = 0.3000-0.5000 0.1000 ( 29616 PWs)   bands (ev):

   -23.2587 -23.2587 -23.2587 -23.2587 -23.1338 -23.1338 -23.1338 -23.1338
   -22.2384 -22.2384 -22.2383 -22.2383 -22.1295 -22.1295 -22.1295 -22.1295
   -22.0786 -22.0786 -22.0786 -22.0786 -11.5638 -11.5638 -11.5638 -11.5638
   -11.4905 -11.4905 -11.4905 -11.4905  -6.9827  -6.9827  -6.9814  -6.9814
    -2.6737  -2.6737  -2.6661  -2.6661  -2.0452  -2.0452  -2.0100  -2.0100
    -1.7507  -1.7507  -1.6868  -1.6868  -1.3737  -1.3737  -1.3660  -1.3660
    -1.0145  -1.0145  -0.9830  -0.9830  -0.8254  -0.8254  -0.8209  -0.8209

     occupation numbers 
     1.0000   1.0000   1.0000   1.0000   1.0000   1.0000   1.0000   1.0000
     1.0000   1.0000   1.0000   1.0000   1.0000   1.0000   1.0000   1.0000
     1.0000   1.0000   1.0000   1.0000   1.0000   1.0000   1.0000   1.0000
     1.0000   1.0000   1.0000   1.0000   1.0000   1.0000   1.0000   1.0000
     1.0000   1.0000   1.0000   1.0000   1.0000   1.0000   1.0000   1.0000
     1.0000   1.0000   1.0000   1.0000   1.0000   1.0000   1.0000   1.0000
     1.0000   1.0000   1.0000   1.0000   1.0000   1.0000   1.0000   1.0000

          k =-0.5000 0.1000 0.3000 ( 29616 PWs)   bands (ev):

   -23.2587 -23.2587 -23.2587 -23.2587 -23.1339 -23.1339 -23.1338 -23.1338
   -22.2384 -22.2384 -22.2383 -22.2383 -22.1295 -22.1295 -22.1295 -22.1295
   -22.0786 -22.0786 -22.0786 -22.0786 -11.5530 -11.5530 -11.5528 -11.5528
   -11.5018 -11.5018 -11.5018 -11.5018  -6.9783  -6.9783  -6.9730  -6.9730
    -2.8747  -2.8747  -2.8477  -2.8477  -2.0303  -2.0303  -1.9476  -1.9476
    -1.7644  -1.7644  -1.5924  -1.5924  -1.2484  -1.2484  -1.2351  -1.2351
    -0.9817  -0.9817  -0.9214  -0.9214  -0.6450  -0.6450  -0.6369  -0.6369

     occupation numbers 
     1.0000   1.0000   1.0000   1.0000   1.0000   1.0000   1.0000   1.0000
     1.0000   1.0000   1.0000   1.0000   1.0000   1.0000   1.0000   1.0000
     1.0000   1.0000   1.0000   1.0000   1.0000   1.0000   1.0000   1.0000
     1.0000   1.0000   1.0000   1.0000   1.0000   1.0000   1.0000   1.0000
     1.0000   1.0000   1.0000   1.0000   1.0000   1.0000   1.0000   1.0000
     1.0000   1.0000   1.0000   1.0000   1.0000   1.0000   1.0000   1.0000
     1.0000   1.0000   1.0000   1.0000   1.0000   1.0000   1.0000   1.0000

          k =-0.5000-0.5000 0.1000 ( 29680 PWs)   bands (ev):

   -23.2587 -23.2587 -23.2587 -23.2587 -23.1339 -23.1339 -23.1339 -23.1339
   -22.2384 -22.2384 -22.2384 -22.2384 -22.1295 -22.1295 -22.1295 -22.1295
   -22.0787 -22.0787 -22.0787 -22.0787 -11.5663 -11.5663 -11.5663 -11.5663
   -11.4872 -11.4872 -11.4872 -11.4872  -6.9909  -6.9909  -6.9909  -6.9909
    -2.5396  -2.5396  -2.5396  -2.5396  -1.9731  -1.9731  -1.9731  -1.9731
    -1.8268  -1.8268  -1.8268  -1.8268  -1.4230  -1.4230  -1.4230  -1.4230
    -1.1176  -1.1176  -1.1176  -1.1176  -0.8256  -0.8256  -0.8256  -0.8256

     occupation numbers 
     1.0000   1.0000   1.0000   1.0000   1.0000   1.0000   1.0000   1.0000
     1.0000   1.0000   1.0000   1.0000   1.0000   1.0000   1.0000   1.0000
     1.0000   1.0000   1.0000   1.0000   1.0000   1.0000   1.0000   1.0000
     1.0000   1.0000   1.0000   1.0000   1.0000   1.0000   1.0000   1.0000
     1.0000   1.0000   1.0000   1.0000   1.0000   1.0000   1.0000   1.0000
     1.0000   1.0000   1.0000   1.0000   1.0000   1.0000   1.0000   1.0000
     1.0000   1.0000   1.0000   1.0000   1.0000   1.0000   1.0000   1.0000

          k = 0.3000-0.5000 0.3000 ( 29632 PWs)   bands (ev):

   -23.2587 -23.2587 -23.2587 -23.2587 -23.1339 -23.1339 -23.1338 -23.1338
   -22.2384 -22.2384 -22.2383 -22.2383 -22.1295 -22.1295 -22.1295 -22.1295
   -22.0786 -22.0786 -22.0786 -22.0786 -11.5614 -11.5614 -11.5613 -11.5613
   -11.4920 -11.4920 -11.4920 -11.4920  -6.9928  -6.9928  -6.9895  -6.9895
    -2.6883  -2.6883  -2.6731  -2.6731  -2.0743  -2.0743  -1.9606  -1.9606
    -1.8228  -1.8228  -1.6332  -1.6332  -1.3207  -1.3207  -1.3053  -1.3053
    -1.0021  -1.0021  -0.9644  -0.9644  -0.8277  -0.8277  -0.8096  -0.8096

     occupation numbers 
     1.0000   1.0000   1.0000   1.0000   1.0000   1.0000   1.0000   1.0000
     1.0000   1.0000   1.0000   1.0000   1.0000   1.0000   1.0000   1.0000
     1.0000   1.0000   1.0000   1.0000   1.0000   1.0000   1.0000   1.0000
     1.0000   1.0000   1.0000   1.0000   1.0000   1.0000   1.0000   1.0000
     1.0000   1.0000   1.0000   1.0000   1.0000   1.0000   1.0000   1.0000
     1.0000   1.0000   1.0000   1.0000   1.0000   1.0000   1.0000   1.0000
     1.0000   1.0000   1.0000   1.0000   1.0000   1.0000   1.0000   1.0000

          k =-0.5000-0.5000 0.3000 ( 29708 PWs)   bands (ev):

   -23.2587 -23.2587 -23.2587 -23.2587 -23.1339 -23.1339 -23.1339 -23.1339
   -22.2384 -22.2384 -22.2384 -22.2384 -22.1295 -22.1295 -22.1295 -22.1295
   -22.0787 -22.0787 -22.0787 -22.0787 -11.5655 -11.5655 -11.5655 -11.5655
   -11.4870 -11.4870 -11.4870 -11.4870  -7.0006  -7.0006  -7.0006  -7.0006
    -2.5283  -2.5283  -2.5283  -2.5283  -2.0450  -2.0450  -2.0450  -2.0450
    -1.7975  -1.7975  -1.7975  -1.7975  -1.3641  -1.3641  -1.3641  -1.3641
    -1.0889  -1.0889  -1.0889  -1.0889  -0.8057  -0.8057  -0.8057  -0.8057

     occupation numbers 
     1.0000   1.0000   1.0000   1.0000   1.0000   1.0000   1.0000   1.0000
     1.0000   1.0000   1.0000   1.0000   1.0000   1.0000   1.0000   1.0000
     1.0000   1.0000   1.0000   1.0000   1.0000   1.0000   1.0000   1.0000
     1.0000   1.0000   1.0000   1.0000   1.0000   1.0000   1.0000   1.0000
     1.0000   1.0000   1.0000   1.0000   1.0000   1.0000   1.0000   1.0000
     1.0000   1.0000   1.0000   1.0000   1.0000   1.0000   1.0000   1.0000
     1.0000   1.0000   1.0000   1.0000   1.0000   1.0000   1.0000   1.0000

     highest occupied level (ev):    -0.6275

!    total energy              =    -458.40752701 Ry
     estimated scf accuracy    <       0.00000005 Ry

     The total energy is the sum of the following terms:
     one-electron contribution =    -256.48433885 Ry
     hartree contribution      =     145.40834521 Ry
     xc contribution           =    -157.07977304 Ry
     ewald contribution        =    -190.25176033 Ry

     convergence has been achieved in  10 iterations

     Forces acting on atoms (cartesian axes, Ry/au):

     atom    1 type  1   force =     0.00000000    0.00000000    0.00000000
     atom    2 type  1   force =     0.00000000    0.00000000   -0.00000000
     atom    3 type  2   force =    -0.01801786   -0.01801786    0.00000000
     atom    4 type  2   force =     0.01801786    0.01801786   -0.00000000
     atom    5 type  2   force =    -0.01801786    0.01801786    0.00000000
     atom    6 type  2   force =     0.01801786   -0.01801786   -0.00000000
     The non-local contrib.  to forces
     atom    1 type  1   force =     0.00000000    0.00000000    0.00000000
     atom    2 type  1   force =     0.00000000    0.00000000    0.00000000
     atom    3 type  2   force =    -0.04131582   -0.04131582    0.00000000
     atom    4 type  2   force =     0.04131582    0.04131582    0.00000000
     atom    5 type  2   force =    -0.04131582    0.04131582    0.00000000
     atom    6 type  2   force =     0.04131582   -0.04131582    0.00000000
     The ionic contribution  to forces
     atom    1 type  1   force =    -0.00000000   -0.00000000    0.00000000
     atom    2 type  1   force =    -0.00000000   -0.00000000    0.00000000
     atom    3 type  2   force =     1.38633658    1.38633658    0.00000000
     atom    4 type  2   force =    -1.38633658   -1.38633658   -0.00000000
     atom    5 type  2   force =     1.38633658   -1.38633658    0.00000000
     atom    6 type  2   force =    -1.38633658    1.38633658    0.00000000
     The local contribution  to forces
     atom    1 type  1   force =    -0.00000000   -0.00000000   -0.00000000
     atom    2 type  1   force =     0.00000000    0.00000000    0.00000000
     atom    3 type  2   force =    -1.36699387   -1.36699387    0.00000000
     atom    4 type  2   force =     1.36699387    1.36699387   -0.00000000
     atom    5 type  2   force =    -1.36699387    1.36699387    0.00000000
     atom    6 type  2   force =     1.36699387   -1.36699387    0.00000000
     The core correction contribution to forces
     atom    1 type  1   force =     0.00000000    0.00000000    0.00000000
     atom    2 type  1   force =     0.00000000    0.00000000    0.00000000
     atom    3 type  2   force =     0.00390233    0.00390233    0.00000000
     atom    4 type  2   force =    -0.00390233   -0.00390233    0.00000000
     atom    5 type  2   force =     0.00390233   -0.00390233   -0.00000000
     atom    6 type  2   force =    -0.00390233    0.00390233   -0.00000000
     The Hubbard contrib.    to forces
     atom    1 type  1   force =     0.00000000    0.00000000    0.00000000
     atom    2 type  1   force =     0.00000000    0.00000000    0.00000000
     atom    3 type  2   force =     0.00000000    0.00000000    0.00000000
     atom    4 type  2   force =     0.00000000    0.00000000    0.00000000
     atom    5 type  2   force =     0.00000000    0.00000000    0.00000000
     atom    6 type  2   force =     0.00000000    0.00000000    0.00000000
     The SCF correction term to forces
     atom    1 type  1   force =    -0.00000000    0.00000000    0.00000000
     atom    2 type  1   force =     0.00000000   -0.00000000   -0.00000000
     atom    3 type  2   force =     0.00005293    0.00005293    0.00000000
     atom    4 type  2   force =    -0.00005293   -0.00005293   -0.00000000
     atom    5 type  2   force =     0.00005293   -0.00005293   -0.00000000
     atom    6 type  2   force =    -0.00005293    0.00005293   -0.00000000

     Total force =     0.050962     Total SCF correction =     0.000150


     Computing stress (Cartesian axis) and pressure

          total   stress  (Ry/bohr**3)                   (kbar)     P=      -27.84
  -0.00019166   0.00000000   0.00000000          -28.19        0.00        0.00
   0.00000000  -0.00019166   0.00000000            0.00      -28.19        0.00
   0.00000000   0.00000000  -0.00018449            0.00        0.00      -27.14

     kinetic stress (kbar)   4478.02      0.00      0.00
                                0.00   4478.02      0.00
                                0.00      0.00   4472.84

     local   stress (kbar)  -2714.54     -0.00      0.00
                               -0.00  -2714.54      0.00
                                0.00      0.00  -2198.90

     nonloc. stress (kbar)     69.01      0.00      0.00
                                0.00     69.01      0.00
                                0.00      0.00     53.78

     hartree stress (kbar)   2422.31     -0.00     -0.00
                               -0.00   2422.31     -0.00
                               -0.00     -0.00   2289.26

     exc-cor stress (kbar)   3792.41      0.00     -0.00
                                0.00   3792.41      0.00
                               -0.00      0.00   3791.42

     corecor stress (kbar)  -5084.42     -0.00     -0.00
                               -0.00  -5084.42     -0.00
                               -0.00     -0.00  -5083.57

     ewald   stress (kbar)  -2990.99     -0.00     -0.00
                               -0.00  -2990.99     -0.00
                               -0.00     -0.00  -3351.97

     hubbard stress (kbar)      0.00      0.00      0.00
                                0.00      0.00      0.00
                                0.00      0.00      0.00

     DFT-D   stress (kbar)      0.00      0.00      0.00
                                0.00      0.00      0.00
                                0.00      0.00      0.00

     XDM     stress (kbar)      0.00      0.00      0.00
                                0.00      0.00      0.00
                                0.00      0.00      0.00

     dft-nl  stress (kbar)      0.00      0.00      0.00
                                0.00      0.00      0.00
                                0.00      0.00      0.00

     TS-vdW  stress (kbar)      0.00      0.00      0.00
                                0.00      0.00      0.00
                                0.00      0.00      0.00



     Writing output data file ./SnI2.save/

     init_run     :      8.43s CPU      5.04s WALL (       1 calls)
     electrons    :    245.90s CPU    133.87s WALL (       1 calls)
     forces       :      3.87s CPU      2.74s WALL (       1 calls)
     stress       :     14.14s CPU      7.59s WALL (       1 calls)

     Called by init_run:
     wfcinit      :      6.76s CPU      3.78s WALL (       1 calls)
     wfcinit:atom :      0.05s CPU      0.03s WALL (      18 calls)
     wfcinit:wfcr :      6.45s CPU      3.55s WALL (      18 calls)
     potinit      :      0.28s CPU      0.17s WALL (       1 calls)
     hinit0       :      0.58s CPU      0.49s WALL (       1 calls)

     Called by electrons:
     c_bands      :    201.75s CPU    108.15s WALL (      10 calls)
     sum_band     :     35.89s CPU     20.05s WALL (      10 calls)
     v_of_rho     :      0.76s CPU      0.45s WALL (      11 calls)
     v_h          :      0.08s CPU      0.04s WALL (      11 calls)
     v_xc         :      0.82s CPU      0.49s WALL (      13 calls)
     newd         :      6.81s CPU      4.56s WALL (      11 calls)
     mix_rho      :      0.61s CPU      0.39s WALL (      10 calls)

     Called by c_bands:
     init_us_2    :      1.20s CPU      0.64s WALL (     414 calls)
     cegterg      :    194.03s CPU    102.95s WALL (     180 calls)

     Called by sum_band:
     sum_band:wei :      0.00s CPU      0.00s WALL (      10 calls)
     sum_band:loo :     30.10s CPU     15.66s WALL (      10 calls)
     sum_band:buf :      0.16s CPU      0.13s WALL (     180 calls)
     sum_band:ini :      0.43s CPU      0.22s WALL (     180 calls)
     sum_band:cal :      2.39s CPU      1.20s WALL (     180 calls)
     sum_band:bec :      5.83s CPU      2.95s WALL (     180 calls)
     addusdens    :      5.35s CPU      4.07s WALL (      10 calls)
     addusd:skk   :      0.01s CPU      0.00s WALL (      20 calls)
     addusd:dgemm :      1.89s CPU      2.32s WALL (      20 calls)
     addusd:qvan2 :      3.34s CPU      1.69s WALL (      20 calls)

     Called by *egterg:
     cdiaghg      :      9.07s CPU      4.84s WALL (    1244 calls)
     cegterg:over :      9.80s CPU      5.41s WALL (    1064 calls)
     cegterg:upda :      4.12s CPU      2.09s WALL (    1064 calls)
     cegterg:last :      6.69s CPU      3.41s WALL (     514 calls)
     h_psi        :    151.90s CPU     79.97s WALL (    1262 calls)
     s_psi        :     11.56s CPU      6.54s WALL (    1262 calls)
     g_psi        :      0.47s CPU      0.24s WALL (    1064 calls)

     Called by h_psi:
     h_psi:calbec :      9.01s CPU      4.57s WALL (    1262 calls)
     vloc_psi     :    132.00s CPU     69.41s WALL (    1262 calls)
     add_vuspsi   :     10.40s CPU      5.74s WALL (    1262 calls)

     General routines
     calbec       :     13.39s CPU      7.17s WALL (    1532 calls)
     fft          :      1.47s CPU      0.91s WALL (     259 calls)
     ffts         :      0.32s CPU      0.18s WALL (      84 calls)
     fftw         :    138.64s CPU     73.07s WALL (  157692 calls)
     interpolate  :      0.35s CPU      0.19s WALL (      44 calls)

     Parallel routines
     fft_scatt_xy :      7.51s CPU      3.83s WALL (  158035 calls)
     fft_scatt_yz :     98.66s CPU     52.74s WALL (  158035 calls)

     PWSCF        :   4m35.20s CPU   2m33.59s WALL


   This run was terminated on:  10:59:49  31Jan2021            

=------------------------------------------------------------------------------=
   JOB DONE.
=------------------------------------------------------------------------------=
