
     Program PWSCF v.6.6 starts on 14Jan2021 at 12:51:19 

     This program is part of the open-source Quantum ESPRESSO suite
     for quantum simulation of materials; please cite
         "P. Giannozzi et al., J. Phys.:Condens. Matter 21 395502 (2009);
         "P. Giannozzi et al., J. Phys.:Condens. Matter 29 465901 (2017);
          URL http://www.quantum-espresso.org", 
     in publications or presentations arising from this work. More details at
     http://www.quantum-espresso.org/quote

     Parallel version (MPI), running on    64 processors

     MPI processes distributed on     2 nodes
     R & G space division:  proc/nbgrp/npool/nimage =      64
     Fft bands division:     nmany     =       1
     Waiting for input...
     Reading input from standard input

     Current dimensions of program PWSCF are:
     Max number of different atomic species (ntypx) = 10
     Max number of k-points (npk) =  40000
     Max angular momentum in pseudopotentials (lmaxx) =  3
     file Cs.pbe-spn-kjpaw_psl.1.0.0.UPF: wavefunction(s)  5S 6S renormalized
     file Sn.pbe-dn-kjpaw_psl.1.0.0.UPF: wavefunction(s)  5S 5P 4D renormalized
     file I.pbe-n-kjpaw_psl.1.0.0.UPF: wavefunction(s)  5S renormalized

     Subspace diagonalization in iterative solution of the eigenvalue problem:
     a serial algorithm will be used

 
     Parallelization info
     --------------------
     sticks:   dense  smooth     PW     G-vecs:    dense   smooth      PW
     Min         138      92     24                24702    13436    1876
     Max         139      93     26                24717    13446    1889
     Sum        8865    5903   1597              1581291   860245  120505
 

     Title: 
     CsSnI3                                                                     


     bravais-lattice index     =            8
     lattice parameter (alat)  =       9.1317  a.u.
     unit-cell volume          =    6370.5385 (a.u.)^3
     number of atoms/cell      =           20
     number of atomic types    =            3
     number of electrons       =       176.00
     number of Kohn-Sham states=           88
     kinetic-energy cutoff     =     100.0000  Ry
     charge density cutoff     =     600.0000  Ry
     convergence threshold     =      1.0E-06
     mixing beta               =       0.5000
     number of iterations used =            8  plain     mixing
     Exchange-correlation= SLA PW PBX PBC
                           (   1   4   3   4   0   0   0)

     celldm(1)=   9.131705  celldm(2)=   2.227728  celldm(3)=   3.755420
     celldm(4)=   0.000000  celldm(5)=   0.000000  celldm(6)=   0.000000

     crystal axes: (cart. coord. in units of alat)
               a(1) = (   1.000000   0.000000   0.000000 )  
               a(2) = (   0.000000   2.227728   0.000000 )  
               a(3) = (   0.000000   0.000000   3.755420 )  

     reciprocal axes: (cart. coord. in units 2 pi/alat)
               b(1) = (  1.000000  0.000000  0.000000 )  
               b(2) = (  0.000000  0.448888  0.000000 )  
               b(3) = (  0.000000  0.000000  0.266282 )  


     PseudoPot. # 1 for Cs read from file:
     /scratch/gtenti/degironcoli/pseudo/Cs.pbe-spn-kjpaw_psl.1.0.0.UPF
     MD5 check sum: b82c75cc2e1f4ff73b6412cffeb9c584
     Pseudo is Projector augmented-wave + core cor, Zval =  9.0
     Generated using "atomic" code by A. Dal Corso v.6.4.1
     Shape of augmentation charge: PSQ
     Using radial grid of 1251 points,  9 beta functions with: 
                l(1) =   0
                l(2) =   0
                l(3) =   0
                l(4) =   1
                l(5) =   1
                l(6) =   2
                l(7) =   2
                l(8) =   3
                l(9) =   3
     Q(r) pseudized with 0 coefficients 


     PseudoPot. # 2 for Sn read from file:
     /scratch/gtenti/degironcoli/pseudo/Sn.pbe-dn-kjpaw_psl.1.0.0.UPF
     MD5 check sum: 67f11dec737d427557dc41ea34975807
     Pseudo is Projector augmented-wave + core cor, Zval = 14.0
     Generated using "atomic" code by A. Dal Corso v.6.3
     Shape of augmentation charge: PSQ
     Using radial grid of 1243 points,  6 beta functions with: 
                l(1) =   0
                l(2) =   0
                l(3) =   1
                l(4) =   1
                l(5) =   2
                l(6) =   2
     Q(r) pseudized with 0 coefficients 


     PseudoPot. # 3 for I  read from file:
     /scratch/gtenti/degironcoli/pseudo/I.pbe-n-kjpaw_psl.1.0.0.UPF
     MD5 check sum: cd3d296c3308a581e1559a0c8a554cb5
     Pseudo is Projector augmented-wave + core cor, Zval =  7.0
     Generated using "atomic" code by A. Dal Corso v.6.3
     Shape of augmentation charge: PSQ
     Using radial grid of 1247 points,  6 beta functions with: 
                l(1) =   0
                l(2) =   0
                l(3) =   1
                l(4) =   1
                l(5) =   2
                l(6) =   2
     Q(r) pseudized with 0 coefficients 


     atomic species   valence    mass     pseudopotential
        Cs             9.00   132.90000     Cs( 1.00)
        Sn            14.00   118.70000     Sn( 1.00)
        I              7.00   126.90000     I ( 1.00)

      8 Sym. Ops., with inversion, found ( 6 have fractional translation)


                                    s                        frac. trans.

      isym =  1     identity                                     

 cryst.   s( 1) = (     1          0          0      )
                  (     0          1          0      )
                  (     0          0          1      )

 cart.    s( 1) = (  1.0000000  0.0000000  0.0000000 )
                  (  0.0000000  1.0000000  0.0000000 )
                  (  0.0000000  0.0000000  1.0000000 )


      isym =  2     180 deg rotation - cart. axis [0,0,1]        

 cryst.   s( 2) = (    -1          0          0      )    f =(  0.0000000 )
                  (     0         -1          0      )       (  0.5000000 )
                  (     0          0          1      )       (  0.5000000 )

 cart.    s( 2) = ( -1.0000000  0.0000000  0.0000000 )    f =(  0.0000000 )
                  (  0.0000000 -1.0000000  0.0000000 )       (  1.1138638 )
                  (  0.0000000  0.0000000  1.0000000 )       (  1.8777098 )


      isym =  3     180 deg rotation - cart. axis [0,1,0]        

 cryst.   s( 3) = (    -1          0          0      )    f =(  0.5000000 )
                  (     0          1          0      )       ( -0.5000000 )
                  (     0          0         -1      )       ( -0.5000000 )

 cart.    s( 3) = ( -1.0000000  0.0000000  0.0000000 )    f =(  0.5000000 )
                  (  0.0000000  1.0000000  0.0000000 )       ( -1.1138638 )
                  (  0.0000000  0.0000000 -1.0000000 )       ( -1.8777098 )


      isym =  4     180 deg rotation - cart. axis [1,0,0]        

 cryst.   s( 4) = (     1          0          0      )    f =( -0.5000000 )
                  (     0         -1          0      )       (  0.0000000 )
                  (     0          0         -1      )       (  0.0000000 )

 cart.    s( 4) = (  1.0000000  0.0000000  0.0000000 )    f =( -0.5000000 )
                  (  0.0000000 -1.0000000  0.0000000 )       (  0.0000000 )
                  (  0.0000000  0.0000000 -1.0000000 )       (  0.0000000 )


      isym =  5     inversion                                    

 cryst.   s( 5) = (    -1          0          0      )
                  (     0         -1          0      )
                  (     0          0         -1      )

 cart.    s( 5) = ( -1.0000000  0.0000000  0.0000000 )
                  (  0.0000000 -1.0000000  0.0000000 )
                  (  0.0000000  0.0000000 -1.0000000 )


      isym =  6     inv. 180 deg rotation - cart. axis [0,0,1]   

 cryst.   s( 6) = (     1          0          0      )    f =(  0.0000000 )
                  (     0          1          0      )       ( -0.5000000 )
                  (     0          0         -1      )       ( -0.5000000 )

 cart.    s( 6) = (  1.0000000  0.0000000  0.0000000 )    f =(  0.0000000 )
                  (  0.0000000  1.0000000  0.0000000 )       ( -1.1138638 )
                  (  0.0000000  0.0000000 -1.0000000 )       ( -1.8777098 )


      isym =  7     inv. 180 deg rotation - cart. axis [0,1,0]   

 cryst.   s( 7) = (     1          0          0      )    f =( -0.5000000 )
                  (     0         -1          0      )       (  0.5000000 )
                  (     0          0          1      )       (  0.5000000 )

 cart.    s( 7) = (  1.0000000  0.0000000  0.0000000 )    f =( -0.5000000 )
                  (  0.0000000 -1.0000000  0.0000000 )       (  1.1138638 )
                  (  0.0000000  0.0000000  1.0000000 )       (  1.8777098 )


      isym =  8     inv. 180 deg rotation - cart. axis [1,0,0]   

 cryst.   s( 8) = (    -1          0          0      )    f =(  0.5000000 )
                  (     0          1          0      )       (  0.0000000 )
                  (     0          0          1      )       (  0.0000000 )

 cart.    s( 8) = ( -1.0000000  0.0000000  0.0000000 )    f =(  0.5000000 )
                  (  0.0000000  1.0000000  0.0000000 )       (  0.0000000 )
                  (  0.0000000  0.0000000  1.0000000 )       (  0.0000000 )


     point group D_2h (mmm) 
     there are  8 classes
     the character table:

       E     C2    C2'   C2''  i     s_v   s_v'  s_v''
A_g    1.00  1.00  1.00  1.00  1.00  1.00  1.00  1.00
B_1g   1.00  1.00 -1.00 -1.00  1.00  1.00 -1.00 -1.00
B_2g   1.00 -1.00  1.00 -1.00  1.00 -1.00  1.00 -1.00
B_3g   1.00 -1.00 -1.00  1.00  1.00 -1.00 -1.00  1.00
A_u    1.00  1.00  1.00  1.00 -1.00 -1.00 -1.00 -1.00
B_1u   1.00  1.00 -1.00 -1.00 -1.00 -1.00  1.00  1.00
B_2u   1.00 -1.00  1.00 -1.00 -1.00  1.00 -1.00  1.00
B_3u   1.00 -1.00 -1.00  1.00 -1.00  1.00  1.00 -1.00

     the symmetry operations in each class and the name of the first element:

     E        1
          identity                                               
     C2       2
          180 deg rotation - cart. axis [0,0,1]                  
     C2'      4
          180 deg rotation - cart. axis [1,0,0]                  
     C2''     3
          180 deg rotation - cart. axis [0,1,0]                  
     i        5
          inversion                                              
     s_v      6
          inv. 180 deg rotation - cart. axis [0,0,1]             
     s_v'     8
          inv. 180 deg rotation - cart. axis [1,0,0]             
     s_v''    7
          inv. 180 deg rotation - cart. axis [0,1,0]             

   Cartesian axes

     site n.     atom                  positions (alat units)
         1           Cs  tau(   1) = (   0.2500000   0.1859640   2.5168147  )
         2           Cs  tau(   2) = (   0.7500000   2.0417636   1.2386050  )
         3           Cs  tau(   3) = (   0.2500000   1.2998278   3.1163149  )
         4           Cs  tau(   4) = (   0.7500000   0.9278998   0.6391048  )
         5           Sn  tau(   5) = (   0.2500000   0.7615710   1.6485466  )
         6           Sn  tau(   6) = (   0.7500000   1.4661567   2.1068731  )
         7           Sn  tau(   7) = (   0.2500000   1.8754348   0.2291632  )
         8           Sn  tau(   8) = (   0.7500000   0.3522928   3.5262565  )
         9           I   tau(   9) = (   0.7500000   0.0581437   0.4202578  )
        10           I   tau(  10) = (   0.2500000   2.1695839   3.3351619  )
        11           I   tau(  11) = (   0.7500000   1.1720075   1.4574521  )
        12           I   tau(  12) = (   0.2500000   1.0557201   2.2979676  )
        13           I   tau(  13) = (   0.7500000   0.6531118   2.9738192  )
        14           I   tau(  14) = (   0.2500000   1.5746158   0.7816005  )
        15           I   tau(  15) = (   0.7500000   1.7669756   2.6593103  )
        16           I   tau(  16) = (   0.2500000   0.4607520   1.0961094  )
        17           I   tau(  17) = (   0.7500000   0.3753632   1.8734812  )
        18           I   tau(  18) = (   0.2500000   1.8523644   1.8819384  )
        19           I   tau(  19) = (   0.7500000   1.4892270   0.0042286  )
        20           I   tau(  20) = (   0.2500000   0.7385006   3.7511911  )

   Crystallographic axes

     site n.     atom                  positions (cryst. coord.)
         1           Cs  tau(   1) = (  0.2500000  0.0834770  0.6701820  )
         2           Cs  tau(   2) = (  0.7500000  0.9165230  0.3298180  )
         3           Cs  tau(   3) = (  0.2500000  0.5834770  0.8298180  )
         4           Cs  tau(   4) = (  0.7500000  0.4165230  0.1701820  )
         5           Sn  tau(   5) = (  0.2500000  0.3418600  0.4389780  )
         6           Sn  tau(   6) = (  0.7500000  0.6581400  0.5610220  )
         7           Sn  tau(   7) = (  0.2500000  0.8418600  0.0610220  )
         8           Sn  tau(   8) = (  0.7500000  0.1581400  0.9389780  )
         9           I   tau(   9) = (  0.7500000  0.0261000  0.1119070  )
        10           I   tau(  10) = (  0.2500000  0.9739000  0.8880930  )
        11           I   tau(  11) = (  0.7500000  0.5261000  0.3880930  )
        12           I   tau(  12) = (  0.2500000  0.4739000  0.6119070  )
        13           I   tau(  13) = (  0.7500000  0.2931740  0.7918740  )
        14           I   tau(  14) = (  0.2500000  0.7068260  0.2081260  )
        15           I   tau(  15) = (  0.7500000  0.7931740  0.7081260  )
        16           I   tau(  16) = (  0.2500000  0.2068260  0.2918740  )
        17           I   tau(  17) = (  0.7500000  0.1684960  0.4988740  )
        18           I   tau(  18) = (  0.2500000  0.8315040  0.5011260  )
        19           I   tau(  19) = (  0.7500000  0.6684960  0.0011260  )
        20           I   tau(  20) = (  0.2500000  0.3315040  0.9988740  )

     number of k points=     8
                       cart. coord. in units 2pi/alat
        k(    1) = (   0.0000000   0.0000000   0.0000000), wk =   0.2500000
        k(    2) = (   0.0000000   0.0000000  -0.1331409), wk =   0.2500000
        k(    3) = (   0.0000000  -0.2244440   0.0000000), wk =   0.2500000
        k(    4) = (   0.0000000  -0.2244440  -0.1331409), wk =   0.2500000
        k(    5) = (  -0.5000000   0.0000000   0.0000000), wk =   0.2500000
        k(    6) = (  -0.5000000   0.0000000  -0.1331409), wk =   0.2500000
        k(    7) = (  -0.5000000  -0.2244440   0.0000000), wk =   0.2500000
        k(    8) = (  -0.5000000  -0.2244440  -0.1331409), wk =   0.2500000

                       cryst. coord.
        k(    1) = (   0.0000000   0.0000000   0.0000000), wk =   0.2500000
        k(    2) = (   0.0000000   0.0000000  -0.5000000), wk =   0.2500000
        k(    3) = (   0.0000000  -0.5000000   0.0000000), wk =   0.2500000
        k(    4) = (   0.0000000  -0.5000000  -0.5000000), wk =   0.2500000
        k(    5) = (  -0.5000000   0.0000000   0.0000000), wk =   0.2500000
        k(    6) = (  -0.5000000   0.0000000  -0.5000000), wk =   0.2500000
        k(    7) = (  -0.5000000  -0.5000000   0.0000000), wk =   0.2500000
        k(    8) = (  -0.5000000  -0.5000000  -0.5000000), wk =   0.2500000

     Dense  grid:  1581291 G-vectors     FFT dimensions: (  72, 160, 270)

     Smooth grid:   860245 G-vectors     FFT dimensions: (  60, 144, 240)

     Dynamical RAM for                 wfc:       2.26 MB

     Dynamical RAM for     wfc (w. buffer):      20.30 MB

     Dynamical RAM for           str. fact:       1.13 MB

     Dynamical RAM for           local pot:       0.00 MB

     Dynamical RAM for          nlocal pot:      10.77 MB

     Dynamical RAM for                qrad:      17.69 MB

     Dynamical RAM for          rho,v,vnew:       2.45 MB

     Dynamical RAM for               rhoin:       0.82 MB

     Dynamical RAM for            rho*nmix:       6.03 MB

     Dynamical RAM for           G-vectors:       1.52 MB

     Dynamical RAM for          h,s,v(r/c):       1.42 MB

     Dynamical RAM for          <psi|beta>:       0.56 MB

     Dynamical RAM for                 psi:       4.51 MB

     Dynamical RAM for                hpsi:       4.51 MB

     Dynamical RAM for                spsi:       4.51 MB

     Dynamical RAM for      wfcinit/wfcrot:       5.58 MB

     Dynamical RAM for           addusdens:     226.22 MB

     Dynamical RAM for          addusforce:     234.85 MB

     Dynamical RAM for         addusstress:     231.87 MB

     Estimated static dynamical RAM per process >      64.41 MB

     Estimated max dynamical RAM per process >     299.26 MB

     Estimated total dynamical RAM >      18.70 GB

     Initial potential from superposition of free atoms

     starting charge  175.83511, renormalised to  176.00000
     Starting wfcs are  104 randomized atomic wfcs
     Checking if some PAW data can be deallocated... 
       PAW data deallocated on   48 nodes for type:  1
       PAW data deallocated on   52 nodes for type:  2
       PAW data deallocated on   28 nodes for type:  3

     total cpu time spent up to now is       18.6 secs

     Self-consistent Calculation

     iteration #  1     ecut=   100.00 Ry     beta= 0.50
     Davidson diagonalization with overlap
     ethr =  1.00E-02,  avg # of iterations =  1.0

     Threshold (ethr) on eigenvalues was too large:
     Diagonalizing with lowered threshold

     Davidson diagonalization with overlap
     ethr =  3.23E-04,  avg # of iterations =  3.8

     total cpu time spent up to now is       56.8 secs

     total energy              =   -7979.48565252 Ry
     estimated scf accuracy    <       0.46058590 Ry

     iteration #  2     ecut=   100.00 Ry     beta= 0.50
     Davidson diagonalization with overlap
     ethr =  2.62E-04,  avg # of iterations =  4.1

     total cpu time spent up to now is       79.1 secs

     total energy              =   -7979.63037223 Ry
     estimated scf accuracy    <       0.11734300 Ry

     iteration #  3     ecut=   100.00 Ry     beta= 0.50
     Davidson diagonalization with overlap
     ethr =  6.67E-05,  avg # of iterations =  3.4

     total cpu time spent up to now is       99.5 secs

     total energy              =   -7979.64980362 Ry
     estimated scf accuracy    <       0.01138703 Ry

     iteration #  4     ecut=   100.00 Ry     beta= 0.50
     Davidson diagonalization with overlap
     ethr =  6.47E-06,  avg # of iterations =  7.4

     total cpu time spent up to now is      127.5 secs

     total energy              =   -7979.65716808 Ry
     estimated scf accuracy    <       0.01000014 Ry

     iteration #  5     ecut=   100.00 Ry     beta= 0.50
     Davidson diagonalization with overlap
     ethr =  5.68E-06,  avg # of iterations =  5.5

     total cpu time spent up to now is      150.2 secs

     total energy              =   -7979.66009028 Ry
     estimated scf accuracy    <       0.00134239 Ry

     iteration #  6     ecut=   100.00 Ry     beta= 0.50
     Davidson diagonalization with overlap
     ethr =  7.63E-07,  avg # of iterations =  4.1

     total cpu time spent up to now is      171.0 secs

     total energy              =   -7979.66012396 Ry
     estimated scf accuracy    <       0.00040425 Ry

     iteration #  7     ecut=   100.00 Ry     beta= 0.50
     Davidson diagonalization with overlap
     ethr =  2.30E-07,  avg # of iterations =  5.6

     total cpu time spent up to now is      195.2 secs

     total energy              =   -7979.66028809 Ry
     estimated scf accuracy    <       0.00012817 Ry

     iteration #  8     ecut=   100.00 Ry     beta= 0.50
     Davidson diagonalization with overlap
     ethr =  7.28E-08,  avg # of iterations =  4.6

     total cpu time spent up to now is      216.8 secs

     total energy              =   -7979.66031662 Ry
     estimated scf accuracy    <       0.00000917 Ry

     iteration #  9     ecut=   100.00 Ry     beta= 0.50
     Davidson diagonalization with overlap
     ethr =  5.21E-09,  avg # of iterations =  5.9

     total cpu time spent up to now is      243.5 secs

     total energy              =   -7979.66031938 Ry
     estimated scf accuracy    <       0.00000591 Ry

     iteration # 10     ecut=   100.00 Ry     beta= 0.50
     Davidson diagonalization with overlap
     ethr =  3.36E-09,  avg # of iterations =  3.2

     total cpu time spent up to now is      264.2 secs

     End of self-consistent calculation

          k = 0.0000 0.0000 0.0000 (107705 PWs)   bands (ev):

   -17.8822 -17.8822 -17.8820 -17.8820 -17.8742 -17.8742 -17.8739 -17.8739
   -17.8711 -17.8711 -17.8704 -17.8704 -17.8593 -17.8593 -17.8579 -17.8579
   -17.8518 -17.8518 -17.8504 -17.8504 -17.7872 -17.7869 -17.7863 -17.7860
    -8.8013  -8.7769  -8.5949  -8.5330  -8.4457  -8.4358  -8.4158  -8.4054
    -8.2788  -8.2554  -8.2376  -8.1947  -4.6161  -4.6152  -4.6126  -4.6060
    -4.5973  -4.5705  -4.5538  -4.5521  -4.5456  -4.5440  -4.5423  -4.5394
    -2.8874  -2.8625  -2.8244  -2.7438   0.1240   0.3256   0.7538   0.8905
     0.9051   0.9865   1.1126   1.1237   1.2140   1.2802   1.3246   1.3333
     1.3339   1.5552   1.6341   1.7318   1.7806   1.7972   1.8141   1.8202
     1.8250   1.8391   1.9798   2.0642   2.0699   2.1743   2.2070   2.2228
     2.2352   2.2374   2.3133   2.3174   2.3825   2.4784   2.6262   2.9250

     occupation numbers 
     1.0000   1.0000   1.0000   1.0000   1.0000   1.0000   1.0000   1.0000
     1.0000   1.0000   1.0000   1.0000   1.0000   1.0000   1.0000   1.0000
     1.0000   1.0000   1.0000   1.0000   1.0000   1.0000   1.0000   1.0000
     1.0000   1.0000   1.0000   1.0000   1.0000   1.0000   1.0000   1.0000
     1.0000   1.0000   1.0000   1.0000   1.0000   1.0000   1.0000   1.0000
     1.0000   1.0000   1.0000   1.0000   1.0000   1.0000   1.0000   1.0000
     1.0000   1.0000   1.0000   1.0000   1.0000   1.0000   1.0000   1.0000
     1.0000   1.0000   1.0000   1.0000   1.0000   1.0000   1.0000   1.0000
     1.0000   1.0000   1.0000   1.0000   1.0000   1.0000   1.0000   1.0000
     1.0000   1.0000   1.0000   1.0000   1.0000   1.0000   1.0000   1.0000
     1.0000   1.0000   1.0000   1.0000   1.0000   1.0000   1.0000   1.0000

          k = 0.0000 0.0000-0.1331 (107690 PWs)   bands (ev):

   -17.8822 -17.8822 -17.8820 -17.8820 -17.8742 -17.8742 -17.8739 -17.8739
   -17.8710 -17.8710 -17.8704 -17.8704 -17.8593 -17.8593 -17.8579 -17.8579
   -17.8518 -17.8518 -17.8504 -17.8504 -17.7871 -17.7871 -17.7861 -17.7861
    -8.7904  -8.7904  -8.5644  -8.5644  -8.4408  -8.4408  -8.4092  -8.4092
    -8.2720  -8.2720  -8.2110  -8.2110  -4.6214  -4.6214  -4.6047  -4.6047
    -4.5835  -4.5835  -4.5530  -4.5530  -4.5447  -4.5447  -4.5401  -4.5401
    -2.8799  -2.8799  -2.7793  -2.7793   0.2137   0.2137   0.8432   0.8432
     0.8974   0.8974   1.1434   1.1434   1.2842   1.2842   1.3065   1.3065
     1.5227   1.5227   1.5819   1.5819   1.7964   1.7964   1.8204   1.8204
     1.8294   1.8294   1.9853   1.9853   2.1204   2.1204   2.2174   2.2174
     2.2261   2.2261   2.3547   2.3547   2.4584   2.4584   2.7652   2.7652

     occupation numbers 
     1.0000   1.0000   1.0000   1.0000   1.0000   1.0000   1.0000   1.0000
     1.0000   1.0000   1.0000   1.0000   1.0000   1.0000   1.0000   1.0000
     1.0000   1.0000   1.0000   1.0000   1.0000   1.0000   1.0000   1.0000
     1.0000   1.0000   1.0000   1.0000   1.0000   1.0000   1.0000   1.0000
     1.0000   1.0000   1.0000   1.0000   1.0000   1.0000   1.0000   1.0000
     1.0000   1.0000   1.0000   1.0000   1.0000   1.0000   1.0000   1.0000
     1.0000   1.0000   1.0000   1.0000   1.0000   1.0000   1.0000   1.0000
     1.0000   1.0000   1.0000   1.0000   1.0000   1.0000   1.0000   1.0000
     1.0000   1.0000   1.0000   1.0000   1.0000   1.0000   1.0000   1.0000
     1.0000   1.0000   1.0000   1.0000   1.0000   1.0000   1.0000   1.0000
     1.0000   1.0000   1.0000   1.0000   1.0000   1.0000   1.0000   1.0000

          k = 0.0000-0.2244 0.0000 (107584 PWs)   bands (ev):

   -17.8822 -17.8822 -17.8820 -17.8820 -17.8742 -17.8742 -17.8739 -17.8739
   -17.8711 -17.8711 -17.8704 -17.8704 -17.8593 -17.8593 -17.8579 -17.8579
   -17.8518 -17.8518 -17.8504 -17.8504 -17.7867 -17.7867 -17.7865 -17.7865
    -8.7674  -8.7674  -8.6077  -8.6077  -8.4868  -8.4868  -8.3443  -8.3443
    -8.2543  -8.2543  -8.2246  -8.2246  -4.6232  -4.6232  -4.6026  -4.6026
    -4.5763  -4.5763  -4.5588  -4.5588  -4.5497  -4.5497  -4.5481  -4.5481
    -2.8973  -2.8973  -2.7510  -2.7510   0.2533   0.2533   0.8176   0.8176
     0.9505   0.9505   1.1867   1.1867   1.2012   1.2012   1.3155   1.3155
     1.4151   1.4151   1.5577   1.5577   1.7453   1.7453   1.7826   1.7826
     1.9695   1.9695   2.0112   2.0112   2.0701   2.0701   2.2348   2.2348
     2.2626   2.2626   2.3120   2.3120   2.3959   2.3959   2.9390   2.9390

     occupation numbers 
     1.0000   1.0000   1.0000   1.0000   1.0000   1.0000   1.0000   1.0000
     1.0000   1.0000   1.0000   1.0000   1.0000   1.0000   1.0000   1.0000
     1.0000   1.0000   1.0000   1.0000   1.0000   1.0000   1.0000   1.0000
     1.0000   1.0000   1.0000   1.0000   1.0000   1.0000   1.0000   1.0000
     1.0000   1.0000   1.0000   1.0000   1.0000   1.0000   1.0000   1.0000
     1.0000   1.0000   1.0000   1.0000   1.0000   1.0000   1.0000   1.0000
     1.0000   1.0000   1.0000   1.0000   1.0000   1.0000   1.0000   1.0000
     1.0000   1.0000   1.0000   1.0000   1.0000   1.0000   1.0000   1.0000
     1.0000   1.0000   1.0000   1.0000   1.0000   1.0000   1.0000   1.0000
     1.0000   1.0000   1.0000   1.0000   1.0000   1.0000   1.0000   1.0000
     1.0000   1.0000   1.0000   1.0000   1.0000   1.0000   1.0000   1.0000

          k = 0.0000-0.2244-0.1331 (107472 PWs)   bands (ev):

   -17.8822 -17.8822 -17.8820 -17.8820 -17.8742 -17.8742 -17.8739 -17.8739
   -17.8711 -17.8711 -17.8704 -17.8704 -17.8593 -17.8593 -17.8579 -17.8579
   -17.8518 -17.8518 -17.8504 -17.8504 -17.7867 -17.7867 -17.7865 -17.7865
    -8.7675  -8.7675  -8.6079  -8.6079  -8.4847  -8.4847  -8.3500  -8.3500
    -8.2393  -8.2393  -8.2357  -8.2357  -4.6201  -4.6201  -4.6096  -4.6096
    -4.5716  -4.5716  -4.5595  -4.5595  -4.5497  -4.5497  -4.5481  -4.5481
    -2.8960  -2.8960  -2.7525  -2.7525   0.2589   0.2589   0.8075   0.8075
     0.9504   0.9504   1.2012   1.2012   1.2119   1.2119   1.3148   1.3148
     1.3582   1.3582   1.5674   1.5674   1.7467   1.7467   1.8248   1.8248
     1.9652   1.9652   1.9973   1.9973   2.0837   2.0837   2.2206   2.2206
     2.2869   2.2869   2.2907   2.2907   2.4100   2.4100   2.9223   2.9223

     occupation numbers 
     1.0000   1.0000   1.0000   1.0000   1.0000   1.0000   1.0000   1.0000
     1.0000   1.0000   1.0000   1.0000   1.0000   1.0000   1.0000   1.0000
     1.0000   1.0000   1.0000   1.0000   1.0000   1.0000   1.0000   1.0000
     1.0000   1.0000   1.0000   1.0000   1.0000   1.0000   1.0000   1.0000
     1.0000   1.0000   1.0000   1.0000   1.0000   1.0000   1.0000   1.0000
     1.0000   1.0000   1.0000   1.0000   1.0000   1.0000   1.0000   1.0000
     1.0000   1.0000   1.0000   1.0000   1.0000   1.0000   1.0000   1.0000
     1.0000   1.0000   1.0000   1.0000   1.0000   1.0000   1.0000   1.0000
     1.0000   1.0000   1.0000   1.0000   1.0000   1.0000   1.0000   1.0000
     1.0000   1.0000   1.0000   1.0000   1.0000   1.0000   1.0000   1.0000
     1.0000   1.0000   1.0000   1.0000   1.0000   1.0000   1.0000   1.0000

          k =-0.5000 0.0000 0.0000 (107498 PWs)   bands (ev):

   -17.8814 -17.8814 -17.8814 -17.8814 -17.8774 -17.8774 -17.8774 -17.8774
   -17.8706 -17.8706 -17.8706 -17.8706 -17.8552 -17.8552 -17.8552 -17.8552
   -17.8517 -17.8517 -17.8517 -17.8517 -17.7756 -17.7756 -17.7750 -17.7750
    -8.4827  -8.4827  -8.4804  -8.4804  -8.3073  -8.3073  -8.2978  -8.2978
    -8.2863  -8.2863  -8.2666  -8.2666  -4.7916  -4.7916  -4.7239  -4.7239
    -4.6085  -4.6085  -4.5993  -4.5993  -4.5851  -4.5851  -4.5564  -4.5564
    -3.2035  -3.2035  -3.1667  -3.1667   0.0780   0.0780   0.0794   0.0794
     0.5665   0.5665   0.6245   0.6245   0.8922   0.8922   0.9118   0.9118
     1.2449   1.2449   1.6363   1.6363   1.6778   1.6778   1.7844   1.7844
     1.7953   1.7953   1.8560   1.8560   1.9079   1.9079   1.9334   1.9334
     2.0641   2.0641   2.1018   2.1018   2.5337   2.5337   2.9136   2.9136

     occupation numbers 
     1.0000   1.0000   1.0000   1.0000   1.0000   1.0000   1.0000   1.0000
     1.0000   1.0000   1.0000   1.0000   1.0000   1.0000   1.0000   1.0000
     1.0000   1.0000   1.0000   1.0000   1.0000   1.0000   1.0000   1.0000
     1.0000   1.0000   1.0000   1.0000   1.0000   1.0000   1.0000   1.0000
     1.0000   1.0000   1.0000   1.0000   1.0000   1.0000   1.0000   1.0000
     1.0000   1.0000   1.0000   1.0000   1.0000   1.0000   1.0000   1.0000
     1.0000   1.0000   1.0000   1.0000   1.0000   1.0000   1.0000   1.0000
     1.0000   1.0000   1.0000   1.0000   1.0000   1.0000   1.0000   1.0000
     1.0000   1.0000   1.0000   1.0000   1.0000   1.0000   1.0000   1.0000
     1.0000   1.0000   1.0000   1.0000   1.0000   1.0000   1.0000   1.0000
     1.0000   1.0000   1.0000   1.0000   1.0000   1.0000   1.0000   1.0000

          k =-0.5000 0.0000-0.1331 (107420 PWs)   bands (ev):

   -17.8814 -17.8814 -17.8814 -17.8814 -17.8774 -17.8774 -17.8774 -17.8774
   -17.8706 -17.8706 -17.8706 -17.8706 -17.8552 -17.8552 -17.8552 -17.8552
   -17.8517 -17.8517 -17.8517 -17.8517 -17.7756 -17.7756 -17.7750 -17.7750
    -8.4833  -8.4833  -8.4798  -8.4798  -8.3066  -8.3066  -8.2988  -8.2988
    -8.2860  -8.2860  -8.2667  -8.2667  -4.7915  -4.7915  -4.7240  -4.7240
    -4.6087  -4.6087  -4.5993  -4.5993  -4.5848  -4.5848  -4.5566  -4.5566
    -3.1970  -3.1970  -3.1734  -3.1734   0.0651   0.0651   0.0977   0.0977
     0.5845   0.5845   0.6321   0.6321   0.8404   0.8404   0.8788   0.8788
     1.3334   1.3334   1.6051   1.6051   1.6884   1.6884   1.8003   1.8003
     1.8028   1.8028   1.8288   1.8288   1.8368   1.8368   1.9637   1.9637
     2.0583   2.0583   2.1323   2.1323   2.5931   2.5931   2.8549   2.8549

     occupation numbers 
     1.0000   1.0000   1.0000   1.0000   1.0000   1.0000   1.0000   1.0000
     1.0000   1.0000   1.0000   1.0000   1.0000   1.0000   1.0000   1.0000
     1.0000   1.0000   1.0000   1.0000   1.0000   1.0000   1.0000   1.0000
     1.0000   1.0000   1.0000   1.0000   1.0000   1.0000   1.0000   1.0000
     1.0000   1.0000   1.0000   1.0000   1.0000   1.0000   1.0000   1.0000
     1.0000   1.0000   1.0000   1.0000   1.0000   1.0000   1.0000   1.0000
     1.0000   1.0000   1.0000   1.0000   1.0000   1.0000   1.0000   1.0000
     1.0000   1.0000   1.0000   1.0000   1.0000   1.0000   1.0000   1.0000
     1.0000   1.0000   1.0000   1.0000   1.0000   1.0000   1.0000   1.0000
     1.0000   1.0000   1.0000   1.0000   1.0000   1.0000   1.0000   1.0000
     1.0000   1.0000   1.0000   1.0000   1.0000   1.0000   1.0000   1.0000

          k =-0.5000-0.2244 0.0000 (107412 PWs)   bands (ev):

   -17.8814 -17.8814 -17.8814 -17.8814 -17.8774 -17.8774 -17.8774 -17.8774
   -17.8706 -17.8706 -17.8706 -17.8706 -17.8552 -17.8552 -17.8552 -17.8552
   -17.8517 -17.8517 -17.8517 -17.8517 -17.7753 -17.7753 -17.7753 -17.7753
    -8.4816  -8.4816  -8.4816  -8.4816  -8.3036  -8.3036  -8.3036  -8.3036
    -8.2755  -8.2755  -8.2755  -8.2755  -4.7579  -4.7579  -4.7579  -4.7579
    -4.6018  -4.6018  -4.6018  -4.6018  -4.5727  -4.5727  -4.5727  -4.5727
    -3.1858  -3.1858  -3.1858  -3.1858   0.2238   0.2238   0.2238   0.2238
     0.4390   0.4390   0.4390   0.4390   0.8442   0.8442   0.8442   0.8442
     1.4586   1.4586   1.4586   1.4586   1.6401   1.6401   1.6401   1.6401
     1.8000   1.8000   1.8000   1.8000   1.9266   1.9266   1.9266   1.9266
     2.1546   2.1546   2.1546   2.1546   2.8759   2.8759   2.8759   2.8759

     occupation numbers 
     1.0000   1.0000   1.0000   1.0000   1.0000   1.0000   1.0000   1.0000
     1.0000   1.0000   1.0000   1.0000   1.0000   1.0000   1.0000   1.0000
     1.0000   1.0000   1.0000   1.0000   1.0000   1.0000   1.0000   1.0000
     1.0000   1.0000   1.0000   1.0000   1.0000   1.0000   1.0000   1.0000
     1.0000   1.0000   1.0000   1.0000   1.0000   1.0000   1.0000   1.0000
     1.0000   1.0000   1.0000   1.0000   1.0000   1.0000   1.0000   1.0000
     1.0000   1.0000   1.0000   1.0000   1.0000   1.0000   1.0000   1.0000
     1.0000   1.0000   1.0000   1.0000   1.0000   1.0000   1.0000   1.0000
     1.0000   1.0000   1.0000   1.0000   1.0000   1.0000   1.0000   1.0000
     1.0000   1.0000   1.0000   1.0000   1.0000   1.0000   1.0000   1.0000
     1.0000   1.0000   1.0000   1.0000   1.0000   1.0000   1.0000   1.0000

          k =-0.5000-0.2244-0.1331 (107464 PWs)   bands (ev):

   -17.8814 -17.8814 -17.8814 -17.8814 -17.8774 -17.8774 -17.8774 -17.8774
   -17.8706 -17.8706 -17.8706 -17.8706 -17.8552 -17.8552 -17.8552 -17.8552
   -17.8517 -17.8517 -17.8517 -17.8517 -17.7753 -17.7753 -17.7753 -17.7753
    -8.4816  -8.4816  -8.4816  -8.4816  -8.3035  -8.3035  -8.3035  -8.3035
    -8.2755  -8.2755  -8.2755  -8.2755  -4.7579  -4.7579  -4.7579  -4.7579
    -4.6018  -4.6018  -4.6018  -4.6018  -4.5728  -4.5728  -4.5728  -4.5728
    -3.1858  -3.1858  -3.1858  -3.1858   0.2174   0.2174   0.2174   0.2174
     0.4422   0.4422   0.4422   0.4422   0.8698   0.8698   0.8698   0.8698
     1.3738   1.3738   1.3738   1.3738   1.7116   1.7116   1.7116   1.7116
     1.8023   1.8023   1.8023   1.8023   1.9472   1.9472   1.9472   1.9472
     2.1157   2.1157   2.1157   2.1157   2.8849   2.8849   2.8849   2.8849

     occupation numbers 
     1.0000   1.0000   1.0000   1.0000   1.0000   1.0000   1.0000   1.0000
     1.0000   1.0000   1.0000   1.0000   1.0000   1.0000   1.0000   1.0000
     1.0000   1.0000   1.0000   1.0000   1.0000   1.0000   1.0000   1.0000
     1.0000   1.0000   1.0000   1.0000   1.0000   1.0000   1.0000   1.0000
     1.0000   1.0000   1.0000   1.0000   1.0000   1.0000   1.0000   1.0000
     1.0000   1.0000   1.0000   1.0000   1.0000   1.0000   1.0000   1.0000
     1.0000   1.0000   1.0000   1.0000   1.0000   1.0000   1.0000   1.0000
     1.0000   1.0000   1.0000   1.0000   1.0000   1.0000   1.0000   1.0000
     1.0000   1.0000   1.0000   1.0000   1.0000   1.0000   1.0000   1.0000
     1.0000   1.0000   1.0000   1.0000   1.0000   1.0000   1.0000   1.0000
     1.0000   1.0000   1.0000   1.0000   1.0000   1.0000   1.0000   1.0000

     highest occupied level (ev):     2.9390

!    total energy              =   -7979.66032043 Ry

     total all-electron energy =   -282510.815033 Ry
     estimated scf accuracy    <       0.00000032 Ry

     The total energy is the sum of the following terms:
     one-electron contribution =    -463.67364559 Ry
     hartree contribution      =     316.62517823 Ry
     xc contribution           =    -465.90629548 Ry
     ewald contribution        =    -633.56960439 Ry
     one-center paw contrib.   =   -6733.13595321 Ry
      -> PAW hartree energy AE =      25.62794674 Ry
      -> PAW hartree energy PS =     -25.51838467 Ry
      -> PAW xc energy AE      =    -383.52939657 Ry
      -> PAW xc energy PS      =      20.51410633 Ry
      -> total E_H with PAW    =     316.73474030 Ry
      -> total E_XC with PAW   =    -828.92158573 Ry

     convergence has been achieved in  10 iterations

     Forces acting on atoms (cartesian axes, Ry/au):

     atom    1 type  1   force =     0.00000000   -0.00060857    0.00063400
     atom    2 type  1   force =     0.00000000    0.00060857   -0.00063400
     atom    3 type  1   force =     0.00000000   -0.00060857   -0.00063400
     atom    4 type  1   force =     0.00000000    0.00060857    0.00063400
     atom    5 type  2   force =     0.00000000   -0.00067028   -0.00023795
     atom    6 type  2   force =     0.00000000    0.00067028    0.00023795
     atom    7 type  2   force =     0.00000000   -0.00067028    0.00023795
     atom    8 type  2   force =     0.00000000    0.00067028   -0.00023795
     atom    9 type  3   force =     0.00000000   -0.00349702   -0.00189077
     atom   10 type  3   force =     0.00000000    0.00349702    0.00189077
     atom   11 type  3   force =    -0.00000000   -0.00349702    0.00189077
     atom   12 type  3   force =     0.00000000    0.00349702   -0.00189077
     atom   13 type  3   force =     0.00000000   -0.00062715    0.00041003
     atom   14 type  3   force =     0.00000000    0.00062715   -0.00041003
     atom   15 type  3   force =     0.00000000   -0.00062715   -0.00041003
     atom   16 type  3   force =     0.00000000    0.00062715    0.00041003
     atom   17 type  3   force =     0.00000000    0.00329941   -0.00178100
     atom   18 type  3   force =     0.00000000   -0.00329941    0.00178100
     atom   19 type  3   force =     0.00000000    0.00329941    0.00178100
     atom   20 type  3   force =     0.00000000   -0.00329941   -0.00178100
     The non-local contrib.  to forces
     atom    1 type  1   force =     0.00000000    0.00207674   -0.00125420
     atom    2 type  1   force =     0.00000000   -0.00207674    0.00125420
     atom    3 type  1   force =     0.00000000    0.00207674    0.00125420
     atom    4 type  1   force =     0.00000000   -0.00207674   -0.00125420
     atom    5 type  2   force =     0.00000000   -0.08833032   -0.13110836
     atom    6 type  2   force =     0.00000000    0.08833032    0.13110836
     atom    7 type  2   force =     0.00000000   -0.08833032    0.13110836
     atom    8 type  2   force =     0.00000000    0.08833032   -0.13110836
     atom    9 type  3   force =    -0.00000000   -0.04815221   -0.04710173
     atom   10 type  3   force =    -0.00000000    0.04815221    0.04710173
     atom   11 type  3   force =     0.00000000   -0.04815221    0.04710173
     atom   12 type  3   force =     0.00000000    0.04815221   -0.04710173
     atom   13 type  3   force =     0.00000000   -0.03307229    0.05617367
     atom   14 type  3   force =     0.00000000    0.03307229   -0.05617367
     atom   15 type  3   force =     0.00000000   -0.03307229   -0.05617367
     atom   16 type  3   force =     0.00000000    0.03307229    0.05617367
     atom   17 type  3   force =     0.00000000    0.05608687   -0.01696520
     atom   18 type  3   force =     0.00000000   -0.05608687    0.01696520
     atom   19 type  3   force =    -0.00000000    0.05608687    0.01696520
     atom   20 type  3   force =    -0.00000000   -0.05608687   -0.01696520
     The ionic contribution  to forces
     atom    1 type  1   force =    -0.00000000    0.02273773    0.42856976
     atom    2 type  1   force =    -0.00000000   -0.02273773   -0.42856976
     atom    3 type  1   force =    -0.00000000    0.02273773   -0.42856976
     atom    4 type  1   force =     0.00000000   -0.02273773    0.42856976
     atom    5 type  2   force =    -0.00000000   -2.44382135   -1.60292983
     atom    6 type  2   force =     0.00000000    2.44382135    1.60292983
     atom    7 type  2   force =    -0.00000000   -2.44382135    1.60292983
     atom    8 type  2   force =     0.00000000    2.44382135   -1.60292983
     atom    9 type  3   force =    -0.00000000    3.00608891    5.13288893
     atom   10 type  3   force =     0.00000000   -3.00608891   -5.13288893
     atom   11 type  3   force =    -0.00000000    3.00608891   -5.13288893
     atom   12 type  3   force =    -0.00000000   -3.00608891    5.13288893
     atom   13 type  3   force =     0.00000000    2.02422849   -3.75281499
     atom   14 type  3   force =    -0.00000000   -2.02422849    3.75281499
     atom   15 type  3   force =    -0.00000000    2.02422849    3.75281499
     atom   16 type  3   force =    -0.00000000   -2.02422849   -3.75281499
     atom   17 type  3   force =    -0.00000000   -4.20564473    2.10270404
     atom   18 type  3   force =     0.00000000    4.20564473   -2.10270404
     atom   19 type  3   force =    -0.00000000   -4.20564473   -2.10270404
     atom   20 type  3   force =     0.00000000    4.20564473    2.10270404
     The local contribution  to forces
     atom    1 type  1   force =     0.00000000   -0.02533377   -0.42682680
     atom    2 type  1   force =    -0.00000000    0.02533377    0.42682680
     atom    3 type  1   force =    -0.00000000   -0.02533377    0.42682680
     atom    4 type  1   force =     0.00000000    0.02533377   -0.42682680
     atom    5 type  2   force =    -0.00000000    2.53154505    1.73405753
     atom    6 type  2   force =    -0.00000000   -2.53154505   -1.73405753
     atom    7 type  2   force =    -0.00000000    2.53154505   -1.73405753
     atom    8 type  2   force =    -0.00000000   -2.53154505    1.73405753
     atom    9 type  3   force =    -0.00000000   -2.96799946   -5.09448060
     atom   10 type  3   force =     0.00000000    2.96799946    5.09448060
     atom   11 type  3   force =    -0.00000000   -2.96799946    5.09448060
     atom   12 type  3   force =     0.00000000    2.96799946   -5.09448060
     atom   13 type  3   force =     0.00000000   -1.99623000    3.70478928
     atom   14 type  3   force =    -0.00000000    1.99623000   -3.70478928
     atom   15 type  3   force =     0.00000000   -1.99623000   -3.70478928
     atom   16 type  3   force =    -0.00000000    1.99623000    3.70478928
     atom   17 type  3   force =     0.00000000    4.16072236   -2.09018356
     atom   18 type  3   force =    -0.00000000   -4.16072236    2.09018356
     atom   19 type  3   force =     0.00000000    4.16072236    2.09018356
     atom   20 type  3   force =    -0.00000000   -4.16072236   -2.09018356
     The core correction contribution to forces
     atom    1 type  1   force =    -0.00000000   -0.00015120    0.00004918
     atom    2 type  1   force =     0.00000000    0.00015120   -0.00004918
     atom    3 type  1   force =    -0.00000000   -0.00015120   -0.00004918
     atom    4 type  1   force =     0.00000000    0.00015120    0.00004918
     atom    5 type  2   force =    -0.00000000    0.00019204    0.00004374
     atom    6 type  2   force =    -0.00000000   -0.00019204   -0.00004374
     atom    7 type  2   force =    -0.00000000    0.00019204   -0.00004374
     atom    8 type  2   force =    -0.00000000   -0.00019204    0.00004374
     atom    9 type  3   force =     0.00000000    0.00641062    0.00649725
     atom   10 type  3   force =    -0.00000000   -0.00641062   -0.00649725
     atom   11 type  3   force =     0.00000000    0.00641062   -0.00649725
     atom   12 type  3   force =    -0.00000000   -0.00641062    0.00649725
     atom   13 type  3   force =    -0.00000000    0.00436684   -0.00749247
     atom   14 type  3   force =     0.00000000   -0.00436684    0.00749247
     atom   15 type  3   force =    -0.00000000    0.00436684    0.00749247
     atom   16 type  3   force =     0.00000000   -0.00436684   -0.00749247
     atom   17 type  3   force =     0.00000000   -0.00770396    0.00253250
     atom   18 type  3   force =    -0.00000000    0.00770396   -0.00253250
     atom   19 type  3   force =     0.00000000   -0.00770396   -0.00253250
     atom   20 type  3   force =    -0.00000000    0.00770396    0.00253250
     The Hubbard contrib.    to forces
     atom    1 type  1   force =     0.00000000    0.00000000    0.00000000
     atom    2 type  1   force =     0.00000000    0.00000000    0.00000000
     atom    3 type  1   force =     0.00000000    0.00000000    0.00000000
     atom    4 type  1   force =     0.00000000    0.00000000    0.00000000
     atom    5 type  2   force =     0.00000000    0.00000000    0.00000000
     atom    6 type  2   force =     0.00000000    0.00000000    0.00000000
     atom    7 type  2   force =     0.00000000    0.00000000    0.00000000
     atom    8 type  2   force =     0.00000000    0.00000000    0.00000000
     atom    9 type  3   force =     0.00000000    0.00000000    0.00000000
     atom   10 type  3   force =     0.00000000    0.00000000    0.00000000
     atom   11 type  3   force =     0.00000000    0.00000000    0.00000000
     atom   12 type  3   force =     0.00000000    0.00000000    0.00000000
     atom   13 type  3   force =     0.00000000    0.00000000    0.00000000
     atom   14 type  3   force =     0.00000000    0.00000000    0.00000000
     atom   15 type  3   force =     0.00000000    0.00000000    0.00000000
     atom   16 type  3   force =     0.00000000    0.00000000    0.00000000
     atom   17 type  3   force =     0.00000000    0.00000000    0.00000000
     atom   18 type  3   force =     0.00000000    0.00000000    0.00000000
     atom   19 type  3   force =     0.00000000    0.00000000    0.00000000
     atom   20 type  3   force =     0.00000000    0.00000000    0.00000000
     The SCF correction term to forces
     atom    1 type  1   force =    -0.00000000    0.00006194    0.00009606
     atom    2 type  1   force =    -0.00000000   -0.00006194   -0.00009606
     atom    3 type  1   force =     0.00000000    0.00006194   -0.00009606
     atom    4 type  1   force =    -0.00000000   -0.00006194    0.00009606
     atom    5 type  2   force =     0.00000000   -0.00025571   -0.00030102
     atom    6 type  2   force =    -0.00000000    0.00025571    0.00030102
     atom    7 type  2   force =     0.00000000   -0.00025571    0.00030102
     atom    8 type  2   force =     0.00000000    0.00025571   -0.00030102
     atom    9 type  3   force =    -0.00000000    0.00015512    0.00030538
     atom   10 type  3   force =    -0.00000000   -0.00015512   -0.00030538
     atom   11 type  3   force =     0.00000000    0.00015512   -0.00030538
     atom   12 type  3   force =    -0.00000000   -0.00015512    0.00030538
     atom   13 type  3   force =    -0.00000000    0.00007982   -0.00024545
     atom   14 type  3   force =    -0.00000000   -0.00007982    0.00024545
     atom   15 type  3   force =     0.00000000    0.00007982    0.00024545
     atom   16 type  3   force =    -0.00000000   -0.00007982   -0.00024545
     atom   17 type  3   force =    -0.00000000   -0.00016113    0.00013122
     atom   18 type  3   force =     0.00000000    0.00016113   -0.00013122
     atom   19 type  3   force =     0.00000000   -0.00016113   -0.00013122
     atom   20 type  3   force =    -0.00000000    0.00016113    0.00013122

     Total force =     0.011261     Total SCF correction =     0.001259
     SCF correction compared to forces is large: reduce conv_thr to get better values


     Computing stress (Cartesian axis) and pressure

          total   stress  (Ry/bohr**3)                   (kbar)     P=       -0.27
   0.00002482   0.00000000   0.00000000            3.65        0.00        0.00
   0.00000000  -0.00001976   0.00000000            0.00       -2.91        0.00
   0.00000000   0.00000000  -0.00001062            0.00        0.00       -1.56

     kinetic stress (kbar)   5529.48      0.00      0.00
                                0.00   5530.34      0.00
                                0.00      0.00   5526.26

     local   stress (kbar)  -4523.74      0.00     -0.00
                                0.00  -1881.73      0.00
                               -0.00      0.00   -989.84

     nonloc. stress (kbar)   1143.51      0.00      0.00
                                0.00   1139.07      0.00
                                0.00      0.00   1142.26

     hartree stress (kbar)   3405.08     -0.00      0.00
                               -0.00   2187.71      0.00
                                0.00      0.00   1718.55

     exc-cor stress (kbar)   5446.64      0.00     -0.00
                                0.00   5446.23      0.00
                               -0.00      0.00   5446.69

     corecor stress (kbar)  -7212.52      0.00     -0.00
                                0.00  -7212.37     -0.00
                               -0.00     -0.00  -7212.39

     ewald   stress (kbar)  -3784.80     -0.00     -0.00
                               -0.00  -5212.16      0.00
                               -0.00      0.00  -5633.09

     hubbard stress (kbar)      0.00      0.00      0.00
                                0.00      0.00      0.00
                                0.00      0.00      0.00

     DFT-D   stress (kbar)      0.00      0.00      0.00
                                0.00      0.00      0.00
                                0.00      0.00      0.00

     XDM     stress (kbar)      0.00      0.00      0.00
                                0.00      0.00      0.00
                                0.00      0.00      0.00

     dft-nl  stress (kbar)      0.00      0.00      0.00
                                0.00      0.00      0.00
                                0.00      0.00      0.00

     TS-vdW  stress (kbar)      0.00      0.00      0.00
                                0.00      0.00      0.00
                                0.00      0.00      0.00



     Writing output data file ./CsSnI3.save/
 
     init_run     :     11.64s CPU     12.23s WALL (       1 calls)
     electrons    :    236.53s CPU    245.84s WALL (       1 calls)
     forces       :      5.95s CPU      6.26s WALL (       1 calls)
     stress       :     39.09s CPU     40.16s WALL (       1 calls)

     Called by init_run:
     wfcinit      :      5.75s CPU      5.86s WALL (       1 calls)
     wfcinit:atom :      0.07s CPU      0.07s WALL (       8 calls)
     wfcinit:wfcr :      5.40s CPU      5.50s WALL (       8 calls)
     potinit      :      1.22s CPU      1.24s WALL (       1 calls)
     hinit0       :      1.56s CPU      1.66s WALL (       1 calls)

     Called by electrons:
     c_bands      :    171.32s CPU    173.23s WALL (      11 calls)
     sum_band     :     45.38s CPU     49.87s WALL (      11 calls)
     v_of_rho     :      1.88s CPU      1.90s WALL (      11 calls)
     v_h          :      0.17s CPU      0.18s WALL (      11 calls)
     v_xc         :      2.02s CPU      2.04s WALL (      13 calls)
     newd         :     14.05s CPU     17.09s WALL (      11 calls)
     PAW_pot      :      4.92s CPU      4.94s WALL (      11 calls)
     mix_rho      :      0.49s CPU      0.50s WALL (      11 calls)

     Called by c_bands:
     init_us_2    :      3.72s CPU      3.74s WALL (     200 calls)
     cegterg      :    158.20s CPU    160.06s WALL (      88 calls)

     Called by sum_band:
     sum_band:wei :      0.00s CPU      0.00s WALL (      11 calls)
     sum_band:loo :     26.11s CPU     26.52s WALL (      11 calls)
     sum_band:buf :      0.39s CPU      0.40s WALL (      88 calls)
     sum_band:ini :      1.64s CPU      1.65s WALL (      88 calls)
     sum_band:cal :      3.86s CPU      3.97s WALL (      88 calls)
     sum_band:bec :      0.12s CPU      0.12s WALL (      88 calls)
     addusdens    :     17.88s CPU     21.94s WALL (      11 calls)
     addusd:skk   :      0.07s CPU      0.08s WALL (      33 calls)
     addusd:dgemm :      6.20s CPU     10.17s WALL (      33 calls)
     addusd:qvan2 :     11.13s CPU     11.15s WALL (      33 calls)

     Called by *egterg:
     cdiaghg      :      5.98s CPU      6.07s WALL (     469 calls)
     cegterg:over :      7.53s CPU      7.55s WALL (     389 calls)
     cegterg:upda :      4.29s CPU      4.31s WALL (     389 calls)
     cegterg:last :      7.74s CPU      7.76s WALL (     208 calls)
     h_psi        :    120.78s CPU    122.52s WALL (     485 calls)
     s_psi        :     12.24s CPU     12.27s WALL (     485 calls)
     g_psi        :      0.29s CPU      0.29s WALL (     389 calls)

     Called by h_psi:
     h_psi:calbec :     13.25s CPU     13.67s WALL (     485 calls)
     vloc_psi     :     94.02s CPU     95.27s WALL (     485 calls)
     add_vuspsi   :     12.48s CPU     12.53s WALL (     485 calls)

     General routines
     calbec       :     19.65s CPU     20.20s WALL (     613 calls)
     fft          :      2.27s CPU      2.37s WALL (     167 calls)
     ffts         :      0.11s CPU      0.11s WALL (      22 calls)
     fftw         :     97.97s CPU     99.31s WALL (   53838 calls)
     interpolate  :      0.22s CPU      0.22s WALL (      11 calls)
 
     Parallel routines
     fft_scatt_xy :      8.78s CPU      8.87s WALL (   54027 calls)
     fft_scatt_yz :     53.31s CPU     54.15s WALL (   54027 calls)

     PAW routines
     PAW_pot      :      4.92s CPU      4.94s WALL (      11 calls)
     PAW_symme    :      0.09s CPU      0.09s WALL (      22 calls)
 
     PWSCF        :   5m 1.39s CPU   5m14.78s WALL

 
   This run was terminated on:  12:56:34  14Jan2021            

=------------------------------------------------------------------------------=
   JOB DONE.
=------------------------------------------------------------------------------=
