
     Program PWSCF v.6.4.1 starts on 24Jan2021 at 17:44:56 

     This program is part of the open-source Quantum ESPRESSO suite
     for quantum simulation of materials; please cite
         "P. Giannozzi et al., J. Phys.:Condens. Matter 21 395502 (2009);
         "P. Giannozzi et al., J. Phys.:Condens. Matter 29 465901 (2017);
          URL http://www.quantum-espresso.org", 
     in publications or presentations arising from this work. More details at
     http://www.quantum-espresso.org/quote

     Parallel version (MPI & OpenMP), running on      48 processor cores
     Number of MPI processes:                24
     Threads/MPI process:                     2

     MPI processes distributed on     1 nodes
     R & G space division:  proc/nbgrp/npool/nimage =      24
     Waiting for input...
     Reading input from standard input

     Current dimensions of program PWSCF are:
     Max number of different atomic species (ntypx) = 10
     Max number of k-points (npk) =  40000
     Max angular momentum in pseudopotentials (lmaxx) =  3
               file Sn.rel-pbesol-dn-kjpaw_psl.1.0.0.UPF: wavefunction(s)  5S 5P 5P 4D 4D renormalized
               file I.rel-pbesol-n-kjpaw_psl.1.0.0.UPF: wavefunction(s)  5S renormalized

     Subspace diagonalization in iterative solution of the eigenvalue problem:
     one sub-group per band group will be used
     scalapack distributed-memory algorithm (size of sub-group:  3*  3 procs)

 
     Parallelization info
     --------------------
     sticks:   dense  smooth     PW     G-vecs:    dense   smooth      PW
     Min         372     248     66                26472    14418    1978
     Max         373     249     68                26475    14423    1980
     Sum        8945    5957   1597               635371   346083   47497
 

     Title: 
     CsIsalt                                                                    


     bravais-lattice index     =            1
     lattice parameter (alat)  =      14.4199  a.u.
     unit-cell volume          =    2998.4083 (a.u.)^3
     number of atoms/cell      =            6
     number of atomic types    =            2
     number of electrons       =        56.00
     number of Kohn-Sham states=           56
     kinetic-energy cutoff     =      90.0000  Ry
     charge density cutoff     =     540.0000  Ry
     convergence threshold     =      1.0E-06
     mixing beta               =       0.3500
     number of iterations used =            8  plain     mixing
     Exchange-correlation      = SLA PW PSX PSC ( 1  4 10  8 0 0)
     Non magnetic calculation with spin-orbit


     celldm(1)=  14.419945  celldm(2)=   0.000000  celldm(3)=   0.000000
     celldm(4)=   0.000000  celldm(5)=   0.000000  celldm(6)=   0.000000

     crystal axes: (cart. coord. in units of alat)
               a(1) = (   1.000000   0.000000   0.000000 )  
               a(2) = (   0.000000   1.000000   0.000000 )  
               a(3) = (   0.000000   0.000000   1.000000 )  

     reciprocal axes: (cart. coord. in units 2 pi/alat)
               b(1) = (  1.000000  0.000000  0.000000 )  
               b(2) = (  0.000000  1.000000  0.000000 )  
               b(3) = (  0.000000  0.000000  1.000000 )  


     PseudoPot. # 1 for Sn read from file:
     /marconi_scratch/userexternal/cmalosso/degironcoli/pseudo/Sn.rel-pbesol-dn-kjpaw_psl.1.0.0.UPF
     MD5 check sum: e69eff64f15ae39ad43ef58bacbfdf88
     Pseudo is Projector augmented-wave + core cor, Zval = 14.0
     Generated using "atomic" code by A. Dal Corso v.6.3
     Shape of augmentation charge: PSQ
     Using radial grid of 1243 points, 10 beta functions with: 
                l(1) =   0
                l(2) =   0
                l(3) =   1
                l(4) =   1
                l(5) =   1
                l(6) =   1
                l(7) =   2
                l(8) =   2
                l(9) =   2
               l(10) =   2
     Q(r) pseudized with 0 coefficients 


     PseudoPot. # 2 for I  read from file:
     /marconi_scratch/userexternal/cmalosso/degironcoli/pseudo/I.rel-pbesol-n-kjpaw_psl.1.0.0.UPF
     MD5 check sum: 4478c427bd443f303eca1937a163b991
     Pseudo is Projector augmented-wave + core cor, Zval =  7.0
     Generated using "atomic" code by A. Dal Corso v.6.3
     Shape of augmentation charge: PSQ
     Using radial grid of 1247 points, 10 beta functions with: 
                l(1) =   0
                l(2) =   0
                l(3) =   1
                l(4) =   1
                l(5) =   1
                l(6) =   1
                l(7) =   2
                l(8) =   2
                l(9) =   2
               l(10) =   2
     Q(r) pseudized with 0 coefficients 


     atomic species   valence    mass     pseudopotential
        Sn            14.00   118.70000     Sn( 1.00)
        I              7.00   126.90000     I ( 1.00)

     16 Sym. Ops., with inversion, found ( 8 have fractional translation)


                                    s                        frac. trans.

      isym =  1     identity                                     

 cryst.   s( 1) = (     1          0          0      )
                  (     0          1          0      )
                  (     0          0          1      )

 cart.    s( 1) = (  1.0000000  0.0000000  0.0000000 )
                  (  0.0000000  1.0000000  0.0000000 )
                  (  0.0000000  0.0000000  1.0000000 )


      isym =  2     180 deg rotation - cart. axis [0,0,1]        

 cryst.   s( 2) = (    -1          0          0      )
                  (     0         -1          0      )
                  (     0          0          1      )

 cart.    s( 2) = ( -1.0000000  0.0000000  0.0000000 )
                  (  0.0000000 -1.0000000  0.0000000 )
                  (  0.0000000  0.0000000  1.0000000 )


      isym =  3     180 deg rotation - cart. axis [0,1,0]        

 cryst.   s( 3) = (    -1          0          0      )    f =(  0.5000000 )
                  (     0          1          0      )       ( -0.5000000 )
                  (     0          0         -1      )       (  0.5000000 )

 cart.    s( 3) = ( -1.0000000  0.0000000  0.0000000 )    f =(  0.5000000 )
                  (  0.0000000  1.0000000  0.0000000 )       ( -0.5000000 )
                  (  0.0000000  0.0000000 -1.0000000 )       (  0.5000000 )


      isym =  4     180 deg rotation - cart. axis [1,0,0]        

 cryst.   s( 4) = (     1          0          0      )    f =( -0.5000000 )
                  (     0         -1          0      )       (  0.5000000 )
                  (     0          0         -1      )       (  0.5000000 )

 cart.    s( 4) = (  1.0000000  0.0000000  0.0000000 )    f =( -0.5000000 )
                  (  0.0000000 -1.0000000  0.0000000 )       (  0.5000000 )
                  (  0.0000000  0.0000000 -1.0000000 )       (  0.5000000 )


      isym =  5     180 deg rotation - cart. axis [1,1,0]        

 cryst.   s( 5) = (     0          1          0      )
                  (     1          0          0      )
                  (     0          0         -1      )

 cart.    s( 5) = (  0.0000000  1.0000000  0.0000000 )
                  (  1.0000000  0.0000000  0.0000000 )
                  (  0.0000000  0.0000000 -1.0000000 )


      isym =  6     180 deg rotation - cart. axis [1,-1,0]       

 cryst.   s( 6) = (     0         -1          0      )
                  (    -1          0          0      )
                  (     0          0         -1      )

 cart.    s( 6) = (  0.0000000 -1.0000000  0.0000000 )
                  ( -1.0000000  0.0000000  0.0000000 )
                  (  0.0000000  0.0000000 -1.0000000 )


      isym =  7      90 deg rotation - cart. axis [0,0,-1]       

 cryst.   s( 7) = (     0         -1          0      )    f =( -0.5000000 )
                  (     1          0          0      )       (  0.5000000 )
                  (     0          0          1      )       ( -0.5000000 )

 cart.    s( 7) = (  0.0000000  1.0000000  0.0000000 )    f =( -0.5000000 )
                  ( -1.0000000  0.0000000  0.0000000 )       (  0.5000000 )
                  (  0.0000000  0.0000000  1.0000000 )       ( -0.5000000 )


      isym =  8      90 deg rotation - cart. axis [0,0,1]        

 cryst.   s( 8) = (     0          1          0      )    f =(  0.5000000 )
                  (    -1          0          0      )       ( -0.5000000 )
                  (     0          0          1      )       ( -0.5000000 )

 cart.    s( 8) = (  0.0000000 -1.0000000  0.0000000 )    f =(  0.5000000 )
                  (  1.0000000  0.0000000  0.0000000 )       ( -0.5000000 )
                  (  0.0000000  0.0000000  1.0000000 )       ( -0.5000000 )


      isym =  9     inversion                                    

 cryst.   s( 9) = (    -1          0          0      )
                  (     0         -1          0      )
                  (     0          0         -1      )

 cart.    s( 9) = ( -1.0000000  0.0000000  0.0000000 )
                  (  0.0000000 -1.0000000  0.0000000 )
                  (  0.0000000  0.0000000 -1.0000000 )


      isym = 10     inv. 180 deg rotation - cart. axis [0,0,1]   

 cryst.   s(10) = (     1          0          0      )
                  (     0          1          0      )
                  (     0          0         -1      )

 cart.    s(10) = (  1.0000000  0.0000000  0.0000000 )
                  (  0.0000000  1.0000000  0.0000000 )
                  (  0.0000000  0.0000000 -1.0000000 )


      isym = 11     inv. 180 deg rotation - cart. axis [0,1,0]   

 cryst.   s(11) = (     1          0          0      )    f =( -0.5000000 )
                  (     0         -1          0      )       (  0.5000000 )
                  (     0          0          1      )       ( -0.5000000 )

 cart.    s(11) = (  1.0000000  0.0000000  0.0000000 )    f =( -0.5000000 )
                  (  0.0000000 -1.0000000  0.0000000 )       (  0.5000000 )
                  (  0.0000000  0.0000000  1.0000000 )       ( -0.5000000 )


      isym = 12     inv. 180 deg rotation - cart. axis [1,0,0]   

 cryst.   s(12) = (    -1          0          0      )    f =(  0.5000000 )
                  (     0          1          0      )       ( -0.5000000 )
                  (     0          0          1      )       ( -0.5000000 )

 cart.    s(12) = ( -1.0000000  0.0000000  0.0000000 )    f =(  0.5000000 )
                  (  0.0000000  1.0000000  0.0000000 )       ( -0.5000000 )
                  (  0.0000000  0.0000000  1.0000000 )       ( -0.5000000 )


      isym = 13     inv. 180 deg rotation - cart. axis [1,1,0]   

 cryst.   s(13) = (     0         -1          0      )
                  (    -1          0          0      )
                  (     0          0          1      )

 cart.    s(13) = (  0.0000000 -1.0000000  0.0000000 )
                  ( -1.0000000  0.0000000  0.0000000 )
                  (  0.0000000  0.0000000  1.0000000 )


      isym = 14     inv. 180 deg rotation - cart. axis [1,-1,0]  

 cryst.   s(14) = (     0          1          0      )
                  (     1          0          0      )
                  (     0          0          1      )

 cart.    s(14) = (  0.0000000  1.0000000  0.0000000 )
                  (  1.0000000  0.0000000  0.0000000 )
                  (  0.0000000  0.0000000  1.0000000 )


      isym = 15     inv.  90 deg rotation - cart. axis [0,0,-1]  

 cryst.   s(15) = (     0          1          0      )    f =(  0.5000000 )
                  (    -1          0          0      )       ( -0.5000000 )
                  (     0          0         -1      )       (  0.5000000 )

 cart.    s(15) = (  0.0000000 -1.0000000  0.0000000 )    f =(  0.5000000 )
                  (  1.0000000  0.0000000  0.0000000 )       ( -0.5000000 )
                  (  0.0000000  0.0000000 -1.0000000 )       (  0.5000000 )


      isym = 16     inv.  90 deg rotation - cart. axis [0,0,1]   

 cryst.   s(16) = (     0         -1          0      )    f =( -0.5000000 )
                  (     1          0          0      )       (  0.5000000 )
                  (     0          0         -1      )       (  0.5000000 )

 cart.    s(16) = (  0.0000000  1.0000000  0.0000000 )    f =( -0.5000000 )
                  ( -1.0000000  0.0000000  0.0000000 )       (  0.5000000 )
                  (  0.0000000  0.0000000 -1.0000000 )       (  0.5000000 )


     double point group D_4h(4/mmm)
     there are 14 classes and  4 irreducible representations
     the character table:

       E     -E    2C4   -2C4   C2    2C2' 2C2'' i     -i    2S4   -2S4   s_h 
                               -C2   -2C2' -2C2'                         -s_h 
G_6+   2.00 -2.00  1.41 -1.41  0.00  0.00  0.00  2.00 -2.00  1.41 -1.41  0.00
G_7+   2.00 -2.00 -1.41  1.41  0.00  0.00  0.00  2.00 -2.00 -1.41  1.41  0.00
G_6-   2.00 -2.00  1.41 -1.41  0.00  0.00  0.00 -2.00  2.00 -1.41  1.41  0.00
G_7-   2.00 -2.00 -1.41  1.41  0.00  0.00  0.00 -2.00  2.00  1.41 -1.41  0.00

        2s_v  2s_d
       -2s_v -2s_d
G_6+   0.00  0.00
G_7+   0.00  0.00
G_6-   0.00  0.00
G_7-   0.00  0.00

     the symmetry operations in each class and the name of the first element:

     E             1
          identity                                               
     -E           -1
          identity E                                             
     2C4           7    8
           90 deg rotation - cart. axis [0,0,-1]                 
     -2C4         -7   -8
           90 deg rotation - cart. axis [0,0,-1] E               
      C2  -C2      2   -2
          180 deg rotation - cart. axis [0,0,1]                  
      2C2'-2C2'    3   -3    4   -4
          180 deg rotation - cart. axis [0,1,0]                  
     2C2''-2C2'    5   -5   -6    6
          180 deg rotation - cart. axis [1,1,0]                  
     i             9
          inversion                                              
     -i           -9
          inversion E                                            
     2S4          15   16
          inv.  90 deg rotation - cart. axis [0,0,-1]            
     -2S4        -15  -16
          inv.  90 deg rotation - cart. axis [0,0,-1] E          
      s_h -s_h    10  -10
          inv. 180 deg rotation - cart. axis [0,0,1]             
      2s_v-2s_v   11  -11   12  -12
          inv. 180 deg rotation - cart. axis [0,1,0]             
      2s_d-2s_d   13  -13  -14   14
          inv. 180 deg rotation - cart. axis [1,1,0]             

   Cartesian axes

     site n.     atom                  positions (alat units)
         1           Sn  tau(   1) = (   0.0000000   0.0000000   0.0000000  )
         2           Sn  tau(   2) = (   0.5000000   0.5000000   0.5000000  )
         3           I   tau(   3) = (   0.2985210   0.2985210   0.0000000  )
         4           I   tau(   4) = (   0.7014790   0.7014790   0.0000000  )
         5           I   tau(   5) = (   0.7985210   0.2014790   0.5000000  )
         6           I   tau(   6) = (   0.2014790   0.7985210   0.5000000  )

   Crystallographic axes

     site n.     atom                  positions (cryst. coord.)
         1           Sn  tau(   1) = (  0.0000000  0.0000000  0.0000000  )
         2           Sn  tau(   2) = (  0.5000000  0.5000000  0.5000000  )
         3           I   tau(   3) = (  0.2985210  0.2985210  0.0000000  )
         4           I   tau(   4) = (  0.7014790  0.7014790  0.0000000  )
         5           I   tau(   5) = (  0.7985210  0.2014790  0.5000000  )
         6           I   tau(   6) = (  0.2014790  0.7985210  0.5000000  )

     number of k points=    18
                       cart. coord. in units 2pi/alat
        k(    1) = (   0.0833333   0.0833333   0.0833333), wk =   0.0370370
        k(    2) = (   0.0833333   0.0833333   0.2500000), wk =   0.0370370
        k(    3) = (   0.0833333   0.0833333   0.4166667), wk =   0.0370370
        k(    4) = (   0.0833333   0.2500000   0.2500000), wk =   0.0740741
        k(    5) = (   0.0833333   0.2500000   0.4166667), wk =   0.0740741
        k(    6) = (   0.0833333   0.4166667   0.4166667), wk =   0.0740741
        k(    7) = (   0.2500000   0.2500000   0.2500000), wk =   0.0370370
        k(    8) = (   0.2500000   0.2500000   0.4166667), wk =   0.0370370
        k(    9) = (   0.2500000   0.4166667   0.4166667), wk =   0.0740741
        k(   10) = (   0.4166667   0.4166667   0.4166667), wk =   0.0370370
        k(   11) = (   0.0833333   0.2500000   0.0833333), wk =   0.0740741
        k(   12) = (   0.0833333   0.4166667   0.0833333), wk =   0.0740741
        k(   13) = (   0.2500000   0.2500000   0.0833333), wk =   0.0370370
        k(   14) = (   0.2500000   0.4166667   0.0833333), wk =   0.0740741
        k(   15) = (   0.4166667   0.0833333   0.2500000), wk =   0.0740741
        k(   16) = (   0.4166667   0.4166667   0.0833333), wk =   0.0370370
        k(   17) = (   0.2500000   0.4166667   0.2500000), wk =   0.0740741
        k(   18) = (   0.4166667   0.4166667   0.2500000), wk =   0.0370370

                       cryst. coord.
        k(    1) = (   0.0833333   0.0833333   0.0833333), wk =   0.0370370
        k(    2) = (   0.0833333   0.0833333   0.2500000), wk =   0.0370370
        k(    3) = (   0.0833333   0.0833333   0.4166667), wk =   0.0370370
        k(    4) = (   0.0833333   0.2500000   0.2500000), wk =   0.0740741
        k(    5) = (   0.0833333   0.2500000   0.4166667), wk =   0.0740741
        k(    6) = (   0.0833333   0.4166667   0.4166667), wk =   0.0740741
        k(    7) = (   0.2500000   0.2500000   0.2500000), wk =   0.0370370
        k(    8) = (   0.2500000   0.2500000   0.4166667), wk =   0.0370370
        k(    9) = (   0.2500000   0.4166667   0.4166667), wk =   0.0740741
        k(   10) = (   0.4166667   0.4166667   0.4166667), wk =   0.0370370
        k(   11) = (   0.0833333   0.2500000   0.0833333), wk =   0.0740741
        k(   12) = (   0.0833333   0.4166667   0.0833333), wk =   0.0740741
        k(   13) = (   0.2500000   0.2500000   0.0833333), wk =   0.0370370
        k(   14) = (   0.2500000   0.4166667   0.0833333), wk =   0.0740741
        k(   15) = (   0.4166667   0.0833333   0.2500000), wk =   0.0740741
        k(   16) = (   0.4166667   0.4166667   0.0833333), wk =   0.0370370
        k(   17) = (   0.2500000   0.4166667   0.2500000), wk =   0.0740741
        k(   18) = (   0.4166667   0.4166667   0.2500000), wk =   0.0370370

     Dense  grid:   635371 G-vectors     FFT dimensions: ( 108, 108, 108)

     Smooth grid:   346083 G-vectors     FFT dimensions: (  90,  90,  90)

     Dynamical RAM for                 wfc:       3.08 MB

     Dynamical RAM for     wfc (w. buffer):      58.48 MB

     Dynamical RAM for           str. fact:       0.81 MB

     Dynamical RAM for           local pot:       0.00 MB

     Dynamical RAM for          nlocal pot:       5.61 MB

     Dynamical RAM for                qrad:      22.39 MB

     Dynamical RAM for          rho,v,vnew:      10.19 MB

     Dynamical RAM for               rhoin:       3.40 MB

     Dynamical RAM for            rho*nmix:      25.85 MB

     Dynamical RAM for           G-vectors:       1.62 MB

     Dynamical RAM for          h,s,v(r/c):       0.25 MB

     Dynamical RAM for          <psi|beta>:       0.35 MB

     Dynamical RAM for                 psi:      12.31 MB

     Dynamical RAM for                hpsi:      12.31 MB

     Dynamical RAM for                spsi:      12.31 MB

     Dynamical RAM for      wfcinit/wfcrot:       5.71 MB

     Dynamical RAM for           addusdens:     248.04 MB

     Dynamical RAM for          addusforce:     253.17 MB

     Dynamical RAM for         addusstress:     253.70 MB

     Estimated static dynamical RAM per process >     133.12 MB

     Estimated max dynamical RAM per process >     386.82 MB

     Estimated total dynamical RAM >       9.07 GB

     Initial potential from superposition of free atoms

     starting charge   55.99771, renormalised to   56.00000
     Starting wfcs are   68 randomized atomic wfcs
     Checking if some PAW data can be deallocated... 
       PAW data deallocated on   16 nodes for type:  1
       PAW data deallocated on    8 nodes for type:  2

     total cpu time spent up to now is       30.2 secs

     Self-consistent Calculation

     iteration #  1     ecut=    90.00 Ry     beta= 0.35
     Davidson diagonalization with overlap
     ethr =  1.00E-02,  avg # of iterations =  1.0

     total cpu time spent up to now is       89.2 secs

     total energy              =   -2370.83378979 Ry
     Harris-Foulkes estimate   =   -2371.11852938 Ry
     estimated scf accuracy    <       0.58867260 Ry

     iteration #  2     ecut=    90.00 Ry     beta= 0.35
     Davidson diagonalization with overlap
     ethr =  1.05E-03,  avg # of iterations =  3.0

     total cpu time spent up to now is      163.2 secs

     total energy              =   -2370.93704818 Ry
     Harris-Foulkes estimate   =   -2370.94797147 Ry
     estimated scf accuracy    <       0.04048435 Ry

     iteration #  3     ecut=    90.00 Ry     beta= 0.35
     Davidson diagonalization with overlap
     ethr =  7.23E-05,  avg # of iterations =  3.4

     total cpu time spent up to now is      239.3 secs

     total energy              =   -2370.94079363 Ry
     Harris-Foulkes estimate   =   -2370.94308480 Ry
     estimated scf accuracy    <       0.00907841 Ry

     iteration #  4     ecut=    90.00 Ry     beta= 0.35
     Davidson diagonalization with overlap
     ethr =  1.62E-05,  avg # of iterations =  3.0

     total cpu time spent up to now is      314.1 secs

     total energy              =   -2370.94199627 Ry
     Harris-Foulkes estimate   =   -2370.94194425 Ry
     estimated scf accuracy    <       0.00058047 Ry

     iteration #  5     ecut=    90.00 Ry     beta= 0.35
     Davidson diagonalization with overlap
     ethr =  1.04E-06,  avg # of iterations =  5.0

     total cpu time spent up to now is      406.5 secs

     total energy              =   -2370.94216585 Ry
     Harris-Foulkes estimate   =   -2370.94221288 Ry
     estimated scf accuracy    <       0.00010333 Ry

     iteration #  6     ecut=    90.00 Ry     beta= 0.35
     Davidson diagonalization with overlap
     ethr =  1.85E-07,  avg # of iterations =  3.2

     total cpu time spent up to now is      483.3 secs

     total energy              =   -2370.94219337 Ry
     Harris-Foulkes estimate   =   -2370.94218622 Ry
     estimated scf accuracy    <       0.00001024 Ry

     iteration #  7     ecut=    90.00 Ry     beta= 0.35
     Davidson diagonalization with overlap
     ethr =  1.83E-08,  avg # of iterations =  2.2

     total cpu time spent up to now is      553.3 secs

     End of self-consistent calculation

          k = 0.0833 0.0833 0.0833 ( 43246 PWs)   bands (ev):

   -23.2756 -23.2756 -23.2756 -23.2756 -23.1430 -23.1430 -23.1430 -23.1430
   -22.2559 -22.2559 -22.2559 -22.2559 -22.1405 -22.1405 -22.1405 -22.1405
   -22.0868 -22.0868 -22.0867 -22.0867 -11.6250 -11.6250 -11.5345 -11.5345
   -11.4848 -11.4848 -11.4805 -11.4805  -7.0759  -7.0759  -6.8766  -6.8766
    -2.6891  -2.6891  -2.5274  -2.5274  -2.1413  -2.1413  -2.0302  -2.0302
    -1.8827  -1.8827  -1.5310  -1.5310  -1.2276  -1.2276  -1.1344  -1.1344
    -1.1096  -1.1096  -0.9972  -0.9972  -0.9255  -0.9255  -0.8850  -0.8850

     occupation numbers 
     1.0000   1.0000   1.0000   1.0000   1.0000   1.0000   1.0000   1.0000
     1.0000   1.0000   1.0000   1.0000   1.0000   1.0000   1.0000   1.0000
     1.0000   1.0000   1.0000   1.0000   1.0000   1.0000   1.0000   1.0000
     1.0000   1.0000   1.0000   1.0000   1.0000   1.0000   1.0000   1.0000
     1.0000   1.0000   1.0000   1.0000   1.0000   1.0000   1.0000   1.0000
     1.0000   1.0000   1.0000   1.0000   1.0000   1.0000   1.0000   1.0000
     1.0000   1.0000   1.0000   1.0000   1.0000   1.0000   1.0000   1.0000

          k = 0.0833 0.0833 0.2500 ( 43224 PWs)   bands (ev):

   -23.2756 -23.2756 -23.2756 -23.2756 -23.1430 -23.1430 -23.1430 -23.1430
   -22.2559 -22.2559 -22.2559 -22.2559 -22.1405 -22.1405 -22.1405 -22.1405
   -22.0868 -22.0868 -22.0867 -22.0867 -11.6126 -11.6126 -11.5462 -11.5462
   -11.4848 -11.4848 -11.4803 -11.4803  -7.0559  -7.0559  -6.9103  -6.9103
    -2.6763  -2.6763  -2.5247  -2.5247  -2.1299  -2.1299  -2.0086  -2.0086
    -1.8572  -1.8572  -1.5555  -1.5555  -1.2254  -1.2254  -1.1756  -1.1756
    -1.1330  -1.1330  -1.0251  -1.0251  -0.9358  -0.9358  -0.8984  -0.8984

     occupation numbers 
     1.0000   1.0000   1.0000   1.0000   1.0000   1.0000   1.0000   1.0000
     1.0000   1.0000   1.0000   1.0000   1.0000   1.0000   1.0000   1.0000
     1.0000   1.0000   1.0000   1.0000   1.0000   1.0000   1.0000   1.0000
     1.0000   1.0000   1.0000   1.0000   1.0000   1.0000   1.0000   1.0000
     1.0000   1.0000   1.0000   1.0000   1.0000   1.0000   1.0000   1.0000
     1.0000   1.0000   1.0000   1.0000   1.0000   1.0000   1.0000   1.0000
     1.0000   1.0000   1.0000   1.0000   1.0000   1.0000   1.0000   1.0000

          k = 0.0833 0.0833 0.4167 ( 43230 PWs)   bands (ev):

   -23.2756 -23.2756 -23.2756 -23.2756 -23.1430 -23.1430 -23.1430 -23.1430
   -22.2559 -22.2559 -22.2559 -22.2559 -22.1405 -22.1405 -22.1405 -22.1405
   -22.0868 -22.0868 -22.0867 -22.0867 -11.5915 -11.5915 -11.5668 -11.5668
   -11.4847 -11.4847 -11.4802 -11.4802  -7.0166  -7.0166  -6.9632  -6.9632
    -2.6641  -2.6641  -2.5207  -2.5207  -2.1287  -2.1287  -1.9912  -1.9912
    -1.7908  -1.7908  -1.6123  -1.6123  -1.2242  -1.2242  -1.2044  -1.2044
    -1.1366  -1.1366  -1.0599  -1.0599  -0.9628  -0.9628  -0.9125  -0.9125

     occupation numbers 
     1.0000   1.0000   1.0000   1.0000   1.0000   1.0000   1.0000   1.0000
     1.0000   1.0000   1.0000   1.0000   1.0000   1.0000   1.0000   1.0000
     1.0000   1.0000   1.0000   1.0000   1.0000   1.0000   1.0000   1.0000
     1.0000   1.0000   1.0000   1.0000   1.0000   1.0000   1.0000   1.0000
     1.0000   1.0000   1.0000   1.0000   1.0000   1.0000   1.0000   1.0000
     1.0000   1.0000   1.0000   1.0000   1.0000   1.0000   1.0000   1.0000
     1.0000   1.0000   1.0000   1.0000   1.0000   1.0000   1.0000   1.0000

          k = 0.0833 0.2500 0.2500 ( 43216 PWs)   bands (ev):

   -23.2756 -23.2756 -23.2756 -23.2756 -23.1430 -23.1430 -23.1430 -23.1430
   -22.2559 -22.2559 -22.2559 -22.2559 -22.1405 -22.1405 -22.1405 -22.1405
   -22.0868 -22.0868 -22.0867 -22.0867 -11.5977 -11.5977 -11.5414 -11.5414
   -11.4993 -11.4993 -11.4864 -11.4864  -7.0328  -7.0328  -6.9255  -6.9255
    -2.8236  -2.8236  -2.6495  -2.6495  -2.0999  -2.0999  -1.9425  -1.9425
    -1.8152  -1.8152  -1.5774  -1.5774  -1.2509  -1.2509  -1.1833  -1.1833
    -1.0537  -1.0537  -0.9651  -0.9651  -0.9003  -0.9003  -0.7164  -0.7164

     occupation numbers 
     1.0000   1.0000   1.0000   1.0000   1.0000   1.0000   1.0000   1.0000
     1.0000   1.0000   1.0000   1.0000   1.0000   1.0000   1.0000   1.0000
     1.0000   1.0000   1.0000   1.0000   1.0000   1.0000   1.0000   1.0000
     1.0000   1.0000   1.0000   1.0000   1.0000   1.0000   1.0000   1.0000
     1.0000   1.0000   1.0000   1.0000   1.0000   1.0000   1.0000   1.0000
     1.0000   1.0000   1.0000   1.0000   1.0000   1.0000   1.0000   1.0000
     1.0000   1.0000   1.0000   1.0000   1.0000   1.0000   1.0000   1.0000

          k = 0.0833 0.2500 0.4167 ( 43226 PWs)   bands (ev):

   -23.2756 -23.2756 -23.2756 -23.2756 -23.1430 -23.1430 -23.1430 -23.1430
   -22.2559 -22.2559 -22.2559 -22.2559 -22.1405 -22.1405 -22.1405 -22.1405
   -22.0868 -22.0868 -22.0867 -22.0867 -11.5802 -11.5802 -11.5571 -11.5571
   -11.4991 -11.4991 -11.4873 -11.4873  -7.0060  -7.0060  -6.9654  -6.9654
    -2.8361  -2.8361  -2.6535  -2.6535  -2.0660  -2.0660  -1.8880  -1.8880
    -1.8357  -1.8357  -1.5854  -1.5854  -1.2579  -1.2579  -1.1790  -1.1790
    -1.0691  -1.0691  -0.9811  -0.9811  -0.8936  -0.8936  -0.7157  -0.7157

     occupation numbers 
     1.0000   1.0000   1.0000   1.0000   1.0000   1.0000   1.0000   1.0000
     1.0000   1.0000   1.0000   1.0000   1.0000   1.0000   1.0000   1.0000
     1.0000   1.0000   1.0000   1.0000   1.0000   1.0000   1.0000   1.0000
     1.0000   1.0000   1.0000   1.0000   1.0000   1.0000   1.0000   1.0000
     1.0000   1.0000   1.0000   1.0000   1.0000   1.0000   1.0000   1.0000
     1.0000   1.0000   1.0000   1.0000   1.0000   1.0000   1.0000   1.0000
     1.0000   1.0000   1.0000   1.0000   1.0000   1.0000   1.0000   1.0000

          k = 0.0833 0.4167 0.4167 ( 43250 PWs)   bands (ev):

   -23.2756 -23.2756 -23.2756 -23.2756 -23.1430 -23.1430 -23.1430 -23.1430
   -22.2559 -22.2559 -22.2559 -22.2559 -22.1405 -22.1405 -22.1405 -22.1405
   -22.0868 -22.0868 -22.0867 -22.0867 -11.5614 -11.5614 -11.5482 -11.5482
   -11.5123 -11.5123 -11.5026 -11.5026  -6.9897  -6.9897  -6.9733  -6.9733
    -2.9033  -2.9033  -2.8265  -2.8265  -2.0208  -2.0208  -1.9109  -1.9109
    -1.7869  -1.7869  -1.5874  -1.5874  -1.2453  -1.2453  -1.1987  -1.1987
    -0.9697  -0.9697  -0.9364  -0.9364  -0.7195  -0.7195  -0.5766  -0.5766

     occupation numbers 
     1.0000   1.0000   1.0000   1.0000   1.0000   1.0000   1.0000   1.0000
     1.0000   1.0000   1.0000   1.0000   1.0000   1.0000   1.0000   1.0000
     1.0000   1.0000   1.0000   1.0000   1.0000   1.0000   1.0000   1.0000
     1.0000   1.0000   1.0000   1.0000   1.0000   1.0000   1.0000   1.0000
     1.0000   1.0000   1.0000   1.0000   1.0000   1.0000   1.0000   1.0000
     1.0000   1.0000   1.0000   1.0000   1.0000   1.0000   1.0000   1.0000
     1.0000   1.0000   1.0000   1.0000   1.0000   1.0000   1.0000   1.0000

          k = 0.2500 0.2500 0.2500 ( 43180 PWs)   bands (ev):

   -23.2756 -23.2756 -23.2756 -23.2756 -23.1430 -23.1430 -23.1430 -23.1430
   -22.2559 -22.2559 -22.2559 -22.2559 -22.1405 -22.1405 -22.1405 -22.1405
   -22.0868 -22.0868 -22.0867 -22.0867 -11.5892 -11.5892 -11.5414 -11.5414
   -11.5084 -11.5084 -11.4853 -11.4853  -7.0228  -7.0228  -6.9423  -6.9423
    -2.8818  -2.8818  -2.5367  -2.5367  -2.0972  -2.0972  -1.9281  -1.9281
    -1.8740  -1.8740  -1.6050  -1.6050  -1.2971  -1.2971  -1.2295  -1.2295
    -1.1228  -1.1228  -0.9347  -0.9347  -0.8796  -0.8796  -0.5898  -0.5898

     occupation numbers 
     1.0000   1.0000   1.0000   1.0000   1.0000   1.0000   1.0000   1.0000
     1.0000   1.0000   1.0000   1.0000   1.0000   1.0000   1.0000   1.0000
     1.0000   1.0000   1.0000   1.0000   1.0000   1.0000   1.0000   1.0000
     1.0000   1.0000   1.0000   1.0000   1.0000   1.0000   1.0000   1.0000
     1.0000   1.0000   1.0000   1.0000   1.0000   1.0000   1.0000   1.0000
     1.0000   1.0000   1.0000   1.0000   1.0000   1.0000   1.0000   1.0000
     1.0000   1.0000   1.0000   1.0000   1.0000   1.0000   1.0000   1.0000

          k = 0.2500 0.2500 0.4167 ( 43242 PWs)   bands (ev):

   -23.2756 -23.2756 -23.2756 -23.2756 -23.1430 -23.1430 -23.1430 -23.1430
   -22.2559 -22.2559 -22.2559 -22.2559 -22.1405 -22.1405 -22.1405 -22.1405
   -22.0868 -22.0868 -22.0867 -22.0867 -11.5779 -11.5779 -11.5485 -11.5485
   -11.5115 -11.5115 -11.4851 -11.4851  -7.0069  -7.0069  -6.9714  -6.9714
    -2.8997  -2.8997  -2.5220  -2.5220  -2.1180  -2.1180  -1.8888  -1.8888
    -1.8748  -1.8748  -1.5844  -1.5844  -1.3095  -1.3095  -1.2077  -1.2077
    -1.1223  -1.1223  -0.9290  -0.9290  -0.8694  -0.8694  -0.5793  -0.5793

     occupation numbers 
     1.0000   1.0000   1.0000   1.0000   1.0000   1.0000   1.0000   1.0000
     1.0000   1.0000   1.0000   1.0000   1.0000   1.0000   1.0000   1.0000
     1.0000   1.0000   1.0000   1.0000   1.0000   1.0000   1.0000   1.0000
     1.0000   1.0000   1.0000   1.0000   1.0000   1.0000   1.0000   1.0000
     1.0000   1.0000   1.0000   1.0000   1.0000   1.0000   1.0000   1.0000
     1.0000   1.0000   1.0000   1.0000   1.0000   1.0000   1.0000   1.0000
     1.0000   1.0000   1.0000   1.0000   1.0000   1.0000   1.0000   1.0000

          k = 0.2500 0.4167 0.4167 ( 43246 PWs)   bands (ev):

   -23.2756 -23.2756 -23.2756 -23.2756 -23.1430 -23.1430 -23.1430 -23.1430
   -22.2559 -22.2559 -22.2559 -22.2559 -22.1405 -22.1405 -22.1405 -22.1405
   -22.0868 -22.0868 -22.0867 -22.0867 -11.5684 -11.5684 -11.5541 -11.5541
   -11.5068 -11.5068 -11.4930 -11.4930  -7.0004  -7.0004  -6.9851  -6.9851
    -2.8251  -2.8251  -2.6485  -2.6485  -2.0808  -2.0808  -1.9414  -1.9414
    -1.8241  -1.8241  -1.5904  -1.5904  -1.2939  -1.2939  -1.2372  -1.2372
    -1.0309  -1.0309  -0.8995  -0.8995  -0.8333  -0.8333  -0.7234  -0.7234

     occupation numbers 
     1.0000   1.0000   1.0000   1.0000   1.0000   1.0000   1.0000   1.0000
     1.0000   1.0000   1.0000   1.0000   1.0000   1.0000   1.0000   1.0000
     1.0000   1.0000   1.0000   1.0000   1.0000   1.0000   1.0000   1.0000
     1.0000   1.0000   1.0000   1.0000   1.0000   1.0000   1.0000   1.0000
     1.0000   1.0000   1.0000   1.0000   1.0000   1.0000   1.0000   1.0000
     1.0000   1.0000   1.0000   1.0000   1.0000   1.0000   1.0000   1.0000
     1.0000   1.0000   1.0000   1.0000   1.0000   1.0000   1.0000   1.0000

          k = 0.4167 0.4167 0.4167 ( 43231 PWs)   bands (ev):

   -23.2756 -23.2756 -23.2756 -23.2756 -23.1430 -23.1430 -23.1430 -23.1430
   -22.2559 -22.2559 -22.2559 -22.2559 -22.1405 -22.1405 -22.1405 -22.1405
   -22.0867 -22.0867 -22.0867 -22.0867 -11.5700 -11.5700 -11.5644 -11.5644
   -11.4958 -11.4958 -11.4901 -11.4901  -7.0072  -7.0072  -7.0005  -7.0005
    -2.6459  -2.6459  -2.5236  -2.5236  -2.1166  -2.1166  -1.9831  -1.9831
    -1.8686  -1.8686  -1.6655  -1.6655  -1.3339  -1.3339  -1.2825  -1.2825
    -1.0949  -1.0949  -1.0126  -1.0126  -0.8117  -0.8117  -0.7969  -0.7969

     occupation numbers 
     1.0000   1.0000   1.0000   1.0000   1.0000   1.0000   1.0000   1.0000
     1.0000   1.0000   1.0000   1.0000   1.0000   1.0000   1.0000   1.0000
     1.0000   1.0000   1.0000   1.0000   1.0000   1.0000   1.0000   1.0000
     1.0000   1.0000   1.0000   1.0000   1.0000   1.0000   1.0000   1.0000
     1.0000   1.0000   1.0000   1.0000   1.0000   1.0000   1.0000   1.0000
     1.0000   1.0000   1.0000   1.0000   1.0000   1.0000   1.0000   1.0000
     1.0000   1.0000   1.0000   1.0000   1.0000   1.0000   1.0000   1.0000

          k = 0.0833 0.2500 0.0833 ( 43224 PWs)   bands (ev):

   -23.2756 -23.2756 -23.2756 -23.2756 -23.1430 -23.1430 -23.1430 -23.1430
   -22.2559 -22.2559 -22.2559 -22.2559 -22.1405 -22.1405 -22.1405 -22.1405
   -22.0868 -22.0868 -22.0867 -22.0867 -11.6083 -11.6083 -11.5331 -11.5331
   -11.4988 -11.4988 -11.4856 -11.4856  -7.0459  -7.0459  -6.8994  -6.8994
    -2.8080  -2.8080  -2.6446  -2.6446  -2.1570  -2.1570  -1.9727  -1.9727
    -1.8036  -1.8036  -1.5562  -1.5562  -1.2439  -1.2439  -1.1873  -1.1873
    -1.0400  -1.0400  -0.9574  -0.9574  -0.9029  -0.9029  -0.7163  -0.7163

     occupation numbers 
     1.0000   1.0000   1.0000   1.0000   1.0000   1.0000   1.0000   1.0000
     1.0000   1.0000   1.0000   1.0000   1.0000   1.0000   1.0000   1.0000
     1.0000   1.0000   1.0000   1.0000   1.0000   1.0000   1.0000   1.0000
     1.0000   1.0000   1.0000   1.0000   1.0000   1.0000   1.0000   1.0000
     1.0000   1.0000   1.0000   1.0000   1.0000   1.0000   1.0000   1.0000
     1.0000   1.0000   1.0000   1.0000   1.0000   1.0000   1.0000   1.0000
     1.0000   1.0000   1.0000   1.0000   1.0000   1.0000   1.0000   1.0000

          k = 0.0833 0.4167 0.0833 ( 43230 PWs)   bands (ev):

   -23.2756 -23.2756 -23.2756 -23.2756 -23.1430 -23.1430 -23.1430 -23.1430
   -22.2559 -22.2559 -22.2559 -22.2559 -22.1405 -22.1405 -22.1405 -22.1405
   -22.0868 -22.0868 -22.0867 -22.0867 -11.5794 -11.5794 -11.5480 -11.5480
   -11.5042 -11.5042 -11.4953 -11.4953  -6.9959  -6.9959  -6.9420  -6.9420
    -2.8607  -2.8607  -2.7938  -2.7938  -2.1018  -2.1018  -2.0140  -2.0140
    -1.7070  -1.7070  -1.6071  -1.6071  -1.2700  -1.2700  -1.2456  -1.2456
    -0.9983  -0.9983  -0.9497  -0.9497  -0.7255  -0.7255  -0.5976  -0.5976

     occupation numbers 
     1.0000   1.0000   1.0000   1.0000   1.0000   1.0000   1.0000   1.0000
     1.0000   1.0000   1.0000   1.0000   1.0000   1.0000   1.0000   1.0000
     1.0000   1.0000   1.0000   1.0000   1.0000   1.0000   1.0000   1.0000
     1.0000   1.0000   1.0000   1.0000   1.0000   1.0000   1.0000   1.0000
     1.0000   1.0000   1.0000   1.0000   1.0000   1.0000   1.0000   1.0000
     1.0000   1.0000   1.0000   1.0000   1.0000   1.0000   1.0000   1.0000
     1.0000   1.0000   1.0000   1.0000   1.0000   1.0000   1.0000   1.0000

          k = 0.2500 0.2500 0.0833 ( 43216 PWs)   bands (ev):

   -23.2756 -23.2756 -23.2756 -23.2756 -23.1430 -23.1430 -23.1430 -23.1430
   -22.2559 -22.2559 -22.2559 -22.2559 -22.1405 -22.1405 -22.1405 -22.1405
   -22.0868 -22.0868 -22.0867 -22.0867 -11.5973 -11.5973 -11.5378 -11.5378
   -11.5049 -11.5049 -11.4855 -11.4855  -7.0300  -7.0300  -6.9216  -6.9216
    -2.8603  -2.8603  -2.5529  -2.5529  -2.0865  -2.0865  -1.9814  -1.9814
    -1.8703  -1.8703  -1.5879  -1.5879  -1.2964  -1.2964  -1.2508  -1.2508
    -1.1228  -1.1228  -0.9340  -0.9340  -0.8991  -0.8991  -0.5990  -0.5990

     occupation numbers 
     1.0000   1.0000   1.0000   1.0000   1.0000   1.0000   1.0000   1.0000
     1.0000   1.0000   1.0000   1.0000   1.0000   1.0000   1.0000   1.0000
     1.0000   1.0000   1.0000   1.0000   1.0000   1.0000   1.0000   1.0000
     1.0000   1.0000   1.0000   1.0000   1.0000   1.0000   1.0000   1.0000
     1.0000   1.0000   1.0000   1.0000   1.0000   1.0000   1.0000   1.0000
     1.0000   1.0000   1.0000   1.0000   1.0000   1.0000   1.0000   1.0000
     1.0000   1.0000   1.0000   1.0000   1.0000   1.0000   1.0000   1.0000

          k = 0.2500 0.4167 0.0833 ( 43226 PWs)   bands (ev):

   -23.2756 -23.2756 -23.2756 -23.2756 -23.1430 -23.1430 -23.1430 -23.1430
   -22.2559 -22.2559 -22.2559 -22.2559 -22.1405 -22.1405 -22.1405 -22.1405
   -22.0868 -22.0868 -22.0867 -22.0867 -11.5779 -11.5779 -11.5553 -11.5553
   -11.5004 -11.5004 -11.4914 -11.4914  -6.9992  -6.9992  -6.9590  -6.9590
    -2.7911  -2.7911  -2.6407  -2.6407  -2.0664  -2.0664  -2.0083  -2.0083
    -1.7682  -1.7682  -1.6417  -1.6417  -1.3507  -1.3507  -1.3229  -1.3229
    -1.0350  -1.0350  -0.9335  -0.9335  -0.8591  -0.8591  -0.7094  -0.7094

     occupation numbers 
     1.0000   1.0000   1.0000   1.0000   1.0000   1.0000   1.0000   1.0000
     1.0000   1.0000   1.0000   1.0000   1.0000   1.0000   1.0000   1.0000
     1.0000   1.0000   1.0000   1.0000   1.0000   1.0000   1.0000   1.0000
     1.0000   1.0000   1.0000   1.0000   1.0000   1.0000   1.0000   1.0000
     1.0000   1.0000   1.0000   1.0000   1.0000   1.0000   1.0000   1.0000
     1.0000   1.0000   1.0000   1.0000   1.0000   1.0000   1.0000   1.0000
     1.0000   1.0000   1.0000   1.0000   1.0000   1.0000   1.0000   1.0000

          k = 0.4167 0.0833 0.2500 ( 43226 PWs)   bands (ev):

   -23.2756 -23.2756 -23.2756 -23.2756 -23.1430 -23.1430 -23.1430 -23.1430
   -22.2559 -22.2559 -22.2559 -22.2559 -22.1405 -22.1405 -22.1405 -22.1405
   -22.0868 -22.0868 -22.0867 -22.0867 -11.5721 -11.5721 -11.5466 -11.5466
   -11.5084 -11.5084 -11.4985 -11.4985  -6.9951  -6.9951  -6.9554  -6.9554
    -2.8841  -2.8841  -2.8113  -2.8113  -2.0496  -2.0496  -1.9615  -1.9615
    -1.7569  -1.7569  -1.5943  -1.5943  -1.2607  -1.2607  -1.2262  -1.2262
    -0.9998  -0.9998  -0.9282  -0.9282  -0.7263  -0.7263  -0.5900  -0.5900

     occupation numbers 
     1.0000   1.0000   1.0000   1.0000   1.0000   1.0000   1.0000   1.0000
     1.0000   1.0000   1.0000   1.0000   1.0000   1.0000   1.0000   1.0000
     1.0000   1.0000   1.0000   1.0000   1.0000   1.0000   1.0000   1.0000
     1.0000   1.0000   1.0000   1.0000   1.0000   1.0000   1.0000   1.0000
     1.0000   1.0000   1.0000   1.0000   1.0000   1.0000   1.0000   1.0000
     1.0000   1.0000   1.0000   1.0000   1.0000   1.0000   1.0000   1.0000
     1.0000   1.0000   1.0000   1.0000   1.0000   1.0000   1.0000   1.0000

          k = 0.4167 0.4167 0.0833 ( 43250 PWs)   bands (ev):

   -23.2756 -23.2756 -23.2756 -23.2756 -23.1430 -23.1430 -23.1430 -23.1430
   -22.2559 -22.2559 -22.2559 -22.2559 -22.1405 -22.1405 -22.1405 -22.1405
   -22.0868 -22.0868 -22.0867 -22.0867 -11.5734 -11.5734 -11.5653 -11.5653
   -11.4943 -11.4943 -11.4905 -11.4905  -6.9966  -6.9966  -6.9817  -6.9817
    -2.6361  -2.6361  -2.5426  -2.5426  -2.0240  -2.0240  -1.9618  -1.9618
    -1.8502  -1.8502  -1.7240  -1.7240  -1.4116  -1.4116  -1.4020  -1.4020
    -1.1228  -1.1228  -1.0283  -1.0283  -0.8416  -0.8416  -0.8175  -0.8175

     occupation numbers 
     1.0000   1.0000   1.0000   1.0000   1.0000   1.0000   1.0000   1.0000
     1.0000   1.0000   1.0000   1.0000   1.0000   1.0000   1.0000   1.0000
     1.0000   1.0000   1.0000   1.0000   1.0000   1.0000   1.0000   1.0000
     1.0000   1.0000   1.0000   1.0000   1.0000   1.0000   1.0000   1.0000
     1.0000   1.0000   1.0000   1.0000   1.0000   1.0000   1.0000   1.0000
     1.0000   1.0000   1.0000   1.0000   1.0000   1.0000   1.0000   1.0000
     1.0000   1.0000   1.0000   1.0000   1.0000   1.0000   1.0000   1.0000

          k = 0.2500 0.4167 0.2500 ( 43242 PWs)   bands (ev):

   -23.2756 -23.2756 -23.2756 -23.2756 -23.1430 -23.1430 -23.1430 -23.1430
   -22.2559 -22.2559 -22.2559 -22.2559 -22.1405 -22.1405 -22.1405 -22.1405
   -22.0868 -22.0868 -22.0867 -22.0867 -11.5736 -11.5736 -11.5545 -11.5545
   -11.5034 -11.5034 -11.4922 -11.4922  -7.0011  -7.0011  -6.9708  -6.9708
    -2.8097  -2.8097  -2.6448  -2.6448  -2.0673  -2.0673  -1.9631  -1.9631
    -1.8080  -1.8080  -1.6264  -1.6264  -1.3209  -1.3209  -1.2848  -1.2848
    -1.0288  -1.0288  -0.9172  -0.9172  -0.8471  -0.8471  -0.7150  -0.7150

     occupation numbers 
     1.0000   1.0000   1.0000   1.0000   1.0000   1.0000   1.0000   1.0000
     1.0000   1.0000   1.0000   1.0000   1.0000   1.0000   1.0000   1.0000
     1.0000   1.0000   1.0000   1.0000   1.0000   1.0000   1.0000   1.0000
     1.0000   1.0000   1.0000   1.0000   1.0000   1.0000   1.0000   1.0000
     1.0000   1.0000   1.0000   1.0000   1.0000   1.0000   1.0000   1.0000
     1.0000   1.0000   1.0000   1.0000   1.0000   1.0000   1.0000   1.0000
     1.0000   1.0000   1.0000   1.0000   1.0000   1.0000   1.0000   1.0000

          k = 0.4167 0.4167 0.2500 ( 43246 PWs)   bands (ev):

   -23.2756 -23.2756 -23.2756 -23.2756 -23.1430 -23.1430 -23.1430 -23.1430
   -22.2559 -22.2559 -22.2559 -22.2559 -22.1405 -22.1405 -22.1405 -22.1405
   -22.0867 -22.0867 -22.0867 -22.0867 -11.5718 -11.5718 -11.5648 -11.5648
   -11.4950 -11.4950 -11.4903 -11.4903  -7.0023  -7.0023  -6.9907  -6.9907
    -2.6415  -2.6415  -2.5327  -2.5327  -2.0709  -2.0709  -1.9637  -1.9637
    -1.8650  -1.8650  -1.7018  -1.7018  -1.3739  -1.3739  -1.3541  -1.3541
    -1.0998  -1.0998  -1.0100  -1.0100  -0.8274  -0.8274  -0.8107  -0.8107

     occupation numbers 
     1.0000   1.0000   1.0000   1.0000   1.0000   1.0000   1.0000   1.0000
     1.0000   1.0000   1.0000   1.0000   1.0000   1.0000   1.0000   1.0000
     1.0000   1.0000   1.0000   1.0000   1.0000   1.0000   1.0000   1.0000
     1.0000   1.0000   1.0000   1.0000   1.0000   1.0000   1.0000   1.0000
     1.0000   1.0000   1.0000   1.0000   1.0000   1.0000   1.0000   1.0000
     1.0000   1.0000   1.0000   1.0000   1.0000   1.0000   1.0000   1.0000
     1.0000   1.0000   1.0000   1.0000   1.0000   1.0000   1.0000   1.0000

     highest occupied level (ev):    -0.5766

!    total energy              =   -2370.94219540 Ry
     Harris-Foulkes estimate   =   -2370.94219536 Ry
     estimated scf accuracy    <       0.00000043 Ry

     total all-electron energy =    -81634.464401 Ry

     The total energy is the sum of the following terms:

     one-electron contribution =    -248.68439847 Ry
     hartree contribution      =     145.43443789 Ry
     xc contribution           =    -157.08943542 Ry
     ewald contribution        =    -190.25175950 Ry
     one-center paw contrib.   =   -1920.35103991 Ry
      -> PAW hartree energy AE =     107.23066181 Ry
      -> PAW hartree energy PS =    -106.44599405 Ry
      -> PAW xc energy AE      =    -324.23296036 Ry
      -> PAW xc energy PS      =      46.59319603 Ry
      -> total E_H with PAW    =     146.21910565 Ry
      -> total E_XC with PAW   =    -434.72919975 Ry

     convergence has been achieved in   7 iterations

     Forces acting on atoms (cartesian axes, Ry/au):

     atom    1 type  1   force =     0.00000000    0.00000000    0.00000000
     atom    2 type  1   force =     0.00000000    0.00000000    0.00000000
     atom    3 type  2   force =    -0.01797666   -0.01797666    0.00000000
     atom    4 type  2   force =     0.01797666    0.01797666    0.00000000
     atom    5 type  2   force =    -0.01797666    0.01797666    0.00000000
     atom    6 type  2   force =     0.01797666   -0.01797666    0.00000000
     The non-local contrib.  to forces
     atom    1 type  1   force =     0.00000000    0.00000000    0.00000000
     atom    2 type  1   force =     0.00000000    0.00000000    0.00000000
     atom    3 type  2   force =    -0.04127830   -0.04127830   -0.00000000
     atom    4 type  2   force =     0.04127830    0.04127830   -0.00000000
     atom    5 type  2   force =    -0.04127830    0.04127830   -0.00000000
     atom    6 type  2   force =     0.04127830   -0.04127830   -0.00000000
     The ionic contribution  to forces
     atom    1 type  1   force =    -0.00000000   -0.00000000   -0.00000000
     atom    2 type  1   force =     0.00000000    0.00000000    0.00000000
     atom    3 type  2   force =     1.38633657    1.38633657    0.00000000
     atom    4 type  2   force =    -1.38633657   -1.38633657    0.00000000
     atom    5 type  2   force =     1.38633657   -1.38633657   -0.00000000
     atom    6 type  2   force =    -1.38633657    1.38633657    0.00000000
     The local contribution  to forces
     atom    1 type  1   force =     0.00000000    0.00000000    0.00000000
     atom    2 type  1   force =     0.00000000    0.00000000    0.00000000
     atom    3 type  2   force =    -1.36673962   -1.36673962    0.00000000
     atom    4 type  2   force =     1.36673962    1.36673962    0.00000000
     atom    5 type  2   force =    -1.36673962    1.36673962    0.00000000
     atom    6 type  2   force =     1.36673962   -1.36673962    0.00000000
     The core correction contribution to forces
     atom    1 type  1   force =     0.00000000    0.00000000    0.00000000
     atom    2 type  1   force =     0.00000000    0.00000000    0.00000000
     atom    3 type  2   force =     0.00390761    0.00390761    0.00000000
     atom    4 type  2   force =    -0.00390761   -0.00390761    0.00000000
     atom    5 type  2   force =     0.00390761   -0.00390761   -0.00000000
     atom    6 type  2   force =    -0.00390761    0.00390761   -0.00000000
     The Hubbard contrib.    to forces
     atom    1 type  1   force =     0.00000000    0.00000000    0.00000000
     atom    2 type  1   force =     0.00000000    0.00000000    0.00000000
     atom    3 type  2   force =     0.00000000    0.00000000    0.00000000
     atom    4 type  2   force =     0.00000000    0.00000000    0.00000000
     atom    5 type  2   force =     0.00000000    0.00000000    0.00000000
     atom    6 type  2   force =     0.00000000    0.00000000    0.00000000
     The SCF correction term to forces
     atom    1 type  1   force =     0.00000000   -0.00000000   -0.00000000
     atom    2 type  1   force =    -0.00000000    0.00000000    0.00000000
     atom    3 type  2   force =    -0.00020292   -0.00020292    0.00000000
     atom    4 type  2   force =     0.00020292    0.00020292   -0.00000000
     atom    5 type  2   force =    -0.00020292    0.00020292   -0.00000000
     atom    6 type  2   force =     0.00020292   -0.00020292   -0.00000000

     Total force =     0.050846     Total SCF correction =     0.000574


     Computing stress (Cartesian axis) and pressure

     Message from routine stres:
     noncollinear stress + GGA not implemented

     Writing output data file CsIsalt.save/
 
     init_run     :     16.89s CPU     25.25s WALL (       1 calls)
     electrons    :    366.41s CPU    523.23s WALL (       1 calls)
     forces       :      4.26s CPU      5.74s WALL (       1 calls)

     Called by init_run:
     wfcinit      :     13.90s CPU     20.87s WALL (       1 calls)
     wfcinit:atom :      0.05s CPU      0.06s WALL (      18 calls)
     wfcinit:wfcr :     13.45s CPU     20.24s WALL (      18 calls)
     potinit      :      1.21s CPU      1.99s WALL (       1 calls)
     hinit0       :      0.54s CPU      0.76s WALL (       1 calls)

     Called by electrons:
     c_bands      :    286.43s CPU    398.81s WALL (       7 calls)
     sum_band     :     68.53s CPU    108.41s WALL (       7 calls)
     v_of_rho     :      1.39s CPU      2.21s WALL (       8 calls)
     v_h          :      0.03s CPU      0.04s WALL (       8 calls)
     v_xc         :      1.41s CPU      2.22s WALL (       9 calls)
     newd         :      7.81s CPU     10.33s WALL (       8 calls)
     PAW_pot      :      2.00s CPU      2.71s WALL (       8 calls)
     mix_rho      :      0.90s CPU      1.43s WALL (       7 calls)

     Called by c_bands:
     init_us_2    :      1.10s CPU      1.58s WALL (     288 calls)
     cegterg      :    270.50s CPU    381.20s WALL (     126 calls)

     Called by sum_band:
     sum_band:bec :      2.03s CPU      2.55s WALL (     126 calls)
     addusdens    :      6.24s CPU      7.82s WALL (       7 calls)

     Called by *egterg:
     h_psi        :    201.89s CPU    286.15s WALL (     520 calls)
     s_psi        :      4.37s CPU      4.92s WALL (     520 calls)
     g_psi        :      0.36s CPU      0.37s WALL (     376 calls)
     cdiaghg      :     16.57s CPU     26.22s WALL (     502 calls)
     cegterg:over :     21.57s CPU     28.63s WALL (     376 calls)
     cegterg:upda :     19.72s CPU     27.82s WALL (     376 calls)
     cegterg:last :      4.03s CPU      5.16s WALL (     126 calls)
     cdiaghg:chol :      0.95s CPU      1.41s WALL (     502 calls)
     cdiaghg:inve :      0.58s CPU      0.94s WALL (     502 calls)
     cdiaghg:para :      5.13s CPU      7.78s WALL (    1004 calls)

     Called by h_psi:
     h_psi:pot    :    200.90s CPU    285.03s WALL (     520 calls)
     h_psi:calbec :      5.10s CPU      5.81s WALL (     520 calls)
     vloc_psi     :    191.17s CPU    274.02s WALL (     520 calls)
     add_vuspsi   :      4.63s CPU      5.20s WALL (     520 calls)

     General routines
     calbec       :      8.57s CPU     10.23s WALL (     718 calls)
     fft          :      2.47s CPU      4.17s WALL (     176 calls)
     ffts         :      1.01s CPU      1.91s WALL (      60 calls)
     fftw         :    232.16s CPU    349.93s WALL (   92920 calls)
     interpolate  :      0.80s CPU      1.43s WALL (      32 calls)
 
     Parallel routines
     fft_scatt_xy :      7.74s CPU      9.32s WALL (   93156 calls)
     fft_scatt_yz :    190.61s CPU    296.64s WALL (   93156 calls)

     PAW routines
     PAW_pot      :      2.00s CPU      2.71s WALL (       8 calls)
     PAW_symme    :      0.09s CPU      0.13s WALL (      15 calls)
 
     PWSCF        :   6m35.18s CPU   9m24.24s WALL

 
   This run was terminated on:  17:54:21  24Jan2021            

=------------------------------------------------------------------------------=
   JOB DONE.
=------------------------------------------------------------------------------=
