
     Program PWSCF v.6.7MaX starts on 15Jan2021 at 11:37:40 

     This program is part of the open-source Quantum ESPRESSO suite
     for quantum simulation of materials; please cite
         "P. Giannozzi et al., J. Phys.:Condens. Matter 21 395502 (2009);
         "P. Giannozzi et al., J. Phys.:Condens. Matter 29 465901 (2017);
          URL http://www.quantum-espresso.org", 
     in publications or presentations arising from this work. More details at
     http://www.quantum-espresso.org/quote

     Parallel version (MPI), running on    32 processors

     MPI processes distributed on     1 nodes
     R & G space division:  proc/nbgrp/npool/nimage =      32
     Waiting for input...
     Reading input from standard input

     Current dimensions of program PWSCF are:
     Max number of different atomic species (ntypx) = 10
     Max number of k-points (npk) =  40000
     Max angular momentum in pseudopotentials (lmaxx) =  3
     file Sn.pbe-dn-kjpaw_psl.1.0.0.UPF: wavefunction(s)  5S 5P 4D renormalized
     file I.pbe-n-kjpaw_psl.1.0.0.UPF: wavefunction(s)  5S renormalized
     file Cs.pbe-spn-kjpaw_psl.1.0.0.UPF: wavefunction(s)  5S 6S renormalized

     Subspace diagonalization in iterative solution of the eigenvalue problem:
     a serial algorithm will be used

     Message from routine setup:
     using ibrav=0 with symmetry is DISCOURAGED, use correct ibrav instead

     Parallelization info
     --------------------
     sticks:   dense  smooth     PW     G-vecs:    dense   smooth      PW
     Min         166     166     44                22968    22968    3226
     Max         167     167     45                22975    22975    3241
     Sum        5329    5329   1439               735059   735059  103557


     Title: 
     CsSnI3                                                                     


     bravais-lattice index     =            0
     lattice parameter (alat)  =       9.1317  a.u.
     unit-cell volume          =    6370.5385 (a.u.)^3
     number of atoms/cell      =           20
     number of atomic types    =            3
     number of electrons       =       176.00
     number of Kohn-Sham states=           89
     kinetic-energy cutoff     =      90.0000  Ry
     charge density cutoff     =     360.0000  Ry
     scf convergence threshold =      1.0E-06
     mixing beta               =       0.7000
     number of iterations used =            8  plain     mixing
     Exchange-correlation= SLA  PW   PBX  PBC
                           (   1   4   3   4   0   0   0)

     celldm(1)=   9.131705  celldm(2)=   0.000000  celldm(3)=   0.000000
     celldm(4)=   0.000000  celldm(5)=   0.000000  celldm(6)=   0.000000

     crystal axes: (cart. coord. in units of alat)
               a(1) = (   1.000000   0.000000   0.000000 )  
               a(2) = (   0.000000   2.227728   0.000000 )  
               a(3) = (   0.000000   0.000000   3.755420 )  

     reciprocal axes: (cart. coord. in units 2 pi/alat)
               b(1) = (  1.000000  0.000000  0.000000 )  
               b(2) = (  0.000000  0.448888  0.000000 )  
               b(3) = (  0.000000  0.000000  0.266282 )  


     PseudoPot. # 1 for Sn read from file:
     ../../../pseudo/Sn.pbe-dn-kjpaw_psl.1.0.0.UPF
     MD5 check sum: 67f11dec737d427557dc41ea34975807
     Pseudo is Projector augmented-wave + core cor, Zval = 14.0
     Generated using &quot;atomic&quot; code by A. Dal Corso  v.6.3
     Shape of augmentation charge: PSQ
     Using radial grid of 1243 points,  6 beta functions with: 
                l(1) =   0
                l(2) =   0
                l(3) =   1
                l(4) =   1
                l(5) =   2
                l(6) =   2
     Q(r) pseudized with 0 coefficients 


     PseudoPot. # 2 for I  read from file:
     ../../../pseudo/I.pbe-n-kjpaw_psl.1.0.0.UPF
     MD5 check sum: cd3d296c3308a581e1559a0c8a554cb5
     Pseudo is Projector augmented-wave + core cor, Zval =  7.0
     Generated using &quot;atomic&quot; code by A. Dal Corso  v.6.3
     Shape of augmentation charge: PSQ
     Using radial grid of 1247 points,  6 beta functions with: 
                l(1) =   0
                l(2) =   0
                l(3) =   1
                l(4) =   1
                l(5) =   2
                l(6) =   2
     Q(r) pseudized with 0 coefficients 


     PseudoPot. # 3 for Cs read from file:
     ../../../pseudo/Cs.pbe-spn-kjpaw_psl.1.0.0.UPF
     MD5 check sum: b82c75cc2e1f4ff73b6412cffeb9c584
     Pseudo is Projector augmented-wave + core cor, Zval =  9.0
     Generated using &quot;atomic&quot; code by A. Dal Corso  v.6.4.1
     Shape of augmentation charge: PSQ
     Using radial grid of 1251 points,  9 beta functions with: 
                l(1) =   0
                l(2) =   0
                l(3) =   0
                l(4) =   1
                l(5) =   1
                l(6) =   2
                l(7) =   2
                l(8) =   3
                l(9) =   3
     Q(r) pseudized with 0 coefficients 


     atomic species   valence    mass     pseudopotential
        Sn            14.00   118.70000     Sn( 1.00)
        I              7.00   126.90000     I ( 1.00)
        Cs             9.00   132.90000     Cs( 1.00)

      8 Sym. Ops., with inversion, found ( 6 have fractional translation)


                                    s                        frac. trans.

      isym =  1     identity                                     

 cryst.   s( 1) = (     1          0          0      )
                  (     0          1          0      )
                  (     0          0          1      )

 cart.    s( 1) = (  1.0000000  0.0000000  0.0000000 )
                  (  0.0000000  1.0000000  0.0000000 )
                  (  0.0000000  0.0000000  1.0000000 )


      isym =  2     180 deg rotation - cart. axis [0,0,1]        

 cryst.   s( 2) = (    -1          0          0      )    f =(  0.0000000 )
                  (     0         -1          0      )       (  0.5000000 )
                  (     0          0          1      )       (  0.5000000 )

 cart.    s( 2) = ( -1.0000000  0.0000000  0.0000000 )    f =(  0.0000000 )
                  (  0.0000000 -1.0000000  0.0000000 )       (  1.1138638 )
                  (  0.0000000  0.0000000  1.0000000 )       (  1.8777098 )


      isym =  3     180 deg rotation - cart. axis [0,1,0]        

 cryst.   s( 3) = (    -1          0          0      )    f =(  0.5000000 )
                  (     0          1          0      )       ( -0.5000000 )
                  (     0          0         -1      )       ( -0.5000000 )

 cart.    s( 3) = ( -1.0000000  0.0000000  0.0000000 )    f =(  0.5000000 )
                  (  0.0000000  1.0000000  0.0000000 )       ( -1.1138638 )
                  (  0.0000000  0.0000000 -1.0000000 )       ( -1.8777098 )


      isym =  4     180 deg rotation - cart. axis [1,0,0]        

 cryst.   s( 4) = (     1          0          0      )    f =( -0.5000000 )
                  (     0         -1          0      )       (  0.0000000 )
                  (     0          0         -1      )       (  0.0000000 )

 cart.    s( 4) = (  1.0000000  0.0000000  0.0000000 )    f =( -0.5000000 )
                  (  0.0000000 -1.0000000  0.0000000 )       (  0.0000000 )
                  (  0.0000000  0.0000000 -1.0000000 )       (  0.0000000 )


      isym =  5     inversion                                    

 cryst.   s( 5) = (    -1          0          0      )
                  (     0         -1          0      )
                  (     0          0         -1      )

 cart.    s( 5) = ( -1.0000000  0.0000000  0.0000000 )
                  (  0.0000000 -1.0000000  0.0000000 )
                  (  0.0000000  0.0000000 -1.0000000 )


      isym =  6     inv. 180 deg rotation - cart. axis [0,0,1]   

 cryst.   s( 6) = (     1          0          0      )    f =(  0.0000000 )
                  (     0          1          0      )       ( -0.5000000 )
                  (     0          0         -1      )       ( -0.5000000 )

 cart.    s( 6) = (  1.0000000  0.0000000  0.0000000 )    f =(  0.0000000 )
                  (  0.0000000  1.0000000  0.0000000 )       ( -1.1138638 )
                  (  0.0000000  0.0000000 -1.0000000 )       ( -1.8777098 )


      isym =  7     inv. 180 deg rotation - cart. axis [0,1,0]   

 cryst.   s( 7) = (     1          0          0      )    f =( -0.5000000 )
                  (     0         -1          0      )       (  0.5000000 )
                  (     0          0          1      )       (  0.5000000 )

 cart.    s( 7) = (  1.0000000  0.0000000  0.0000000 )    f =( -0.5000000 )
                  (  0.0000000 -1.0000000  0.0000000 )       (  1.1138638 )
                  (  0.0000000  0.0000000  1.0000000 )       (  1.8777098 )


      isym =  8     inv. 180 deg rotation - cart. axis [1,0,0]   

 cryst.   s( 8) = (    -1          0          0      )    f =(  0.5000000 )
                  (     0          1          0      )       (  0.0000000 )
                  (     0          0          1      )       (  0.0000000 )

 cart.    s( 8) = ( -1.0000000  0.0000000  0.0000000 )    f =(  0.5000000 )
                  (  0.0000000  1.0000000  0.0000000 )       (  0.0000000 )
                  (  0.0000000  0.0000000  1.0000000 )       (  0.0000000 )


   Cartesian axes

     site n.     atom                  positions (alat units)
         1           Cs  tau(   1) = (   0.2500000   0.1859640   2.5168147  )
         2           Cs  tau(   2) = (   0.7500000   2.0417636   1.2386050  )
         3           Cs  tau(   3) = (   0.2500000   1.2998278   3.1163149  )
         4           Cs  tau(   4) = (   0.7500000   0.9278998   0.6391048  )
         5           Sn  tau(   5) = (   0.2500000   0.7615710   1.6485466  )
         6           Sn  tau(   6) = (   0.7500000   1.4661567   2.1068731  )
         7           Sn  tau(   7) = (   0.2500000   1.8754348   0.2291632  )
         8           Sn  tau(   8) = (   0.7500000   0.3522928   3.5262565  )
         9           I   tau(   9) = (   0.7500000   0.0581437   0.4202578  )
        10           I   tau(  10) = (   0.2500000   2.1695839   3.3351619  )
        11           I   tau(  11) = (   0.7500000   1.1720075   1.4574521  )
        12           I   tau(  12) = (   0.2500000   1.0557201   2.2979676  )
        13           I   tau(  13) = (   0.7500000   0.6531118   2.9738192  )
        14           I   tau(  14) = (   0.2500000   1.5746158   0.7816005  )
        15           I   tau(  15) = (   0.7500000   1.7669756   2.6593103  )
        16           I   tau(  16) = (   0.2500000   0.4607520   1.0961094  )
        17           I   tau(  17) = (   0.7500000   0.3753632   1.8734812  )
        18           I   tau(  18) = (   0.2500000   1.8523644   1.8819384  )
        19           I   tau(  19) = (   0.7500000   1.4892270   0.0042286  )
        20           I   tau(  20) = (   0.2500000   0.7385006   3.7511911  )

   Crystallographic axes

     site n.     atom                  positions (cryst. coord.)
         1           Cs  tau(   1) = (  0.2500000  0.0834770  0.6701820  )
         2           Cs  tau(   2) = (  0.7500000  0.9165230  0.3298180  )
         3           Cs  tau(   3) = (  0.2500000  0.5834770  0.8298180  )
         4           Cs  tau(   4) = (  0.7500000  0.4165230  0.1701820  )
         5           Sn  tau(   5) = (  0.2500000  0.3418600  0.4389780  )
         6           Sn  tau(   6) = (  0.7500000  0.6581400  0.5610220  )
         7           Sn  tau(   7) = (  0.2500000  0.8418600  0.0610220  )
         8           Sn  tau(   8) = (  0.7500000  0.1581400  0.9389780  )
         9           I   tau(   9) = (  0.7500000  0.0261000  0.1119070  )
        10           I   tau(  10) = (  0.2500000  0.9739000  0.8880930  )
        11           I   tau(  11) = (  0.7500000  0.5261000  0.3880930  )
        12           I   tau(  12) = (  0.2500000  0.4739000  0.6119070  )
        13           I   tau(  13) = (  0.7500000  0.2931740  0.7918740  )
        14           I   tau(  14) = (  0.2500000  0.7068260  0.2081260  )
        15           I   tau(  15) = (  0.7500000  0.7931740  0.7081260  )
        16           I   tau(  16) = (  0.2500000  0.2068260  0.2918740  )
        17           I   tau(  17) = (  0.7500000  0.1684960  0.4988740  )
        18           I   tau(  18) = (  0.2500000  0.8315040  0.5011260  )
        19           I   tau(  19) = (  0.7500000  0.6684960  0.0011260  )
        20           I   tau(  20) = (  0.2500000  0.3315040  0.9988740  )

     number of k points=     8
                       cart. coord. in units 2pi/alat
        k(    1) = (   0.0000000   0.0000000   0.0000000), wk =   0.2500000
        k(    2) = (   0.0000000   0.0000000  -0.1331409), wk =   0.2500000
        k(    3) = (   0.0000000  -0.2244440   0.0000000), wk =   0.2500000
        k(    4) = (   0.0000000  -0.2244440  -0.1331409), wk =   0.2500000
        k(    5) = (  -0.5000000   0.0000000   0.0000000), wk =   0.2500000
        k(    6) = (  -0.5000000   0.0000000  -0.1331409), wk =   0.2500000
        k(    7) = (  -0.5000000  -0.2244440   0.0000000), wk =   0.2500000
        k(    8) = (  -0.5000000  -0.2244440  -0.1331409), wk =   0.2500000

                       cryst. coord.
        k(    1) = (   0.0000000   0.0000000   0.0000000), wk =   0.2500000
        k(    2) = (   0.0000000   0.0000000  -0.5000000), wk =   0.2500000
        k(    3) = (   0.0000000  -0.5000000   0.0000000), wk =   0.2500000
        k(    4) = (   0.0000000  -0.5000000  -0.5000000), wk =   0.2500000
        k(    5) = (  -0.5000000   0.0000000   0.0000000), wk =   0.2500000
        k(    6) = (  -0.5000000   0.0000000  -0.5000000), wk =   0.2500000
        k(    7) = (  -0.5000000  -0.5000000   0.0000000), wk =   0.2500000
        k(    8) = (  -0.5000000  -0.5000000  -0.5000000), wk =   0.2500000

     Dense  grid:   735059 G-vectors     FFT dimensions: (  60, 128, 216)

     Dynamical RAM for                 wfc:       3.90 MB

     Dynamical RAM for     wfc (w. buffer):      35.08 MB

     Dynamical RAM for           str. fact:       1.05 MB

     Dynamical RAM for           local pot:       0.00 MB

     Dynamical RAM for          nlocal pot:      18.39 MB

     Dynamical RAM for                qrad:      13.71 MB

     Dynamical RAM for          rho,v,vnew:       2.28 MB

     Dynamical RAM for               rhoin:       0.76 MB

     Dynamical RAM for            rho*nmix:       5.61 MB

     Dynamical RAM for           G-vectors:       1.49 MB

     Dynamical RAM for          h,s,v(r/c):       1.45 MB

     Dynamical RAM for          <psi|beta>:       0.57 MB

     Dynamical RAM for                 psi:       7.80 MB

     Dynamical RAM for                hpsi:       7.80 MB

     Dynamical RAM for                spsi:       7.80 MB

     Dynamical RAM for      wfcinit/wfcrot:       9.36 MB

     Dynamical RAM for           addusdens:     210.30 MB

     Dynamical RAM for          addusforce:     218.34 MB

     Dynamical RAM for         addusstress:     215.55 MB

     Estimated static dynamical RAM per process >      81.82 MB

     Estimated max dynamical RAM per process >     300.16 MB

     Estimated total dynamical RAM >       9.38 GB

     Initial potential from superposition of free atoms

     starting charge  175.83511, renormalised to  176.00000
     Starting wfcs are  104 randomized atomic wfcs
     Checking if some PAW data can be deallocated... 
       PAW data deallocated on   24 nodes for type:  1
       PAW data deallocated on   16 nodes for type:  2
       PAW data deallocated on   24 nodes for type:  3

     total cpu time spent up to now is       56.2 secs

     Self-consistent Calculation

     iteration #  1     ecut=    90.00 Ry     beta= 0.70
     Davidson diagonalization with overlap
     ethr =  1.00E-02,  avg # of iterations =  2.0

     Threshold (ethr) on eigenvalues was too large:
     Diagonalizing with lowered threshold

     Davidson diagonalization with overlap
     ethr =  3.21E-04,  avg # of iterations =  4.0

     total cpu time spent up to now is      341.1 secs

     total energy              =   -7979.44194685 Ry
     estimated scf accuracy    <       0.45170918 Ry

     iteration #  2     ecut=    90.00 Ry     beta= 0.70
     Davidson diagonalization with overlap
     ethr =  2.57E-04,  avg # of iterations =  4.2

     total cpu time spent up to now is      513.6 secs

     total energy              =   -7979.54016119 Ry
     estimated scf accuracy    <       0.55704346 Ry

     iteration #  3     ecut=    90.00 Ry     beta= 0.70
     Davidson diagonalization with overlap
     ethr =  2.57E-04,  avg # of iterations =  4.5

     total cpu time spent up to now is      655.6 secs

     total energy              =   -7979.64343662 Ry
     estimated scf accuracy    <       0.01443030 Ry

     iteration #  4     ecut=    90.00 Ry     beta= 0.70
     Davidson diagonalization with overlap
     ethr =  8.20E-06,  avg # of iterations =  9.1

     total cpu time spent up to now is      877.2 secs

     total energy              =   -7979.65759649 Ry
     estimated scf accuracy    <       0.00563480 Ry

     iteration #  5     ecut=    90.00 Ry     beta= 0.70
     Davidson diagonalization with overlap
     ethr =  3.20E-06,  avg # of iterations =  4.8

     total cpu time spent up to now is     1015.5 secs

     total energy              =   -7979.65805462 Ry
     estimated scf accuracy    <       0.00096369 Ry

     iteration #  6     ecut=    90.00 Ry     beta= 0.70
     Davidson diagonalization with overlap
     ethr =  5.48E-07,  avg # of iterations =  5.9

     total cpu time spent up to now is     1199.9 secs

     total energy              =   -7979.65851795 Ry
     estimated scf accuracy    <       0.00021863 Ry

     iteration #  7     ecut=    90.00 Ry     beta= 0.70
     Davidson diagonalization with overlap
     ethr =  1.24E-07,  avg # of iterations =  4.5

     total cpu time spent up to now is     1343.6 secs

     total energy              =   -7979.65857101 Ry
     estimated scf accuracy    <       0.00001697 Ry

     iteration #  8     ecut=    90.00 Ry     beta= 0.70
     Davidson diagonalization with overlap
     ethr =  9.64E-09,  avg # of iterations =  7.2

     total cpu time spent up to now is     1561.3 secs

     total energy              =   -7979.65856338 Ry
     estimated scf accuracy    <       0.00004602 Ry

     iteration #  9     ecut=    90.00 Ry     beta= 0.70
     Davidson diagonalization with overlap
     ethr =  9.64E-09,  avg # of iterations =  5.8

     total cpu time spent up to now is     1744.6 secs

     total energy              =   -7979.65857821 Ry
     estimated scf accuracy    <       0.00001037 Ry

     iteration # 10     ecut=    90.00 Ry     beta= 0.70
     Davidson diagonalization with overlap
     ethr =  5.89E-09,  avg # of iterations =  2.0

     total cpu time spent up to now is     1866.3 secs

     total energy              =   -7979.65857688 Ry
     estimated scf accuracy    <       0.00000394 Ry

     iteration # 11     ecut=    90.00 Ry     beta= 0.70
     Davidson diagonalization with overlap
     ethr =  2.24E-09,  avg # of iterations =  5.8

     total cpu time spent up to now is     2032.3 secs

     End of self-consistent calculation

          k = 0.0000 0.0000 0.0000 ( 91941 PWs)   bands (ev):

   -17.8810 -17.8810 -17.8808 -17.8808 -17.8730 -17.8730 -17.8727 -17.8727
   -17.8698 -17.8698 -17.8692 -17.8691 -17.8580 -17.8580 -17.8566 -17.8566
   -17.8505 -17.8505 -17.8491 -17.8491 -17.7882 -17.7879 -17.7873 -17.7870
    -8.8010  -8.7766  -8.5946  -8.5327  -8.4455  -8.4356  -8.4157  -8.4053
    -8.2787  -8.2553  -8.2375  -8.1946  -4.6170  -4.6160  -4.6135  -4.6069
    -4.5982  -4.5714  -4.5548  -4.5531  -4.5466  -4.5450  -4.5432  -4.5403
    -2.8868  -2.8619  -2.8239  -2.7432   0.1244   0.3259   0.7539   0.8908
     0.9054   0.9867   1.1128   1.1238   1.2142   1.2805   1.3247   1.3336
     1.3339   1.5553   1.6342   1.7321   1.7809   1.7974   1.8142   1.8204
     1.8252   1.8393   1.9799   2.0642   2.0699   2.1743   2.2072   2.2230
     2.2354   2.2375   2.3134   2.3176   2.3827   2.4786   2.6264   2.9252
     5.3026

     occupation numbers 
     1.0000   1.0000   1.0000   1.0000   1.0000   1.0000   1.0000   1.0000
     1.0000   1.0000   1.0000   1.0000   1.0000   1.0000   1.0000   1.0000
     1.0000   1.0000   1.0000   1.0000   1.0000   1.0000   1.0000   1.0000
     1.0000   1.0000   1.0000   1.0000   1.0000   1.0000   1.0000   1.0000
     1.0000   1.0000   1.0000   1.0000   1.0000   1.0000   1.0000   1.0000
     1.0000   1.0000   1.0000   1.0000   1.0000   1.0000   1.0000   1.0000
     1.0000   1.0000   1.0000   1.0000   1.0000   1.0000   1.0000   1.0000
     1.0000   1.0000   1.0000   1.0000   1.0000   1.0000   1.0000   1.0000
     1.0000   1.0000   1.0000   1.0000   1.0000   1.0000   1.0000   1.0000
     1.0000   1.0000   1.0000   1.0000   1.0000   1.0000   1.0000   1.0000
     1.0000   1.0000   1.0000   1.0000   1.0000   1.0000   1.0000   1.0000
     0.0000

          k = 0.0000 0.0000-0.1331 ( 91900 PWs)   bands (ev):

   -17.8810 -17.8810 -17.8808 -17.8808 -17.8730 -17.8730 -17.8727 -17.8727
   -17.8698 -17.8698 -17.8691 -17.8691 -17.8580 -17.8580 -17.8566 -17.8566
   -17.8505 -17.8505 -17.8491 -17.8491 -17.7881 -17.7881 -17.7871 -17.7871
    -8.7901  -8.7901  -8.5641  -8.5641  -8.4406  -8.4406  -8.4090  -8.4090
    -8.2718  -8.2718  -8.2108  -8.2108  -4.6223  -4.6223  -4.6056  -4.6056
    -4.5844  -4.5844  -4.5540  -4.5540  -4.5457  -4.5457  -4.5409  -4.5409
    -2.8794  -2.8794  -2.7788  -2.7788   0.2141   0.2141   0.8433   0.8433
     0.8978   0.8978   1.1434   1.1434   1.2844   1.2844   1.3068   1.3068
     1.5229   1.5229   1.5820   1.5820   1.7966   1.7966   1.8206   1.8206
     1.8296   1.8296   1.9854   1.9854   2.1205   2.1205   2.2176   2.2176
     2.2263   2.2263   2.3549   2.3549   2.4586   2.4586   2.7655   2.7655
     5.3305

     occupation numbers 
     1.0000   1.0000   1.0000   1.0000   1.0000   1.0000   1.0000   1.0000
     1.0000   1.0000   1.0000   1.0000   1.0000   1.0000   1.0000   1.0000
     1.0000   1.0000   1.0000   1.0000   1.0000   1.0000   1.0000   1.0000
     1.0000   1.0000   1.0000   1.0000   1.0000   1.0000   1.0000   1.0000
     1.0000   1.0000   1.0000   1.0000   1.0000   1.0000   1.0000   1.0000
     1.0000   1.0000   1.0000   1.0000   1.0000   1.0000   1.0000   1.0000
     1.0000   1.0000   1.0000   1.0000   1.0000   1.0000   1.0000   1.0000
     1.0000   1.0000   1.0000   1.0000   1.0000   1.0000   1.0000   1.0000
     1.0000   1.0000   1.0000   1.0000   1.0000   1.0000   1.0000   1.0000
     1.0000   1.0000   1.0000   1.0000   1.0000   1.0000   1.0000   1.0000
     1.0000   1.0000   1.0000   1.0000   1.0000   1.0000   1.0000   1.0000
     0.0000

          k = 0.0000-0.2244 0.0000 ( 91902 PWs)   bands (ev):

   -17.8810 -17.8810 -17.8808 -17.8808 -17.8730 -17.8730 -17.8727 -17.8727
   -17.8698 -17.8698 -17.8691 -17.8691 -17.8580 -17.8580 -17.8566 -17.8566
   -17.8505 -17.8505 -17.8491 -17.8491 -17.7877 -17.7877 -17.7875 -17.7875
    -8.7671  -8.7671  -8.6075  -8.6075  -8.4866  -8.4866  -8.3442  -8.3442
    -8.2542  -8.2542  -8.2244  -8.2244  -4.6241  -4.6241  -4.6035  -4.6035
    -4.5771  -4.5771  -4.5596  -4.5596  -4.5507  -4.5507  -4.5491  -4.5491
    -2.8968  -2.8968  -2.7505  -2.7505   0.2536   0.2536   0.8177   0.8177
     0.9508   0.9508   1.1869   1.1869   1.2013   1.2013   1.3156   1.3156
     1.4152   1.4152   1.5578   1.5578   1.7456   1.7456   1.7827   1.7827
     1.9696   1.9696   2.0113   2.0113   2.0702   2.0702   2.2349   2.2349
     2.2628   2.2628   2.3122   2.3122   2.3962   2.3962   2.9391   2.9391
     5.1358

     occupation numbers 
     1.0000   1.0000   1.0000   1.0000   1.0000   1.0000   1.0000   1.0000
     1.0000   1.0000   1.0000   1.0000   1.0000   1.0000   1.0000   1.0000
     1.0000   1.0000   1.0000   1.0000   1.0000   1.0000   1.0000   1.0000
     1.0000   1.0000   1.0000   1.0000   1.0000   1.0000   1.0000   1.0000
     1.0000   1.0000   1.0000   1.0000   1.0000   1.0000   1.0000   1.0000
     1.0000   1.0000   1.0000   1.0000   1.0000   1.0000   1.0000   1.0000
     1.0000   1.0000   1.0000   1.0000   1.0000   1.0000   1.0000   1.0000
     1.0000   1.0000   1.0000   1.0000   1.0000   1.0000   1.0000   1.0000
     1.0000   1.0000   1.0000   1.0000   1.0000   1.0000   1.0000   1.0000
     1.0000   1.0000   1.0000   1.0000   1.0000   1.0000   1.0000   1.0000
     1.0000   1.0000   1.0000   1.0000   1.0000   1.0000   1.0000   1.0000
     0.0000

          k = 0.0000-0.2244-0.1331 ( 91796 PWs)   bands (ev):

   -17.8810 -17.8810 -17.8808 -17.8808 -17.8730 -17.8730 -17.8727 -17.8727
   -17.8698 -17.8698 -17.8691 -17.8691 -17.8580 -17.8580 -17.8566 -17.8566
   -17.8505 -17.8505 -17.8491 -17.8491 -17.7877 -17.7877 -17.7875 -17.7875
    -8.7671  -8.7671  -8.6078  -8.6078  -8.4844  -8.4844  -8.3499  -8.3499
    -8.2391  -8.2391  -8.2356  -8.2356  -4.6210  -4.6210  -4.6105  -4.6105
    -4.5724  -4.5724  -4.5604  -4.5604  -4.5507  -4.5507  -4.5491  -4.5491
    -2.8954  -2.8954  -2.7520  -2.7520   0.2593   0.2593   0.8076   0.8076
     0.9508   0.9508   1.2014   1.2014   1.2121   1.2121   1.3149   1.3149
     1.3583   1.3583   1.5675   1.5675   1.7469   1.7469   1.8249   1.8249
     1.9653   1.9653   1.9974   1.9974   2.0838   2.0838   2.2208   2.2208
     2.2870   2.2870   2.2909   2.2909   2.4103   2.4103   2.9225   2.9225
     5.1346

     occupation numbers 
     1.0000   1.0000   1.0000   1.0000   1.0000   1.0000   1.0000   1.0000
     1.0000   1.0000   1.0000   1.0000   1.0000   1.0000   1.0000   1.0000
     1.0000   1.0000   1.0000   1.0000   1.0000   1.0000   1.0000   1.0000
     1.0000   1.0000   1.0000   1.0000   1.0000   1.0000   1.0000   1.0000
     1.0000   1.0000   1.0000   1.0000   1.0000   1.0000   1.0000   1.0000
     1.0000   1.0000   1.0000   1.0000   1.0000   1.0000   1.0000   1.0000
     1.0000   1.0000   1.0000   1.0000   1.0000   1.0000   1.0000   1.0000
     1.0000   1.0000   1.0000   1.0000   1.0000   1.0000   1.0000   1.0000
     1.0000   1.0000   1.0000   1.0000   1.0000   1.0000   1.0000   1.0000
     1.0000   1.0000   1.0000   1.0000   1.0000   1.0000   1.0000   1.0000
     1.0000   1.0000   1.0000   1.0000   1.0000   1.0000   1.0000   1.0000
     0.0000

          k =-0.5000 0.0000 0.0000 ( 91880 PWs)   bands (ev):

   -17.8802 -17.8802 -17.8802 -17.8802 -17.8762 -17.8762 -17.8762 -17.8762
   -17.8694 -17.8694 -17.8694 -17.8694 -17.8540 -17.8540 -17.8540 -17.8540
   -17.8504 -17.8504 -17.8504 -17.8504 -17.7766 -17.7766 -17.7760 -17.7760
    -8.4824  -8.4824  -8.4801  -8.4801  -8.3071  -8.3071  -8.2978  -8.2978
    -8.2862  -8.2862  -8.2664  -8.2664  -4.7926  -4.7926  -4.7249  -4.7249
    -4.6094  -4.6094  -4.6002  -4.6002  -4.5860  -4.5860  -4.5573  -4.5573
    -3.2029  -3.2029  -3.1661  -3.1661   0.0783   0.0783   0.0797   0.0797
     0.5668   0.5668   0.6248   0.6248   0.8925   0.8925   0.9121   0.9121
     1.2450   1.2450   1.6364   1.6364   1.6779   1.6779   1.7844   1.7844
     1.7953   1.7953   1.8561   1.8561   1.9080   1.9080   1.9335   1.9335
     2.0642   2.0642   2.1020   2.1020   2.5338   2.5338   2.9138   2.9138
     6.1094

     occupation numbers 
     1.0000   1.0000   1.0000   1.0000   1.0000   1.0000   1.0000   1.0000
     1.0000   1.0000   1.0000   1.0000   1.0000   1.0000   1.0000   1.0000
     1.0000   1.0000   1.0000   1.0000   1.0000   1.0000   1.0000   1.0000
     1.0000   1.0000   1.0000   1.0000   1.0000   1.0000   1.0000   1.0000
     1.0000   1.0000   1.0000   1.0000   1.0000   1.0000   1.0000   1.0000
     1.0000   1.0000   1.0000   1.0000   1.0000   1.0000   1.0000   1.0000
     1.0000   1.0000   1.0000   1.0000   1.0000   1.0000   1.0000   1.0000
     1.0000   1.0000   1.0000   1.0000   1.0000   1.0000   1.0000   1.0000
     1.0000   1.0000   1.0000   1.0000   1.0000   1.0000   1.0000   1.0000
     1.0000   1.0000   1.0000   1.0000   1.0000   1.0000   1.0000   1.0000
     1.0000   1.0000   1.0000   1.0000   1.0000   1.0000   1.0000   1.0000
     0.0000

          k =-0.5000 0.0000-0.1331 ( 91888 PWs)   bands (ev):

   -17.8802 -17.8802 -17.8802 -17.8802 -17.8762 -17.8762 -17.8762 -17.8762
   -17.8694 -17.8694 -17.8694 -17.8694 -17.8540 -17.8540 -17.8540 -17.8540
   -17.8504 -17.8504 -17.8504 -17.8504 -17.7766 -17.7766 -17.7760 -17.7760
    -8.4830  -8.4830  -8.4795  -8.4795  -8.3065  -8.3065  -8.2987  -8.2987
    -8.2858  -8.2858  -8.2665  -8.2665  -4.7925  -4.7925  -4.7250  -4.7250
    -4.6096  -4.6096  -4.6002  -4.6002  -4.5857  -4.5857  -4.5575  -4.5575
    -3.1964  -3.1964  -3.1727  -3.1727   0.0654   0.0654   0.0980   0.0980
     0.5848   0.5848   0.6324   0.6324   0.8408   0.8408   0.8791   0.8791
     1.3336   1.3336   1.6052   1.6052   1.6885   1.6885   1.8005   1.8005
     1.8028   1.8028   1.8288   1.8288   1.8369   1.8369   1.9637   1.9637
     2.0584   2.0584   2.1325   2.1325   2.5932   2.5932   2.8551   2.8551
     6.1061

     occupation numbers 
     1.0000   1.0000   1.0000   1.0000   1.0000   1.0000   1.0000   1.0000
     1.0000   1.0000   1.0000   1.0000   1.0000   1.0000   1.0000   1.0000
     1.0000   1.0000   1.0000   1.0000   1.0000   1.0000   1.0000   1.0000
     1.0000   1.0000   1.0000   1.0000   1.0000   1.0000   1.0000   1.0000
     1.0000   1.0000   1.0000   1.0000   1.0000   1.0000   1.0000   1.0000
     1.0000   1.0000   1.0000   1.0000   1.0000   1.0000   1.0000   1.0000
     1.0000   1.0000   1.0000   1.0000   1.0000   1.0000   1.0000   1.0000
     1.0000   1.0000   1.0000   1.0000   1.0000   1.0000   1.0000   1.0000
     1.0000   1.0000   1.0000   1.0000   1.0000   1.0000   1.0000   1.0000
     1.0000   1.0000   1.0000   1.0000   1.0000   1.0000   1.0000   1.0000
     1.0000   1.0000   1.0000   1.0000   1.0000   1.0000   1.0000   1.0000
     0.0000

          k =-0.5000-0.2244 0.0000 ( 91856 PWs)   bands (ev):

   -17.8802 -17.8802 -17.8802 -17.8802 -17.8762 -17.8762 -17.8762 -17.8762
   -17.8694 -17.8694 -17.8694 -17.8694 -17.8540 -17.8540 -17.8540 -17.8540
   -17.8504 -17.8504 -17.8504 -17.8504 -17.7763 -17.7763 -17.7763 -17.7763
    -8.4813  -8.4813  -8.4813  -8.4813  -8.3035  -8.3035  -8.3035  -8.3035
    -8.2753  -8.2753  -8.2753  -8.2753  -4.7589  -4.7589  -4.7589  -4.7589
    -4.6027  -4.6027  -4.6027  -4.6027  -4.5736  -4.5736  -4.5736  -4.5736
    -3.1852  -3.1852  -3.1852  -3.1852   0.2241   0.2241   0.2241   0.2241
     0.4393   0.4393   0.4393   0.4393   0.8445   0.8445   0.8445   0.8445
     1.4587   1.4587   1.4587   1.4587   1.6402   1.6402   1.6402   1.6402
     1.8001   1.8001   1.8001   1.8001   1.9267   1.9267   1.9267   1.9267
     2.1547   2.1547   2.1547   2.1547   2.8761   2.8761   2.8761   2.8761
     6.1285

     occupation numbers 
     1.0000   1.0000   1.0000   1.0000   1.0000   1.0000   1.0000   1.0000
     1.0000   1.0000   1.0000   1.0000   1.0000   1.0000   1.0000   1.0000
     1.0000   1.0000   1.0000   1.0000   1.0000   1.0000   1.0000   1.0000
     1.0000   1.0000   1.0000   1.0000   1.0000   1.0000   1.0000   1.0000
     1.0000   1.0000   1.0000   1.0000   1.0000   1.0000   1.0000   1.0000
     1.0000   1.0000   1.0000   1.0000   1.0000   1.0000   1.0000   1.0000
     1.0000   1.0000   1.0000   1.0000   1.0000   1.0000   1.0000   1.0000
     1.0000   1.0000   1.0000   1.0000   1.0000   1.0000   1.0000   1.0000
     1.0000   1.0000   1.0000   1.0000   1.0000   1.0000   1.0000   1.0000
     1.0000   1.0000   1.0000   1.0000   1.0000   1.0000   1.0000   1.0000
     1.0000   1.0000   1.0000   1.0000   1.0000   1.0000   1.0000   1.0000
     0.0000

          k =-0.5000-0.2244-0.1331 ( 91896 PWs)   bands (ev):

   -17.8802 -17.8802 -17.8802 -17.8802 -17.8762 -17.8762 -17.8762 -17.8762
   -17.8694 -17.8694 -17.8694 -17.8694 -17.8540 -17.8540 -17.8540 -17.8540
   -17.8504 -17.8504 -17.8504 -17.8504 -17.7763 -17.7763 -17.7763 -17.7763
    -8.4813  -8.4813  -8.4813  -8.4813  -8.3035  -8.3035  -8.3035  -8.3035
    -8.2754  -8.2754  -8.2754  -8.2754  -4.7588  -4.7588  -4.7588  -4.7588
    -4.6027  -4.6027  -4.6027  -4.6027  -4.5737  -4.5737  -4.5737  -4.5737
    -3.1851  -3.1851  -3.1851  -3.1851   0.2177   0.2177   0.2177   0.2177
     0.4425   0.4425   0.4425   0.4425   0.8701   0.8701   0.8701   0.8701
     1.3739   1.3739   1.3739   1.3739   1.7117   1.7117   1.7117   1.7117
     1.8024   1.8024   1.8024   1.8024   1.9473   1.9473   1.9473   1.9473
     2.1158   2.1158   2.1158   2.1158   2.8851   2.8851   2.8851   2.8851
     6.1187

     occupation numbers 
     1.0000   1.0000   1.0000   1.0000   1.0000   1.0000   1.0000   1.0000
     1.0000   1.0000   1.0000   1.0000   1.0000   1.0000   1.0000   1.0000
     1.0000   1.0000   1.0000   1.0000   1.0000   1.0000   1.0000   1.0000
     1.0000   1.0000   1.0000   1.0000   1.0000   1.0000   1.0000   1.0000
     1.0000   1.0000   1.0000   1.0000   1.0000   1.0000   1.0000   1.0000
     1.0000   1.0000   1.0000   1.0000   1.0000   1.0000   1.0000   1.0000
     1.0000   1.0000   1.0000   1.0000   1.0000   1.0000   1.0000   1.0000
     1.0000   1.0000   1.0000   1.0000   1.0000   1.0000   1.0000   1.0000
     1.0000   1.0000   1.0000   1.0000   1.0000   1.0000   1.0000   1.0000
     1.0000   1.0000   1.0000   1.0000   1.0000   1.0000   1.0000   1.0000
     1.0000   1.0000   1.0000   1.0000   1.0000   1.0000   1.0000   1.0000
     0.0000

     highest occupied, lowest unoccupied level (ev):     2.9391    5.1346

!    total energy              =   -7979.65857812 Ry

     total all-electron energy =   -282510.813291 Ry
     estimated scf accuracy    <       0.00000044 Ry

     The total energy is the sum of the following terms:
     one-electron contribution =    -463.65829994 Ry
     hartree contribution      =     316.61365237 Ry
     xc contribution           =    -465.90791012 Ry
     ewald contribution        =    -633.56960439 Ry
     one-center paw contrib.   =   -6733.13641604 Ry
      -> PAW hartree energy AE =      25.62994147 Ry
      -> PAW hartree energy PS =     -25.52038624 Ry
      -> PAW xc energy AE      =    -383.52964825 Ry
      -> PAW xc energy PS      =      20.51436456 Ry
      -> total E_H with PAW    =     316.72320761 Ry
      -> total E_XC with PAW   =    -828.92319381 Ry

     convergence has been achieved in  11 iterations

     Forces acting on atoms (cartesian axes, Ry/au):

     atom    1 type  3   force =     0.00000000   -0.00063578    0.00067429
     atom    2 type  3   force =     0.00000000    0.00063578   -0.00067429
     atom    3 type  3   force =     0.00000000   -0.00063578   -0.00067429
     atom    4 type  3   force =     0.00000000    0.00063578    0.00067429
     atom    5 type  1   force =     0.00000000   -0.00039882   -0.00015956
     atom    6 type  1   force =     0.00000000    0.00039882    0.00015956
     atom    7 type  1   force =     0.00000000   -0.00039882    0.00015956
     atom    8 type  1   force =    -0.00000000    0.00039882   -0.00015956
     atom    9 type  2   force =     0.00000000   -0.00343109   -0.00182856
     atom   10 type  2   force =     0.00000000    0.00343109    0.00182856
     atom   11 type  2   force =     0.00000000   -0.00343109    0.00182856
     atom   12 type  2   force =    -0.00000000    0.00343109   -0.00182856
     atom   13 type  2   force =    -0.00000000   -0.00058108    0.00037039
     atom   14 type  2   force =     0.00000000    0.00058108   -0.00037039
     atom   15 type  2   force =    -0.00000000   -0.00058108   -0.00037039
     atom   16 type  2   force =     0.00000000    0.00058108    0.00037039
     atom   17 type  2   force =     0.00000000    0.00319825   -0.00175892
     atom   18 type  2   force =     0.00000000   -0.00319825    0.00175892
     atom   19 type  2   force =     0.00000000    0.00319825    0.00175892
     atom   20 type  2   force =     0.00000000   -0.00319825   -0.00175892
     The non-local contrib.  to forces
     atom    1 type  3   force =     0.00000000    0.00196388   -0.00102445
     atom    2 type  3   force =     0.00000000   -0.00196388    0.00102445
     atom    3 type  3   force =     0.00000000    0.00196388    0.00102445
     atom    4 type  3   force =     0.00000000   -0.00196388   -0.00102445
     atom    5 type  1   force =     0.00000000   -0.08807696   -0.13102041
     atom    6 type  1   force =     0.00000000    0.08807696    0.13102041
     atom    7 type  1   force =     0.00000000   -0.08807696    0.13102041
     atom    8 type  1   force =    -0.00000000    0.08807696   -0.13102041
     atom    9 type  2   force =     0.00000000   -0.04814008   -0.04703921
     atom   10 type  2   force =     0.00000000    0.04814008    0.04703921
     atom   11 type  2   force =     0.00000000   -0.04814008    0.04703921
     atom   12 type  2   force =    -0.00000000    0.04814008   -0.04703921
     atom   13 type  2   force =     0.00000000   -0.03304991    0.05612982
     atom   14 type  2   force =    -0.00000000    0.03304991   -0.05612982
     atom   15 type  2   force =     0.00000000   -0.03304991   -0.05612982
     atom   16 type  2   force =     0.00000000    0.03304991    0.05612982
     atom   17 type  2   force =     0.00000000    0.05603228   -0.01693881
     atom   18 type  2   force =     0.00000000   -0.05603228    0.01693881
     atom   19 type  2   force =    -0.00000000    0.05603228    0.01693881
     atom   20 type  2   force =    -0.00000000   -0.05603228   -0.01693881
     The ionic contribution  to forces
     atom    1 type  3   force =    -0.00000000    0.02273773    0.42856976
     atom    2 type  3   force =    -0.00000000   -0.02273773   -0.42856976
     atom    3 type  3   force =    -0.00000000    0.02273773   -0.42856976
     atom    4 type  3   force =     0.00000000   -0.02273773    0.42856976
     atom    5 type  1   force =     0.00000000   -2.44382135   -1.60292983
     atom    6 type  1   force =     0.00000000    2.44382135    1.60292983
     atom    7 type  1   force =    -0.00000000   -2.44382135    1.60292983
     atom    8 type  1   force =     0.00000000    2.44382135   -1.60292983
     atom    9 type  2   force =     0.00000000    3.00608891    5.13288893
     atom   10 type  2   force =    -0.00000000   -3.00608891   -5.13288893
     atom   11 type  2   force =    -0.00000000    3.00608891   -5.13288893
     atom   12 type  2   force =    -0.00000000   -3.00608891    5.13288893
     atom   13 type  2   force =     0.00000000    2.02422849   -3.75281499
     atom   14 type  2   force =     0.00000000   -2.02422849    3.75281499
     atom   15 type  2   force =    -0.00000000    2.02422849    3.75281499
     atom   16 type  2   force =     0.00000000   -2.02422849   -3.75281499
     atom   17 type  2   force =    -0.00000000   -4.20564473    2.10270404
     atom   18 type  2   force =     0.00000000    4.20564473   -2.10270404
     atom   19 type  2   force =    -0.00000000   -4.20564473   -2.10270404
     atom   20 type  2   force =     0.00000000    4.20564473    2.10270404
     The local contribution  to forces
     atom    1 type  3   force =    -0.00000000   -0.02523786   -0.42704837
     atom    2 type  3   force =     0.00000000    0.02523786    0.42704837
     atom    3 type  3   force =    -0.00000000   -0.02523786    0.42704837
     atom    4 type  3   force =     0.00000000    0.02523786   -0.42704837
     atom    5 type  1   force =    -0.00000000    2.53080432    1.73385371
     atom    6 type  1   force =    -0.00000000   -2.53080432   -1.73385371
     atom    7 type  1   force =    -0.00000000    2.53080432   -1.73385371
     atom    8 type  1   force =    -0.00000000   -2.53080432    1.73385371
     atom    9 type  2   force =    -0.00000000   -2.96758773   -5.09393132
     atom   10 type  2   force =     0.00000000    2.96758773    5.09393132
     atom   11 type  2   force =    -0.00000000   -2.96758773    5.09393132
     atom   12 type  2   force =     0.00000000    2.96758773   -5.09393132
     atom   13 type  2   force =    -0.00000000   -1.99596444    3.70438278
     atom   14 type  2   force =     0.00000000    1.99596444   -3.70438278
     atom   15 type  2   force =    -0.00000000   -1.99596444   -3.70438278
     atom   16 type  2   force =     0.00000000    1.99596444    3.70438278
     atom   17 type  2   force =     0.00000000    4.16009834   -2.08990977
     atom   18 type  2   force =    -0.00000000   -4.16009834    2.08990977
     atom   19 type  2   force =     0.00000000    4.16009834    2.08990977
     atom   20 type  2   force =    -0.00000000   -4.16009834   -2.08990977
     The core correction contribution to forces
     atom    1 type  3   force =     0.00000000   -0.00014782    0.00004049
     atom    2 type  3   force =    -0.00000000    0.00014782   -0.00004049
     atom    3 type  3   force =     0.00000000   -0.00014782   -0.00004049
     atom    4 type  3   force =    -0.00000000    0.00014782    0.00004049
     atom    5 type  1   force =    -0.00000000    0.00018885    0.00004620
     atom    6 type  1   force =    -0.00000000   -0.00018885   -0.00004620
     atom    7 type  1   force =     0.00000000    0.00018885   -0.00004620
     atom    8 type  1   force =    -0.00000000   -0.00018885    0.00004620
     atom    9 type  2   force =    -0.00000000    0.00641737    0.00649725
     atom   10 type  2   force =     0.00000000   -0.00641737   -0.00649725
     atom   11 type  2   force =    -0.00000000    0.00641737   -0.00649725
     atom   12 type  2   force =     0.00000000   -0.00641737    0.00649725
     atom   13 type  2   force =     0.00000000    0.00436826   -0.00749352
     atom   14 type  2   force =    -0.00000000   -0.00436826    0.00749352
     atom   15 type  2   force =     0.00000000    0.00436826    0.00749352
     atom   16 type  2   force =    -0.00000000   -0.00436826   -0.00749352
     atom   17 type  2   force =    -0.00000000   -0.00770756    0.00253471
     atom   18 type  2   force =     0.00000000    0.00770756   -0.00253471
     atom   19 type  2   force =    -0.00000000   -0.00770756   -0.00253471
     atom   20 type  2   force =     0.00000000    0.00770756    0.00253471
     The Hubbard contrib.    to forces
     atom    1 type  3   force =     0.00000000    0.00000000    0.00000000
     atom    2 type  3   force =     0.00000000    0.00000000    0.00000000
     atom    3 type  3   force =     0.00000000    0.00000000    0.00000000
     atom    4 type  3   force =     0.00000000    0.00000000    0.00000000
     atom    5 type  1   force =     0.00000000    0.00000000    0.00000000
     atom    6 type  1   force =     0.00000000    0.00000000    0.00000000
     atom    7 type  1   force =     0.00000000    0.00000000    0.00000000
     atom    8 type  1   force =     0.00000000    0.00000000    0.00000000
     atom    9 type  2   force =     0.00000000    0.00000000    0.00000000
     atom   10 type  2   force =     0.00000000    0.00000000    0.00000000
     atom   11 type  2   force =     0.00000000    0.00000000    0.00000000
     atom   12 type  2   force =     0.00000000    0.00000000    0.00000000
     atom   13 type  2   force =     0.00000000    0.00000000    0.00000000
     atom   14 type  2   force =     0.00000000    0.00000000    0.00000000
     atom   15 type  2   force =     0.00000000    0.00000000    0.00000000
     atom   16 type  2   force =     0.00000000    0.00000000    0.00000000
     atom   17 type  2   force =     0.00000000    0.00000000    0.00000000
     atom   18 type  2   force =     0.00000000    0.00000000    0.00000000
     atom   19 type  2   force =     0.00000000    0.00000000    0.00000000
     atom   20 type  2   force =     0.00000000    0.00000000    0.00000000
     The SCF correction term to forces
     atom    1 type  3   force =     0.00000000    0.00004829    0.00013686
     atom    2 type  3   force =    -0.00000000   -0.00004829   -0.00013686
     atom    3 type  3   force =    -0.00000000    0.00004829   -0.00013686
     atom    4 type  3   force =    -0.00000000   -0.00004829    0.00013686
     atom    5 type  1   force =    -0.00000000    0.00050633   -0.00010922
     atom    6 type  1   force =     0.00000000   -0.00050633    0.00010922
     atom    7 type  1   force =     0.00000000    0.00050633    0.00010922
     atom    8 type  1   force =    -0.00000000   -0.00050633   -0.00010922
     atom    9 type  2   force =     0.00000000   -0.00020956   -0.00024422
     atom   10 type  2   force =     0.00000000    0.00020956    0.00024422
     atom   11 type  2   force =    -0.00000000   -0.00020956    0.00024422
     atom   12 type  2   force =    -0.00000000    0.00020956   -0.00024422
     atom   13 type  2   force =     0.00000000   -0.00016349    0.00016630
     atom   14 type  2   force =     0.00000000    0.00016349   -0.00016630
     atom   15 type  2   force =    -0.00000000   -0.00016349   -0.00016630
     atom   16 type  2   force =     0.00000000    0.00016349    0.00016630
     atom   17 type  2   force =     0.00000000    0.00041992   -0.00014909
     atom   18 type  2   force =    -0.00000000   -0.00041992    0.00014909
     atom   19 type  2   force =     0.00000000    0.00041992    0.00014909
     atom   20 type  2   force =    -0.00000000   -0.00041992   -0.00014909

     Total force =     0.010947     Total SCF correction =     0.001607
     SCF correction compared to forces is large: reduce conv_thr to get better values


     Computing stress (Cartesian axis) and pressure

          total   stress  (Ry/bohr**3)                   (kbar)     P=       -0.45
   0.00002366   0.00000000   0.00000000            3.48        0.00        0.00
   0.00000000  -0.00002106   0.00000000            0.00       -3.10        0.00
   0.00000000   0.00000000  -0.00001186            0.00        0.00       -1.74

     kinetic stress (kbar)   5529.54      0.00      0.00
                                0.00   5530.38      0.00
                                0.00      0.00   5526.31

     local   stress (kbar)  -4523.49     -0.00     -0.00
                               -0.00  -1881.74      0.00
                               -0.00      0.00   -989.87

     nonloc. stress (kbar)   1143.31      0.00      0.00
                                0.00   1138.88      0.00
                                0.00      0.00   1142.07

     hartree stress (kbar)   3404.83     -0.00      0.00
                               -0.00   2187.69     -0.00
                                0.00     -0.00   1718.56

     exc-cor stress (kbar)   5446.64     -0.00     -0.00
                               -0.00   5446.22      0.00
                               -0.00      0.00   5446.69

     corecor stress (kbar)  -7212.53      0.00     -0.00
                                0.00  -7212.38     -0.00
                               -0.00     -0.00  -7212.41

     ewald   stress (kbar)  -3784.80      0.00     -0.00
                                0.00  -5212.16      0.00
                               -0.00      0.00  -5633.09

     hubbard stress (kbar)      0.00      0.00      0.00
                                0.00      0.00      0.00
                                0.00      0.00      0.00

     DFT-D   stress (kbar)      0.00      0.00      0.00
                                0.00      0.00      0.00
                                0.00      0.00      0.00

     XDM     stress (kbar)      0.00      0.00      0.00
                                0.00      0.00      0.00
                                0.00      0.00      0.00

     dft-nl  stress (kbar)      0.00      0.00      0.00
                                0.00      0.00      0.00
                                0.00      0.00      0.00

     TS-vdW  stress (kbar)      0.00      0.00      0.00
                                0.00      0.00      0.00
                                0.00      0.00      0.00



     Writing output data file ./out/CsSnI3.save/

     init_run     :     54.10s CPU     54.73s WALL (       1 calls)
     electrons    :   1960.68s CPU   1976.30s WALL (       1 calls)
     forces       :     42.52s CPU     42.89s WALL (       1 calls)
     stress       :     65.51s CPU     66.22s WALL (       1 calls)

     Called by init_run:
     wfcinit      :     46.44s CPU     46.67s WALL (       1 calls)
     wfcinit:atom :      0.12s CPU      0.12s WALL (       8 calls)
     wfcinit:wfcr :     45.64s CPU     45.84s WALL (       8 calls)
     potinit      :      2.13s CPU      2.17s WALL (       1 calls)
     hinit0       :      2.73s CPU      2.74s WALL (       1 calls)

     Called by electrons:
     c_bands      :   1739.17s CPU   1747.42s WALL (      12 calls)
     sum_band     :    188.11s CPU    192.27s WALL (      12 calls)
     v_of_rho     :      1.80s CPU      1.82s WALL (      12 calls)
     v_h          :      0.14s CPU      0.14s WALL (      12 calls)
     v_xc         :      1.95s CPU      1.97s WALL (      14 calls)
     newd         :     25.56s CPU     28.80s WALL (      12 calls)
     PAW_pot      :      8.28s CPU      8.39s WALL (      12 calls)
     mix_rho      :      0.51s CPU      0.58s WALL (      12 calls)

     Called by c_bands:
     init_us_2    :      7.53s CPU      7.59s WALL (     216 calls)
     cegterg      :   1723.17s CPU   1731.04s WALL (      96 calls)

     Called by sum_band:
     sum_band:wei :      0.00s CPU      0.00s WALL (      12 calls)
     sum_band:loo :    155.17s CPU    155.99s WALL (      12 calls)
     sum_band:buf :      0.74s CPU      0.86s WALL (      96 calls)
     sum_band:ini :      3.38s CPU      3.40s WALL (      96 calls)
     sum_band:cal :    100.71s CPU    100.98s WALL (      96 calls)
     sum_band:bec :      0.24s CPU      0.24s WALL (      96 calls)
     addusdens    :     32.31s CPU     35.63s WALL (      12 calls)
     addusd:skk   :      0.08s CPU      0.11s WALL (      36 calls)
     addusd:dgemm :     20.56s CPU     23.61s WALL (      36 calls)
     addusd:qvan2 :     10.65s CPU     10.68s WALL (      36 calls)

     Called by *egterg:
     cdiaghg      :     18.06s CPU     18.11s WALL (     566 calls)
     cegterg:over :    137.86s CPU    138.24s WALL (     478 calls)
     cegterg:upda :     98.54s CPU     98.97s WALL (     478 calls)
     cegterg:last :    248.33s CPU    248.93s WALL (     252 calls)
     h_psi        :    878.82s CPU    883.18s WALL (     582 calls)
     s_psi        :    324.09s CPU    324.81s WALL (     582 calls)
     g_psi        :      0.63s CPU      0.64s WALL (     478 calls)

     Called by h_psi:
     h_psi:calbec :    308.96s CPU    309.66s WALL (     582 calls)
     vloc_psi     :    243.20s CPU    245.33s WALL (     582 calls)
     add_vuspsi   :    324.57s CPU    325.27s WALL (     582 calls)

     General routines
     calbec       :    452.11s CPU    453.19s WALL (     718 calls)
     fft          :      1.28s CPU      1.31s WALL (     158 calls)
     ffts         :      0.10s CPU      0.10s WALL (      12 calls)
     fftw         :    248.24s CPU    250.30s WALL (   60962 calls)

     Parallel routines
     fft_scatt_xy :     27.33s CPU     27.46s WALL (   61132 calls)
     fft_scatt_yz :     46.21s CPU     46.72s WALL (   61132 calls)

     PAW routines
     PAW_pot      :      8.28s CPU      8.39s WALL (      12 calls)
     PAW_symme    :      0.05s CPU      0.05s WALL (      24 calls)

     PWSCF        :  35m26.53s CPU  36m 0.46s WALL


   This run was terminated on:  12:13:41  15Jan2021            

=------------------------------------------------------------------------------=
   JOB DONE.
=------------------------------------------------------------------------------=
