
     Program PWSCF v.6.4.1 starts on 23Jan2021 at 10:34:19 

     This program is part of the open-source Quantum ESPRESSO suite
     for quantum simulation of materials; please cite
         "P. Giannozzi et al., J. Phys.:Condens. Matter 21 395502 (2009);
         "P. Giannozzi et al., J. Phys.:Condens. Matter 29 465901 (2017);
          URL http://www.quantum-espresso.org", 
     in publications or presentations arising from this work. More details at
     http://www.quantum-espresso.org/quote

     Parallel version (MPI & OpenMP), running on      48 processor cores
     Number of MPI processes:                24
     Threads/MPI process:                     2

     MPI processes distributed on     1 nodes
     R & G space division:  proc/nbgrp/npool/nimage =      24
     Waiting for input...
     Reading input from standard input

     Current dimensions of program PWSCF are:
     Max number of different atomic species (ntypx) = 10
     Max number of k-points (npk) =  40000
     Max angular momentum in pseudopotentials (lmaxx) =  3
               file Cs.rel-pbesol-spn-kjpaw_psl.1.0.0.UPF: wavefunction(s)  5S 6S renormalized
               file Sn.rel-pbesol-dn-kjpaw_psl.1.0.0.UPF: wavefunction(s)  5S 5P 5P 4D 4D renormalized
               file I.rel-pbesol-n-kjpaw_psl.1.0.0.UPF: wavefunction(s)  5S renormalized

     Subspace diagonalization in iterative solution of the eigenvalue problem:
     one sub-group per band group will be used
     scalapack distributed-memory algorithm (size of sub-group:  3*  3 procs)

 
     Parallelization info
     --------------------
     sticks:   dense  smooth     PW     G-vecs:    dense   smooth      PW
     Min         222     147     38                30624    16663    2240
     Max         223     148     39                30632    16672    2253
     Sum        5329    3545    933               735059   400005   53931
 

     Title: 
     CsSnI3                                                                     


     bravais-lattice index     =            8
     lattice parameter (alat)  =       9.1317  a.u.
     unit-cell volume          =    6370.5385 (a.u.)^3
     number of atoms/cell      =           20
     number of atomic types    =            3
     number of electrons       =       176.00
     number of Kohn-Sham states=          176
     kinetic-energy cutoff     =      60.0000  Ry
     charge density cutoff     =     360.0000  Ry
     convergence threshold     =      1.0E-06
     mixing beta               =       0.3500
     number of iterations used =            8  plain     mixing
     Exchange-correlation      = SLA PW PSX PSC ( 1  4 10  8 0 0)
     Non magnetic calculation with spin-orbit


     celldm(1)=   9.131705  celldm(2)=   2.227728  celldm(3)=   3.755420
     celldm(4)=   0.000000  celldm(5)=   0.000000  celldm(6)=   0.000000

     crystal axes: (cart. coord. in units of alat)
               a(1) = (   1.000000   0.000000   0.000000 )  
               a(2) = (   0.000000   2.227728   0.000000 )  
               a(3) = (   0.000000   0.000000   3.755420 )  

     reciprocal axes: (cart. coord. in units 2 pi/alat)
               b(1) = (  1.000000  0.000000  0.000000 )  
               b(2) = (  0.000000  0.448888  0.000000 )  
               b(3) = (  0.000000  0.000000  0.266282 )  


     PseudoPot. # 1 for Cs read from file:
     /marconi_scratch/userexternal/cmalosso/degironcoli/pseudo/Cs.rel-pbesol-spn-kjpaw_psl.1.0.0.UPF
     MD5 check sum: 2adfb289dd462649b099d7edbec69378
     Pseudo is Projector augmented-wave + core cor, Zval =  9.0
     Generated using "atomic" code by A. Dal Corso v.6.4.1
     Shape of augmentation charge: PSQ
     Using radial grid of 1251 points, 15 beta functions with: 
                l(1) =   0
                l(2) =   0
                l(3) =   0
                l(4) =   1
                l(5) =   1
                l(6) =   1
                l(7) =   1
                l(8) =   2
                l(9) =   2
               l(10) =   2
               l(11) =   2
               l(12) =   3
               l(13) =   3
               l(14) =   3
               l(15) =   3
     Q(r) pseudized with 0 coefficients 


     PseudoPot. # 2 for Sn read from file:
     /marconi_scratch/userexternal/cmalosso/degironcoli/pseudo/Sn.rel-pbesol-dn-kjpaw_psl.1.0.0.UPF
     MD5 check sum: e69eff64f15ae39ad43ef58bacbfdf88
     Pseudo is Projector augmented-wave + core cor, Zval = 14.0
     Generated using "atomic" code by A. Dal Corso v.6.3
     Shape of augmentation charge: PSQ
     Using radial grid of 1243 points, 10 beta functions with: 
                l(1) =   0
                l(2) =   0
                l(3) =   1
                l(4) =   1
                l(5) =   1
                l(6) =   1
                l(7) =   2
                l(8) =   2
                l(9) =   2
               l(10) =   2
     Q(r) pseudized with 0 coefficients 


     PseudoPot. # 3 for I  read from file:
     /marconi_scratch/userexternal/cmalosso/degironcoli/pseudo/I.rel-pbesol-n-kjpaw_psl.1.0.0.UPF
     MD5 check sum: 4478c427bd443f303eca1937a163b991
     Pseudo is Projector augmented-wave + core cor, Zval =  7.0
     Generated using "atomic" code by A. Dal Corso v.6.3
     Shape of augmentation charge: PSQ
     Using radial grid of 1247 points, 10 beta functions with: 
                l(1) =   0
                l(2) =   0
                l(3) =   1
                l(4) =   1
                l(5) =   1
                l(6) =   1
                l(7) =   2
                l(8) =   2
                l(9) =   2
               l(10) =   2
     Q(r) pseudized with 0 coefficients 


     atomic species   valence    mass     pseudopotential
        Cs             9.00   132.90000     Cs( 1.00)
        Sn            14.00   118.70000     Sn( 1.00)
        I              7.00   126.90000     I ( 1.00)

      8 Sym. Ops., with inversion, found ( 6 have fractional translation)


                                    s                        frac. trans.

      isym =  1     identity                                     

 cryst.   s( 1) = (     1          0          0      )
                  (     0          1          0      )
                  (     0          0          1      )

 cart.    s( 1) = (  1.0000000  0.0000000  0.0000000 )
                  (  0.0000000  1.0000000  0.0000000 )
                  (  0.0000000  0.0000000  1.0000000 )


      isym =  2     180 deg rotation - cart. axis [0,0,1]        

 cryst.   s( 2) = (    -1          0          0      )    f =(  0.0000000 )
                  (     0         -1          0      )       (  0.5000000 )
                  (     0          0          1      )       (  0.5000000 )

 cart.    s( 2) = ( -1.0000000  0.0000000  0.0000000 )    f =(  0.0000000 )
                  (  0.0000000 -1.0000000  0.0000000 )       (  1.1138638 )
                  (  0.0000000  0.0000000  1.0000000 )       (  1.8777098 )


      isym =  3     180 deg rotation - cart. axis [0,1,0]        

 cryst.   s( 3) = (    -1          0          0      )    f =(  0.5000000 )
                  (     0          1          0      )       ( -0.5000000 )
                  (     0          0         -1      )       ( -0.5000000 )

 cart.    s( 3) = ( -1.0000000  0.0000000  0.0000000 )    f =(  0.5000000 )
                  (  0.0000000  1.0000000  0.0000000 )       ( -1.1138638 )
                  (  0.0000000  0.0000000 -1.0000000 )       ( -1.8777098 )


      isym =  4     180 deg rotation - cart. axis [1,0,0]        

 cryst.   s( 4) = (     1          0          0      )    f =( -0.5000000 )
                  (     0         -1          0      )       (  0.0000000 )
                  (     0          0         -1      )       (  0.0000000 )

 cart.    s( 4) = (  1.0000000  0.0000000  0.0000000 )    f =( -0.5000000 )
                  (  0.0000000 -1.0000000  0.0000000 )       (  0.0000000 )
                  (  0.0000000  0.0000000 -1.0000000 )       (  0.0000000 )


      isym =  5     inversion                                    

 cryst.   s( 5) = (    -1          0          0      )
                  (     0         -1          0      )
                  (     0          0         -1      )

 cart.    s( 5) = ( -1.0000000  0.0000000  0.0000000 )
                  (  0.0000000 -1.0000000  0.0000000 )
                  (  0.0000000  0.0000000 -1.0000000 )


      isym =  6     inv. 180 deg rotation - cart. axis [0,0,1]   

 cryst.   s( 6) = (     1          0          0      )    f =(  0.0000000 )
                  (     0          1          0      )       ( -0.5000000 )
                  (     0          0         -1      )       ( -0.5000000 )

 cart.    s( 6) = (  1.0000000  0.0000000  0.0000000 )    f =(  0.0000000 )
                  (  0.0000000  1.0000000  0.0000000 )       ( -1.1138638 )
                  (  0.0000000  0.0000000 -1.0000000 )       ( -1.8777098 )


      isym =  7     inv. 180 deg rotation - cart. axis [0,1,0]   

 cryst.   s( 7) = (     1          0          0      )    f =( -0.5000000 )
                  (     0         -1          0      )       (  0.5000000 )
                  (     0          0          1      )       (  0.5000000 )

 cart.    s( 7) = (  1.0000000  0.0000000  0.0000000 )    f =( -0.5000000 )
                  (  0.0000000 -1.0000000  0.0000000 )       (  1.1138638 )
                  (  0.0000000  0.0000000  1.0000000 )       (  1.8777098 )


      isym =  8     inv. 180 deg rotation - cart. axis [1,0,0]   

 cryst.   s( 8) = (    -1          0          0      )    f =(  0.5000000 )
                  (     0          1          0      )       (  0.0000000 )
                  (     0          0          1      )       (  0.0000000 )

 cart.    s( 8) = ( -1.0000000  0.0000000  0.0000000 )    f =(  0.5000000 )
                  (  0.0000000  1.0000000  0.0000000 )       (  0.0000000 )
                  (  0.0000000  0.0000000  1.0000000 )       (  0.0000000 )


     double point group D_2h (mmm) 
     there are 10 classes and  2 irreducible representations
     the character table:

       E     -E     C2    C2'  C2''  i     -i     s_v   s_v' s_v''
                   -C2   -C2'  -C2''             -s_v  -s_v' -s_v'
G_5+   2.00 -2.00  0.00  0.00  0.00  2.00 -2.00  0.00  0.00  0.00
G_5-   2.00 -2.00  0.00  0.00  0.00 -2.00  2.00  0.00  0.00  0.00

     the symmetry operations in each class and the name of the first element:

     E             1
          identity                                               
     -E           -1
          identity E                                             
      C2  -C2      2   -2
          180 deg rotation - cart. axis [0,0,1]                  
      C2' -C2'     4   -4
          180 deg rotation - cart. axis [1,0,0]                  
     C2'' -C2''    3   -3
          180 deg rotation - cart. axis [0,1,0]                  
     i             5
          inversion                                              
     -i           -5
          inversion E                                            
      s_v -s_v     6   -6
          inv. 180 deg rotation - cart. axis [0,0,1]             
      s_v'-s_v'    8   -8
          inv. 180 deg rotation - cart. axis [1,0,0]             
     s_v''-s_v'    7   -7
          inv. 180 deg rotation - cart. axis [0,1,0]             

   Cartesian axes

     site n.     atom                  positions (alat units)
         1           Cs  tau(   1) = (   0.2500000   0.1859640   2.5168147  )
         2           Cs  tau(   2) = (   0.7500000   2.0417636   1.2386050  )
         3           Cs  tau(   3) = (   0.2500000   1.2998278   3.1163149  )
         4           Cs  tau(   4) = (   0.7500000   0.9278998   0.6391048  )
         5           Sn  tau(   5) = (   0.2500000   0.7615710   1.6485466  )
         6           Sn  tau(   6) = (   0.7500000   1.4661567   2.1068731  )
         7           Sn  tau(   7) = (   0.2500000   1.8754348   0.2291632  )
         8           Sn  tau(   8) = (   0.7500000   0.3522928   3.5262565  )
         9           I   tau(   9) = (   0.7500000   0.0581437   0.4202578  )
        10           I   tau(  10) = (   0.2500000   2.1695839   3.3351619  )
        11           I   tau(  11) = (   0.7500000   1.1720075   1.4574521  )
        12           I   tau(  12) = (   0.2500000   1.0557201   2.2979676  )
        13           I   tau(  13) = (   0.7500000   0.6531118   2.9738192  )
        14           I   tau(  14) = (   0.2500000   1.5746158   0.7816005  )
        15           I   tau(  15) = (   0.7500000   1.7669756   2.6593103  )
        16           I   tau(  16) = (   0.2500000   0.4607520   1.0961094  )
        17           I   tau(  17) = (   0.7500000   0.3753632   1.8734812  )
        18           I   tau(  18) = (   0.2500000   1.8523644   1.8819384  )
        19           I   tau(  19) = (   0.7500000   1.4892270   0.0042286  )
        20           I   tau(  20) = (   0.2500000   0.7385006   3.7511911  )

   Crystallographic axes

     site n.     atom                  positions (cryst. coord.)
         1           Cs  tau(   1) = (  0.2500000  0.0834770  0.6701820  )
         2           Cs  tau(   2) = (  0.7500000  0.9165230  0.3298180  )
         3           Cs  tau(   3) = (  0.2500000  0.5834770  0.8298180  )
         4           Cs  tau(   4) = (  0.7500000  0.4165230  0.1701820  )
         5           Sn  tau(   5) = (  0.2500000  0.3418600  0.4389780  )
         6           Sn  tau(   6) = (  0.7500000  0.6581400  0.5610220  )
         7           Sn  tau(   7) = (  0.2500000  0.8418600  0.0610220  )
         8           Sn  tau(   8) = (  0.7500000  0.1581400  0.9389780  )
         9           I   tau(   9) = (  0.7500000  0.0261000  0.1119070  )
        10           I   tau(  10) = (  0.2500000  0.9739000  0.8880930  )
        11           I   tau(  11) = (  0.7500000  0.5261000  0.3880930  )
        12           I   tau(  12) = (  0.2500000  0.4739000  0.6119070  )
        13           I   tau(  13) = (  0.7500000  0.2931740  0.7918740  )
        14           I   tau(  14) = (  0.2500000  0.7068260  0.2081260  )
        15           I   tau(  15) = (  0.7500000  0.7931740  0.7081260  )
        16           I   tau(  16) = (  0.2500000  0.2068260  0.2918740  )
        17           I   tau(  17) = (  0.7500000  0.1684960  0.4988740  )
        18           I   tau(  18) = (  0.2500000  0.8315040  0.5011260  )
        19           I   tau(  19) = (  0.7500000  0.6684960  0.0011260  )
        20           I   tau(  20) = (  0.2500000  0.3315040  0.9988740  )

     number of k points=     1
                       cart. coord. in units 2pi/alat
        k(    1) = (   0.2500000   0.1122220   0.0665705), wk =   1.0000000

                       cryst. coord.
        k(    1) = (   0.2500000   0.2500000   0.2500000), wk =   1.0000000

     Dense  grid:   735059 G-vectors     FFT dimensions: (  60, 128, 216)

     Smooth grid:   400005 G-vectors     FFT dimensions: (  48, 108, 180)

     Dynamical RAM for                 wfc:      11.19 MB

     Dynamical RAM for     wfc (w. buffer):      11.19 MB

     Dynamical RAM for           str. fact:       1.40 MB

     Dynamical RAM for           local pot:       0.00 MB

     Dynamical RAM for          nlocal pot:      25.30 MB

     Dynamical RAM for                qrad:      53.08 MB

     Dynamical RAM for          rho,v,vnew:      11.94 MB

     Dynamical RAM for               rhoin:       3.98 MB

     Dynamical RAM for            rho*nmix:      29.91 MB

     Dynamical RAM for           G-vectors:       1.88 MB

     Dynamical RAM for          h,s,v(r/c):       2.51 MB

     Dynamical RAM for          <psi|beta>:       4.28 MB

     Dynamical RAM for                 psi:      44.75 MB

     Dynamical RAM for                hpsi:      44.75 MB

     Dynamical RAM for                spsi:      44.75 MB

     Dynamical RAM for      wfcinit/wfcrot:      20.83 MB

     Dynamical RAM for           addusdens:     960.40 MB

     Dynamical RAM for          addusforce:     983.05 MB

     Dynamical RAM for         addusstress:     968.81 MB

     Estimated static dynamical RAM per process >     144.77 MB

     Estimated max dynamical RAM per process >       1.10 GB

     Estimated total dynamical RAM >      26.43 GB

     Initial potential from superposition of free atoms

     starting charge  175.84163, renormalised to  176.00000
     Starting wfcs are  208 randomized atomic wfcs
     Checking if some PAW data can be deallocated... 
       PAW data deallocated on   16 nodes for type:  1
       PAW data deallocated on   20 nodes for type:  2
       PAW data deallocated on   12 nodes for type:  3

     total cpu time spent up to now is       27.8 secs

     Self-consistent Calculation

     iteration #  1     ecut=    60.00 Ry     beta= 0.35
     Davidson diagonalization with overlap
     ethr =  1.00E-02,  avg # of iterations =  1.0

     Threshold (ethr) on eigenvalues was too large:
     Diagonalizing with lowered threshold

     Davidson diagonalization with overlap
     ethr =  3.16E-04,  avg # of iterations = 13.0

     negative rho (up, down):  1.880E+03 0.000E+00

     total cpu time spent up to now is      121.6 secs

     total energy              =  -11080.23695343 Ry
     Harris-Foulkes estimate   =   -7900.61599450 Ry
     estimated scf accuracy    < 6167065.72077965 Ry

     iteration #  2     ecut=    60.00 Ry     beta= 0.35
     Davidson diagonalization with overlap
     ethr =  1.00E-02,  avg # of iterations = 23.0

     negative rho (up, down):  2.502E+03 0.000E+00

     total cpu time spent up to now is      254.5 secs

     total energy              =  -51321.49544829 Ry
     Harris-Foulkes estimate   =  -39799.74568190 Ry
     estimated scf accuracy    <  466074.20325026 Ry

     iteration #  3     ecut=    60.00 Ry     beta= 0.35
     Davidson diagonalization with overlap
     ethr =  1.00E-02,  avg # of iterations =  8.0

     negative rho (up, down):  5.599E+03 0.000E+00

     total cpu time spent up to now is      324.0 secs

     total energy              = -107299.27722008 Ry
     Harris-Foulkes estimate   =  -73679.53904716 Ry
     estimated scf accuracy    < 2903645.52348332 Ry

     iteration #  4     ecut=    60.00 Ry     beta= 0.35
     Davidson diagonalization with overlap
     ethr =  1.00E-02,  avg # of iterations = 40.0

     negative rho (up, down):  5.610E+03 0.000E+00

     total cpu time spent up to now is      453.6 secs

     total energy              = -105576.80661028 Ry
     Harris-Foulkes estimate   = -107892.35530480 Ry
     estimated scf accuracy    <   92953.55293517 Ry

     iteration #  5     ecut=    60.00 Ry     beta= 0.35
     Davidson diagonalization with overlap
     ethr =  1.00E-02,  avg # of iterations =  3.0

     negative rho (up, down):  7.136E+03 0.000E+00

     total cpu time spent up to now is      496.6 secs

     total energy              = -101692.63335305 Ry
     Harris-Foulkes estimate   = -105595.96556016 Ry
     estimated scf accuracy    <   80192.48936305 Ry

     iteration #  6     ecut=    60.00 Ry     beta= 0.35
     Davidson diagonalization with overlap
     ethr =  1.00E-02,  avg # of iterations = 16.0

     negative rho (up, down):  7.952E+03 0.000E+00

     total cpu time spent up to now is      577.1 secs

     total energy              = -104714.16696898 Ry
     Harris-Foulkes estimate   = -103241.20132101 Ry
     estimated scf accuracy    <  235801.29481236 Ry

     iteration #  7     ecut=    60.00 Ry     beta= 0.35
     Davidson diagonalization with overlap
     ethr =  1.00E-02,  avg # of iterations =  4.0

     negative rho (up, down):  4.998E+03 0.000E+00

     total cpu time spent up to now is      627.5 secs

     total energy              = -101505.19497993 Ry
     Harris-Foulkes estimate   = -104764.89023666 Ry
     estimated scf accuracy    <  769117.15925056 Ry

     iteration #  8     ecut=    60.00 Ry     beta= 0.35
     Davidson diagonalization with overlap
     ethr =  1.00E-02,  avg # of iterations =  5.0

     negative rho (up, down):  6.253E+03 0.000E+00

     total cpu time spent up to now is      688.5 secs

     total energy              = -102056.65304307 Ry
     Harris-Foulkes estimate   = -102153.61295032 Ry
     estimated scf accuracy    <  298945.74509926 Ry

     iteration #  9     ecut=    60.00 Ry     beta= 0.35
     Davidson diagonalization with overlap
     ethr =  1.00E-02,  avg # of iterations =  5.0

     negative rho (up, down):  6.230E+03 0.000E+00

     total cpu time spent up to now is      744.3 secs

     total energy              = -102206.02940239 Ry
     Harris-Foulkes estimate   = -102199.59239110 Ry
     estimated scf accuracy    <    3982.92564764 Ry

     iteration # 10     ecut=    60.00 Ry     beta= 0.35
     Davidson diagonalization with overlap
     ethr =  1.00E-02,  avg # of iterations =  1.0

     negative rho (up, down):  5.921E+03 0.000E+00

     total cpu time spent up to now is      780.5 secs

     total energy              = -102195.36568784 Ry
     Harris-Foulkes estimate   = -102206.07279623 Ry
     estimated scf accuracy    <    2781.80574221 Ry

     iteration # 11     ecut=    60.00 Ry     beta= 0.35
     Davidson diagonalization with overlap
     ethr =  1.00E-02,  avg # of iterations =  4.0

     negative rho (up, down):  6.130E+03 0.000E+00

     total cpu time spent up to now is      829.9 secs

     total energy              = -102196.00823867 Ry
     Harris-Foulkes estimate   = -102212.23726794 Ry
     estimated scf accuracy    <    9699.98609481 Ry

     iteration # 12     ecut=    60.00 Ry     beta= 0.35
     Davidson diagonalization with overlap
     ethr =  1.00E-02,  avg # of iterations =  3.0

     negative rho (up, down):  6.121E+03 0.000E+00

     total cpu time spent up to now is      876.8 secs

     total energy              = -102188.35271677 Ry
     Harris-Foulkes estimate   = -102204.74843709 Ry
     estimated scf accuracy    <      19.63516106 Ry

     iteration # 13     ecut=    60.00 Ry     beta= 0.35
     Davidson diagonalization with overlap
     ethr =  1.00E-02,  avg # of iterations =  4.0

     negative rho (up, down):  6.117E+03 0.000E+00

     total cpu time spent up to now is      921.7 secs

     total energy              = -102206.17046044 Ry
     Harris-Foulkes estimate   = -102208.46203550 Ry
     estimated scf accuracy    <       7.99128862 Ry

     iteration # 14     ecut=    60.00 Ry     beta= 0.35
     Davidson diagonalization with overlap
     ethr =  4.54E-03,  avg # of iterations =  4.0

     negative rho (up, down):  6.121E+03 0.000E+00

     total cpu time spent up to now is      964.8 secs

     total energy              = -102191.84339196 Ry
     Harris-Foulkes estimate   = -102210.28373554 Ry
     estimated scf accuracy    <     230.04282276 Ry

     iteration # 15     ecut=    60.00 Ry     beta= 0.35
     Davidson diagonalization with overlap
     ethr =  4.54E-03,  avg # of iterations =  4.0

     negative rho (up, down):  6.120E+03 0.000E+00

     total cpu time spent up to now is     1013.2 secs

     total energy              = -102205.85312164 Ry
     Harris-Foulkes estimate   = -102205.56323360 Ry
     estimated scf accuracy    <     165.59696552 Ry

     iteration # 16     ecut=    60.00 Ry     beta= 0.35
     Davidson diagonalization with overlap
     ethr =  4.54E-03,  avg # of iterations =  1.0

     negative rho (up, down):  6.120E+03 0.000E+00

     total cpu time spent up to now is     1047.3 secs

     total energy              = -102206.12616847 Ry
     Harris-Foulkes estimate   = -102205.88627057 Ry
     estimated scf accuracy    <     167.76211064 Ry

     iteration # 17     ecut=    60.00 Ry     beta= 0.35
     Davidson diagonalization with overlap
     ethr =  4.54E-03,  avg # of iterations =  2.0

     negative rho (up, down):  6.120E+03 0.000E+00

     total cpu time spent up to now is     1082.7 secs

     total energy              = -102206.91929043 Ry
     Harris-Foulkes estimate   = -102206.85585999 Ry
     estimated scf accuracy    <     128.76271402 Ry

     iteration # 18     ecut=    60.00 Ry     beta= 0.35
     Davidson diagonalization with overlap
     ethr =  4.54E-03,  avg # of iterations =  1.0

     negative rho (up, down):  6.120E+03 0.000E+00

     total cpu time spent up to now is     1110.8 secs

     total energy              = -102206.64000407 Ry
     Harris-Foulkes estimate   = -102206.96850628 Ry
     estimated scf accuracy    <     140.83565806 Ry

     iteration # 19     ecut=    60.00 Ry     beta= 0.35
     Davidson diagonalization with overlap
     ethr =  4.54E-03,  avg # of iterations =  1.0

     negative rho (up, down):  6.120E+03 0.000E+00

     total cpu time spent up to now is     1140.9 secs

     total energy              = -102206.79916864 Ry
     Harris-Foulkes estimate   = -102206.69292457 Ry
     estimated scf accuracy    <     168.10005977 Ry

     iteration # 20     ecut=    60.00 Ry     beta= 0.35
     Davidson diagonalization with overlap
     ethr =  4.54E-03,  avg # of iterations =  1.0

     negative rho (up, down):  6.120E+03 0.000E+00

     total cpu time spent up to now is     1166.1 secs

     total energy              = -102206.41840012 Ry
     Harris-Foulkes estimate   = -102206.87286780 Ry
     estimated scf accuracy    <     104.30353540 Ry

     iteration # 21     ecut=    60.00 Ry     beta= 0.35
     Davidson diagonalization with overlap
     ethr =  4.54E-03,  avg # of iterations =  1.0

     negative rho (up, down):  6.119E+03 0.000E+00

     total cpu time spent up to now is     1196.4 secs

     total energy              = -102204.10364899 Ry
     Harris-Foulkes estimate   = -102206.51634387 Ry
     estimated scf accuracy    <     174.01075120 Ry

     iteration # 22     ecut=    60.00 Ry     beta= 0.35
     Davidson diagonalization with overlap
     ethr =  4.54E-03,  avg # of iterations =  4.0

     negative rho (up, down):  6.119E+03 0.000E+00

     total cpu time spent up to now is     1234.8 secs

     total energy              = -102209.06934986 Ry
     Harris-Foulkes estimate   = -102209.42884621 Ry
     estimated scf accuracy    <      61.11540478 Ry

     iteration # 23     ecut=    60.00 Ry     beta= 0.35
     Davidson diagonalization with overlap
     ethr =  4.54E-03,  avg # of iterations =  2.0

     negative rho (up, down):  6.119E+03 0.000E+00

     total cpu time spent up to now is     1262.6 secs

     total energy              = -102208.69861474 Ry
     Harris-Foulkes estimate   = -102209.17231824 Ry
     estimated scf accuracy    <      29.55993060 Ry

     iteration # 24     ecut=    60.00 Ry     beta= 0.35
     Davidson diagonalization with overlap
     ethr =  4.54E-03,  avg # of iterations =  1.0

     negative rho (up, down):  6.119E+03 0.000E+00

     total cpu time spent up to now is     1292.5 secs

     total energy              = -102208.53292133 Ry
     Harris-Foulkes estimate   = -102208.76801782 Ry
     estimated scf accuracy    <       0.30638589 Ry

     iteration # 25     ecut=    60.00 Ry     beta= 0.35
     Davidson diagonalization with overlap
     ethr =  1.74E-04,  avg # of iterations =  4.0

     negative rho (up, down):  6.119E+03 0.000E+00

     total cpu time spent up to now is     1327.0 secs

     total energy              = -102208.49050764 Ry
     Harris-Foulkes estimate   = -102208.66115382 Ry
     estimated scf accuracy    <       2.59760959 Ry

     iteration # 26     ecut=    60.00 Ry     beta= 0.35
     Davidson diagonalization with overlap
     ethr =  1.74E-04,  avg # of iterations =  2.0

     negative rho (up, down):  6.119E+03 0.000E+00

     total cpu time spent up to now is     1359.1 secs

     total energy              = -102208.66646951 Ry
     Harris-Foulkes estimate   = -102208.51582704 Ry
     estimated scf accuracy    <       9.90702137 Ry

     iteration # 27     ecut=    60.00 Ry     beta= 0.35
     Davidson diagonalization with overlap
     ethr =  1.74E-04,  avg # of iterations =  4.0

     negative rho (up, down):  6.119E+03 0.000E+00

     total cpu time spent up to now is     1401.3 secs

     total energy              = -102208.57856719 Ry
     Harris-Foulkes estimate   = -102208.91721384 Ry
     estimated scf accuracy    <       0.43704918 Ry

     iteration # 28     ecut=    60.00 Ry     beta= 0.35
     Davidson diagonalization with overlap
     ethr =  1.74E-04,  avg # of iterations =  4.0

     negative rho (up, down):  6.119E+03 0.000E+00

     total cpu time spent up to now is     1432.1 secs

     total energy              = -102208.77279639 Ry
     Harris-Foulkes estimate   = -102208.68642884 Ry
     estimated scf accuracy    <       5.75281244 Ry

     iteration # 29     ecut=    60.00 Ry     beta= 0.35
     Davidson diagonalization with overlap
     ethr =  1.74E-04,  avg # of iterations =  2.0

     negative rho (up, down):  6.119E+03 0.000E+00

     total cpu time spent up to now is     1461.0 secs

     total energy              = -102208.82181985 Ry
     Harris-Foulkes estimate   = -102208.80448759 Ry
     estimated scf accuracy    <       8.48244313 Ry

     iteration # 30     ecut=    60.00 Ry     beta= 0.35
     Davidson diagonalization with overlap
     ethr =  1.74E-04,  avg # of iterations =  3.0

     negative rho (up, down):  6.119E+03 0.000E+00

     total cpu time spent up to now is     1498.3 secs

     total energy              = -102208.83016524 Ry
     Harris-Foulkes estimate   = -102208.98073639 Ry
     estimated scf accuracy    <       4.03643776 Ry

     iteration # 31     ecut=    60.00 Ry     beta= 0.35
     Davidson diagonalization with overlap
     ethr =  1.74E-04,  avg # of iterations =  4.0

     negative rho (up, down):  6.119E+03 0.000E+00

     total cpu time spent up to now is     1532.9 secs

     total energy              = -102208.99023272 Ry
     Harris-Foulkes estimate   = -102209.00118014 Ry
     estimated scf accuracy    <       0.62065729 Ry

     iteration # 32     ecut=    60.00 Ry     beta= 0.35
     Davidson diagonalization with overlap
     ethr =  1.74E-04,  avg # of iterations =  3.0

     negative rho (up, down):  6.119E+03 0.000E+00

     total cpu time spent up to now is     1563.0 secs

     total energy              = -102209.02310494 Ry
     Harris-Foulkes estimate   = -102209.02541541 Ry
     estimated scf accuracy    <       2.74835605 Ry

     iteration # 33     ecut=    60.00 Ry     beta= 0.35
     Davidson diagonalization with overlap
     ethr =  1.74E-04,  avg # of iterations =  1.0

     negative rho (up, down):  6.119E+03 0.000E+00

     total cpu time spent up to now is     1589.7 secs

     total energy              = -102208.95710765 Ry
     Harris-Foulkes estimate   = -102209.02547739 Ry
     estimated scf accuracy    <       1.77479953 Ry

     iteration # 34     ecut=    60.00 Ry     beta= 0.35
     Davidson diagonalization with overlap
     ethr =  1.74E-04,  avg # of iterations =  2.0

     negative rho (up, down):  6.119E+03 0.000E+00

     total cpu time spent up to now is     1619.7 secs

     total energy              = -102208.99591241 Ry
     Harris-Foulkes estimate   = -102208.98960871 Ry
     estimated scf accuracy    <       3.69679024 Ry

     iteration # 35     ecut=    60.00 Ry     beta= 0.35
     Davidson diagonalization with overlap
     ethr =  1.74E-04,  avg # of iterations =  2.0

     negative rho (up, down):  6.119E+03 0.000E+00

     total cpu time spent up to now is     1643.3 secs

     total energy              = -102209.01336794 Ry
     Harris-Foulkes estimate   = -102209.01527509 Ry
     estimated scf accuracy    <       0.73323606 Ry

     iteration # 36     ecut=    60.00 Ry     beta= 0.35
     Davidson diagonalization with overlap
     ethr =  1.74E-04,  avg # of iterations =  1.0

     negative rho (up, down):  6.119E+03 0.000E+00

     total cpu time spent up to now is     1668.0 secs

     total energy              = -102209.01307227 Ry
     Harris-Foulkes estimate   = -102209.01496578 Ry
     estimated scf accuracy    <       0.59097260 Ry

     iteration # 37     ecut=    60.00 Ry     beta= 0.35
     Davidson diagonalization with overlap
     ethr =  1.74E-04,  avg # of iterations =  1.0

     negative rho (up, down):  6.119E+03 0.000E+00

     total cpu time spent up to now is     1694.8 secs

     total energy              = -102209.01030874 Ry
     Harris-Foulkes estimate   = -102209.01394744 Ry
     estimated scf accuracy    <       0.32399825 Ry

     iteration # 38     ecut=    60.00 Ry     beta= 0.35
     Davidson diagonalization with overlap
     ethr =  1.74E-04,  avg # of iterations =  1.0

     negative rho (up, down):  6.119E+03 0.000E+00

     total cpu time spent up to now is     1722.6 secs

     total energy              = -102209.00774461 Ry
     Harris-Foulkes estimate   = -102209.01176947 Ry
     estimated scf accuracy    <       0.28831488 Ry

     iteration # 39     ecut=    60.00 Ry     beta= 0.35
     Davidson diagonalization with overlap
     ethr =  1.64E-04,  avg # of iterations =  1.0

     negative rho (up, down):  6.119E+03 0.000E+00

     total cpu time spent up to now is     1745.0 secs

     total energy              = -102209.01215493 Ry
     Harris-Foulkes estimate   = -102209.01257415 Ry
     estimated scf accuracy    <       0.00331253 Ry

     iteration # 40     ecut=    60.00 Ry     beta= 0.35
     Davidson diagonalization with overlap
     ethr =  1.88E-06,  avg # of iterations =  4.0

     negative rho (up, down):  6.119E+03 0.000E+00

     total cpu time spent up to now is     1779.4 secs

     total energy              = -102209.01528959 Ry
     Harris-Foulkes estimate   = -102209.01564708 Ry
     estimated scf accuracy    <       0.00467167 Ry

     iteration # 41     ecut=    60.00 Ry     beta= 0.35
     Davidson diagonalization with overlap
     ethr =  1.88E-06,  avg # of iterations =  2.0

     negative rho (up, down):  6.119E+03 0.000E+00

     total cpu time spent up to now is     1809.4 secs

     total energy              = -102209.01540392 Ry
     Harris-Foulkes estimate   = -102209.01534788 Ry
     estimated scf accuracy    <       0.00184073 Ry

     iteration # 42     ecut=    60.00 Ry     beta= 0.35
     Davidson diagonalization with overlap
     ethr =  1.05E-06,  avg # of iterations =  1.0

     negative rho (up, down):  6.119E+03 0.000E+00

     total cpu time spent up to now is     1835.3 secs

     total energy              = -102209.01491830 Ry
     Harris-Foulkes estimate   = -102209.01541147 Ry
     estimated scf accuracy    <       0.00406863 Ry

     iteration # 43     ecut=    60.00 Ry     beta= 0.35
     Davidson diagonalization with overlap
     ethr =  1.05E-06,  avg # of iterations =  2.0

     negative rho (up, down):  6.119E+03 0.000E+00

     total cpu time spent up to now is     1860.7 secs

     total energy              = -102209.01489141 Ry
     Harris-Foulkes estimate   = -102209.01500215 Ry
     estimated scf accuracy    <       0.00175460 Ry

     iteration # 44     ecut=    60.00 Ry     beta= 0.35
     Davidson diagonalization with overlap
     ethr =  9.97E-07,  avg # of iterations =  1.0

     negative rho (up, down):  6.119E+03 0.000E+00

     total cpu time spent up to now is     1885.8 secs

     total energy              = -102209.01483772 Ry
     Harris-Foulkes estimate   = -102209.01491082 Ry
     estimated scf accuracy    <       0.00021812 Ry

     iteration # 45     ecut=    60.00 Ry     beta= 0.35
     Davidson diagonalization with overlap
     ethr =  1.24E-07,  avg # of iterations =  5.0

     negative rho (up, down):  6.119E+03 0.000E+00

     total cpu time spent up to now is     1922.8 secs

     total energy              = -102209.01488364 Ry
     Harris-Foulkes estimate   = -102209.01489092 Ry
     estimated scf accuracy    <       0.00000301 Ry

     iteration # 46     ecut=    60.00 Ry     beta= 0.35
     Davidson diagonalization with overlap
     ethr =  1.71E-09,  avg # of iterations =  5.0

     negative rho (up, down):  6.119E+03 0.000E+00

     total cpu time spent up to now is     1959.1 secs

     total energy              = -102209.01486380 Ry
     Harris-Foulkes estimate   = -102209.01488972 Ry
     estimated scf accuracy    <       0.00000344 Ry

     iteration # 47     ecut=    60.00 Ry     beta= 0.35
     Davidson diagonalization with overlap
     ethr =  1.71E-09,  avg # of iterations =  3.0

     negative rho (up, down):  6.119E+03 0.000E+00

     total cpu time spent up to now is     1985.2 secs

     total energy              = -102209.01483393 Ry
     Harris-Foulkes estimate   = -102209.01486420 Ry
     estimated scf accuracy    <       0.00000229 Ry

     iteration # 48     ecut=    60.00 Ry     beta= 0.35
     Davidson diagonalization with overlap
     ethr =  1.30E-09,  avg # of iterations =  3.0

     negative rho (up, down):  6.119E+03 0.000E+00

     total cpu time spent up to now is     2023.6 secs

     total energy              = -102209.01463753 Ry
     Harris-Foulkes estimate   = -102209.01483433 Ry
     estimated scf accuracy    <       0.00000482 Ry

     iteration # 49     ecut=    60.00 Ry     beta= 0.35
     Davidson diagonalization with overlap
     ethr =  1.30E-09,  avg # of iterations =  4.0

     negative rho (up, down):  6.119E+03 0.000E+00

     total cpu time spent up to now is     2062.1 secs

     total energy              = -102209.01450194 Ry
     Harris-Foulkes estimate   = -102209.01465070 Ry
     estimated scf accuracy    <       0.00001755 Ry

     iteration # 50     ecut=    60.00 Ry     beta= 0.35
     Davidson diagonalization with overlap
     ethr =  1.30E-09,  avg # of iterations =  4.0

     negative rho (up, down):  6.119E+03 0.000E+00

     total cpu time spent up to now is     2102.2 secs

     total energy              = -102209.01444778 Ry
     Harris-Foulkes estimate   = -102209.01450973 Ry
     estimated scf accuracy    <       0.00000646 Ry

     iteration # 51     ecut=    60.00 Ry     beta= 0.35
     Davidson diagonalization with overlap
     ethr =  1.30E-09,  avg # of iterations =  3.0

     negative rho (up, down):  6.119E+03 0.000E+00

     total cpu time spent up to now is     2141.7 secs

     total energy              = -102209.01445454 Ry
     Harris-Foulkes estimate   = -102209.01444911 Ry
     estimated scf accuracy    <       0.00000232 Ry

     iteration # 52     ecut=    60.00 Ry     beta= 0.35
     Davidson diagonalization with overlap
     ethr =  1.30E-09,  avg # of iterations =  1.0

     negative rho (up, down):  6.119E+03 0.000E+00

     total cpu time spent up to now is     2165.1 secs

     total energy              = -102209.01444460 Ry
     Harris-Foulkes estimate   = -102209.01445456 Ry
     estimated scf accuracy    <       0.00000195 Ry

     iteration # 53     ecut=    60.00 Ry     beta= 0.35
     Davidson diagonalization with overlap
     ethr =  1.11E-09,  avg # of iterations =  2.0

     negative rho (up, down):  6.119E+03 0.000E+00

     total cpu time spent up to now is     2193.0 secs

     End of self-consistent calculation

          k = 0.2500 0.1122 0.0666 ( 49977 PWs)   bands (ev):

  ************************************************************************
  ************************************************************************
  ************************************************************************
  ************************************************************************
  ************************************************************************
  ************************************************************************
  ************************************************************************
  ************************************************************************
  ************************************************************************
  ************************************************************************
  ************************************************************************
  ************************************************************************
  ************************************************************************
  ************************************************************************
  ************************************************************************
  ************************************************************************
  ************************************************************************
  ************************************************************************
  ************************************************************************
  ************************************************************************
  -635.4680-635.4680-634.6026-634.6026-633.1584-633.1584-632.2434-632.2434
  -586.1489-586.1489-584.9994-584.9994-583.4947-583.4947-582.7822-582.7822

     occupation numbers 
     1.0000   1.0000   1.0000   1.0000   1.0000   1.0000   1.0000   1.0000
     1.0000   1.0000   1.0000   1.0000   1.0000   1.0000   1.0000   1.0000
     1.0000   1.0000   1.0000   1.0000   1.0000   1.0000   1.0000   1.0000
     1.0000   1.0000   1.0000   1.0000   1.0000   1.0000   1.0000   1.0000
     1.0000   1.0000   1.0000   1.0000   1.0000   1.0000   1.0000   1.0000
     1.0000   1.0000   1.0000   1.0000   1.0000   1.0000   1.0000   1.0000
     1.0000   1.0000   1.0000   1.0000   1.0000   1.0000   1.0000   1.0000
     1.0000   1.0000   1.0000   1.0000   1.0000   1.0000   1.0000   1.0000
     1.0000   1.0000   1.0000   1.0000   1.0000   1.0000   1.0000   1.0000
     1.0000   1.0000   1.0000   1.0000   1.0000   1.0000   1.0000   1.0000
     1.0000   1.0000   1.0000   1.0000   1.0000   1.0000   1.0000   1.0000
     1.0000   1.0000   1.0000   1.0000   1.0000   1.0000   1.0000   1.0000
     1.0000   1.0000   1.0000   1.0000   1.0000   1.0000   1.0000   1.0000
     1.0000   1.0000   1.0000   1.0000   1.0000   1.0000   1.0000   1.0000
     1.0000   1.0000   1.0000   1.0000   1.0000   1.0000   1.0000   1.0000
     1.0000   1.0000   1.0000   1.0000   1.0000   1.0000   1.0000   1.0000
     1.0000   1.0000   1.0000   1.0000   1.0000   1.0000   1.0000   1.0000
     1.0000   1.0000   1.0000   1.0000   1.0000   1.0000   1.0000   1.0000
     1.0000   1.0000   1.0000   1.0000   1.0000   1.0000   1.0000   1.0000
     1.0000   1.0000   1.0000   1.0000   1.0000   1.0000   1.0000   1.0000
     1.0000   1.0000   1.0000   1.0000   1.0000   1.0000   1.0000   1.0000
     1.0000   1.0000   1.0000   1.0000   1.0000   1.0000   1.0000   1.0000

     highest occupied level (ev):  -582.7822

!    total energy              = -102209.01444059 Ry
     Harris-Foulkes estimate   = -102209.01444469 Ry
     estimated scf accuracy    <       0.00000040 Ry

     total all-electron energy =   -376823.114980 Ry

     The total energy is the sum of the following terms:

     one-electron contribution =    5146.98223879 Ry
     hartree contribution      = 8073469.75683646 Ry
     xc contribution           =   -6119.32344803 Ry
     ewald contribution        =    -633.56960162 Ry
     one-center paw contrib.   =-8174072.86046619 Ry
      -> PAW hartree energy AE =  702500.10164855 Ry
      -> PAW hartree energy PS =-2745412.40016506 Ry
      -> PAW xc energy AE      =   -6959.41725085 Ry
      -> PAW xc energy PS      =    7649.71410326 Ry
      -> total E_H with PAW    = 6030557.45831995 Ry
      -> total E_XC with PAW   =   -5429.02659561 Ry

     convergence has been achieved in  53 iterations

     negative rho (up, down):  6.119E+03 0.000E+00

     Forces acting on atoms (cartesian axes, Ry/au):

     atom    1 type  1   force =     0.00000000 -396.34813978  829.20890755
     atom    2 type  1   force =     0.00000000  396.34813978 -829.20890755
     atom    3 type  1   force =     0.00000000 -396.34813978 -829.20890755
     atom    4 type  1   force =     0.00000000  396.34813978  829.20890755
     atom    5 type  2   force =     0.00000000  -11.75094209   -9.27513511
     atom    6 type  2   force =     0.00000000   11.75094209    9.27513511
     atom    7 type  2   force =     0.00000000  -11.75094209    9.27513511
     atom    8 type  2   force =     0.00000000   11.75094209   -9.27513511
     atom    9 type  3   force =     0.00000000    5.47413706   16.27897800
     atom   10 type  3   force =     0.00000000   -5.47413706  -16.27897800
     atom   11 type  3   force =     0.00000000    5.47413706  -16.27897800
     atom   12 type  3   force =     0.00000000   -5.47413706   16.27897800
     atom   13 type  3   force =     0.00000000    5.36728182   -9.20466252
     atom   14 type  3   force =     0.00000000   -5.36728182    9.20466252
     atom   15 type  3   force =     0.00000000    5.36728182    9.20466252
     atom   16 type  3   force =     0.00000000   -5.36728182   -9.20466252
     atom   17 type  3   force =     0.00000000  -12.57039862    5.32291581
     atom   18 type  3   force =     0.00000000   12.57039862   -5.32291581
     atom   19 type  3   force =     0.00000000  -12.57039862   -5.32291581
     atom   20 type  3   force =     0.00000000   12.57039862    5.32291581
     The non-local contrib.  to forces
     atom    1 type  1   force =     0.00000000-1878.52242913 2979.92154072
     atom    2 type  1   force =     0.00000000 1878.52242913-2979.92154072
     atom    3 type  1   force =     0.00000000-1878.52242913-2979.92154072
     atom    4 type  1   force =     0.00000000 1878.52242913 2979.92154072
     atom    5 type  2   force =     0.00000000    0.00119901   -0.00194340
     atom    6 type  2   force =     0.00000000   -0.00119901    0.00194340
     atom    7 type  2   force =     0.00000000    0.00119901    0.00194340
     atom    8 type  2   force =     0.00000000   -0.00119901   -0.00194340
     atom    9 type  3   force =     0.00000000   -0.00014577   -0.00000501
     atom   10 type  3   force =     0.00000000    0.00014577    0.00000501
     atom   11 type  3   force =    -0.00000000   -0.00014577    0.00000501
     atom   12 type  3   force =    -0.00000000    0.00014577   -0.00000501
     atom   13 type  3   force =     0.00000000    0.00031802    0.00006244
     atom   14 type  3   force =     0.00000000   -0.00031802   -0.00006244
     atom   15 type  3   force =     0.00000000    0.00031802   -0.00006244
     atom   16 type  3   force =     0.00000000   -0.00031802    0.00006244
     atom   17 type  3   force =    -0.00000000   -0.00008417    0.00059722
     atom   18 type  3   force =     0.00000000    0.00008417   -0.00059722
     atom   19 type  3   force =     0.00000000   -0.00008417   -0.00059722
     atom   20 type  3   force =     0.00000000    0.00008417    0.00059722
     The ionic contribution  to forces
     atom    1 type  1   force =     0.00000000    0.02273773    0.42856976
     atom    2 type  1   force =    -0.00000000   -0.02273773   -0.42856976
     atom    3 type  1   force =     0.00000000    0.02273773   -0.42856976
     atom    4 type  1   force =    -0.00000000   -0.02273773    0.42856976
     atom    5 type  2   force =    -0.00000000   -2.44382133   -1.60292982
     atom    6 type  2   force =     0.00000000    2.44382133    1.60292982
     atom    7 type  2   force =    -0.00000000   -2.44382133    1.60292982
     atom    8 type  2   force =     0.00000000    2.44382133   -1.60292982
     atom    9 type  3   force =    -0.00000000    3.00608889    5.13288889
     atom   10 type  3   force =     0.00000000   -3.00608889   -5.13288889
     atom   11 type  3   force =    -0.00000000    3.00608889   -5.13288889
     atom   12 type  3   force =    -0.00000000   -3.00608889    5.13288889
     atom   13 type  3   force =     0.00000000    2.02422847   -3.75281495
     atom   14 type  3   force =    -0.00000000   -2.02422847    3.75281495
     atom   15 type  3   force =    -0.00000000    2.02422847    3.75281495
     atom   16 type  3   force =    -0.00000000   -2.02422847   -3.75281495
     atom   17 type  3   force =    -0.00000000   -4.20564469    2.10270402
     atom   18 type  3   force =    -0.00000000    4.20564469   -2.10270402
     atom   19 type  3   force =     0.00000000   -4.20564469   -2.10270402
     atom   20 type  3   force =     0.00000000    4.20564469    2.10270402
     The local contribution  to forces
     atom    1 type  1   force =     0.00000000 1481.46687203-2150.11159319
     atom    2 type  1   force =     0.00000000-1481.46687203 2150.11159319
     atom    3 type  1   force =    -0.00000000 1481.46687203 2150.11159319
     atom    4 type  1   force =    -0.00000000-1481.46687203-2150.11159319
     atom    5 type  2   force =    -0.00000000   -9.30803013   -7.67000952
     atom    6 type  2   force =     0.00000000    9.30803013    7.67000952
     atom    7 type  2   force =     0.00000000   -9.30803013    7.67000952
     atom    8 type  2   force =     0.00000000    9.30803013   -7.67000952
     atom    9 type  3   force =     0.00000000    2.46779937   11.14244071
     atom   10 type  3   force =     0.00000000   -2.46779937  -11.14244071
     atom   11 type  3   force =     0.00000000    2.46779937  -11.14244071
     atom   12 type  3   force =     0.00000000   -2.46779937   11.14244071
     atom   13 type  3   force =    -0.00000000    3.34124009   -5.45037516
     atom   14 type  3   force =     0.00000000   -3.34124009    5.45037516
     atom   15 type  3   force =     0.00000000    3.34124009    5.45037516
     atom   16 type  3   force =     0.00000000   -3.34124009   -5.45037516
     atom   17 type  3   force =     0.00000000   -8.36230106    3.21744496
     atom   18 type  3   force =    -0.00000000    8.36230106   -3.21744496
     atom   19 type  3   force =    -0.00000000   -8.36230106   -3.21744496
     atom   20 type  3   force =     0.00000000    8.36230106    3.21744496
     The core correction contribution to forces
     atom    1 type  1   force =    -0.00000000    0.68462583   -1.02964859
     atom    2 type  1   force =    -0.00000000   -0.68462583    1.02964859
     atom    3 type  1   force =    -0.00000000    0.68462583    1.02964859
     atom    4 type  1   force =    -0.00000000   -0.68462583   -1.02964859
     atom    5 type  2   force =    -0.00000000   -0.00028394   -0.00025451
     atom    6 type  2   force =    -0.00000000    0.00028394    0.00025451
     atom    7 type  2   force =    -0.00000000   -0.00028394    0.00025451
     atom    8 type  2   force =    -0.00000000    0.00028394   -0.00025451
     atom    9 type  3   force =     0.00000000    0.00039723    0.00365629
     atom   10 type  3   force =     0.00000000   -0.00039723   -0.00365629
     atom   11 type  3   force =    -0.00000000    0.00039723   -0.00365629
     atom   12 type  3   force =    -0.00000000   -0.00039723    0.00365629
     atom   13 type  3   force =     0.00000000    0.00149232   -0.00154176
     atom   14 type  3   force =    -0.00000000   -0.00149232    0.00154176
     atom   15 type  3   force =     0.00000000    0.00149232    0.00154176
     atom   16 type  3   force =     0.00000000   -0.00149232   -0.00154176
     atom   17 type  3   force =     0.00000000   -0.00236210    0.00217126
     atom   18 type  3   force =     0.00000000    0.00236210   -0.00217126
     atom   19 type  3   force =    -0.00000000   -0.00236210   -0.00217126
     atom   20 type  3   force =    -0.00000000    0.00236210    0.00217126
     The Hubbard contrib.    to forces
     atom    1 type  1   force =     0.00000000    0.00000000    0.00000000
     atom    2 type  1   force =     0.00000000    0.00000000    0.00000000
     atom    3 type  1   force =     0.00000000    0.00000000    0.00000000
     atom    4 type  1   force =     0.00000000    0.00000000    0.00000000
     atom    5 type  2   force =     0.00000000    0.00000000    0.00000000
     atom    6 type  2   force =     0.00000000    0.00000000    0.00000000
     atom    7 type  2   force =     0.00000000    0.00000000    0.00000000
     atom    8 type  2   force =     0.00000000    0.00000000    0.00000000
     atom    9 type  3   force =     0.00000000    0.00000000    0.00000000
     atom   10 type  3   force =     0.00000000    0.00000000    0.00000000
     atom   11 type  3   force =     0.00000000    0.00000000    0.00000000
     atom   12 type  3   force =     0.00000000    0.00000000    0.00000000
     atom   13 type  3   force =     0.00000000    0.00000000    0.00000000
     atom   14 type  3   force =     0.00000000    0.00000000    0.00000000
     atom   15 type  3   force =     0.00000000    0.00000000    0.00000000
     atom   16 type  3   force =     0.00000000    0.00000000    0.00000000
     atom   17 type  3   force =     0.00000000    0.00000000    0.00000000
     atom   18 type  3   force =     0.00000000    0.00000000    0.00000000
     atom   19 type  3   force =     0.00000000    0.00000000    0.00000000
     atom   20 type  3   force =     0.00000000    0.00000000    0.00000000
     The SCF correction term to forces
     atom    1 type  1   force =     0.00000000    0.00005377    0.00003885
     atom    2 type  1   force =    -0.00000000   -0.00005377   -0.00003885
     atom    3 type  1   force =    -0.00000000    0.00005377   -0.00003885
     atom    4 type  1   force =    -0.00000000   -0.00005377    0.00003885
     atom    5 type  2   force =    -0.00000000   -0.00000569    0.00000214
     atom    6 type  2   force =    -0.00000000    0.00000569   -0.00000214
     atom    7 type  2   force =    -0.00000000   -0.00000569   -0.00000214
     atom    8 type  2   force =    -0.00000000    0.00000569    0.00000214
     atom    9 type  3   force =    -0.00000000   -0.00000266   -0.00000289
     atom   10 type  3   force =    -0.00000000    0.00000266    0.00000289
     atom   11 type  3   force =     0.00000000   -0.00000266    0.00000289
     atom   12 type  3   force =    -0.00000000    0.00000266   -0.00000289
     atom   13 type  3   force =    -0.00000000    0.00000291    0.00000690
     atom   14 type  3   force =     0.00000000   -0.00000291   -0.00000690
     atom   15 type  3   force =     0.00000000    0.00000291   -0.00000690
     atom   16 type  3   force =    -0.00000000   -0.00000291    0.00000690
     atom   17 type  3   force =     0.00000000   -0.00000660   -0.00000165
     atom   18 type  3   force =     0.00000000    0.00000660    0.00000165
     atom   19 type  3   force =    -0.00000000   -0.00000660    0.00000165
     atom   20 type  3   force =    -0.00000000    0.00000660   -0.00000165

     Total force =  1839.019550     Total SCF correction =     0.000135


     Computing stress (Cartesian axis) and pressure

     Message from routine stres:
     noncollinear stress + GGA not implemented

     Writing output data file CsSnI3.save/
 
     init_run     :     13.33s CPU     18.17s WALL (       1 calls)
     electrons    :   1545.38s CPU   2165.53s WALL (       1 calls)
     forces       :      8.58s CPU     10.00s WALL (       1 calls)

     Called by init_run:
     wfcinit      :      5.27s CPU      7.85s WALL (       1 calls)
     wfcinit:atom :      0.01s CPU      0.02s WALL (       1 calls)
     wfcinit:wfcr :      5.20s CPU      7.74s WALL (       1 calls)
     potinit      :      2.29s CPU      3.07s WALL (       1 calls)
     hinit0       :      1.82s CPU      2.32s WALL (       1 calls)

     Called by electrons:
     c_bands      :    901.41s CPU   1307.85s WALL (      54 calls)
     sum_band     :    352.31s CPU    484.22s WALL (      54 calls)
     v_of_rho     :     11.49s CPU     17.39s WALL (      54 calls)
     v_h          :      0.65s CPU      0.92s WALL (      54 calls)
     v_xc         :     10.98s CPU     16.68s WALL (      55 calls)
     newd         :    200.34s CPU    248.48s WALL (      54 calls)
     PAW_pot      :     45.98s CPU     56.10s WALL (      54 calls)
     mix_rho      :     20.22s CPU     29.46s WALL (      54 calls)

     Called by c_bands:
     init_us_2    :      1.68s CPU      1.96s WALL (     109 calls)
     cegterg      :    863.84s CPU   1266.77s WALL (      56 calls)

     Called by sum_band:
     sum_band:bec :      5.19s CPU      7.04s WALL (      54 calls)
     addusdens    :    156.06s CPU    192.44s WALL (      54 calls)

     Called by *egterg:
     h_psi        :    630.14s CPU    949.09s WALL (     284 calls)
     s_psi        :     26.51s CPU     29.87s WALL (     284 calls)
     g_psi        :      0.73s CPU      0.77s WALL (     227 calls)
     cdiaghg      :     89.56s CPU    132.14s WALL (     282 calls)
     cegterg:over :     45.17s CPU     60.28s WALL (     227 calls)
     cegterg:upda :     34.55s CPU     44.52s WALL (     227 calls)
     cegterg:last :     12.18s CPU     14.48s WALL (      70 calls)
     cdiaghg:chol :      3.84s CPU      5.71s WALL (     282 calls)
     cdiaghg:inve :      4.53s CPU      6.08s WALL (     282 calls)
     cdiaghg:para :      8.05s CPU     12.06s WALL (     564 calls)

     Called by h_psi:
     h_psi:pot    :    629.06s CPU    947.24s WALL (     284 calls)
     h_psi:calbec :     23.41s CPU     27.44s WALL (     284 calls)
     vloc_psi     :    578.19s CPU    888.68s WALL (     284 calls)
     add_vuspsi   :     27.46s CPU     31.12s WALL (     284 calls)

     General routines
     calbec       :     30.84s CPU     36.14s WALL (     342 calls)
     fft          :     30.32s CPU     47.13s WALL (    1189 calls)
     ffts         :     17.47s CPU     27.11s WALL (     432 calls)
     fftw         :    707.58s CPU   1097.88s WALL (  141112 calls)
     interpolate  :     14.41s CPU     22.77s WALL (     216 calls)
 
     Parallel routines
     fft_scatt_xy :     18.47s CPU     21.58s WALL (  142733 calls)
     fft_scatt_yz :    651.56s CPU   1039.88s WALL (  142733 calls)

     PAW routines
     PAW_pot      :     45.98s CPU     56.10s WALL (      54 calls)
     PAW_symme    :      1.37s CPU      1.93s WALL (     108 calls)
 
     PWSCF        :  26m16.96s CPU  36m44.23s WALL

 
   This run was terminated on:  11:11: 3  23Jan2021            

=------------------------------------------------------------------------------=
   JOB DONE.
=------------------------------------------------------------------------------=
