
     Program PWSCF v.6.5 starts on 15Jan2021 at 12:42:30 

     This program is part of the open-source Quantum ESPRESSO suite
     for quantum simulation of materials; please cite
         "P. Giannozzi et al., J. Phys.:Condens. Matter 21 395502 (2009);
         "P. Giannozzi et al., J. Phys.:Condens. Matter 29 465901 (2017);
          URL http://www.quantum-espresso.org", 
     in publications or presentations arising from this work. More details at
     http://www.quantum-espresso.org/quote

     Parallel version (MPI), running on    64 processors

     MPI processes distributed on     2 nodes
     R & G space division:  proc/nbgrp/npool/nimage =      64
     Waiting for input...
     Reading input from standard input

     Current dimensions of program PWSCF are:
     Max number of different atomic species (ntypx) = 10
     Max number of k-points (npk) =  40000
     Max angular momentum in pseudopotentials (lmaxx) =  3
               file Sn.rel-pbe-dn-kjpaw_psl.1.0.0.UPF: wavefunction(s)  5S 5P 5P 4D 4D renormalized
               file I.rel-pbe-n-kjpaw_psl.1.0.0.UPF: wavefunction(s)  5S renormalized
               file Cs.rel-pbe-spn-kjpaw_psl.1.0.0.UPF: wavefunction(s)  5S 6S renormalized

     Subspace diagonalization in iterative solution of the eigenvalue problem:
     a serial algorithm will be used


     Parallelization info
     --------------------
     sticks:   dense  smooth     PW     G-vecs:    dense   smooth      PW
     Min          73      73     19                 9609     9609    1279
     Max          74      74     20                 9628     9628    1292
     Sum        4717    4717   1241               615567   615567   82187


     Title: 
     perovskite                                                                 


     bravais-lattice index     =            8
     lattice parameter (alat)  =       9.1317  a.u.
     unit-cell volume          =    6370.5385 (a.u.)^3
     number of atoms/cell      =           20
     number of atomic types    =            3
     number of electrons       =       176.00
     number of Kohn-Sham states=          180
     kinetic-energy cutoff     =      80.0000  Ry
     charge density cutoff     =     320.0000  Ry
     convergence threshold     =      1.0E-06
     mixing beta               =       0.6000
     number of iterations used =            8  plain     mixing
     Exchange-correlation= SLA PW PBX PBC
                           (   1   4   3   4   0   0   0)
     Non magnetic calculation with spin-orbit


     celldm(1)=   9.131705  celldm(2)=   2.227728  celldm(3)=   3.755420
     celldm(4)=   0.000000  celldm(5)=   0.000000  celldm(6)=   0.000000

     crystal axes: (cart. coord. in units of alat)
               a(1) = (   1.000000   0.000000   0.000000 )  
               a(2) = (   0.000000   2.227728   0.000000 )  
               a(3) = (   0.000000   0.000000   3.755420 )  

     reciprocal axes: (cart. coord. in units 2 pi/alat)
               b(1) = (  1.000000  0.000000  0.000000 )  
               b(2) = (  0.000000  0.448888  0.000000 )  
               b(3) = (  0.000000  0.000000  0.266282 )  


     PseudoPot. # 1 for Sn read from file:
     ../../../../pseudo/Sn.rel-pbe-dn-kjpaw_psl.1.0.0.UPF
     MD5 check sum: 6bcaba2b82cf8d008985ef5bb9854e68
     Pseudo is Projector augmented-wave + core cor, Zval = 14.0
     Generated using "atomic" code by A. Dal Corso v.6.3
     Shape of augmentation charge: PSQ
     Using radial grid of 1243 points, 10 beta functions with: 
                l(1) =   0
                l(2) =   0
                l(3) =   1
                l(4) =   1
                l(5) =   1
                l(6) =   1
                l(7) =   2
                l(8) =   2
                l(9) =   2
               l(10) =   2
     Q(r) pseudized with 0 coefficients 


     PseudoPot. # 2 for I  read from file:
     ../../../../pseudo/I.rel-pbe-n-kjpaw_psl.1.0.0.UPF
     MD5 check sum: 1650324410fde579213a6e5684c4bdbf
     Pseudo is Projector augmented-wave + core cor, Zval =  7.0
     Generated using "atomic" code by A. Dal Corso v.6.3
     Shape of augmentation charge: PSQ
     Using radial grid of 1247 points, 10 beta functions with: 
                l(1) =   0
                l(2) =   0
                l(3) =   1
                l(4) =   1
                l(5) =   1
                l(6) =   1
                l(7) =   2
                l(8) =   2
                l(9) =   2
               l(10) =   2
     Q(r) pseudized with 0 coefficients 


     PseudoPot. # 3 for Cs read from file:
     ../../../../pseudo/Cs.rel-pbe-spn-kjpaw_psl.1.0.0.UPF
     MD5 check sum: a112b951ec9e765992cdd678db6f3609
     Pseudo is Projector augmented-wave + core cor, Zval =  9.0
     Generated using "atomic" code by A. Dal Corso v.6.4.1
     Shape of augmentation charge: PSQ
     Using radial grid of 1251 points, 15 beta functions with: 
                l(1) =   0
                l(2) =   0
                l(3) =   0
                l(4) =   1
                l(5) =   1
                l(6) =   1
                l(7) =   1
                l(8) =   2
                l(9) =   2
               l(10) =   2
               l(11) =   2
               l(12) =   3
               l(13) =   3
               l(14) =   3
               l(15) =   3
     Q(r) pseudized with 0 coefficients 


     atomic species   valence    mass     pseudopotential
        Sn            14.00   118.70000     Sn( 1.00)
        I              7.00   126.90000     I ( 1.00)
        Cs             9.00   132.90000     Cs( 1.00)

      8 Sym. Ops., with inversion, found ( 6 have fractional translation)


                                    s                        frac. trans.

      isym =  1     identity                                     

 cryst.   s( 1) = (     1          0          0      )
                  (     0          1          0      )
                  (     0          0          1      )

 cart.    s( 1) = (  1.0000000  0.0000000  0.0000000 )
                  (  0.0000000  1.0000000  0.0000000 )
                  (  0.0000000  0.0000000  1.0000000 )


      isym =  2     180 deg rotation - cart. axis [0,0,1]        

 cryst.   s( 2) = (    -1          0          0      )    f =(  0.0000000 )
                  (     0         -1          0      )       (  0.5000000 )
                  (     0          0          1      )       (  0.5000000 )

 cart.    s( 2) = ( -1.0000000  0.0000000  0.0000000 )    f =(  0.0000000 )
                  (  0.0000000 -1.0000000  0.0000000 )       (  1.1138638 )
                  (  0.0000000  0.0000000  1.0000000 )       (  1.8777098 )


      isym =  3     180 deg rotation - cart. axis [0,1,0]        

 cryst.   s( 3) = (    -1          0          0      )    f =(  0.5000000 )
                  (     0          1          0      )       ( -0.5000000 )
                  (     0          0         -1      )       ( -0.5000000 )

 cart.    s( 3) = ( -1.0000000  0.0000000  0.0000000 )    f =(  0.5000000 )
                  (  0.0000000  1.0000000  0.0000000 )       ( -1.1138638 )
                  (  0.0000000  0.0000000 -1.0000000 )       ( -1.8777098 )


      isym =  4     180 deg rotation - cart. axis [1,0,0]        

 cryst.   s( 4) = (     1          0          0      )    f =( -0.5000000 )
                  (     0         -1          0      )       (  0.0000000 )
                  (     0          0         -1      )       (  0.0000000 )

 cart.    s( 4) = (  1.0000000  0.0000000  0.0000000 )    f =( -0.5000000 )
                  (  0.0000000 -1.0000000  0.0000000 )       (  0.0000000 )
                  (  0.0000000  0.0000000 -1.0000000 )       (  0.0000000 )


      isym =  5     inversion                                    

 cryst.   s( 5) = (    -1          0          0      )
                  (     0         -1          0      )
                  (     0          0         -1      )

 cart.    s( 5) = ( -1.0000000  0.0000000  0.0000000 )
                  (  0.0000000 -1.0000000  0.0000000 )
                  (  0.0000000  0.0000000 -1.0000000 )


      isym =  6     inv. 180 deg rotation - cart. axis [0,0,1]   

 cryst.   s( 6) = (     1          0          0      )    f =(  0.0000000 )
                  (     0          1          0      )       ( -0.5000000 )
                  (     0          0         -1      )       ( -0.5000000 )

 cart.    s( 6) = (  1.0000000  0.0000000  0.0000000 )    f =(  0.0000000 )
                  (  0.0000000  1.0000000  0.0000000 )       ( -1.1138638 )
                  (  0.0000000  0.0000000 -1.0000000 )       ( -1.8777098 )


      isym =  7     inv. 180 deg rotation - cart. axis [0,1,0]   

 cryst.   s( 7) = (     1          0          0      )    f =( -0.5000000 )
                  (     0         -1          0      )       (  0.5000000 )
                  (     0          0          1      )       (  0.5000000 )

 cart.    s( 7) = (  1.0000000  0.0000000  0.0000000 )    f =( -0.5000000 )
                  (  0.0000000 -1.0000000  0.0000000 )       (  1.1138638 )
                  (  0.0000000  0.0000000  1.0000000 )       (  1.8777098 )


      isym =  8     inv. 180 deg rotation - cart. axis [1,0,0]   

 cryst.   s( 8) = (    -1          0          0      )    f =(  0.5000000 )
                  (     0          1          0      )       (  0.0000000 )
                  (     0          0          1      )       (  0.0000000 )

 cart.    s( 8) = ( -1.0000000  0.0000000  0.0000000 )    f =(  0.5000000 )
                  (  0.0000000  1.0000000  0.0000000 )       (  0.0000000 )
                  (  0.0000000  0.0000000  1.0000000 )       (  0.0000000 )


     double point group D_2h (mmm) 
     there are 10 classes and  2 irreducible representations
     the character table:

       E     -E     C2    C2'  C2''  i     -i     s_v   s_v' s_v''
                   -C2   -C2'  -C2''             -s_v  -s_v' -s_v'
G_5+   2.00 -2.00  0.00  0.00  0.00  2.00 -2.00  0.00  0.00  0.00
G_5-   2.00 -2.00  0.00  0.00  0.00 -2.00  2.00  0.00  0.00  0.00

     the symmetry operations in each class and the name of the first element:

     E             1
          identity                                               
     -E           -1
          identity E                                             
      C2  -C2      2   -2
          180 deg rotation - cart. axis [0,0,1]                  
      C2' -C2'     4   -4
          180 deg rotation - cart. axis [1,0,0]                  
     C2'' -C2''    3   -3
          180 deg rotation - cart. axis [0,1,0]                  
     i             5
          inversion                                              
     -i           -5
          inversion E                                            
      s_v -s_v     6   -6
          inv. 180 deg rotation - cart. axis [0,0,1]             
      s_v'-s_v'    8   -8
          inv. 180 deg rotation - cart. axis [1,0,0]             
     s_v''-s_v'    7   -7
          inv. 180 deg rotation - cart. axis [0,1,0]             

   Cartesian axes

     site n.     atom                  positions (alat units)
         1           Cs  tau(   1) = (   0.2500000   0.1859640   2.5168147  )
         2           Cs  tau(   2) = (   0.7500000   2.0417636   1.2386050  )
         3           Cs  tau(   3) = (   0.2500000   1.2998278   3.1163149  )
         4           Cs  tau(   4) = (   0.7500000   0.9278998   0.6391048  )
         5           Sn  tau(   5) = (   0.2500000   0.7615710   1.6485466  )
         6           Sn  tau(   6) = (   0.7500000   1.4661567   2.1068731  )
         7           Sn  tau(   7) = (   0.2500000   1.8754348   0.2291632  )
         8           Sn  tau(   8) = (   0.7500000   0.3522928   3.5262565  )
         9           I   tau(   9) = (   0.7500000   0.0581437   0.4202578  )
        10           I   tau(  10) = (   0.2500000   2.1695839   3.3351619  )
        11           I   tau(  11) = (   0.7500000   1.1720075   1.4574521  )
        12           I   tau(  12) = (   0.2500000   1.0557201   2.2979676  )
        13           I   tau(  13) = (   0.7500000   0.6531118   2.9738192  )
        14           I   tau(  14) = (   0.2500000   1.5746158   0.7816005  )
        15           I   tau(  15) = (   0.7500000   1.7669756   2.6593103  )
        16           I   tau(  16) = (   0.2500000   0.4607520   1.0961094  )
        17           I   tau(  17) = (   0.7500000   0.3753632   1.8734812  )
        18           I   tau(  18) = (   0.2500000   1.8523644   1.8819384  )
        19           I   tau(  19) = (   0.7500000   1.4892270   0.0042286  )
        20           I   tau(  20) = (   0.2500000   0.7385006   3.7511911  )

   Crystallographic axes

     site n.     atom                  positions (cryst. coord.)
         1           Cs  tau(   1) = (  0.2500000  0.0834770  0.6701820  )
         2           Cs  tau(   2) = (  0.7500000  0.9165230  0.3298180  )
         3           Cs  tau(   3) = (  0.2500000  0.5834770  0.8298180  )
         4           Cs  tau(   4) = (  0.7500000  0.4165230  0.1701820  )
         5           Sn  tau(   5) = (  0.2500000  0.3418600  0.4389780  )
         6           Sn  tau(   6) = (  0.7500000  0.6581400  0.5610220  )
         7           Sn  tau(   7) = (  0.2500000  0.8418600  0.0610220  )
         8           Sn  tau(   8) = (  0.7500000  0.1581400  0.9389780  )
         9           I   tau(   9) = (  0.7500000  0.0261000  0.1119070  )
        10           I   tau(  10) = (  0.2500000  0.9739000  0.8880930  )
        11           I   tau(  11) = (  0.7500000  0.5261000  0.3880930  )
        12           I   tau(  12) = (  0.2500000  0.4739000  0.6119070  )
        13           I   tau(  13) = (  0.7500000  0.2931740  0.7918740  )
        14           I   tau(  14) = (  0.2500000  0.7068260  0.2081260  )
        15           I   tau(  15) = (  0.7500000  0.7931740  0.7081260  )
        16           I   tau(  16) = (  0.2500000  0.2068260  0.2918740  )
        17           I   tau(  17) = (  0.7500000  0.1684960  0.4988740  )
        18           I   tau(  18) = (  0.2500000  0.8315040  0.5011260  )
        19           I   tau(  19) = (  0.7500000  0.6684960  0.0011260  )
        20           I   tau(  20) = (  0.2500000  0.3315040  0.9988740  )

     number of k points=     1
                       cart. coord. in units 2pi/alat
        k(    1) = (   0.2500000   0.1122220   0.0665705), wk =   1.0000000

                       cryst. coord.
        k(    1) = (   0.2500000   0.2500000   0.2500000), wk =   1.0000000

     Dense  grid:   615567 G-vectors     FFT dimensions: (  54, 120, 200)

     Dynamical RAM for                 wfc:       6.60 MB

     Dynamical RAM for     wfc (w. buffer):       6.60 MB

     Dynamical RAM for           str. fact:       0.44 MB

     Dynamical RAM for           local pot:       0.00 MB

     Dynamical RAM for          nlocal pot:      14.60 MB

     Dynamical RAM for                qrad:      50.05 MB

     Dynamical RAM for          rho,v,vnew:       4.14 MB

     Dynamical RAM for               rhoin:       1.38 MB

     Dynamical RAM for            rho*nmix:       9.40 MB

     Dynamical RAM for           G-vectors:       0.62 MB

     Dynamical RAM for          h,s,v(r/c):      23.73 MB

     Dynamical RAM for          <psi|beta>:       4.37 MB

     Dynamical RAM for                 psi:      26.41 MB

     Dynamical RAM for                hpsi:      26.41 MB

     Dynamical RAM for                spsi:      26.41 MB

     Dynamical RAM for      wfcinit/wfcrot:      12.44 MB

     Dynamical RAM for           addusdens:     301.84 MB

     Estimated static dynamical RAM per process >      89.40 MB

     Estimated max dynamical RAM per process >     391.24 MB

     Estimated total dynamical RAM >      24.45 GB

     Initial potential from superposition of free atoms

     starting charge  175.83605, renormalised to  176.00000
     Starting wfcs are  208 randomized atomic wfcs
     Checking if some PAW data can be deallocated... 
       PAW data deallocated on   52 nodes for type:  1
       PAW data deallocated on   28 nodes for type:  2
       PAW data deallocated on   48 nodes for type:  3

     total cpu time spent up to now is       48.5 secs

     Self-consistent Calculation

     iteration #  1     ecut=    80.00 Ry     beta= 0.60
     Davidson diagonalization with overlap
     ethr =  1.00E-02,  avg # of iterations =  2.0

     Threshold (ethr) on eigenvalues was too large:
     Diagonalizing with lowered threshold

     Davidson diagonalization with overlap
     ethr =  3.40E-04,  avg # of iterations = 10.0

     negative rho (up, down):  9.184E+00 0.000E+00

     total cpu time spent up to now is      170.8 secs

     total energy              =   -8001.25178823 Ry
     Harris-Foulkes estimate   =   -8002.78065952 Ry
     estimated scf accuracy    <      75.96298348 Ry

     iteration #  2     ecut=    80.00 Ry     beta= 0.60
     Davidson diagonalization with overlap
     ethr =  1.00E-02,  avg # of iterations =  2.0

     negative rho (up, down):  5.530E+00 0.000E+00

     total cpu time spent up to now is      218.5 secs

     total energy              =   -8001.95316355 Ry
     Harris-Foulkes estimate   =   -8002.07587229 Ry
     estimated scf accuracy    <      21.64329684 Ry

     iteration #  3     ecut=    80.00 Ry     beta= 0.60
     Davidson diagonalization with overlap
     ethr =  1.00E-02,  avg # of iterations =  6.0

     negative rho (up, down):  5.547E+00 0.000E+00

     total cpu time spent up to now is      288.1 secs

     total energy              =   -8250.14833644 Ry
     Harris-Foulkes estimate   =   -8186.80321925 Ry
     estimated scf accuracy    < 7190490.98416255 Ry

     iteration #  4     ecut=    80.00 Ry     beta= 0.60
     Davidson diagonalization with overlap
     ethr =  1.00E-02,  avg # of iterations =  5.0

     negative rho (up, down):  4.367E+00 0.000E+00

     total cpu time spent up to now is      339.3 secs

     total energy              =   -8140.64073569 Ry
     Harris-Foulkes estimate   =   -8251.33960917 Ry
     estimated scf accuracy    < 7304802.67474403 Ry

     iteration #  5     ecut=    80.00 Ry     beta= 0.60
     Davidson diagonalization with overlap
     ethr =  1.00E-02,  avg # of iterations =  8.0

     negative rho (up, down):  4.368E+00 0.000E+00

     total cpu time spent up to now is      394.3 secs

     total energy              =   -8225.92132477 Ry
     Harris-Foulkes estimate   =   -8234.06244228 Ry
     estimated scf accuracy    < 7266521.29604498 Ry

     iteration #  6     ecut=    80.00 Ry     beta= 0.60
     Davidson diagonalization with overlap
     ethr =  1.00E-02,  avg # of iterations =  1.0

     negative rho (up, down):  4.740E+00 0.000E+00

     total cpu time spent up to now is      440.9 secs

     total energy              =   -7963.48194018 Ry
     Harris-Foulkes estimate   =   -8225.92595882 Ry
     estimated scf accuracy    < 7262900.34119553 Ry

     iteration #  7     ecut=    80.00 Ry     beta= 0.60
     Davidson diagonalization with overlap
     ethr =  1.00E-02,  avg # of iterations =  5.0

     negative rho (up, down):  5.602E+00 0.000E+00

     total cpu time spent up to now is      506.3 secs

     total energy              =   -7987.25192422 Ry
     Harris-Foulkes estimate   =   -8017.26633232 Ry
     estimated scf accuracy    < 5392041.06979036 Ry

     iteration #  8     ecut=    80.00 Ry     beta= 0.60
     Davidson diagonalization with overlap
     ethr =  1.00E-02,  avg # of iterations =  7.0

     negative rho (up, down):  5.620E+00 0.000E+00

     total cpu time spent up to now is      577.4 secs

     total energy              =   -8199.20480135 Ry
     Harris-Foulkes estimate   =   -8250.86418464 Ry
     estimated scf accuracy    < 7253314.60059012 Ry

     iteration #  9     ecut=    80.00 Ry     beta= 0.60
     Davidson diagonalization with overlap
     ethr =  1.00E-02,  avg # of iterations =  6.0

     negative rho (up, down):  5.606E+00 0.000E+00

     total cpu time spent up to now is      629.3 secs

     total energy              =   -8194.82865067 Ry
     Harris-Foulkes estimate   =   -8201.48312504 Ry
     estimated scf accuracy    < 7185290.61928105 Ry

     iteration # 10     ecut=    80.00 Ry     beta= 0.60
     Davidson diagonalization with overlap
     ethr =  1.00E-02,  avg # of iterations =  1.0

     negative rho (up, down):  8.742E+00 0.000E+00

     total cpu time spent up to now is      676.1 secs

     total energy              =   -8156.20624431 Ry
     Harris-Foulkes estimate   =   -8194.88012638 Ry
     estimated scf accuracy    < 7187748.71755335 Ry

     iteration # 11     ecut=    80.00 Ry     beta= 0.60
     Davidson diagonalization with overlap
     ethr =  1.00E-02,  avg # of iterations = 11.0

     negative rho (up, down):  2.114E+01 0.000E+00

     total cpu time spent up to now is      736.3 secs

     total energy              =  -12619.37187481 Ry
     Harris-Foulkes estimate   =   -8389.63461963 Ry
     estimated scf accuracy    < 7378567.32656705 Ry

     iteration # 12     ecut=    80.00 Ry     beta= 0.60
     Davidson diagonalization with overlap
     ethr =  1.00E-02,  avg # of iterations = 12.0

     negative rho (up, down):  2.299E+01 0.000E+00

     total cpu time spent up to now is      841.8 secs

     total energy              =  -15317.63452635 Ry
     Harris-Foulkes estimate   =  -14590.21363759 Ry
     estimated scf accuracy    < 7564588.49413678 Ry

     iteration # 13     ecut=    80.00 Ry     beta= 0.60
     Davidson diagonalization with overlap
     ethr =  1.00E-02,  avg # of iterations =  9.0

     negative rho (up, down):  2.286E+01 0.000E+00

     total cpu time spent up to now is      902.6 secs

     total energy              =  -15262.95007151 Ry
     Harris-Foulkes estimate   =  -15348.94532466 Ry
     estimated scf accuracy    < 7588763.73572152 Ry

     iteration # 14     ecut=    80.00 Ry     beta= 0.60
     Davidson diagonalization with overlap
     ethr =  1.00E-02,  avg # of iterations =  3.0

     negative rho (up, down):  1.270E+01 0.000E+00

     total cpu time spent up to now is      952.7 secs

     total energy              =  -12073.29512406 Ry
     Harris-Foulkes estimate   =  -15263.88133031 Ry
     estimated scf accuracy    < 7586414.00741547 Ry

     iteration # 15     ecut=    80.00 Ry     beta= 0.60
     Davidson diagonalization with overlap
     ethr =  1.00E-02,  avg # of iterations =  7.0

     negative rho (up, down):  1.149E+01 0.000E+00

     total cpu time spent up to now is     1042.3 secs

     total energy              =  -11070.91224458 Ry
     Harris-Foulkes estimate   =  -12267.94717194 Ry
     estimated scf accuracy    < 7528878.27239398 Ry

     iteration # 16     ecut=    80.00 Ry     beta= 0.60
     Davidson diagonalization with overlap
     ethr =  1.00E-02,  avg # of iterations = 11.0

     negative rho (up, down):  3.039E+01 0.000E+00

     total cpu time spent up to now is     1104.6 secs

     total energy              =  -17129.16116011 Ry
     Harris-Foulkes estimate   =  -11152.46281875 Ry
     estimated scf accuracy    < 7548135.86113568 Ry

     iteration # 17     ecut=    80.00 Ry     beta= 0.60
     Davidson diagonalization with overlap
     ethr =  1.00E-02,  avg # of iterations = 13.0

     negative rho (up, down):  1.775E+02 0.000E+00

     total cpu time spent up to now is     1213.6 secs

     total energy              =   23277.29091775 Ry
     Harris-Foulkes estimate   =  -21662.43846711 Ry
     estimated scf accuracy    < 7702181.56911619 Ry

     iteration # 18     ecut=    80.00 Ry     beta= 0.60
     Davidson diagonalization with overlap
     ethr =  1.00E-02,  avg # of iterations =  9.0

     negative rho (up, down):  1.821E+02 0.000E+00

     total cpu time spent up to now is     1347.4 secs

     total energy              =  -47412.02786980 Ry
     Harris-Foulkes estimate   =  -44173.14452938 Ry
     estimated scf accuracy    < 7660254.44226408 Ry

     iteration # 19     ecut=    80.00 Ry     beta= 0.60
     Davidson diagonalization with overlap
     ethr =  1.00E-02,  avg # of iterations = 12.0

     negative rho (up, down):  3.120E+02 0.000E+00

     total cpu time spent up to now is     1482.5 secs

     total energy              =  -39468.04026134 Ry
     Harris-Foulkes estimate   =  -47553.39684719 Ry
     estimated scf accuracy    < 7586187.00244360 Ry

     iteration # 20     ecut=    80.00 Ry     beta= 0.60
     Davidson diagonalization with overlap
     ethr =  1.00E-02,  avg # of iterations = 16.0

     negative rho (up, down):  3.324E+02 0.000E+00

     total cpu time spent up to now is     1726.1 secs

     total energy              =  -74118.73220970 Ry
     Harris-Foulkes estimate   =  -41931.00263765 Ry
     estimated scf accuracy    < 7546693.56164038 Ry

     iteration # 21     ecut=    80.00 Ry     beta= 0.60
     Davidson diagonalization with overlap
     ethr =  1.00E-02,  avg # of iterations = 31.0

     negative rho (up, down):  3.334E+02 0.000E+00

     total cpu time spent up to now is     1965.0 secs

     total energy              =  -79861.05766219 Ry
     Harris-Foulkes estimate   =  -74535.20835523 Ry
     estimated scf accuracy    < 7514306.28693916 Ry

     iteration # 22     ecut=    80.00 Ry     beta= 0.60
     Davidson diagonalization with overlap
     ethr =  1.00E-02,  avg # of iterations = 11.0

     negative rho (up, down):  3.102E+02 0.000E+00

     total cpu time spent up to now is     2141.8 secs

     total energy              =  -53631.14301811 Ry
     Harris-Foulkes estimate   =  -80708.56934795 Ry
     estimated scf accuracy    < 7362923.35085248 Ry

     iteration # 23     ecut=    80.00 Ry     beta= 0.60
     Davidson diagonalization with overlap
     ethr =  1.00E-02,  avg # of iterations = 15.0

     negative rho (up, down):  3.119E+02 0.000E+00

     total cpu time spent up to now is     2403.1 secs

     total energy              =  -42380.10903705 Ry
     Harris-Foulkes estimate   =  -54306.36303128 Ry
     estimated scf accuracy    < 7340861.86867964 Ry

     iteration # 24     ecut=    80.00 Ry     beta= 0.60
     Davidson diagonalization with overlap
     ethr =  1.00E-02,  avg # of iterations =  9.0

     negative rho (up, down):  2.987E+02 0.000E+00

     total cpu time spent up to now is     2549.5 secs

     total energy              =  -10032.39120729 Ry
     Harris-Foulkes estimate   =  -42607.17820735 Ry
     estimated scf accuracy    < 7311719.30187522 Ry

     iteration # 25     ecut=    80.00 Ry     beta= 0.60
     Davidson diagonalization with overlap
     ethr =  1.00E-02,  avg # of iterations = 10.0

     negative rho (up, down):  2.351E+02 0.000E+00

     total cpu time spent up to now is     2736.4 secs

     total energy              =  -16596.32337639 Ry
     Harris-Foulkes estimate   =  -16076.09429897 Ry
     estimated scf accuracy    < 5702031.95899165 Ry

     iteration # 26     ecut=    80.00 Ry     beta= 0.60
     Davidson diagonalization with overlap
     ethr =  1.00E-02,  avg # of iterations = 11.0

     negative rho (up, down):  4.670E+02 0.000E+00

     total cpu time spent up to now is     2862.9 secs

     total energy              =  -16008.49468917 Ry
     Harris-Foulkes estimate   =  -17137.73956223 Ry
     estimated scf accuracy    < 6755159.93658675 Ry

     iteration # 27     ecut=    80.00 Ry     beta= 0.60
     Davidson diagonalization with overlap
     ethr =  1.00E-02,  avg # of iterations = 15.0

     negative rho (up, down):  4.721E+02 0.000E+00

     total cpu time spent up to now is     3051.6 secs

     total energy              =  -21200.55040416 Ry
     Harris-Foulkes estimate   =  -30188.26923099 Ry
     estimated scf accuracy    < 6514890.88171525 Ry

     iteration # 28     ecut=    80.00 Ry     beta= 0.60
     Davidson diagonalization with overlap
     ethr =  1.00E-02,  avg # of iterations = 16.0

     negative rho (up, down):  4.869E+02 0.000E+00

     total cpu time spent up to now is     3278.0 secs

     total energy              =  -19197.80261367 Ry
     Harris-Foulkes estimate   =  -21940.65412300 Ry
     estimated scf accuracy    < 5553012.90950875 Ry

     iteration # 29     ecut=    80.00 Ry     beta= 0.60
     Davidson diagonalization with overlap
     ethr =  1.00E-02,  avg # of iterations = 15.0

     negative rho (up, down):  4.874E+02 0.000E+00

     total cpu time spent up to now is     3517.0 secs

     total energy              =  -18159.62975412 Ry
     Harris-Foulkes estimate   =  -19478.75012362 Ry
     estimated scf accuracy    < 4788935.68315411 Ry

     iteration # 30     ecut=    80.00 Ry     beta= 0.60
     Davidson diagonalization with overlap
     ethr =  1.00E-02,  avg # of iterations =  9.0

     negative rho (up, down):  4.992E+02 0.000E+00

     total cpu time spent up to now is     3687.8 secs

     total energy              =  -15253.56919345 Ry
     Harris-Foulkes estimate   =  -18290.41680673 Ry
     estimated scf accuracy    < 4242061.14728376 Ry

     iteration # 31     ecut=    80.00 Ry     beta= 0.60
     Davidson diagonalization with overlap
