
     Program PWSCF v.6.6 starts on 14Jan2021 at 12:42: 1 

     This program is part of the open-source Quantum ESPRESSO suite
     for quantum simulation of materials; please cite
         "P. Giannozzi et al., J. Phys.:Condens. Matter 21 395502 (2009);
         "P. Giannozzi et al., J. Phys.:Condens. Matter 29 465901 (2017);
          URL http://www.quantum-espresso.org", 
     in publications or presentations arising from this work. More details at
     http://www.quantum-espresso.org/quote

     Parallel version (MPI), running on    64 processors

     MPI processes distributed on     2 nodes
     R & G space division:  proc/nbgrp/npool/nimage =      64
     Fft bands division:     nmany     =       1
     Waiting for input...
     Reading input from standard input

     Current dimensions of program PWSCF are:
     Max number of different atomic species (ntypx) = 10
     Max number of k-points (npk) =  40000
     Max angular momentum in pseudopotentials (lmaxx) =  3
     file Cs.pbe-spn-kjpaw_psl.1.0.0.UPF: wavefunction(s)  5S 6S renormalized
     file Sn.pbe-dn-kjpaw_psl.1.0.0.UPF: wavefunction(s)  5S 5P 4D renormalized
     file I.pbe-n-kjpaw_psl.1.0.0.UPF: wavefunction(s)  5S renormalized

     Subspace diagonalization in iterative solution of the eigenvalue problem:
     a serial algorithm will be used

 
     Parallelization info
     --------------------
     sticks:   dense  smooth     PW     G-vecs:    dense   smooth      PW
     Min         110      73     20                17670     9609    1362
     Max         111      74     21                17687     9628    1372
     Sum        7083    4717   1291              1131365   615567   87455
 

     Title: 
     CsSnI3                                                                     


     bravais-lattice index     =            8
     lattice parameter (alat)  =       9.1317  a.u.
     unit-cell volume          =    6370.5385 (a.u.)^3
     number of atoms/cell      =           20
     number of atomic types    =            3
     number of electrons       =       176.00
     number of Kohn-Sham states=           88
     kinetic-energy cutoff     =      80.0000  Ry
     charge density cutoff     =     480.0000  Ry
     convergence threshold     =      1.0E-06
     mixing beta               =       0.5000
     number of iterations used =            8  plain     mixing
     Exchange-correlation= SLA PW PBX PBC
                           (   1   4   3   4   0   0   0)

     celldm(1)=   9.131705  celldm(2)=   2.227728  celldm(3)=   3.755420
     celldm(4)=   0.000000  celldm(5)=   0.000000  celldm(6)=   0.000000

     crystal axes: (cart. coord. in units of alat)
               a(1) = (   1.000000   0.000000   0.000000 )  
               a(2) = (   0.000000   2.227728   0.000000 )  
               a(3) = (   0.000000   0.000000   3.755420 )  

     reciprocal axes: (cart. coord. in units 2 pi/alat)
               b(1) = (  1.000000  0.000000  0.000000 )  
               b(2) = (  0.000000  0.448888  0.000000 )  
               b(3) = (  0.000000  0.000000  0.266282 )  


     PseudoPot. # 1 for Cs read from file:
     /scratch/gtenti/degironcoli/pseudo/Cs.pbe-spn-kjpaw_psl.1.0.0.UPF
     MD5 check sum: b82c75cc2e1f4ff73b6412cffeb9c584
     Pseudo is Projector augmented-wave + core cor, Zval =  9.0
     Generated using "atomic" code by A. Dal Corso v.6.4.1
     Shape of augmentation charge: PSQ
     Using radial grid of 1251 points,  9 beta functions with: 
                l(1) =   0
                l(2) =   0
                l(3) =   0
                l(4) =   1
                l(5) =   1
                l(6) =   2
                l(7) =   2
                l(8) =   3
                l(9) =   3
     Q(r) pseudized with 0 coefficients 


     PseudoPot. # 2 for Sn read from file:
     /scratch/gtenti/degironcoli/pseudo/Sn.pbe-dn-kjpaw_psl.1.0.0.UPF
     MD5 check sum: 67f11dec737d427557dc41ea34975807
     Pseudo is Projector augmented-wave + core cor, Zval = 14.0
     Generated using "atomic" code by A. Dal Corso v.6.3
     Shape of augmentation charge: PSQ
     Using radial grid of 1243 points,  6 beta functions with: 
                l(1) =   0
                l(2) =   0
                l(3) =   1
                l(4) =   1
                l(5) =   2
                l(6) =   2
     Q(r) pseudized with 0 coefficients 


     PseudoPot. # 3 for I  read from file:
     /scratch/gtenti/degironcoli/pseudo/I.pbe-n-kjpaw_psl.1.0.0.UPF
     MD5 check sum: cd3d296c3308a581e1559a0c8a554cb5
     Pseudo is Projector augmented-wave + core cor, Zval =  7.0
     Generated using "atomic" code by A. Dal Corso v.6.3
     Shape of augmentation charge: PSQ
     Using radial grid of 1247 points,  6 beta functions with: 
                l(1) =   0
                l(2) =   0
                l(3) =   1
                l(4) =   1
                l(5) =   2
                l(6) =   2
     Q(r) pseudized with 0 coefficients 


     atomic species   valence    mass     pseudopotential
        Cs             9.00   132.90000     Cs( 1.00)
        Sn            14.00   118.70000     Sn( 1.00)
        I              7.00   126.90000     I ( 1.00)

      8 Sym. Ops., with inversion, found ( 6 have fractional translation)


                                    s                        frac. trans.

      isym =  1     identity                                     

 cryst.   s( 1) = (     1          0          0      )
                  (     0          1          0      )
                  (     0          0          1      )

 cart.    s( 1) = (  1.0000000  0.0000000  0.0000000 )
                  (  0.0000000  1.0000000  0.0000000 )
                  (  0.0000000  0.0000000  1.0000000 )


      isym =  2     180 deg rotation - cart. axis [0,0,1]        

 cryst.   s( 2) = (    -1          0          0      )    f =(  0.0000000 )
                  (     0         -1          0      )       (  0.5000000 )
                  (     0          0          1      )       (  0.5000000 )

 cart.    s( 2) = ( -1.0000000  0.0000000  0.0000000 )    f =(  0.0000000 )
                  (  0.0000000 -1.0000000  0.0000000 )       (  1.1138638 )
                  (  0.0000000  0.0000000  1.0000000 )       (  1.8777098 )


      isym =  3     180 deg rotation - cart. axis [0,1,0]        

 cryst.   s( 3) = (    -1          0          0      )    f =(  0.5000000 )
                  (     0          1          0      )       ( -0.5000000 )
                  (     0          0         -1      )       ( -0.5000000 )

 cart.    s( 3) = ( -1.0000000  0.0000000  0.0000000 )    f =(  0.5000000 )
                  (  0.0000000  1.0000000  0.0000000 )       ( -1.1138638 )
                  (  0.0000000  0.0000000 -1.0000000 )       ( -1.8777098 )


      isym =  4     180 deg rotation - cart. axis [1,0,0]        

 cryst.   s( 4) = (     1          0          0      )    f =( -0.5000000 )
                  (     0         -1          0      )       (  0.0000000 )
                  (     0          0         -1      )       (  0.0000000 )

 cart.    s( 4) = (  1.0000000  0.0000000  0.0000000 )    f =( -0.5000000 )
                  (  0.0000000 -1.0000000  0.0000000 )       (  0.0000000 )
                  (  0.0000000  0.0000000 -1.0000000 )       (  0.0000000 )


      isym =  5     inversion                                    

 cryst.   s( 5) = (    -1          0          0      )
                  (     0         -1          0      )
                  (     0          0         -1      )

 cart.    s( 5) = ( -1.0000000  0.0000000  0.0000000 )
                  (  0.0000000 -1.0000000  0.0000000 )
                  (  0.0000000  0.0000000 -1.0000000 )


      isym =  6     inv. 180 deg rotation - cart. axis [0,0,1]   

 cryst.   s( 6) = (     1          0          0      )    f =(  0.0000000 )
                  (     0          1          0      )       ( -0.5000000 )
                  (     0          0         -1      )       ( -0.5000000 )

 cart.    s( 6) = (  1.0000000  0.0000000  0.0000000 )    f =(  0.0000000 )
                  (  0.0000000  1.0000000  0.0000000 )       ( -1.1138638 )
                  (  0.0000000  0.0000000 -1.0000000 )       ( -1.8777098 )


      isym =  7     inv. 180 deg rotation - cart. axis [0,1,0]   

 cryst.   s( 7) = (     1          0          0      )    f =( -0.5000000 )
                  (     0         -1          0      )       (  0.5000000 )
                  (     0          0          1      )       (  0.5000000 )

 cart.    s( 7) = (  1.0000000  0.0000000  0.0000000 )    f =( -0.5000000 )
                  (  0.0000000 -1.0000000  0.0000000 )       (  1.1138638 )
                  (  0.0000000  0.0000000  1.0000000 )       (  1.8777098 )


      isym =  8     inv. 180 deg rotation - cart. axis [1,0,0]   

 cryst.   s( 8) = (    -1          0          0      )    f =(  0.5000000 )
                  (     0          1          0      )       (  0.0000000 )
                  (     0          0          1      )       (  0.0000000 )

 cart.    s( 8) = ( -1.0000000  0.0000000  0.0000000 )    f =(  0.5000000 )
                  (  0.0000000  1.0000000  0.0000000 )       (  0.0000000 )
                  (  0.0000000  0.0000000  1.0000000 )       (  0.0000000 )


     point group D_2h (mmm) 
     there are  8 classes
     the character table:

       E     C2    C2'   C2''  i     s_v   s_v'  s_v''
A_g    1.00  1.00  1.00  1.00  1.00  1.00  1.00  1.00
B_1g   1.00  1.00 -1.00 -1.00  1.00  1.00 -1.00 -1.00
B_2g   1.00 -1.00  1.00 -1.00  1.00 -1.00  1.00 -1.00
B_3g   1.00 -1.00 -1.00  1.00  1.00 -1.00 -1.00  1.00
A_u    1.00  1.00  1.00  1.00 -1.00 -1.00 -1.00 -1.00
B_1u   1.00  1.00 -1.00 -1.00 -1.00 -1.00  1.00  1.00
B_2u   1.00 -1.00  1.00 -1.00 -1.00  1.00 -1.00  1.00
B_3u   1.00 -1.00 -1.00  1.00 -1.00  1.00  1.00 -1.00

     the symmetry operations in each class and the name of the first element:

     E        1
          identity                                               
     C2       2
          180 deg rotation - cart. axis [0,0,1]                  
     C2'      4
          180 deg rotation - cart. axis [1,0,0]                  
     C2''     3
          180 deg rotation - cart. axis [0,1,0]                  
     i        5
          inversion                                              
     s_v      6
          inv. 180 deg rotation - cart. axis [0,0,1]             
     s_v'     8
          inv. 180 deg rotation - cart. axis [1,0,0]             
     s_v''    7
          inv. 180 deg rotation - cart. axis [0,1,0]             

   Cartesian axes

     site n.     atom                  positions (alat units)
         1           Cs  tau(   1) = (   0.2500000   0.1859640   2.5168147  )
         2           Cs  tau(   2) = (   0.7500000   2.0417636   1.2386050  )
         3           Cs  tau(   3) = (   0.2500000   1.2998278   3.1163149  )
         4           Cs  tau(   4) = (   0.7500000   0.9278998   0.6391048  )
         5           Sn  tau(   5) = (   0.2500000   0.7615710   1.6485466  )
         6           Sn  tau(   6) = (   0.7500000   1.4661567   2.1068731  )
         7           Sn  tau(   7) = (   0.2500000   1.8754348   0.2291632  )
         8           Sn  tau(   8) = (   0.7500000   0.3522928   3.5262565  )
         9           I   tau(   9) = (   0.7500000   0.0581437   0.4202578  )
        10           I   tau(  10) = (   0.2500000   2.1695839   3.3351619  )
        11           I   tau(  11) = (   0.7500000   1.1720075   1.4574521  )
        12           I   tau(  12) = (   0.2500000   1.0557201   2.2979676  )
        13           I   tau(  13) = (   0.7500000   0.6531118   2.9738192  )
        14           I   tau(  14) = (   0.2500000   1.5746158   0.7816005  )
        15           I   tau(  15) = (   0.7500000   1.7669756   2.6593103  )
        16           I   tau(  16) = (   0.2500000   0.4607520   1.0961094  )
        17           I   tau(  17) = (   0.7500000   0.3753632   1.8734812  )
        18           I   tau(  18) = (   0.2500000   1.8523644   1.8819384  )
        19           I   tau(  19) = (   0.7500000   1.4892270   0.0042286  )
        20           I   tau(  20) = (   0.2500000   0.7385006   3.7511911  )

   Crystallographic axes

     site n.     atom                  positions (cryst. coord.)
         1           Cs  tau(   1) = (  0.2500000  0.0834770  0.6701820  )
         2           Cs  tau(   2) = (  0.7500000  0.9165230  0.3298180  )
         3           Cs  tau(   3) = (  0.2500000  0.5834770  0.8298180  )
         4           Cs  tau(   4) = (  0.7500000  0.4165230  0.1701820  )
         5           Sn  tau(   5) = (  0.2500000  0.3418600  0.4389780  )
         6           Sn  tau(   6) = (  0.7500000  0.6581400  0.5610220  )
         7           Sn  tau(   7) = (  0.2500000  0.8418600  0.0610220  )
         8           Sn  tau(   8) = (  0.7500000  0.1581400  0.9389780  )
         9           I   tau(   9) = (  0.7500000  0.0261000  0.1119070  )
        10           I   tau(  10) = (  0.2500000  0.9739000  0.8880930  )
        11           I   tau(  11) = (  0.7500000  0.5261000  0.3880930  )
        12           I   tau(  12) = (  0.2500000  0.4739000  0.6119070  )
        13           I   tau(  13) = (  0.7500000  0.2931740  0.7918740  )
        14           I   tau(  14) = (  0.2500000  0.7068260  0.2081260  )
        15           I   tau(  15) = (  0.7500000  0.7931740  0.7081260  )
        16           I   tau(  16) = (  0.2500000  0.2068260  0.2918740  )
        17           I   tau(  17) = (  0.7500000  0.1684960  0.4988740  )
        18           I   tau(  18) = (  0.2500000  0.8315040  0.5011260  )
        19           I   tau(  19) = (  0.7500000  0.6684960  0.0011260  )
        20           I   tau(  20) = (  0.2500000  0.3315040  0.9988740  )

     number of k points=     8
                       cart. coord. in units 2pi/alat
        k(    1) = (   0.0000000   0.0000000   0.0000000), wk =   0.2500000
        k(    2) = (   0.0000000   0.0000000  -0.1331409), wk =   0.2500000
        k(    3) = (   0.0000000  -0.2244440   0.0000000), wk =   0.2500000
        k(    4) = (   0.0000000  -0.2244440  -0.1331409), wk =   0.2500000
        k(    5) = (  -0.5000000   0.0000000   0.0000000), wk =   0.2500000
        k(    6) = (  -0.5000000   0.0000000  -0.1331409), wk =   0.2500000
        k(    7) = (  -0.5000000  -0.2244440   0.0000000), wk =   0.2500000
        k(    8) = (  -0.5000000  -0.2244440  -0.1331409), wk =   0.2500000

                       cryst. coord.
        k(    1) = (   0.0000000   0.0000000   0.0000000), wk =   0.2500000
        k(    2) = (   0.0000000   0.0000000  -0.5000000), wk =   0.2500000
        k(    3) = (   0.0000000  -0.5000000   0.0000000), wk =   0.2500000
        k(    4) = (   0.0000000  -0.5000000  -0.5000000), wk =   0.2500000
        k(    5) = (  -0.5000000   0.0000000   0.0000000), wk =   0.2500000
        k(    6) = (  -0.5000000   0.0000000  -0.5000000), wk =   0.2500000
        k(    7) = (  -0.5000000  -0.5000000   0.0000000), wk =   0.2500000
        k(    8) = (  -0.5000000  -0.5000000  -0.5000000), wk =   0.2500000

     Dense  grid:  1131365 G-vectors     FFT dimensions: (  64, 144, 240)

     Smooth grid:   615567 G-vectors     FFT dimensions: (  54, 120, 200)

     Dynamical RAM for                 wfc:       1.61 MB

     Dynamical RAM for     wfc (w. buffer):      14.53 MB

     Dynamical RAM for           str. fact:       0.81 MB

     Dynamical RAM for           local pot:       0.00 MB

     Dynamical RAM for          nlocal pot:       7.70 MB

     Dynamical RAM for                qrad:      15.82 MB

     Dynamical RAM for          rho,v,vnew:       1.65 MB

     Dynamical RAM for               rhoin:       0.55 MB

     Dynamical RAM for            rho*nmix:       4.32 MB

     Dynamical RAM for           G-vectors:       1.09 MB

     Dynamical RAM for          h,s,v(r/c):       1.42 MB

     Dynamical RAM for          <psi|beta>:       0.56 MB

     Dynamical RAM for                 psi:       3.23 MB

     Dynamical RAM for                hpsi:       3.23 MB

     Dynamical RAM for                spsi:       3.23 MB

     Dynamical RAM for      wfcinit/wfcrot:       4.06 MB

     Dynamical RAM for           addusdens:     161.89 MB

     Dynamical RAM for          addusforce:     168.12 MB

     Dynamical RAM for         addusstress:     165.94 MB

     Estimated static dynamical RAM per process >      48.95 MB

     Estimated max dynamical RAM per process >     217.07 MB

     Estimated total dynamical RAM >      13.57 GB

     Initial potential from superposition of free atoms

     starting charge  175.83511, renormalised to  176.00000
     Starting wfcs are  104 randomized atomic wfcs
     Checking if some PAW data can be deallocated... 
       PAW data deallocated on   48 nodes for type:  1
       PAW data deallocated on   52 nodes for type:  2
       PAW data deallocated on   28 nodes for type:  3

     total cpu time spent up to now is       25.8 secs

     Self-consistent Calculation

     iteration #  1     ecut=    80.00 Ry     beta= 0.50
     Davidson diagonalization with overlap
     ethr =  1.00E-02,  avg # of iterations =  1.0

     Threshold (ethr) on eigenvalues was too large:
     Diagonalizing with lowered threshold

     Davidson diagonalization with overlap
     ethr =  3.22E-04,  avg # of iterations =  4.0

     total cpu time spent up to now is       52.5 secs

     total energy              =   -7979.49361027 Ry
     estimated scf accuracy    <       0.45326889 Ry

     iteration #  2     ecut=    80.00 Ry     beta= 0.50
     Davidson diagonalization with overlap
     ethr =  2.58E-04,  avg # of iterations =  4.1

     total cpu time spent up to now is       67.7 secs

     total energy              =   -7979.62845632 Ry
     estimated scf accuracy    <       0.11723515 Ry

     iteration #  3     ecut=    80.00 Ry     beta= 0.50
     Davidson diagonalization with overlap
     ethr =  6.66E-05,  avg # of iterations =  3.0

     total cpu time spent up to now is       81.2 secs

     total energy              =   -7979.64744073 Ry
     estimated scf accuracy    <       0.01100772 Ry

     iteration #  4     ecut=    80.00 Ry     beta= 0.50
     Davidson diagonalization with overlap
     ethr =  6.25E-06,  avg # of iterations =  7.1

     total cpu time spent up to now is      100.3 secs

     total energy              =   -7979.65473168 Ry
     estimated scf accuracy    <       0.01055304 Ry

     iteration #  5     ecut=    80.00 Ry     beta= 0.50
     Davidson diagonalization with overlap
     ethr =  6.00E-06,  avg # of iterations =  5.4

     total cpu time spent up to now is      115.3 secs

     total energy              =   -7979.65764260 Ry
     estimated scf accuracy    <       0.00082428 Ry

     iteration #  6     ecut=    80.00 Ry     beta= 0.50
     Davidson diagonalization with overlap
     ethr =  4.68E-07,  avg # of iterations =  5.5

     total cpu time spent up to now is      131.8 secs

     total energy              =   -7979.65766324 Ry
     estimated scf accuracy    <       0.00086388 Ry

     iteration #  7     ecut=    80.00 Ry     beta= 0.50
     Davidson diagonalization with overlap
     ethr =  4.68E-07,  avg # of iterations =  3.0

     total cpu time spent up to now is      145.2 secs

     total energy              =   -7979.65780802 Ry
     estimated scf accuracy    <       0.00005770 Ry

     iteration #  8     ecut=    80.00 Ry     beta= 0.50
     Davidson diagonalization with overlap
     ethr =  3.28E-08,  avg # of iterations =  8.1

     total cpu time spent up to now is      164.9 secs

     total energy              =   -7979.65783791 Ry
     estimated scf accuracy    <       0.00019364 Ry

     iteration #  9     ecut=    80.00 Ry     beta= 0.50
     Davidson diagonalization with overlap
     ethr =  3.28E-08,  avg # of iterations =  5.4

     total cpu time spent up to now is      179.8 secs

     total energy              =   -7979.65784233 Ry
     estimated scf accuracy    <       0.00002851 Ry

     iteration # 10     ecut=    80.00 Ry     beta= 0.50
     Davidson diagonalization with overlap
     ethr =  1.62E-08,  avg # of iterations =  5.0

     total cpu time spent up to now is      196.0 secs

     total energy              =   -7979.65785340 Ry
     estimated scf accuracy    <       0.00000356 Ry

     iteration # 11     ecut=    80.00 Ry     beta= 0.50
     Davidson diagonalization with overlap
     ethr =  2.02E-09,  avg # of iterations =  2.5

     total cpu time spent up to now is      209.3 secs

     total energy              =   -7979.65785328 Ry
     estimated scf accuracy    <       0.00000110 Ry

     iteration # 12     ecut=    80.00 Ry     beta= 0.50
     Davidson diagonalization with overlap
     ethr =  6.27E-10,  avg # of iterations =  5.8

     total cpu time spent up to now is      226.0 secs

     End of self-consistent calculation

          k = 0.0000 0.0000 0.0000 ( 76865 PWs)   bands (ev):

   -17.8814 -17.8814 -17.8812 -17.8812 -17.8735 -17.8735 -17.8732 -17.8732
   -17.8702 -17.8702 -17.8696 -17.8695 -17.8584 -17.8584 -17.8570 -17.8570
   -17.8509 -17.8509 -17.8495 -17.8495 -17.7880 -17.7878 -17.7871 -17.7869
    -8.8009  -8.7765  -8.5946  -8.5327  -8.4453  -8.4355  -8.4154  -8.4051
    -8.2790  -8.2557  -8.2377  -8.1948  -4.6169  -4.6159  -4.6134  -4.6067
    -4.5980  -4.5713  -4.5547  -4.5529  -4.5465  -4.5449  -4.5430  -4.5401
    -2.8872  -2.8623  -2.8242  -2.7436   0.1242   0.3258   0.7538   0.8909
     0.9055   0.9866   1.1128   1.1235   1.2143   1.2805   1.3247   1.3336
     1.3339   1.5553   1.6342   1.7322   1.7809   1.7974   1.8144   1.8206
     1.8254   1.8395   1.9798   2.0643   2.0699   2.1743   2.2068   2.2231
     2.2356   2.2371   2.3133   2.3172   2.3823   2.4786   2.6264   2.9250

     occupation numbers 
     1.0000   1.0000   1.0000   1.0000   1.0000   1.0000   1.0000   1.0000
     1.0000   1.0000   1.0000   1.0000   1.0000   1.0000   1.0000   1.0000
     1.0000   1.0000   1.0000   1.0000   1.0000   1.0000   1.0000   1.0000
     1.0000   1.0000   1.0000   1.0000   1.0000   1.0000   1.0000   1.0000
     1.0000   1.0000   1.0000   1.0000   1.0000   1.0000   1.0000   1.0000
     1.0000   1.0000   1.0000   1.0000   1.0000   1.0000   1.0000   1.0000
     1.0000   1.0000   1.0000   1.0000   1.0000   1.0000   1.0000   1.0000
     1.0000   1.0000   1.0000   1.0000   1.0000   1.0000   1.0000   1.0000
     1.0000   1.0000   1.0000   1.0000   1.0000   1.0000   1.0000   1.0000
     1.0000   1.0000   1.0000   1.0000   1.0000   1.0000   1.0000   1.0000
     1.0000   1.0000   1.0000   1.0000   1.0000   1.0000   1.0000   1.0000

          k = 0.0000 0.0000-0.1331 ( 76838 PWs)   bands (ev):

   -17.8814 -17.8814 -17.8812 -17.8812 -17.8735 -17.8735 -17.8732 -17.8732
   -17.8702 -17.8702 -17.8696 -17.8696 -17.8584 -17.8584 -17.8570 -17.8570
   -17.8509 -17.8509 -17.8495 -17.8495 -17.7879 -17.7879 -17.7870 -17.7870
    -8.7899  -8.7899  -8.5641  -8.5641  -8.4405  -8.4405  -8.4088  -8.4088
    -8.2721  -8.2721  -8.2111  -8.2111  -4.6222  -4.6222  -4.6055  -4.6055
    -4.5843  -4.5843  -4.5539  -4.5539  -4.5456  -4.5456  -4.5408  -4.5408
    -2.8798  -2.8798  -2.7792  -2.7792   0.2139   0.2139   0.8432   0.8432
     0.8978   0.8978   1.1435   1.1435   1.2842   1.2842   1.3068   1.3068
     1.5230   1.5230   1.5820   1.5820   1.7967   1.7967   1.8208   1.8208
     1.8298   1.8298   1.9853   1.9853   2.1205   2.1205   2.2172   2.2172
     2.2264   2.2264   2.3545   2.3545   2.4585   2.4585   2.7653   2.7653

     occupation numbers 
     1.0000   1.0000   1.0000   1.0000   1.0000   1.0000   1.0000   1.0000
     1.0000   1.0000   1.0000   1.0000   1.0000   1.0000   1.0000   1.0000
     1.0000   1.0000   1.0000   1.0000   1.0000   1.0000   1.0000   1.0000
     1.0000   1.0000   1.0000   1.0000   1.0000   1.0000   1.0000   1.0000
     1.0000   1.0000   1.0000   1.0000   1.0000   1.0000   1.0000   1.0000
     1.0000   1.0000   1.0000   1.0000   1.0000   1.0000   1.0000   1.0000
     1.0000   1.0000   1.0000   1.0000   1.0000   1.0000   1.0000   1.0000
     1.0000   1.0000   1.0000   1.0000   1.0000   1.0000   1.0000   1.0000
     1.0000   1.0000   1.0000   1.0000   1.0000   1.0000   1.0000   1.0000
     1.0000   1.0000   1.0000   1.0000   1.0000   1.0000   1.0000   1.0000
     1.0000   1.0000   1.0000   1.0000   1.0000   1.0000   1.0000   1.0000

          k = 0.0000-0.2244 0.0000 ( 76882 PWs)   bands (ev):

   -17.8814 -17.8814 -17.8812 -17.8812 -17.8735 -17.8735 -17.8732 -17.8732
   -17.8702 -17.8702 -17.8695 -17.8695 -17.8584 -17.8584 -17.8570 -17.8570
   -17.8509 -17.8509 -17.8495 -17.8495 -17.7876 -17.7876 -17.7873 -17.7873
    -8.7669  -8.7669  -8.6075  -8.6075  -8.4863  -8.4863  -8.3441  -8.3441
    -8.2545  -8.2545  -8.2246  -8.2246  -4.6239  -4.6239  -4.6034  -4.6034
    -4.5770  -4.5770  -4.5595  -4.5595  -4.5506  -4.5506  -4.5489  -4.5489
    -2.8972  -2.8972  -2.7508  -2.7508   0.2535   0.2535   0.8176   0.8176
     0.9508   0.9508   1.1868   1.1868   1.2014   1.2014   1.3156   1.3156
     1.4153   1.4153   1.5578   1.5578   1.7457   1.7457   1.7827   1.7827
     1.9698   1.9698   2.0112   2.0112   2.0702   2.0702   2.2350   2.2350
     2.2624   2.2624   2.3119   2.3119   2.3962   2.3962   2.9391   2.9391

     occupation numbers 
     1.0000   1.0000   1.0000   1.0000   1.0000   1.0000   1.0000   1.0000
     1.0000   1.0000   1.0000   1.0000   1.0000   1.0000   1.0000   1.0000
     1.0000   1.0000   1.0000   1.0000   1.0000   1.0000   1.0000   1.0000
     1.0000   1.0000   1.0000   1.0000   1.0000   1.0000   1.0000   1.0000
     1.0000   1.0000   1.0000   1.0000   1.0000   1.0000   1.0000   1.0000
     1.0000   1.0000   1.0000   1.0000   1.0000   1.0000   1.0000   1.0000
     1.0000   1.0000   1.0000   1.0000   1.0000   1.0000   1.0000   1.0000
     1.0000   1.0000   1.0000   1.0000   1.0000   1.0000   1.0000   1.0000
     1.0000   1.0000   1.0000   1.0000   1.0000   1.0000   1.0000   1.0000
     1.0000   1.0000   1.0000   1.0000   1.0000   1.0000   1.0000   1.0000
     1.0000   1.0000   1.0000   1.0000   1.0000   1.0000   1.0000   1.0000

          k = 0.0000-0.2244-0.1331 ( 76848 PWs)   bands (ev):

   -17.8814 -17.8814 -17.8812 -17.8812 -17.8735 -17.8735 -17.8732 -17.8732
   -17.8702 -17.8702 -17.8695 -17.8695 -17.8584 -17.8584 -17.8570 -17.8570
   -17.8509 -17.8509 -17.8495 -17.8495 -17.7876 -17.7876 -17.7873 -17.7873
    -8.7670  -8.7670  -8.6077  -8.6077  -8.4842  -8.4842  -8.3498  -8.3498
    -8.2394  -8.2394  -8.2358  -8.2358  -4.6208  -4.6208  -4.6104  -4.6104
    -4.5723  -4.5723  -4.5602  -4.5602  -4.5505  -4.5505  -4.5489  -4.5489
    -2.8958  -2.8958  -2.7523  -2.7523   0.2591   0.2591   0.8075   0.8075
     0.9508   0.9508   1.2015   1.2015   1.2120   1.2120   1.3149   1.3149
     1.3583   1.3583   1.5676   1.5676   1.7471   1.7471   1.8248   1.8248
     1.9655   1.9655   1.9974   1.9974   2.0839   2.0839   2.2208   2.2208
     2.2867   2.2867   2.2905   2.2905   2.4103   2.4103   2.9224   2.9224

     occupation numbers 
     1.0000   1.0000   1.0000   1.0000   1.0000   1.0000   1.0000   1.0000
     1.0000   1.0000   1.0000   1.0000   1.0000   1.0000   1.0000   1.0000
     1.0000   1.0000   1.0000   1.0000   1.0000   1.0000   1.0000   1.0000
     1.0000   1.0000   1.0000   1.0000   1.0000   1.0000   1.0000   1.0000
     1.0000   1.0000   1.0000   1.0000   1.0000   1.0000   1.0000   1.0000
     1.0000   1.0000   1.0000   1.0000   1.0000   1.0000   1.0000   1.0000
     1.0000   1.0000   1.0000   1.0000   1.0000   1.0000   1.0000   1.0000
     1.0000   1.0000   1.0000   1.0000   1.0000   1.0000   1.0000   1.0000
     1.0000   1.0000   1.0000   1.0000   1.0000   1.0000   1.0000   1.0000
     1.0000   1.0000   1.0000   1.0000   1.0000   1.0000   1.0000   1.0000
     1.0000   1.0000   1.0000   1.0000   1.0000   1.0000   1.0000   1.0000

          k =-0.5000 0.0000 0.0000 ( 77014 PWs)   bands (ev):

   -17.8806 -17.8806 -17.8806 -17.8806 -17.8766 -17.8766 -17.8766 -17.8766
   -17.8698 -17.8698 -17.8698 -17.8698 -17.8544 -17.8544 -17.8544 -17.8544
   -17.8509 -17.8509 -17.8509 -17.8509 -17.7765 -17.7765 -17.7759 -17.7759
    -8.4822  -8.4822  -8.4799  -8.4799  -8.3072  -8.3072  -8.2975  -8.2975
    -8.2863  -8.2863  -8.2670  -8.2670  -4.7925  -4.7925  -4.7248  -4.7248
    -4.6092  -4.6092  -4.6000  -4.6000  -4.5858  -4.5858  -4.5572  -4.5572
    -3.2034  -3.2034  -3.1665  -3.1665   0.0783   0.0783   0.0797   0.0797
     0.5667   0.5667   0.6248   0.6248   0.8923   0.8923   0.9119   0.9119
     1.2447   1.2447   1.6362   1.6362   1.6780   1.6780   1.7846   1.7846
     1.7951   1.7951   1.8560   1.8560   1.9079   1.9079   1.9337   1.9337
     2.0643   2.0643   2.1020   2.1020   2.5338   2.5338   2.9138   2.9138

     occupation numbers 
     1.0000   1.0000   1.0000   1.0000   1.0000   1.0000   1.0000   1.0000
     1.0000   1.0000   1.0000   1.0000   1.0000   1.0000   1.0000   1.0000
     1.0000   1.0000   1.0000   1.0000   1.0000   1.0000   1.0000   1.0000
     1.0000   1.0000   1.0000   1.0000   1.0000   1.0000   1.0000   1.0000
     1.0000   1.0000   1.0000   1.0000   1.0000   1.0000   1.0000   1.0000
     1.0000   1.0000   1.0000   1.0000   1.0000   1.0000   1.0000   1.0000
     1.0000   1.0000   1.0000   1.0000   1.0000   1.0000   1.0000   1.0000
     1.0000   1.0000   1.0000   1.0000   1.0000   1.0000   1.0000   1.0000
     1.0000   1.0000   1.0000   1.0000   1.0000   1.0000   1.0000   1.0000
     1.0000   1.0000   1.0000   1.0000   1.0000   1.0000   1.0000   1.0000
     1.0000   1.0000   1.0000   1.0000   1.0000   1.0000   1.0000   1.0000

          k =-0.5000 0.0000-0.1331 ( 76988 PWs)   bands (ev):

   -17.8806 -17.8806 -17.8806 -17.8806 -17.8766 -17.8766 -17.8766 -17.8766
   -17.8698 -17.8698 -17.8698 -17.8698 -17.8544 -17.8544 -17.8544 -17.8544
   -17.8509 -17.8509 -17.8509 -17.8509 -17.7765 -17.7765 -17.7759 -17.7759
    -8.4828  -8.4828  -8.4793  -8.4793  -8.3066  -8.3066  -8.2984  -8.2984
    -8.2860  -8.2860  -8.2670  -8.2670  -4.7924  -4.7924  -4.7248  -4.7248
    -4.6095  -4.6095  -4.6000  -4.6000  -4.5855  -4.5855  -4.5573  -4.5573
    -3.1968  -3.1968  -3.1732  -3.1732   0.0654   0.0654   0.0980   0.0980
     0.5847   0.5847   0.6324   0.6324   0.8406   0.8406   0.8789   0.8789
     1.3334   1.3334   1.6051   1.6051   1.6884   1.6884   1.8005   1.8005
     1.8027   1.8027   1.8286   1.8286   1.8369   1.8369   1.9639   1.9639
     2.0585   2.0585   2.1324   2.1324   2.5932   2.5932   2.8550   2.8550

     occupation numbers 
     1.0000   1.0000   1.0000   1.0000   1.0000   1.0000   1.0000   1.0000
     1.0000   1.0000   1.0000   1.0000   1.0000   1.0000   1.0000   1.0000
     1.0000   1.0000   1.0000   1.0000   1.0000   1.0000   1.0000   1.0000
     1.0000   1.0000   1.0000   1.0000   1.0000   1.0000   1.0000   1.0000
     1.0000   1.0000   1.0000   1.0000   1.0000   1.0000   1.0000   1.0000
     1.0000   1.0000   1.0000   1.0000   1.0000   1.0000   1.0000   1.0000
     1.0000   1.0000   1.0000   1.0000   1.0000   1.0000   1.0000   1.0000
     1.0000   1.0000   1.0000   1.0000   1.0000   1.0000   1.0000   1.0000
     1.0000   1.0000   1.0000   1.0000   1.0000   1.0000   1.0000   1.0000
     1.0000   1.0000   1.0000   1.0000   1.0000   1.0000   1.0000   1.0000
     1.0000   1.0000   1.0000   1.0000   1.0000   1.0000   1.0000   1.0000

          k =-0.5000-0.2244 0.0000 ( 77052 PWs)   bands (ev):

   -17.8806 -17.8806 -17.8806 -17.8806 -17.8766 -17.8766 -17.8766 -17.8766
   -17.8698 -17.8698 -17.8698 -17.8698 -17.8544 -17.8544 -17.8544 -17.8544
   -17.8509 -17.8509 -17.8509 -17.8509 -17.7762 -17.7762 -17.7762 -17.7762
    -8.4810  -8.4810  -8.4810  -8.4810  -8.3034  -8.3034  -8.3034  -8.3034
    -8.2757  -8.2757  -8.2757  -8.2757  -4.7587  -4.7587  -4.7587  -4.7587
    -4.6026  -4.6026  -4.6026  -4.6026  -4.5734  -4.5734  -4.5734  -4.5734
    -3.1856  -3.1856  -3.1856  -3.1856   0.2241   0.2241   0.2241   0.2241
     0.4393   0.4393   0.4393   0.4393   0.8443   0.8443   0.8443   0.8443
     1.4586   1.4586   1.4586   1.4586   1.6403   1.6403   1.6403   1.6403
     1.7998   1.7998   1.7998   1.7998   1.9268   1.9268   1.9268   1.9268
     2.1547   2.1547   2.1547   2.1547   2.8761   2.8761   2.8761   2.8761

     occupation numbers 
     1.0000   1.0000   1.0000   1.0000   1.0000   1.0000   1.0000   1.0000
     1.0000   1.0000   1.0000   1.0000   1.0000   1.0000   1.0000   1.0000
     1.0000   1.0000   1.0000   1.0000   1.0000   1.0000   1.0000   1.0000
     1.0000   1.0000   1.0000   1.0000   1.0000   1.0000   1.0000   1.0000
     1.0000   1.0000   1.0000   1.0000   1.0000   1.0000   1.0000   1.0000
     1.0000   1.0000   1.0000   1.0000   1.0000   1.0000   1.0000   1.0000
     1.0000   1.0000   1.0000   1.0000   1.0000   1.0000   1.0000   1.0000
     1.0000   1.0000   1.0000   1.0000   1.0000   1.0000   1.0000   1.0000
     1.0000   1.0000   1.0000   1.0000   1.0000   1.0000   1.0000   1.0000
     1.0000   1.0000   1.0000   1.0000   1.0000   1.0000   1.0000   1.0000
     1.0000   1.0000   1.0000   1.0000   1.0000   1.0000   1.0000   1.0000

          k =-0.5000-0.2244-0.1331 ( 77080 PWs)   bands (ev):

   -17.8806 -17.8806 -17.8806 -17.8806 -17.8766 -17.8766 -17.8766 -17.8766
   -17.8698 -17.8698 -17.8698 -17.8698 -17.8544 -17.8544 -17.8544 -17.8544
   -17.8509 -17.8509 -17.8509 -17.8509 -17.7762 -17.7762 -17.7762 -17.7762
    -8.4810  -8.4810  -8.4810  -8.4810  -8.3033  -8.3033  -8.3033  -8.3033
    -8.2757  -8.2757  -8.2757  -8.2757  -4.7587  -4.7587  -4.7587  -4.7587
    -4.6025  -4.6025  -4.6025  -4.6025  -4.5735  -4.5735  -4.5735  -4.5735
    -3.1856  -3.1856  -3.1856  -3.1856   0.2178   0.2178   0.2178   0.2178
     0.4425   0.4425   0.4425   0.4425   0.8699   0.8699   0.8699   0.8699
     1.3738   1.3738   1.3738   1.3738   1.7117   1.7117   1.7117   1.7117
     1.8022   1.8022   1.8022   1.8022   1.9473   1.9473   1.9473   1.9473
     2.1158   2.1158   2.1158   2.1158   2.8851   2.8851   2.8851   2.8851

     occupation numbers 
     1.0000   1.0000   1.0000   1.0000   1.0000   1.0000   1.0000   1.0000
     1.0000   1.0000   1.0000   1.0000   1.0000   1.0000   1.0000   1.0000
     1.0000   1.0000   1.0000   1.0000   1.0000   1.0000   1.0000   1.0000
     1.0000   1.0000   1.0000   1.0000   1.0000   1.0000   1.0000   1.0000
     1.0000   1.0000   1.0000   1.0000   1.0000   1.0000   1.0000   1.0000
     1.0000   1.0000   1.0000   1.0000   1.0000   1.0000   1.0000   1.0000
     1.0000   1.0000   1.0000   1.0000   1.0000   1.0000   1.0000   1.0000
     1.0000   1.0000   1.0000   1.0000   1.0000   1.0000   1.0000   1.0000
     1.0000   1.0000   1.0000   1.0000   1.0000   1.0000   1.0000   1.0000
     1.0000   1.0000   1.0000   1.0000   1.0000   1.0000   1.0000   1.0000
     1.0000   1.0000   1.0000   1.0000   1.0000   1.0000   1.0000   1.0000

     highest occupied level (ev):     2.9391

!    total energy              =   -7979.65785372 Ry

     total all-electron energy =   -282510.812566 Ry
     estimated scf accuracy    <       0.00000017 Ry

     The total energy is the sum of the following terms:
     one-electron contribution =    -463.66180907 Ry
     hartree contribution      =     316.61827648 Ry
     xc contribution           =    -465.90809607 Ry
     ewald contribution        =    -633.56960439 Ry
     one-center paw contrib.   =   -6733.13662067 Ry
      -> PAW hartree energy AE =      25.63129882 Ry
      -> PAW hartree energy PS =     -25.52175133 Ry
      -> PAW xc energy AE      =    -383.52980903 Ry
      -> PAW xc energy PS      =      20.51454000 Ry
      -> total E_H with PAW    =     316.72782397 Ry
      -> total E_XC with PAW   =    -828.92336510 Ry

     convergence has been achieved in  12 iterations

     Forces acting on atoms (cartesian axes, Ry/au):

     atom    1 type  1   force =     0.00000000   -0.00062598    0.00068289
     atom    2 type  1   force =     0.00000000    0.00062598   -0.00068289
     atom    3 type  1   force =     0.00000000   -0.00062598   -0.00068289
     atom    4 type  1   force =     0.00000000    0.00062598    0.00068289
     atom    5 type  2   force =     0.00000000   -0.00037663   -0.00004642
     atom    6 type  2   force =     0.00000000    0.00037663    0.00004642
     atom    7 type  2   force =     0.00000000   -0.00037663    0.00004642
     atom    8 type  2   force =     0.00000000    0.00037663   -0.00004642
     atom    9 type  3   force =     0.00000000   -0.00344482   -0.00182764
     atom   10 type  3   force =     0.00000000    0.00344482    0.00182764
     atom   11 type  3   force =     0.00000000   -0.00344482    0.00182764
     atom   12 type  3   force =     0.00000000    0.00344482   -0.00182764
     atom   13 type  3   force =     0.00000000   -0.00059568    0.00038228
     atom   14 type  3   force =     0.00000000    0.00059568   -0.00038228
     atom   15 type  3   force =    -0.00000000   -0.00059568   -0.00038228
     atom   16 type  3   force =    -0.00000000    0.00059568    0.00038228
     atom   17 type  3   force =     0.00000000    0.00324370   -0.00178045
     atom   18 type  3   force =     0.00000000   -0.00324370    0.00178045
     atom   19 type  3   force =     0.00000000    0.00324370    0.00178045
     atom   20 type  3   force =    -0.00000000   -0.00324370   -0.00178045
     The non-local contrib.  to forces
     atom    1 type  1   force =     0.00000000    0.00195309   -0.00094718
     atom    2 type  1   force =     0.00000000   -0.00195309    0.00094718
     atom    3 type  1   force =     0.00000000    0.00195309    0.00094718
     atom    4 type  1   force =     0.00000000   -0.00195309   -0.00094718
     atom    5 type  2   force =    -0.00000000   -0.08808263   -0.13096169
     atom    6 type  2   force =    -0.00000000    0.08808263    0.13096169
     atom    7 type  2   force =     0.00000000   -0.08808263    0.13096169
     atom    8 type  2   force =     0.00000000    0.08808263   -0.13096169
     atom    9 type  3   force =     0.00000000   -0.04814274   -0.04704733
     atom   10 type  3   force =     0.00000000    0.04814274    0.04704733
     atom   11 type  3   force =     0.00000000   -0.04814274    0.04704733
     atom   12 type  3   force =    -0.00000000    0.04814274   -0.04704733
     atom   13 type  3   force =     0.00000000   -0.03304730    0.05613640
     atom   14 type  3   force =    -0.00000000    0.03304730   -0.05613640
     atom   15 type  3   force =     0.00000000   -0.03304730   -0.05613640
     atom   16 type  3   force =     0.00000000    0.03304730    0.05613640
     atom   17 type  3   force =     0.00000000    0.05601711   -0.01693747
     atom   18 type  3   force =    -0.00000000   -0.05601711    0.01693747
     atom   19 type  3   force =     0.00000000    0.05601711    0.01693747
     atom   20 type  3   force =     0.00000000   -0.05601711   -0.01693747
     The ionic contribution  to forces
     atom    1 type  1   force =    -0.00000000    0.02273773    0.42856976
     atom    2 type  1   force =    -0.00000000   -0.02273773   -0.42856976
     atom    3 type  1   force =    -0.00000000    0.02273773   -0.42856976
     atom    4 type  1   force =    -0.00000000   -0.02273773    0.42856976
     atom    5 type  2   force =     0.00000000   -2.44382135   -1.60292983
     atom    6 type  2   force =     0.00000000    2.44382135    1.60292983
     atom    7 type  2   force =    -0.00000000   -2.44382135    1.60292983
     atom    8 type  2   force =     0.00000000    2.44382135   -1.60292983
     atom    9 type  3   force =    -0.00000000    3.00608891    5.13288893
     atom   10 type  3   force =     0.00000000   -3.00608891   -5.13288893
     atom   11 type  3   force =    -0.00000000    3.00608891   -5.13288893
     atom   12 type  3   force =    -0.00000000   -3.00608891    5.13288893
     atom   13 type  3   force =    -0.00000000    2.02422849   -3.75281499
     atom   14 type  3   force =     0.00000000   -2.02422849    3.75281499
     atom   15 type  3   force =    -0.00000000    2.02422849    3.75281499
     atom   16 type  3   force =     0.00000000   -2.02422849   -3.75281499
     atom   17 type  3   force =    -0.00000000   -4.20564473    2.10270404
     atom   18 type  3   force =     0.00000000    4.20564473   -2.10270404
     atom   19 type  3   force =    -0.00000000   -4.20564473   -2.10270404
     atom   20 type  3   force =     0.00000000    4.20564473    2.10270404
     The local contribution  to forces
     atom    1 type  1   force =     0.00000000   -0.02521980   -0.42693731
     atom    2 type  1   force =    -0.00000000    0.02521980    0.42693731
     atom    3 type  1   force =     0.00000000   -0.02521980    0.42693731
     atom    4 type  1   force =    -0.00000000    0.02521980   -0.42693731
     atom    5 type  2   force =    -0.00000000    2.53087089    1.73355061
     atom    6 type  2   force =    -0.00000000   -2.53087089   -1.73355061
     atom    7 type  2   force =    -0.00000000    2.53087089   -1.73355061
     atom    8 type  2   force =    -0.00000000   -2.53087089    1.73355061
     atom    9 type  3   force =     0.00000000   -2.96779221   -5.09400741
     atom   10 type  3   force =    -0.00000000    2.96779221    5.09400741
     atom   11 type  3   force =     0.00000000   -2.96779221    5.09400741
     atom   12 type  3   force =     0.00000000    2.96779221   -5.09400741
     atom   13 type  3   force =    -0.00000000   -1.99610083    3.70451756
     atom   14 type  3   force =     0.00000000    1.99610083   -3.70451756
     atom   15 type  3   force =    -0.00000000   -1.99610083   -3.70451756
     atom   16 type  3   force =     0.00000000    1.99610083    3.70451756
     atom   17 type  3   force =    -0.00000000    4.16045963   -2.09010431
     atom   18 type  3   force =     0.00000000   -4.16045963    2.09010431
     atom   19 type  3   force =    -0.00000000    4.16045963    2.09010431
     atom   20 type  3   force =     0.00000000   -4.16045963   -2.09010431
     The core correction contribution to forces
     atom    1 type  1   force =    -0.00000000   -0.00014612    0.00003982
     atom    2 type  1   force =     0.00000000    0.00014612   -0.00003982
     atom    3 type  1   force =    -0.00000000   -0.00014612   -0.00003982
     atom    4 type  1   force =     0.00000000    0.00014612    0.00003982
     atom    5 type  2   force =    -0.00000000    0.00018585    0.00003951
     atom    6 type  2   force =    -0.00000000   -0.00018585   -0.00003951
     atom    7 type  2   force =    -0.00000000    0.00018585   -0.00003951
     atom    8 type  2   force =    -0.00000000   -0.00018585    0.00003951
     atom    9 type  3   force =    -0.00000000    0.00641402    0.00649836
     atom   10 type  3   force =    -0.00000000   -0.00641402   -0.00649836
     atom   11 type  3   force =     0.00000000    0.00641402   -0.00649836
     atom   12 type  3   force =     0.00000000   -0.00641402    0.00649836
     atom   13 type  3   force =    -0.00000000    0.00436495   -0.00749207
     atom   14 type  3   force =    -0.00000000   -0.00436495    0.00749207
     atom   15 type  3   force =     0.00000000    0.00436495    0.00749207
     atom   16 type  3   force =    -0.00000000   -0.00436495   -0.00749207
     atom   17 type  3   force =    -0.00000000   -0.00769809    0.00253046
     atom   18 type  3   force =     0.00000000    0.00769809   -0.00253046
     atom   19 type  3   force =    -0.00000000   -0.00769809   -0.00253046
     atom   20 type  3   force =     0.00000000    0.00769809    0.00253046
     The Hubbard contrib.    to forces
     atom    1 type  1   force =     0.00000000    0.00000000    0.00000000
     atom    2 type  1   force =     0.00000000    0.00000000    0.00000000
     atom    3 type  1   force =     0.00000000    0.00000000    0.00000000
     atom    4 type  1   force =     0.00000000    0.00000000    0.00000000
     atom    5 type  2   force =     0.00000000    0.00000000    0.00000000
     atom    6 type  2   force =     0.00000000    0.00000000    0.00000000
     atom    7 type  2   force =     0.00000000    0.00000000    0.00000000
     atom    8 type  2   force =     0.00000000    0.00000000    0.00000000
     atom    9 type  3   force =     0.00000000    0.00000000    0.00000000
     atom   10 type  3   force =     0.00000000    0.00000000    0.00000000
     atom   11 type  3   force =     0.00000000    0.00000000    0.00000000
     atom   12 type  3   force =     0.00000000    0.00000000    0.00000000
     atom   13 type  3   force =     0.00000000    0.00000000    0.00000000
     atom   14 type  3   force =     0.00000000    0.00000000    0.00000000
     atom   15 type  3   force =     0.00000000    0.00000000    0.00000000
     atom   16 type  3   force =     0.00000000    0.00000000    0.00000000
     atom   17 type  3   force =     0.00000000    0.00000000    0.00000000
     atom   18 type  3   force =     0.00000000    0.00000000    0.00000000
     atom   19 type  3   force =     0.00000000    0.00000000    0.00000000
     atom   20 type  3   force =     0.00000000    0.00000000    0.00000000
     The SCF correction term to forces
     atom    1 type  1   force =    -0.00000000    0.00004912   -0.00004220
     atom    2 type  1   force =     0.00000000   -0.00004912    0.00004220
     atom    3 type  1   force =     0.00000000    0.00004912    0.00004220
     atom    4 type  1   force =     0.00000000   -0.00004912   -0.00004220
     atom    5 type  2   force =     0.00000000    0.00047062    0.00025498
     atom    6 type  2   force =     0.00000000   -0.00047062   -0.00025498
     atom    7 type  2   force =    -0.00000000    0.00047062   -0.00025498
     atom    8 type  2   force =    -0.00000000   -0.00047062    0.00025498
     atom    9 type  3   force =    -0.00000000   -0.00001281   -0.00016019
     atom   10 type  3   force =    -0.00000000    0.00001281    0.00016019
     atom   11 type  3   force =     0.00000000   -0.00001281    0.00016019
     atom   12 type  3   force =    -0.00000000    0.00001281   -0.00016019
     atom   13 type  3   force =     0.00000000   -0.00004099    0.00003539
     atom   14 type  3   force =    -0.00000000    0.00004099   -0.00003539
     atom   15 type  3   force =     0.00000000   -0.00004099   -0.00003539
     atom   16 type  3   force =     0.00000000    0.00004099    0.00003539
     atom   17 type  3   force =    -0.00000000    0.00010979    0.00002683
     atom   18 type  3   force =     0.00000000   -0.00010979   -0.00002683
     atom   19 type  3   force =    -0.00000000    0.00010979   -0.00002683
     atom   20 type  3   force =     0.00000000   -0.00010979    0.00002683

     Total force =     0.011028     Total SCF correction =     0.001153
     SCF correction compared to forces is large: reduce conv_thr to get better values


     Computing stress (Cartesian axis) and pressure

          total   stress  (Ry/bohr**3)                   (kbar)     P=       -0.15
   0.00002571   0.00000000   0.00000000            3.78        0.00        0.00
   0.00000000  -0.00001893   0.00000000            0.00       -2.78        0.00
   0.00000000   0.00000000  -0.00000975            0.00        0.00       -1.43

     kinetic stress (kbar)   5529.42      0.00      0.00
                                0.00   5530.27      0.00
                                0.00      0.00   5526.20

     local   stress (kbar)  -4523.59      0.00     -0.00
                                0.00  -1881.71      0.00
                               -0.00      0.00   -989.89

     nonloc. stress (kbar)   1143.73      0.00      0.00
                                0.00   1139.30      0.00
                                0.00      0.00   1142.48

     hartree stress (kbar)   3404.93      0.00     -0.00
                                0.00   2187.67     -0.00
                               -0.00     -0.00   1718.58

     exc-cor stress (kbar)   5446.63      0.00     -0.00
                                0.00   5446.22      0.00
                               -0.00      0.00   5446.68

     corecor stress (kbar)  -7212.53     -0.00     -0.00
                               -0.00  -7212.37     -0.00
                               -0.00      0.00  -7212.40

     ewald   stress (kbar)  -3784.80      0.00     -0.00
                                0.00  -5212.16      0.00
                               -0.00      0.00  -5633.09

     hubbard stress (kbar)      0.00      0.00      0.00
                                0.00      0.00      0.00
                                0.00      0.00      0.00

     DFT-D   stress (kbar)      0.00      0.00      0.00
                                0.00      0.00      0.00
                                0.00      0.00      0.00

     XDM     stress (kbar)      0.00      0.00      0.00
                                0.00      0.00      0.00
                                0.00      0.00      0.00

     dft-nl  stress (kbar)      0.00      0.00      0.00
                                0.00      0.00      0.00
                                0.00      0.00      0.00

     TS-vdW  stress (kbar)      0.00      0.00      0.00
                                0.00      0.00      0.00
                                0.00      0.00      0.00



     Writing output data file ./CsSnI3.save/
 
     init_run     :     10.80s CPU     11.16s WALL (       1 calls)
     electrons    :    193.39s CPU    200.52s WALL (       1 calls)
     forces       :      4.43s CPU      4.64s WALL (       1 calls)
     stress       :     25.29s CPU     25.88s WALL (       1 calls)

     Called by init_run:
     wfcinit      :      3.94s CPU      4.00s WALL (       1 calls)
     wfcinit:atom :      0.04s CPU      0.05s WALL (       8 calls)
     wfcinit:wfcr :      3.71s CPU      3.77s WALL (       8 calls)
     potinit      :      1.26s CPU      1.29s WALL (       1 calls)
     hinit0       :      2.23s CPU      2.28s WALL (       1 calls)

     Called by electrons:
     c_bands      :    141.48s CPU    142.39s WALL (      13 calls)
     sum_band     :     33.08s CPU     36.90s WALL (      13 calls)
     v_of_rho     :      1.52s CPU      1.53s WALL (      13 calls)
     v_h          :      0.13s CPU      0.13s WALL (      13 calls)
     v_xc         :      1.58s CPU      1.59s WALL (      15 calls)
     newd         :     11.56s CPU     14.02s WALL (      13 calls)
     PAW_pot      :      5.96s CPU      5.98s WALL (      13 calls)
     mix_rho      :      0.80s CPU      0.80s WALL (      13 calls)

     Called by c_bands:
     init_us_2    :      2.74s CPU      2.75s WALL (     232 calls)
     cegterg      :    130.18s CPU    131.04s WALL (     104 calls)

     Called by sum_band:
     sum_band:wei :      0.00s CPU      0.00s WALL (      13 calls)
     sum_band:loo :     19.54s CPU     19.69s WALL (      13 calls)
     sum_band:buf :      0.35s CPU      0.35s WALL (     104 calls)
     sum_band:ini :      1.25s CPU      1.25s WALL (     104 calls)
     sum_band:cal :      3.59s CPU      3.57s WALL (     104 calls)
     sum_band:bec :      0.09s CPU      0.09s WALL (     104 calls)
     addusdens    :     12.67s CPU     16.33s WALL (      13 calls)
     addusd:skk   :      0.06s CPU      0.07s WALL (      39 calls)
     addusd:dgemm :      5.29s CPU      8.88s WALL (      39 calls)
     addusd:qvan2 :      6.92s CPU      6.92s WALL (      39 calls)

     Called by *egterg:
     cdiaghg      :      7.37s CPU      7.52s WALL (     575 calls)
     cegterg:over :      7.54s CPU      7.55s WALL (     479 calls)
     cegterg:upda :      3.54s CPU      3.55s WALL (     479 calls)
     cegterg:last :      6.62s CPU      6.63s WALL (     250 calls)
     h_psi        :     93.92s CPU     94.60s WALL (     591 calls)
     s_psi        :     10.42s CPU     10.44s WALL (     591 calls)
     g_psi        :      0.22s CPU      0.22s WALL (     479 calls)

     Called by h_psi:
     h_psi:calbec :     12.36s CPU     12.28s WALL (     591 calls)
     vloc_psi     :     70.33s CPU     71.05s WALL (     591 calls)
     add_vuspsi   :     10.44s CPU     10.47s WALL (     591 calls)

     General routines
     calbec       :     17.24s CPU     17.15s WALL (     735 calls)
     fft          :      1.96s CPU      2.01s WALL (     193 calls)
     ffts         :      0.12s CPU      0.12s WALL (      26 calls)
     fftw         :     77.44s CPU     78.27s WALL (   64128 calls)
     interpolate  :      0.17s CPU      0.17s WALL (      13 calls)
 
     Parallel routines
     fft_scatt_xy :      8.85s CPU      8.94s WALL (   64347 calls)
     fft_scatt_yz :     42.07s CPU     42.48s WALL (   64347 calls)

     PAW routines
     PAW_pot      :      5.96s CPU      5.98s WALL (      13 calls)
     PAW_symme    :      0.14s CPU      0.15s WALL (      26 calls)
 
     PWSCF        :   4m 9.71s CPU   4m20.11s WALL

 
   This run was terminated on:  12:46:21  14Jan2021            

=------------------------------------------------------------------------------=
   JOB DONE.
=------------------------------------------------------------------------------=
