
     Program PWSCF v.6.6 starts on 14Jan2021 at 12:28:16 

     This program is part of the open-source Quantum ESPRESSO suite
     for quantum simulation of materials; please cite
         "P. Giannozzi et al., J. Phys.:Condens. Matter 21 395502 (2009);
         "P. Giannozzi et al., J. Phys.:Condens. Matter 29 465901 (2017);
          URL http://www.quantum-espresso.org", 
     in publications or presentations arising from this work. More details at
     http://www.quantum-espresso.org/quote

     Parallel version (MPI), running on    64 processors

     MPI processes distributed on     2 nodes
     R & G space division:  proc/nbgrp/npool/nimage =      64
     Fft bands division:     nmany     =       1
     Waiting for input...
     Reading input from standard input

     Current dimensions of program PWSCF are:
     Max number of different atomic species (ntypx) = 10
     Max number of k-points (npk) =  40000
     Max angular momentum in pseudopotentials (lmaxx) =  3
     file Cs.pbe-spn-kjpaw_psl.1.0.0.UPF: wavefunction(s)  5S 6S renormalized
     file Sn.pbe-dn-kjpaw_psl.1.0.0.UPF: wavefunction(s)  5S 5P 4D renormalized
     file I.pbe-n-kjpaw_psl.1.0.0.UPF: wavefunction(s)  5S renormalized

     Subspace diagonalization in iterative solution of the eigenvalue problem:
     a serial algorithm will be used

 
     Parallelization info
     --------------------
     sticks:   dense  smooth     PW     G-vecs:    dense   smooth      PW
     Min          83      55     15                11483     6245     899
     Max          84      56     16                11492     6256     908
     Sum        5329    3545    975               735059   400005   57839
 

     Title: 
     CsSnI3                                                                     


     bravais-lattice index     =            8
     lattice parameter (alat)  =       9.1317  a.u.
     unit-cell volume          =    6370.5385 (a.u.)^3
     number of atoms/cell      =           20
     number of atomic types    =            3
     number of electrons       =       176.00
     number of Kohn-Sham states=           88
     kinetic-energy cutoff     =      60.0000  Ry
     charge density cutoff     =     360.0000  Ry
     convergence threshold     =      1.0E-06
     mixing beta               =       0.5000
     number of iterations used =            8  plain     mixing
     Exchange-correlation= SLA PW PBX PBC
                           (   1   4   3   4   0   0   0)

     celldm(1)=   9.131705  celldm(2)=   2.227728  celldm(3)=   3.755420
     celldm(4)=   0.000000  celldm(5)=   0.000000  celldm(6)=   0.000000

     crystal axes: (cart. coord. in units of alat)
               a(1) = (   1.000000   0.000000   0.000000 )  
               a(2) = (   0.000000   2.227728   0.000000 )  
               a(3) = (   0.000000   0.000000   3.755420 )  

     reciprocal axes: (cart. coord. in units 2 pi/alat)
               b(1) = (  1.000000  0.000000  0.000000 )  
               b(2) = (  0.000000  0.448888  0.000000 )  
               b(3) = (  0.000000  0.000000  0.266282 )  


     PseudoPot. # 1 for Cs read from file:
     /scratch/gtenti/degironcoli/pseudo/Cs.pbe-spn-kjpaw_psl.1.0.0.UPF
     MD5 check sum: b82c75cc2e1f4ff73b6412cffeb9c584
     Pseudo is Projector augmented-wave + core cor, Zval =  9.0
     Generated using "atomic" code by A. Dal Corso v.6.4.1
     Shape of augmentation charge: PSQ
     Using radial grid of 1251 points,  9 beta functions with: 
                l(1) =   0
                l(2) =   0
                l(3) =   0
                l(4) =   1
                l(5) =   1
                l(6) =   2
                l(7) =   2
                l(8) =   3
                l(9) =   3
     Q(r) pseudized with 0 coefficients 


     PseudoPot. # 2 for Sn read from file:
     /scratch/gtenti/degironcoli/pseudo/Sn.pbe-dn-kjpaw_psl.1.0.0.UPF
     MD5 check sum: 67f11dec737d427557dc41ea34975807
     Pseudo is Projector augmented-wave + core cor, Zval = 14.0
     Generated using "atomic" code by A. Dal Corso v.6.3
     Shape of augmentation charge: PSQ
     Using radial grid of 1243 points,  6 beta functions with: 
                l(1) =   0
                l(2) =   0
                l(3) =   1
                l(4) =   1
                l(5) =   2
                l(6) =   2
     Q(r) pseudized with 0 coefficients 


     PseudoPot. # 3 for I  read from file:
     /scratch/gtenti/degironcoli/pseudo/I.pbe-n-kjpaw_psl.1.0.0.UPF
     MD5 check sum: cd3d296c3308a581e1559a0c8a554cb5
     Pseudo is Projector augmented-wave + core cor, Zval =  7.0
     Generated using "atomic" code by A. Dal Corso v.6.3
     Shape of augmentation charge: PSQ
     Using radial grid of 1247 points,  6 beta functions with: 
                l(1) =   0
                l(2) =   0
                l(3) =   1
                l(4) =   1
                l(5) =   2
                l(6) =   2
     Q(r) pseudized with 0 coefficients 


     atomic species   valence    mass     pseudopotential
        Cs             9.00   132.90000     Cs( 1.00)
        Sn            14.00   118.70000     Sn( 1.00)
        I              7.00   126.90000     I ( 1.00)

      8 Sym. Ops., with inversion, found ( 6 have fractional translation)


                                    s                        frac. trans.

      isym =  1     identity                                     

 cryst.   s( 1) = (     1          0          0      )
                  (     0          1          0      )
                  (     0          0          1      )

 cart.    s( 1) = (  1.0000000  0.0000000  0.0000000 )
                  (  0.0000000  1.0000000  0.0000000 )
                  (  0.0000000  0.0000000  1.0000000 )


      isym =  2     180 deg rotation - cart. axis [0,0,1]        

 cryst.   s( 2) = (    -1          0          0      )    f =(  0.0000000 )
                  (     0         -1          0      )       (  0.5000000 )
                  (     0          0          1      )       (  0.5000000 )

 cart.    s( 2) = ( -1.0000000  0.0000000  0.0000000 )    f =(  0.0000000 )
                  (  0.0000000 -1.0000000  0.0000000 )       (  1.1138638 )
                  (  0.0000000  0.0000000  1.0000000 )       (  1.8777098 )


      isym =  3     180 deg rotation - cart. axis [0,1,0]        

 cryst.   s( 3) = (    -1          0          0      )    f =(  0.5000000 )
                  (     0          1          0      )       ( -0.5000000 )
                  (     0          0         -1      )       ( -0.5000000 )

 cart.    s( 3) = ( -1.0000000  0.0000000  0.0000000 )    f =(  0.5000000 )
                  (  0.0000000  1.0000000  0.0000000 )       ( -1.1138638 )
                  (  0.0000000  0.0000000 -1.0000000 )       ( -1.8777098 )


      isym =  4     180 deg rotation - cart. axis [1,0,0]        

 cryst.   s( 4) = (     1          0          0      )    f =( -0.5000000 )
                  (     0         -1          0      )       (  0.0000000 )
                  (     0          0         -1      )       (  0.0000000 )

 cart.    s( 4) = (  1.0000000  0.0000000  0.0000000 )    f =( -0.5000000 )
                  (  0.0000000 -1.0000000  0.0000000 )       (  0.0000000 )
                  (  0.0000000  0.0000000 -1.0000000 )       (  0.0000000 )


      isym =  5     inversion                                    

 cryst.   s( 5) = (    -1          0          0      )
                  (     0         -1          0      )
                  (     0          0         -1      )

 cart.    s( 5) = ( -1.0000000  0.0000000  0.0000000 )
                  (  0.0000000 -1.0000000  0.0000000 )
                  (  0.0000000  0.0000000 -1.0000000 )


      isym =  6     inv. 180 deg rotation - cart. axis [0,0,1]   

 cryst.   s( 6) = (     1          0          0      )    f =(  0.0000000 )
                  (     0          1          0      )       ( -0.5000000 )
                  (     0          0         -1      )       ( -0.5000000 )

 cart.    s( 6) = (  1.0000000  0.0000000  0.0000000 )    f =(  0.0000000 )
                  (  0.0000000  1.0000000  0.0000000 )       ( -1.1138638 )
                  (  0.0000000  0.0000000 -1.0000000 )       ( -1.8777098 )


      isym =  7     inv. 180 deg rotation - cart. axis [0,1,0]   

 cryst.   s( 7) = (     1          0          0      )    f =( -0.5000000 )
                  (     0         -1          0      )       (  0.5000000 )
                  (     0          0          1      )       (  0.5000000 )

 cart.    s( 7) = (  1.0000000  0.0000000  0.0000000 )    f =( -0.5000000 )
                  (  0.0000000 -1.0000000  0.0000000 )       (  1.1138638 )
                  (  0.0000000  0.0000000  1.0000000 )       (  1.8777098 )


      isym =  8     inv. 180 deg rotation - cart. axis [1,0,0]   

 cryst.   s( 8) = (    -1          0          0      )    f =(  0.5000000 )
                  (     0          1          0      )       (  0.0000000 )
                  (     0          0          1      )       (  0.0000000 )

 cart.    s( 8) = ( -1.0000000  0.0000000  0.0000000 )    f =(  0.5000000 )
                  (  0.0000000  1.0000000  0.0000000 )       (  0.0000000 )
                  (  0.0000000  0.0000000  1.0000000 )       (  0.0000000 )


     point group D_2h (mmm) 
     there are  8 classes
     the character table:

       E     C2    C2'   C2''  i     s_v   s_v'  s_v''
A_g    1.00  1.00  1.00  1.00  1.00  1.00  1.00  1.00
B_1g   1.00  1.00 -1.00 -1.00  1.00  1.00 -1.00 -1.00
B_2g   1.00 -1.00  1.00 -1.00  1.00 -1.00  1.00 -1.00
B_3g   1.00 -1.00 -1.00  1.00  1.00 -1.00 -1.00  1.00
A_u    1.00  1.00  1.00  1.00 -1.00 -1.00 -1.00 -1.00
B_1u   1.00  1.00 -1.00 -1.00 -1.00 -1.00  1.00  1.00
B_2u   1.00 -1.00  1.00 -1.00 -1.00  1.00 -1.00  1.00
B_3u   1.00 -1.00 -1.00  1.00 -1.00  1.00  1.00 -1.00

     the symmetry operations in each class and the name of the first element:

     E        1
          identity                                               
     C2       2
          180 deg rotation - cart. axis [0,0,1]                  
     C2'      4
          180 deg rotation - cart. axis [1,0,0]                  
     C2''     3
          180 deg rotation - cart. axis [0,1,0]                  
     i        5
          inversion                                              
     s_v      6
          inv. 180 deg rotation - cart. axis [0,0,1]             
     s_v'     8
          inv. 180 deg rotation - cart. axis [1,0,0]             
     s_v''    7
          inv. 180 deg rotation - cart. axis [0,1,0]             

   Cartesian axes

     site n.     atom                  positions (alat units)
         1           Cs  tau(   1) = (   0.2500000   0.1859640   2.5168147  )
         2           Cs  tau(   2) = (   0.7500000   2.0417636   1.2386050  )
         3           Cs  tau(   3) = (   0.2500000   1.2998278   3.1163149  )
         4           Cs  tau(   4) = (   0.7500000   0.9278998   0.6391048  )
         5           Sn  tau(   5) = (   0.2500000   0.7615710   1.6485466  )
         6           Sn  tau(   6) = (   0.7500000   1.4661567   2.1068731  )
         7           Sn  tau(   7) = (   0.2500000   1.8754348   0.2291632  )
         8           Sn  tau(   8) = (   0.7500000   0.3522928   3.5262565  )
         9           I   tau(   9) = (   0.7500000   0.0581437   0.4202578  )
        10           I   tau(  10) = (   0.2500000   2.1695839   3.3351619  )
        11           I   tau(  11) = (   0.7500000   1.1720075   1.4574521  )
        12           I   tau(  12) = (   0.2500000   1.0557201   2.2979676  )
        13           I   tau(  13) = (   0.7500000   0.6531118   2.9738192  )
        14           I   tau(  14) = (   0.2500000   1.5746158   0.7816005  )
        15           I   tau(  15) = (   0.7500000   1.7669756   2.6593103  )
        16           I   tau(  16) = (   0.2500000   0.4607520   1.0961094  )
        17           I   tau(  17) = (   0.7500000   0.3753632   1.8734812  )
        18           I   tau(  18) = (   0.2500000   1.8523644   1.8819384  )
        19           I   tau(  19) = (   0.7500000   1.4892270   0.0042286  )
        20           I   tau(  20) = (   0.2500000   0.7385006   3.7511911  )

   Crystallographic axes

     site n.     atom                  positions (cryst. coord.)
         1           Cs  tau(   1) = (  0.2500000  0.0834770  0.6701820  )
         2           Cs  tau(   2) = (  0.7500000  0.9165230  0.3298180  )
         3           Cs  tau(   3) = (  0.2500000  0.5834770  0.8298180  )
         4           Cs  tau(   4) = (  0.7500000  0.4165230  0.1701820  )
         5           Sn  tau(   5) = (  0.2500000  0.3418600  0.4389780  )
         6           Sn  tau(   6) = (  0.7500000  0.6581400  0.5610220  )
         7           Sn  tau(   7) = (  0.2500000  0.8418600  0.0610220  )
         8           Sn  tau(   8) = (  0.7500000  0.1581400  0.9389780  )
         9           I   tau(   9) = (  0.7500000  0.0261000  0.1119070  )
        10           I   tau(  10) = (  0.2500000  0.9739000  0.8880930  )
        11           I   tau(  11) = (  0.7500000  0.5261000  0.3880930  )
        12           I   tau(  12) = (  0.2500000  0.4739000  0.6119070  )
        13           I   tau(  13) = (  0.7500000  0.2931740  0.7918740  )
        14           I   tau(  14) = (  0.2500000  0.7068260  0.2081260  )
        15           I   tau(  15) = (  0.7500000  0.7931740  0.7081260  )
        16           I   tau(  16) = (  0.2500000  0.2068260  0.2918740  )
        17           I   tau(  17) = (  0.7500000  0.1684960  0.4988740  )
        18           I   tau(  18) = (  0.2500000  0.8315040  0.5011260  )
        19           I   tau(  19) = (  0.7500000  0.6684960  0.0011260  )
        20           I   tau(  20) = (  0.2500000  0.3315040  0.9988740  )

     number of k points=     8
                       cart. coord. in units 2pi/alat
        k(    1) = (   0.0000000   0.0000000   0.0000000), wk =   0.2500000
        k(    2) = (   0.0000000   0.0000000  -0.1331409), wk =   0.2500000
        k(    3) = (   0.0000000  -0.2244440   0.0000000), wk =   0.2500000
        k(    4) = (   0.0000000  -0.2244440  -0.1331409), wk =   0.2500000
        k(    5) = (  -0.5000000   0.0000000   0.0000000), wk =   0.2500000
        k(    6) = (  -0.5000000   0.0000000  -0.1331409), wk =   0.2500000
        k(    7) = (  -0.5000000  -0.2244440   0.0000000), wk =   0.2500000
        k(    8) = (  -0.5000000  -0.2244440  -0.1331409), wk =   0.2500000

                       cryst. coord.
        k(    1) = (   0.0000000   0.0000000   0.0000000), wk =   0.2500000
        k(    2) = (   0.0000000   0.0000000  -0.5000000), wk =   0.2500000
        k(    3) = (   0.0000000  -0.5000000   0.0000000), wk =   0.2500000
        k(    4) = (   0.0000000  -0.5000000  -0.5000000), wk =   0.2500000
        k(    5) = (  -0.5000000   0.0000000   0.0000000), wk =   0.2500000
        k(    6) = (  -0.5000000   0.0000000  -0.5000000), wk =   0.2500000
        k(    7) = (  -0.5000000  -0.5000000   0.0000000), wk =   0.2500000
        k(    8) = (  -0.5000000  -0.5000000  -0.5000000), wk =   0.2500000

     Dense  grid:   735059 G-vectors     FFT dimensions: (  60, 128, 216)

     Smooth grid:   400005 G-vectors     FFT dimensions: (  48, 108, 180)

     Dynamical RAM for                 wfc:       1.05 MB

     Dynamical RAM for     wfc (w. buffer):       9.44 MB

     Dynamical RAM for           str. fact:       0.53 MB

     Dynamical RAM for           local pot:       0.00 MB

     Dynamical RAM for          nlocal pot:       5.01 MB

     Dynamical RAM for                qrad:      13.71 MB

     Dynamical RAM for          rho,v,vnew:       1.23 MB

     Dynamical RAM for               rhoin:       0.41 MB

     Dynamical RAM for            rho*nmix:       2.80 MB

     Dynamical RAM for           G-vectors:       0.70 MB

     Dynamical RAM for          h,s,v(r/c):       1.42 MB

     Dynamical RAM for          <psi|beta>:       0.56 MB

     Dynamical RAM for                 psi:       2.10 MB

     Dynamical RAM for                hpsi:       2.10 MB

     Dynamical RAM for                spsi:       2.10 MB

     Dynamical RAM for      wfcinit/wfcrot:       2.73 MB

     Dynamical RAM for           addusdens:     105.15 MB

     Dynamical RAM for          addusforce:     109.25 MB

     Dynamical RAM for         addusstress:     107.78 MB

     Estimated static dynamical RAM per process >      35.70 MB

     Estimated max dynamical RAM per process >     144.94 MB

     Estimated total dynamical RAM >       9.06 GB

     Initial potential from superposition of free atoms

     starting charge  175.83511, renormalised to  176.00000
     Starting wfcs are  104 randomized atomic wfcs
     Checking if some PAW data can be deallocated... 
       PAW data deallocated on   48 nodes for type:  1
       PAW data deallocated on   52 nodes for type:  2
       PAW data deallocated on   28 nodes for type:  3

     total cpu time spent up to now is       12.1 secs

     Self-consistent Calculation

     iteration #  1     ecut=    60.00 Ry     beta= 0.50
     Davidson diagonalization with overlap
     ethr =  1.00E-02,  avg # of iterations =  1.0

     Threshold (ethr) on eigenvalues was too large:
     Diagonalizing with lowered threshold

     Davidson diagonalization with overlap
     ethr =  3.20E-04,  avg # of iterations =  3.9

     total cpu time spent up to now is       28.3 secs

     total energy              =   -7979.46919609 Ry
     estimated scf accuracy    <       0.45566186 Ry

     iteration #  2     ecut=    60.00 Ry     beta= 0.50
     Davidson diagonalization with overlap
     ethr =  2.59E-04,  avg # of iterations =  4.0

     total cpu time spent up to now is       37.7 secs

     total energy              =   -7979.60767283 Ry
     estimated scf accuracy    <       0.11666583 Ry

     iteration #  3     ecut=    60.00 Ry     beta= 0.50
     Davidson diagonalization with overlap
     ethr =  6.63E-05,  avg # of iterations =  3.2

     total cpu time spent up to now is       46.4 secs

     total energy              =   -7979.62711733 Ry
     estimated scf accuracy    <       0.01107479 Ry

     iteration #  4     ecut=    60.00 Ry     beta= 0.50
     Davidson diagonalization with overlap
     ethr =  6.29E-06,  avg # of iterations =  7.1

     total cpu time spent up to now is       58.5 secs

     total energy              =   -7979.63415538 Ry
     estimated scf accuracy    <       0.01019366 Ry

     iteration #  5     ecut=    60.00 Ry     beta= 0.50
     Davidson diagonalization with overlap
     ethr =  5.79E-06,  avg # of iterations =  5.5

     total cpu time spent up to now is       68.4 secs

     total energy              =   -7979.63712805 Ry
     estimated scf accuracy    <       0.00157388 Ry

     iteration #  6     ecut=    60.00 Ry     beta= 0.50
     Davidson diagonalization with overlap
     ethr =  8.94E-07,  avg # of iterations =  3.2

     total cpu time spent up to now is       77.0 secs

     total energy              =   -7979.63719125 Ry
     estimated scf accuracy    <       0.00036928 Ry

     iteration #  7     ecut=    60.00 Ry     beta= 0.50
     Davidson diagonalization with overlap
     ethr =  2.10E-07,  avg # of iterations =  6.4

     total cpu time spent up to now is       87.9 secs

     total energy              =   -7979.63735846 Ry
     estimated scf accuracy    <       0.00013305 Ry

     iteration #  8     ecut=    60.00 Ry     beta= 0.50
     Davidson diagonalization with overlap
     ethr =  7.56E-08,  avg # of iterations =  5.4

     total cpu time spent up to now is       97.7 secs

     total energy              =   -7979.63739381 Ry
     estimated scf accuracy    <       0.00001552 Ry

     iteration #  9     ecut=    60.00 Ry     beta= 0.50
     Davidson diagonalization with overlap
     ethr =  8.82E-09,  avg # of iterations =  5.0

     total cpu time spent up to now is      107.3 secs

     total energy              =   -7979.63739348 Ry
     estimated scf accuracy    <       0.00000654 Ry

     iteration # 10     ecut=    60.00 Ry     beta= 0.50
     Davidson diagonalization with overlap
     ethr =  3.71E-09,  avg # of iterations =  4.4

     total cpu time spent up to now is      117.5 secs

     total energy              =   -7979.63739540 Ry
     estimated scf accuracy    <       0.00000200 Ry

     iteration # 11     ecut=    60.00 Ry     beta= 0.50
     Davidson diagonalization with overlap
     ethr =  1.14E-09,  avg # of iterations =  5.0

     total cpu time spent up to now is      128.0 secs

     total energy              =   -7979.63739597 Ry
     estimated scf accuracy    <       0.00000130 Ry

     iteration # 12     ecut=    60.00 Ry     beta= 0.50
     Davidson diagonalization with overlap
     ethr =  7.40E-10,  avg # of iterations =  4.0

     total cpu time spent up to now is      136.9 secs

     End of self-consistent calculation

          k = 0.0000 0.0000 0.0000 ( 49997 PWs)   bands (ev):

   -17.8794 -17.8793 -17.8792 -17.8791 -17.8715 -17.8715 -17.8711 -17.8711
   -17.8682 -17.8681 -17.8676 -17.8675 -17.8564 -17.8564 -17.8551 -17.8550
   -17.8489 -17.8487 -17.8475 -17.8475 -17.7878 -17.7875 -17.7869 -17.7866
    -8.8007  -8.7763  -8.5943  -8.5324  -8.4450  -8.4351  -8.4151  -8.4047
    -8.2781  -8.2548  -8.2368  -8.1941  -4.6167  -4.6157  -4.6131  -4.6065
    -4.5978  -4.5711  -4.5544  -4.5527  -4.5462  -4.5446  -4.5428  -4.5399
    -2.8867  -2.8617  -2.8237  -2.7430   0.1243   0.3259   0.7542   0.8909
     0.9055   0.9869   1.1130   1.1240   1.2144   1.2807   1.3250   1.3337
     1.3343   1.5556   1.6345   1.7321   1.7810   1.7976   1.8145   1.8206
     1.8253   1.8395   1.9802   2.0646   2.0703   2.1748   2.2075   2.2232
     2.2357   2.2378   2.3137   2.3179   2.3829   2.4789   2.6267   2.9254

     occupation numbers 
     1.0000   1.0000   1.0000   1.0000   1.0000   1.0000   1.0000   1.0000
     1.0000   1.0000   1.0000   1.0000   1.0000   1.0000   1.0000   1.0000
     1.0000   1.0000   1.0000   1.0000   1.0000   1.0000   1.0000   1.0000
     1.0000   1.0000   1.0000   1.0000   1.0000   1.0000   1.0000   1.0000
     1.0000   1.0000   1.0000   1.0000   1.0000   1.0000   1.0000   1.0000
     1.0000   1.0000   1.0000   1.0000   1.0000   1.0000   1.0000   1.0000
     1.0000   1.0000   1.0000   1.0000   1.0000   1.0000   1.0000   1.0000
     1.0000   1.0000   1.0000   1.0000   1.0000   1.0000   1.0000   1.0000
     1.0000   1.0000   1.0000   1.0000   1.0000   1.0000   1.0000   1.0000
     1.0000   1.0000   1.0000   1.0000   1.0000   1.0000   1.0000   1.0000
     1.0000   1.0000   1.0000   1.0000   1.0000   1.0000   1.0000   1.0000

          k = 0.0000 0.0000-0.1331 ( 49996 PWs)   bands (ev):

   -17.8794 -17.8794 -17.8791 -17.8791 -17.8715 -17.8715 -17.8711 -17.8711
   -17.8681 -17.8681 -17.8676 -17.8676 -17.8563 -17.8563 -17.8550 -17.8550
   -17.8488 -17.8488 -17.8475 -17.8475 -17.7877 -17.7877 -17.7867 -17.7867
    -8.7898  -8.7898  -8.5638  -8.5638  -8.4401  -8.4401  -8.4084  -8.4084
    -8.2713  -8.2713  -8.2103  -8.2103  -4.6220  -4.6220  -4.6053  -4.6053
    -4.5841  -4.5841  -4.5536  -4.5536  -4.5454  -4.5454  -4.5406  -4.5406
    -2.8792  -2.8792  -2.7786  -2.7786   0.2140   0.2140   0.8435   0.8435
     0.8978   0.8978   1.1437   1.1437   1.2845   1.2845   1.3070   1.3070
     1.5231   1.5231   1.5823   1.5823   1.7968   1.7968   1.8208   1.8208
     1.8298   1.8298   1.9857   1.9857   2.1209   2.1209   2.2179   2.2179
     2.2266   2.2266   2.3552   2.3552   2.4589   2.4589   2.7657   2.7657

     occupation numbers 
     1.0000   1.0000   1.0000   1.0000   1.0000   1.0000   1.0000   1.0000
     1.0000   1.0000   1.0000   1.0000   1.0000   1.0000   1.0000   1.0000
     1.0000   1.0000   1.0000   1.0000   1.0000   1.0000   1.0000   1.0000
     1.0000   1.0000   1.0000   1.0000   1.0000   1.0000   1.0000   1.0000
     1.0000   1.0000   1.0000   1.0000   1.0000   1.0000   1.0000   1.0000
     1.0000   1.0000   1.0000   1.0000   1.0000   1.0000   1.0000   1.0000
     1.0000   1.0000   1.0000   1.0000   1.0000   1.0000   1.0000   1.0000
     1.0000   1.0000   1.0000   1.0000   1.0000   1.0000   1.0000   1.0000
     1.0000   1.0000   1.0000   1.0000   1.0000   1.0000   1.0000   1.0000
     1.0000   1.0000   1.0000   1.0000   1.0000   1.0000   1.0000   1.0000
     1.0000   1.0000   1.0000   1.0000   1.0000   1.0000   1.0000   1.0000

          k = 0.0000-0.2244 0.0000 ( 50022 PWs)   bands (ev):

   -17.8794 -17.8794 -17.8792 -17.8792 -17.8714 -17.8714 -17.8711 -17.8711
   -17.8682 -17.8682 -17.8676 -17.8676 -17.8564 -17.8564 -17.8550 -17.8550
   -17.8488 -17.8488 -17.8475 -17.8475 -17.7873 -17.7873 -17.7871 -17.7871
    -8.7668  -8.7668  -8.6070  -8.6070  -8.4862  -8.4862  -8.3436  -8.3436
    -8.2536  -8.2536  -8.2239  -8.2239  -4.6237  -4.6237  -4.6032  -4.6032
    -4.5768  -4.5768  -4.5593  -4.5593  -4.5503  -4.5503  -4.5487  -4.5487
    -2.8966  -2.8966  -2.7503  -2.7503   0.2536   0.2536   0.8179   0.8179
     0.9508   0.9508   1.1871   1.1871   1.2016   1.2016   1.3158   1.3158
     1.4155   1.4155   1.5580   1.5580   1.7457   1.7457   1.7829   1.7829
     1.9699   1.9699   2.0116   2.0116   2.0705   2.0705   2.2353   2.2353
     2.2631   2.2631   2.3125   2.3125   2.3963   2.3963   2.9395   2.9395

     occupation numbers 
     1.0000   1.0000   1.0000   1.0000   1.0000   1.0000   1.0000   1.0000
     1.0000   1.0000   1.0000   1.0000   1.0000   1.0000   1.0000   1.0000
     1.0000   1.0000   1.0000   1.0000   1.0000   1.0000   1.0000   1.0000
     1.0000   1.0000   1.0000   1.0000   1.0000   1.0000   1.0000   1.0000
     1.0000   1.0000   1.0000   1.0000   1.0000   1.0000   1.0000   1.0000
     1.0000   1.0000   1.0000   1.0000   1.0000   1.0000   1.0000   1.0000
     1.0000   1.0000   1.0000   1.0000   1.0000   1.0000   1.0000   1.0000
     1.0000   1.0000   1.0000   1.0000   1.0000   1.0000   1.0000   1.0000
     1.0000   1.0000   1.0000   1.0000   1.0000   1.0000   1.0000   1.0000
     1.0000   1.0000   1.0000   1.0000   1.0000   1.0000   1.0000   1.0000
     1.0000   1.0000   1.0000   1.0000   1.0000   1.0000   1.0000   1.0000

          k = 0.0000-0.2244-0.1331 ( 49992 PWs)   bands (ev):

   -17.8794 -17.8794 -17.8791 -17.8791 -17.8713 -17.8713 -17.8712 -17.8712
   -17.8681 -17.8681 -17.8676 -17.8676 -17.8565 -17.8565 -17.8549 -17.8549
   -17.8487 -17.8487 -17.8476 -17.8476 -17.7873 -17.7873 -17.7871 -17.7871
    -8.7669  -8.7669  -8.6073  -8.6073  -8.4840  -8.4840  -8.3494  -8.3494
    -8.2386  -8.2386  -8.2350  -8.2350  -4.6206  -4.6206  -4.6102  -4.6102
    -4.5721  -4.5721  -4.5600  -4.5600  -4.5503  -4.5503  -4.5487  -4.5487
    -2.8953  -2.8953  -2.7518  -2.7518   0.2592   0.2592   0.8078   0.8078
     0.9508   0.9508   1.2017   1.2017   1.2122   1.2122   1.3152   1.3152
     1.3585   1.3585   1.5678   1.5678   1.7470   1.7470   1.8252   1.8252
     1.9657   1.9657   1.9978   1.9978   2.0842   2.0842   2.2211   2.2211
     2.2873   2.2873   2.2912   2.2912   2.4105   2.4105   2.9228   2.9228

     occupation numbers 
     1.0000   1.0000   1.0000   1.0000   1.0000   1.0000   1.0000   1.0000
     1.0000   1.0000   1.0000   1.0000   1.0000   1.0000   1.0000   1.0000
     1.0000   1.0000   1.0000   1.0000   1.0000   1.0000   1.0000   1.0000
     1.0000   1.0000   1.0000   1.0000   1.0000   1.0000   1.0000   1.0000
     1.0000   1.0000   1.0000   1.0000   1.0000   1.0000   1.0000   1.0000
     1.0000   1.0000   1.0000   1.0000   1.0000   1.0000   1.0000   1.0000
     1.0000   1.0000   1.0000   1.0000   1.0000   1.0000   1.0000   1.0000
     1.0000   1.0000   1.0000   1.0000   1.0000   1.0000   1.0000   1.0000
     1.0000   1.0000   1.0000   1.0000   1.0000   1.0000   1.0000   1.0000
     1.0000   1.0000   1.0000   1.0000   1.0000   1.0000   1.0000   1.0000
     1.0000   1.0000   1.0000   1.0000   1.0000   1.0000   1.0000   1.0000

          k =-0.5000 0.0000 0.0000 ( 49966 PWs)   bands (ev):

   -17.8786 -17.8786 -17.8785 -17.8785 -17.8746 -17.8746 -17.8746 -17.8746
   -17.8677 -17.8677 -17.8677 -17.8677 -17.8524 -17.8524 -17.8524 -17.8524
   -17.8488 -17.8488 -17.8488 -17.8488 -17.7762 -17.7762 -17.7756 -17.7756
    -8.4822  -8.4822  -8.4799  -8.4799  -8.3065  -8.3065  -8.2971  -8.2971
    -8.2856  -8.2856  -8.2660  -8.2660  -4.7922  -4.7922  -4.7245  -4.7245
    -4.6090  -4.6090  -4.5998  -4.5998  -4.5856  -4.5856  -4.5570  -4.5570
    -3.2028  -3.2028  -3.1659  -3.1659   0.0783   0.0783   0.0798   0.0798
     0.5668   0.5668   0.6249   0.6249   0.8925   0.8925   0.9121   0.9121
     1.2452   1.2452   1.6367   1.6367   1.6781   1.6781   1.7848   1.7848
     1.7956   1.7956   1.8563   1.8563   1.9083   1.9083   1.9339   1.9339
     2.0645   2.0645   2.1023   2.1023   2.5341   2.5341   2.9141   2.9141

     occupation numbers 
     1.0000   1.0000   1.0000   1.0000   1.0000   1.0000   1.0000   1.0000
     1.0000   1.0000   1.0000   1.0000   1.0000   1.0000   1.0000   1.0000
     1.0000   1.0000   1.0000   1.0000   1.0000   1.0000   1.0000   1.0000
     1.0000   1.0000   1.0000   1.0000   1.0000   1.0000   1.0000   1.0000
     1.0000   1.0000   1.0000   1.0000   1.0000   1.0000   1.0000   1.0000
     1.0000   1.0000   1.0000   1.0000   1.0000   1.0000   1.0000   1.0000
     1.0000   1.0000   1.0000   1.0000   1.0000   1.0000   1.0000   1.0000
     1.0000   1.0000   1.0000   1.0000   1.0000   1.0000   1.0000   1.0000
     1.0000   1.0000   1.0000   1.0000   1.0000   1.0000   1.0000   1.0000
     1.0000   1.0000   1.0000   1.0000   1.0000   1.0000   1.0000   1.0000
     1.0000   1.0000   1.0000   1.0000   1.0000   1.0000   1.0000   1.0000

          k =-0.5000 0.0000-0.1331 ( 49968 PWs)   bands (ev):

   -17.8786 -17.8786 -17.8785 -17.8785 -17.8746 -17.8746 -17.8746 -17.8746
   -17.8677 -17.8677 -17.8677 -17.8677 -17.8524 -17.8524 -17.8524 -17.8524
   -17.8488 -17.8488 -17.8487 -17.8487 -17.7762 -17.7762 -17.7756 -17.7756
    -8.4828  -8.4828  -8.4793  -8.4793  -8.3059  -8.3059  -8.2980  -8.2980
    -8.2852  -8.2852  -8.2660  -8.2660  -4.7921  -4.7921  -4.7246  -4.7246
    -4.6093  -4.6093  -4.5998  -4.5998  -4.5853  -4.5853  -4.5571  -4.5571
    -3.1963  -3.1963  -3.1726  -3.1726   0.0655   0.0655   0.0981   0.0981
     0.5848   0.5848   0.6325   0.6325   0.8408   0.8408   0.8791   0.8791
     1.3338   1.3338   1.6055   1.6055   1.6888   1.6888   1.8007   1.8007
     1.8031   1.8031   1.8291   1.8291   1.8372   1.8372   1.9642   1.9642
     2.0588   2.0588   2.1327   2.1327   2.5935   2.5935   2.8553   2.8553

     occupation numbers 
     1.0000   1.0000   1.0000   1.0000   1.0000   1.0000   1.0000   1.0000
     1.0000   1.0000   1.0000   1.0000   1.0000   1.0000   1.0000   1.0000
     1.0000   1.0000   1.0000   1.0000   1.0000   1.0000   1.0000   1.0000
     1.0000   1.0000   1.0000   1.0000   1.0000   1.0000   1.0000   1.0000
     1.0000   1.0000   1.0000   1.0000   1.0000   1.0000   1.0000   1.0000
     1.0000   1.0000   1.0000   1.0000   1.0000   1.0000   1.0000   1.0000
     1.0000   1.0000   1.0000   1.0000   1.0000   1.0000   1.0000   1.0000
     1.0000   1.0000   1.0000   1.0000   1.0000   1.0000   1.0000   1.0000
     1.0000   1.0000   1.0000   1.0000   1.0000   1.0000   1.0000   1.0000
     1.0000   1.0000   1.0000   1.0000   1.0000   1.0000   1.0000   1.0000
     1.0000   1.0000   1.0000   1.0000   1.0000   1.0000   1.0000   1.0000

          k =-0.5000-0.2244 0.0000 ( 50024 PWs)   bands (ev):

   -17.8786 -17.8786 -17.8786 -17.8786 -17.8746 -17.8746 -17.8746 -17.8746
   -17.8678 -17.8678 -17.8678 -17.8678 -17.8524 -17.8524 -17.8524 -17.8524
   -17.8488 -17.8488 -17.8488 -17.8488 -17.7759 -17.7759 -17.7759 -17.7759
    -8.4810  -8.4810  -8.4810  -8.4810  -8.3028  -8.3028  -8.3028  -8.3028
    -8.2748  -8.2748  -8.2748  -8.2748  -4.7585  -4.7585  -4.7585  -4.7585
    -4.6024  -4.6024  -4.6024  -4.6024  -4.5732  -4.5732  -4.5732  -4.5732
    -3.1850  -3.1850  -3.1850  -3.1850   0.2241   0.2241   0.2241   0.2241
     0.4394   0.4394   0.4394   0.4394   0.8445   0.8445   0.8445   0.8445
     1.4590   1.4590   1.4590   1.4590   1.6405   1.6405   1.6405   1.6405
     1.8004   1.8004   1.8004   1.8004   1.9271   1.9271   1.9271   1.9271
     2.1550   2.1550   2.1550   2.1550   2.8764   2.8764   2.8764   2.8764

     occupation numbers 
     1.0000   1.0000   1.0000   1.0000   1.0000   1.0000   1.0000   1.0000
     1.0000   1.0000   1.0000   1.0000   1.0000   1.0000   1.0000   1.0000
     1.0000   1.0000   1.0000   1.0000   1.0000   1.0000   1.0000   1.0000
     1.0000   1.0000   1.0000   1.0000   1.0000   1.0000   1.0000   1.0000
     1.0000   1.0000   1.0000   1.0000   1.0000   1.0000   1.0000   1.0000
     1.0000   1.0000   1.0000   1.0000   1.0000   1.0000   1.0000   1.0000
     1.0000   1.0000   1.0000   1.0000   1.0000   1.0000   1.0000   1.0000
     1.0000   1.0000   1.0000   1.0000   1.0000   1.0000   1.0000   1.0000
     1.0000   1.0000   1.0000   1.0000   1.0000   1.0000   1.0000   1.0000
     1.0000   1.0000   1.0000   1.0000   1.0000   1.0000   1.0000   1.0000
     1.0000   1.0000   1.0000   1.0000   1.0000   1.0000   1.0000   1.0000

          k =-0.5000-0.2244-0.1331 ( 50040 PWs)   bands (ev):

   -17.8786 -17.8786 -17.8786 -17.8786 -17.8746 -17.8746 -17.8746 -17.8746
   -17.8678 -17.8678 -17.8678 -17.8678 -17.8524 -17.8524 -17.8524 -17.8524
   -17.8488 -17.8488 -17.8488 -17.8488 -17.7759 -17.7759 -17.7759 -17.7759
    -8.4811  -8.4811  -8.4811  -8.4811  -8.3028  -8.3028  -8.3028  -8.3028
    -8.2749  -8.2749  -8.2749  -8.2749  -4.7585  -4.7585  -4.7585  -4.7585
    -4.6023  -4.6023  -4.6023  -4.6023  -4.5733  -4.5733  -4.5733  -4.5733
    -3.1850  -3.1850  -3.1850  -3.1850   0.2178   0.2178   0.2178   0.2178
     0.4426   0.4426   0.4426   0.4426   0.8701   0.8701   0.8701   0.8701
     1.3742   1.3742   1.3742   1.3742   1.7120   1.7120   1.7120   1.7120
     1.8027   1.8027   1.8027   1.8027   1.9476   1.9476   1.9476   1.9476
     2.1161   2.1161   2.1161   2.1161   2.8854   2.8854   2.8854   2.8854

     occupation numbers 
     1.0000   1.0000   1.0000   1.0000   1.0000   1.0000   1.0000   1.0000
     1.0000   1.0000   1.0000   1.0000   1.0000   1.0000   1.0000   1.0000
     1.0000   1.0000   1.0000   1.0000   1.0000   1.0000   1.0000   1.0000
     1.0000   1.0000   1.0000   1.0000   1.0000   1.0000   1.0000   1.0000
     1.0000   1.0000   1.0000   1.0000   1.0000   1.0000   1.0000   1.0000
     1.0000   1.0000   1.0000   1.0000   1.0000   1.0000   1.0000   1.0000
     1.0000   1.0000   1.0000   1.0000   1.0000   1.0000   1.0000   1.0000
     1.0000   1.0000   1.0000   1.0000   1.0000   1.0000   1.0000   1.0000
     1.0000   1.0000   1.0000   1.0000   1.0000   1.0000   1.0000   1.0000
     1.0000   1.0000   1.0000   1.0000   1.0000   1.0000   1.0000   1.0000
     1.0000   1.0000   1.0000   1.0000   1.0000   1.0000   1.0000   1.0000

     highest occupied level (ev):     2.9395

!    total energy              =   -7979.63739616 Ry

     total all-electron energy =   -282510.792109 Ry
     estimated scf accuracy    <       0.00000008 Ry

     The total energy is the sum of the following terms:
     one-electron contribution =    -463.64538741 Ry
     hartree contribution      =     316.60507125 Ry
     xc contribution           =    -465.90179025 Ry
     ewald contribution        =    -633.56960439 Ry
     one-center paw contrib.   =   -6733.12568536 Ry
      -> PAW hartree energy AE =      25.63656168 Ry
      -> PAW hartree energy PS =     -25.52702622 Ry
      -> PAW xc energy AE      =    -383.53046747 Ry
      -> PAW xc energy PS      =      20.51520821 Ry
      -> total E_H with PAW    =     316.71460671 Ry
      -> total E_XC with PAW   =    -828.91704951 Ry

     convergence has been achieved in  12 iterations

     Forces acting on atoms (cartesian axes, Ry/au):

     atom    1 type  1   force =     0.00000000   -0.00061792    0.00071143
     atom    2 type  1   force =     0.00000000    0.00061792   -0.00071143
     atom    3 type  1   force =     0.00000000   -0.00061792   -0.00071143
     atom    4 type  1   force =     0.00000000    0.00061792    0.00071143
     atom    5 type  2   force =     0.00000000   -0.00053345   -0.00012862
     atom    6 type  2   force =     0.00000000    0.00053345    0.00012862
     atom    7 type  2   force =     0.00000000   -0.00053345    0.00012862
     atom    8 type  2   force =     0.00000000    0.00053345   -0.00012862
     atom    9 type  3   force =     0.00000000   -0.00345237   -0.00186072
     atom   10 type  3   force =     0.00000000    0.00345237    0.00186072
     atom   11 type  3   force =     0.00000000   -0.00345237    0.00186072
     atom   12 type  3   force =     0.00000000    0.00345237   -0.00186072
     atom   13 type  3   force =     0.00000000   -0.00062794    0.00040814
     atom   14 type  3   force =     0.00000000    0.00062794   -0.00040814
     atom   15 type  3   force =     0.00000000   -0.00062794   -0.00040814
     atom   16 type  3   force =     0.00000000    0.00062794    0.00040814
     atom   17 type  3   force =     0.00000000    0.00333424   -0.00180213
     atom   18 type  3   force =     0.00000000   -0.00333424    0.00180213
     atom   19 type  3   force =     0.00000000    0.00333424    0.00180213
     atom   20 type  3   force =     0.00000000   -0.00333424   -0.00180213
     The non-local contrib.  to forces
     atom    1 type  1   force =     0.00000000    0.00198231   -0.00096787
     atom    2 type  1   force =    -0.00000000   -0.00198231    0.00096787
     atom    3 type  1   force =     0.00000000    0.00198231    0.00096787
     atom    4 type  1   force =     0.00000000   -0.00198231   -0.00096787
     atom    5 type  2   force =     0.00000000   -0.08826702   -0.13098216
     atom    6 type  2   force =     0.00000000    0.08826702    0.13098216
     atom    7 type  2   force =    -0.00000000   -0.08826702    0.13098216
     atom    8 type  2   force =    -0.00000000    0.08826702   -0.13098216
     atom    9 type  3   force =     0.00000000   -0.04814407   -0.04706523
     atom   10 type  3   force =     0.00000000    0.04814407    0.04706523
     atom   11 type  3   force =     0.00000000   -0.04814407    0.04706523
     atom   12 type  3   force =    -0.00000000    0.04814407   -0.04706523
     atom   13 type  3   force =     0.00000000   -0.03306138    0.05614020
     atom   14 type  3   force =     0.00000000    0.03306138   -0.05614020
     atom   15 type  3   force =     0.00000000   -0.03306138   -0.05614020
     atom   16 type  3   force =     0.00000000    0.03306138    0.05614020
     atom   17 type  3   force =     0.00000000    0.05606381   -0.01694721
     atom   18 type  3   force =     0.00000000   -0.05606381    0.01694721
     atom   19 type  3   force =     0.00000000    0.05606381    0.01694721
     atom   20 type  3   force =    -0.00000000   -0.05606381   -0.01694721
     The ionic contribution  to forces
     atom    1 type  1   force =     0.00000000    0.02273773    0.42856976
     atom    2 type  1   force =    -0.00000000   -0.02273773   -0.42856976
     atom    3 type  1   force =    -0.00000000    0.02273773   -0.42856976
     atom    4 type  1   force =    -0.00000000   -0.02273773    0.42856976
     atom    5 type  2   force =    -0.00000000   -2.44382135   -1.60292983
     atom    6 type  2   force =     0.00000000    2.44382135    1.60292983
     atom    7 type  2   force =    -0.00000000   -2.44382135    1.60292983
     atom    8 type  2   force =     0.00000000    2.44382135   -1.60292983
     atom    9 type  3   force =    -0.00000000    3.00608891    5.13288893
     atom   10 type  3   force =     0.00000000   -3.00608891   -5.13288893
     atom   11 type  3   force =    -0.00000000    3.00608891   -5.13288893
     atom   12 type  3   force =    -0.00000000   -3.00608891    5.13288893
     atom   13 type  3   force =     0.00000000    2.02422849   -3.75281499
     atom   14 type  3   force =    -0.00000000   -2.02422849    3.75281499
     atom   15 type  3   force =     0.00000000    2.02422849    3.75281499
     atom   16 type  3   force =    -0.00000000   -2.02422849   -3.75281499
     atom   17 type  3   force =     0.00000000   -4.20564473    2.10270404
     atom   18 type  3   force =    -0.00000000    4.20564473   -2.10270404
     atom   19 type  3   force =     0.00000000   -4.20564473   -2.10270404
     atom   20 type  3   force =    -0.00000000    4.20564473    2.10270404
     The local contribution  to forces
     atom    1 type  1   force =    -0.00000000   -0.02518088   -0.42686287
     atom    2 type  1   force =    -0.00000000    0.02518088    0.42686287
     atom    3 type  1   force =    -0.00000000   -0.02518088    0.42686287
     atom    4 type  1   force =     0.00000000    0.02518088   -0.42686287
     atom    5 type  2   force =    -0.00000000    2.53162567    1.73375628
     atom    6 type  2   force =    -0.00000000   -2.53162567   -1.73375628
     atom    7 type  2   force =    -0.00000000    2.53162567   -1.73375628
     atom    8 type  2   force =    -0.00000000   -2.53162567    1.73375628
     atom    9 type  3   force =    -0.00000000   -2.96785785   -5.09426815
     atom   10 type  3   force =     0.00000000    2.96785785    5.09426815
     atom   11 type  3   force =    -0.00000000   -2.96785785    5.09426815
     atom   12 type  3   force =     0.00000000    2.96785785   -5.09426815
     atom   13 type  3   force =    -0.00000000   -1.99621237    3.70462517
     atom   14 type  3   force =     0.00000000    1.99621237   -3.70462517
     atom   15 type  3   force =    -0.00000000   -1.99621237   -3.70462517
     atom   16 type  3   force =     0.00000000    1.99621237    3.70462517
     atom   17 type  3   force =     0.00000000    4.16076244   -2.09013612
     atom   18 type  3   force =    -0.00000000   -4.16076244    2.09013612
     atom   19 type  3   force =     0.00000000    4.16076244    2.09013612
     atom   20 type  3   force =    -0.00000000   -4.16076244   -2.09013612
     The core correction contribution to forces
     atom    1 type  1   force =    -0.00000000   -0.00014857    0.00004159
     atom    2 type  1   force =     0.00000000    0.00014857   -0.00004159
     atom    3 type  1   force =    -0.00000000   -0.00014857   -0.00004159
     atom    4 type  1   force =     0.00000000    0.00014857    0.00004159
     atom    5 type  2   force =    -0.00000000    0.00019923    0.00004813
     atom    6 type  2   force =    -0.00000000   -0.00019923   -0.00004813
     atom    7 type  2   force =    -0.00000000    0.00019923   -0.00004813
     atom    8 type  2   force =    -0.00000000   -0.00019923    0.00004813
     atom    9 type  3   force =     0.00000000    0.00641142    0.00649571
     atom   10 type  3   force =    -0.00000000   -0.00641142   -0.00649571
     atom   11 type  3   force =     0.00000000    0.00641142   -0.00649571
     atom   12 type  3   force =    -0.00000000   -0.00641142    0.00649571
     atom   13 type  3   force =     0.00000000    0.00436477   -0.00749004
     atom   14 type  3   force =    -0.00000000   -0.00436477    0.00749004
     atom   15 type  3   force =     0.00000000    0.00436477    0.00749004
     atom   16 type  3   force =    -0.00000000   -0.00436477   -0.00749004
     atom   17 type  3   force =     0.00000000   -0.00769882    0.00253095
     atom   18 type  3   force =    -0.00000000    0.00769882   -0.00253095
     atom   19 type  3   force =     0.00000000   -0.00769882   -0.00253095
     atom   20 type  3   force =    -0.00000000    0.00769882    0.00253095
     The Hubbard contrib.    to forces
     atom    1 type  1   force =     0.00000000    0.00000000    0.00000000
     atom    2 type  1   force =     0.00000000    0.00000000    0.00000000
     atom    3 type  1   force =     0.00000000    0.00000000    0.00000000
     atom    4 type  1   force =     0.00000000    0.00000000    0.00000000
     atom    5 type  2   force =     0.00000000    0.00000000    0.00000000
     atom    6 type  2   force =     0.00000000    0.00000000    0.00000000
     atom    7 type  2   force =     0.00000000    0.00000000    0.00000000
     atom    8 type  2   force =     0.00000000    0.00000000    0.00000000
     atom    9 type  3   force =     0.00000000    0.00000000    0.00000000
     atom   10 type  3   force =     0.00000000    0.00000000    0.00000000
     atom   11 type  3   force =     0.00000000    0.00000000    0.00000000
     atom   12 type  3   force =     0.00000000    0.00000000    0.00000000
     atom   13 type  3   force =     0.00000000    0.00000000    0.00000000
     atom   14 type  3   force =     0.00000000    0.00000000    0.00000000
     atom   15 type  3   force =     0.00000000    0.00000000    0.00000000
     atom   16 type  3   force =     0.00000000    0.00000000    0.00000000
     atom   17 type  3   force =     0.00000000    0.00000000    0.00000000
     atom   18 type  3   force =     0.00000000    0.00000000    0.00000000
     atom   19 type  3   force =     0.00000000    0.00000000    0.00000000
     atom   20 type  3   force =     0.00000000    0.00000000    0.00000000
     The SCF correction term to forces
     atom    1 type  1   force =     0.00000000   -0.00000852   -0.00006918
     atom    2 type  1   force =    -0.00000000    0.00000852    0.00006918
     atom    3 type  1   force =     0.00000000   -0.00000852    0.00006918
     atom    4 type  1   force =    -0.00000000    0.00000852   -0.00006918
     atom    5 type  2   force =     0.00000000   -0.00026998   -0.00002104
     atom    6 type  2   force =    -0.00000000    0.00026998    0.00002104
     atom    7 type  2   force =     0.00000000   -0.00026998    0.00002104
     atom    8 type  2   force =     0.00000000    0.00026998   -0.00002104
     atom    9 type  3   force =    -0.00000000    0.00004921    0.00008802
     atom   10 type  3   force =     0.00000000   -0.00004921   -0.00008802
     atom   11 type  3   force =    -0.00000000    0.00004921   -0.00008802
     atom   12 type  3   force =    -0.00000000   -0.00004921    0.00008802
     atom   13 type  3   force =     0.00000000    0.00005255   -0.00005221
     atom   14 type  3   force =    -0.00000000   -0.00005255    0.00005221
     atom   15 type  3   force =     0.00000000    0.00005255    0.00005221
     atom   16 type  3   force =    -0.00000000   -0.00005255   -0.00005221
     atom   17 type  3   force =     0.00000000   -0.00014845    0.00004621
     atom   18 type  3   force =     0.00000000    0.00014845   -0.00004621
     atom   19 type  3   force =     0.00000000   -0.00014845   -0.00004621
     atom   20 type  3   force =    -0.00000000    0.00014845    0.00004621

     Total force =     0.011224     Total SCF correction =     0.000687


     Computing stress (Cartesian axis) and pressure

          total   stress  (Ry/bohr**3)                   (kbar)     P=       -2.41
   0.00001029   0.00000000   0.00000000            1.51        0.00        0.00
   0.00000000  -0.00003435   0.00000000            0.00       -5.05        0.00
   0.00000000   0.00000000  -0.00002516            0.00        0.00       -3.70

     kinetic stress (kbar)   5531.48      0.00      0.00
                                0.00   5532.33      0.00
                                0.00      0.00   5528.26

     local   stress (kbar)  -4523.50      0.00     -0.00
                                0.00  -1881.52      0.00
                               -0.00      0.00   -989.72

     nonloc. stress (kbar)   1139.18      0.00      0.00
                                0.00   1134.74      0.00
                                0.00      0.00   1137.93

     hartree stress (kbar)   3404.88     -0.00      0.00
                               -0.00   2187.54     -0.00
                                0.00     -0.00   1718.46

     exc-cor stress (kbar)   5446.72      0.00      0.00
                                0.00   5446.31      0.00
                                0.00      0.00   5446.77

     corecor stress (kbar)  -7212.44      0.00     -0.00
                                0.00  -7212.28     -0.00
                               -0.00     -0.00  -7212.31

     ewald   stress (kbar)  -3784.80      0.00     -0.00
                                0.00  -5212.16      0.00
                               -0.00      0.00  -5633.09

     hubbard stress (kbar)      0.00      0.00      0.00
                                0.00      0.00      0.00
                                0.00      0.00      0.00

     DFT-D   stress (kbar)      0.00      0.00      0.00
                                0.00      0.00      0.00
                                0.00      0.00      0.00

     XDM     stress (kbar)      0.00      0.00      0.00
                                0.00      0.00      0.00
                                0.00      0.00      0.00

     dft-nl  stress (kbar)      0.00      0.00      0.00
                                0.00      0.00      0.00
                                0.00      0.00      0.00

     TS-vdW  stress (kbar)      0.00      0.00      0.00
                                0.00      0.00      0.00
                                0.00      0.00      0.00



     Writing output data file ./CsSnI3.save/
 
     init_run     :      5.41s CPU      5.72s WALL (       1 calls)
     electrons    :    121.14s CPU    125.07s WALL (       1 calls)
     forces       :      2.92s CPU      3.01s WALL (       1 calls)
     stress       :     16.48s CPU     16.66s WALL (       1 calls)

     Called by init_run:
     wfcinit      :      2.43s CPU      2.47s WALL (       1 calls)
     wfcinit:atom :      0.02s CPU      0.02s WALL (       8 calls)
     wfcinit:wfcr :      2.30s CPU      2.33s WALL (       8 calls)
     potinit      :      0.79s CPU      0.82s WALL (       1 calls)
     hinit0       :      0.87s CPU      0.96s WALL (       1 calls)

     Called by electrons:
     c_bands      :     88.80s CPU     89.71s WALL (      13 calls)
     sum_band     :     19.07s CPU     20.86s WALL (      13 calls)
     v_of_rho     :      0.87s CPU      0.89s WALL (      13 calls)
     v_h          :      0.07s CPU      0.07s WALL (      13 calls)
     v_xc         :      0.93s CPU      0.94s WALL (      15 calls)
     newd         :      6.99s CPU      8.01s WALL (      13 calls)
     PAW_pot      :      5.94s CPU      5.98s WALL (      13 calls)
     mix_rho      :      0.26s CPU      0.27s WALL (      13 calls)

     Called by c_bands:
     init_us_2    :      1.82s CPU      1.83s WALL (     232 calls)
     cegterg      :     81.44s CPU     82.32s WALL (     104 calls)

     Called by sum_band:
     sum_band:wei :      0.00s CPU      0.00s WALL (      13 calls)
     sum_band:loo :     11.00s CPU     11.12s WALL (      13 calls)
     sum_band:buf :      0.23s CPU      0.23s WALL (     104 calls)
     sum_band:ini :      0.82s CPU      0.83s WALL (     104 calls)
     sum_band:cal :      2.51s CPU      2.50s WALL (     104 calls)
     sum_band:bec :      0.12s CPU      0.12s WALL (     104 calls)
     addusdens    :      7.83s CPU      9.50s WALL (      13 calls)
     addusd:skk   :      0.05s CPU      0.05s WALL (      39 calls)
     addusd:dgemm :      3.27s CPU      4.90s WALL (      39 calls)
     addusd:qvan2 :      4.21s CPU      4.21s WALL (      39 calls)

     Called by *egterg:
     cdiaghg      :      7.20s CPU      7.35s WALL (     561 calls)
     cegterg:over :      4.78s CPU      4.76s WALL (     465 calls)
     cegterg:upda :      2.19s CPU      2.20s WALL (     465 calls)
     cegterg:last :      4.07s CPU      4.07s WALL (     239 calls)
     h_psi        :     55.75s CPU     56.50s WALL (     577 calls)
     s_psi        :      6.97s CPU      6.97s WALL (     577 calls)
     g_psi        :      0.12s CPU      0.12s WALL (     465 calls)

     Called by h_psi:
     h_psi:calbec :      8.31s CPU      8.28s WALL (     577 calls)
     vloc_psi     :     39.98s CPU     40.74s WALL (     577 calls)
     add_vuspsi   :      7.03s CPU      7.05s WALL (     577 calls)

     General routines
     calbec       :     11.92s CPU     11.89s WALL (     721 calls)
     fft          :      0.91s CPU      1.00s WALL (     193 calls)
     ffts         :      0.06s CPU      0.06s WALL (      26 calls)
     fftw         :     44.26s CPU     45.09s WALL (   62942 calls)
     interpolate  :      0.09s CPU      0.10s WALL (      13 calls)
 
     Parallel routines
     fft_scatt_xy :      2.87s CPU      2.92s WALL (   63161 calls)
     fft_scatt_yz :     27.88s CPU     28.40s WALL (   63161 calls)

     PAW routines
     PAW_pot      :      5.94s CPU      5.98s WALL (      13 calls)
     PAW_symme    :      0.09s CPU      0.09s WALL (      26 calls)
 
     PWSCF        :   2m33.41s CPU   2m39.08s WALL

 
   This run was terminated on:  12:30:55  14Jan2021            

=------------------------------------------------------------------------------=
   JOB DONE.
=------------------------------------------------------------------------------=
