
     Program PWSCF v.6.7MaX starts on 31Jan2021 at 18:26:32 

     This program is part of the open-source Quantum ESPRESSO suite
     for quantum simulation of materials; please cite
         "P. Giannozzi et al., J. Phys.:Condens. Matter 21 395502 (2009);
         "P. Giannozzi et al., J. Phys.:Condens. Matter 29 465901 (2017);
          URL http://www.quantum-espresso.org", 
     in publications or presentations arising from this work. More details at
     http://www.quantum-espresso.org/quote

     Parallel version (MPI & OpenMP), running on      96 processor cores
     Number of MPI processes:                48
     Threads/MPI process:                     2

     MPI processes distributed on     2 nodes
     R & G space division:  proc/nbgrp/npool/nimage =      48
     Waiting for input...
     Reading input from standard input

     Current dimensions of program PWSCF are:
     Max number of different atomic species (ntypx) = 10
     Max number of k-points (npk) =  40000
     Max angular momentum in pseudopotentials (lmaxx) =  3

     Atomic positions and unit cell read from directory:
     ./CsSnI3.save/
     Atomic positions from file used, from input discarded

     file Cs.rel-pbesol-spn-rrkjus_psl.1.0.0.UPF: wavefunction(s)  5S 6S renormalized
     file Sn.rel-pbesol-dn-rrkjus_psl.1.0.0.UPF: wavefunction(s)  5S 4D 4D renormalized
     file I.rel-pbesol-n-rrkjus_psl.1.0.0.UPF: wavefunction(s)  5S renormalized

     Subspace diagonalization in iterative solution of the eigenvalue problem:
     a serial algorithm will be used


     Parallelization info
     --------------------
     sticks:   dense  smooth     PW     G-vecs:    dense   smooth      PW
     Min         160     128     34                15246    10914    1494
     Max         161     130     35                15253    10919    1498
     Sum        7701    6167   1635               731927   523933   71751


     Title: 
     CsSnI3                                                                     


     bravais-lattice index     =            8
     lattice parameter (alat)  =      16.5033  a.u.
     unit-cell volume          =    6621.2471 (a.u.)^3
     number of atoms/cell      =           20
     number of atomic types    =            3
     number of electrons       =       176.00
     number of Kohn-Sham states=          180
     kinetic-energy cutoff     =      70.0000  Ry
     charge density cutoff     =     350.0000  Ry
     Exchange-correlation= PBESOL
                           (   1   4  10   8   0   0   0)
     Non magnetic calculation with spin-orbit


     celldm(1)=  16.503301  celldm(2)=   1.015921  celldm(3)=   1.449998
     celldm(4)=   0.000000  celldm(5)=   0.000000  celldm(6)=   0.000000

     crystal axes: (cart. coord. in units of alat)
               a(1) = (   1.000000   0.000000   0.000000 )  
               a(2) = (   0.000000   1.015921   0.000000 )  
               a(3) = (   0.000000   0.000000   1.449998 )  

     reciprocal axes: (cart. coord. in units 2 pi/alat)
               b(1) = (  1.000000  0.000000  0.000000 )  
               b(2) = (  0.000000  0.984329  0.000000 )  
               b(3) = (  0.000000  0.000000  0.689656 )  


     PseudoPot. # 1 for Cs read from file:
     /scratch/cmalosso/degironcoli/pseudo/pseudo-usp/Cs.rel-pbesol-spn-rrkjus_psl.1.0.0.UPF
     MD5 check sum: 846889b67fb1b19751b5b37931589d70
     Pseudo is Ultrasoft + core correction, Zval =  9.0
     Generated using &quot;atomic&quot; code by A. Dal Corso  v.6.4.1
     Using radial grid of 1251 points, 15 beta functions with: 
                l(1) =   0
                l(2) =   0
                l(3) =   0
                l(4) =   1
                l(5) =   1
                l(6) =   1
                l(7) =   1
                l(8) =   2
                l(9) =   2
               l(10) =   2
               l(11) =   2
               l(12) =   3
               l(13) =   3
               l(14) =   3
               l(15) =   3
     Q(r) pseudized with 0 coefficients 


     PseudoPot. # 2 for Sn read from file:
     /scratch/cmalosso/degironcoli/pseudo/pseudo-usp/Sn.rel-pbesol-dn-rrkjus_psl.1.0.0.UPF
     MD5 check sum: c1cf6ea56b96a3656bdf0d1db379e093
     Pseudo is Ultrasoft + core correction, Zval = 14.0
     Generated using &quot;atomic&quot; code by A. Dal Corso  v.6.3
     Using radial grid of 1243 points, 10 beta functions with: 
                l(1) =   0
                l(2) =   0
                l(3) =   1
                l(4) =   1
                l(5) =   1
                l(6) =   1
                l(7) =   2
                l(8) =   2
                l(9) =   2
               l(10) =   2
     Q(r) pseudized with 0 coefficients 


     PseudoPot. # 3 for I  read from file:
     /scratch/cmalosso/degironcoli/pseudo/pseudo-usp/I.rel-pbesol-n-rrkjus_psl.1.0.0.UPF
     MD5 check sum: 0f96c6bfb1b448f280658f96eb466b08
     Pseudo is Ultrasoft + core correction, Zval =  7.0
     Generated using &quot;atomic&quot; code by A. Dal Corso  v.6.3
     Using radial grid of 1247 points, 10 beta functions with: 
                l(1) =   0
                l(2) =   0
                l(3) =   1
                l(4) =   1
                l(5) =   1
                l(6) =   1
                l(7) =   2
                l(8) =   2
                l(9) =   2
               l(10) =   2
     Q(r) pseudized with 0 coefficients 


     atomic species   valence    mass     pseudopotential
        Cs             9.00   132.90000     Cs( 1.00)
        Sn            14.00   118.70000     Sn( 1.00)
        I              7.00   126.90000     I ( 1.00)

      8 Sym. Ops., with inversion, found ( 6 have fractional translation)


                                    s                        frac. trans.

      isym =  1     identity                                     

 cryst.   s( 1) = (     1          0          0      )
                  (     0          1          0      )
                  (     0          0          1      )

 cart.    s( 1) = (  1.0000000  0.0000000  0.0000000 )
                  (  0.0000000  1.0000000  0.0000000 )
                  (  0.0000000  0.0000000  1.0000000 )


      isym =  2     180 deg rotation - cart. axis [0,0,1]        

 cryst.   s( 2) = (    -1          0          0      )    f =( -0.0000000 )
                  (     0         -1          0      )       (  0.0000000 )
                  (     0          0          1      )       (  0.5000000 )

 cart.    s( 2) = ( -1.0000000  0.0000000  0.0000000 )    f =( -0.0000000 )
                  (  0.0000000 -1.0000000  0.0000000 )       (  0.0000000 )
                  (  0.0000000  0.0000000  1.0000000 )       (  0.7249991 )


      isym =  3     180 deg rotation - cart. axis [0,1,0]        

 cryst.   s( 3) = (    -1          0          0      )    f =( -0.5000000 )
                  (     0          1          0      )       ( -0.5000000 )
                  (     0          0         -1      )       (  0.0000000 )

 cart.    s( 3) = ( -1.0000000  0.0000000  0.0000000 )    f =( -0.5000000 )
                  (  0.0000000  1.0000000  0.0000000 )       ( -0.5079604 )
                  (  0.0000000  0.0000000 -1.0000000 )       (  0.0000000 )


      isym =  4     180 deg rotation - cart. axis [1,0,0]        

 cryst.   s( 4) = (     1          0          0      )    f =(  0.5000000 )
                  (     0         -1          0      )       ( -0.5000000 )
                  (     0          0         -1      )       (  0.5000000 )

 cart.    s( 4) = (  1.0000000  0.0000000  0.0000000 )    f =(  0.5000000 )
                  (  0.0000000 -1.0000000  0.0000000 )       ( -0.5079604 )
                  (  0.0000000  0.0000000 -1.0000000 )       (  0.7249991 )


      isym =  5     inversion                                    

 cryst.   s( 5) = (    -1          0          0      )
                  (     0         -1          0      )
                  (     0          0         -1      )

 cart.    s( 5) = ( -1.0000000  0.0000000  0.0000000 )
                  (  0.0000000 -1.0000000  0.0000000 )
                  (  0.0000000  0.0000000 -1.0000000 )


      isym =  6     inv. 180 deg rotation - cart. axis [0,0,1]   

 cryst.   s( 6) = (     1          0          0      )    f =(  0.0000000 )
                  (     0          1          0      )       (  0.0000000 )
                  (     0          0         -1      )       (  0.5000000 )

 cart.    s( 6) = (  1.0000000  0.0000000  0.0000000 )    f =(  0.0000000 )
                  (  0.0000000  1.0000000  0.0000000 )       (  0.0000000 )
                  (  0.0000000  0.0000000 -1.0000000 )       (  0.7249991 )


      isym =  7     inv. 180 deg rotation - cart. axis [0,1,0]   

 cryst.   s( 7) = (     1          0          0      )    f =(  0.5000000 )
                  (     0         -1          0      )       ( -0.5000000 )
                  (     0          0          1      )       (  0.0000000 )

 cart.    s( 7) = (  1.0000000  0.0000000  0.0000000 )    f =(  0.5000000 )
                  (  0.0000000 -1.0000000  0.0000000 )       ( -0.5079604 )
                  (  0.0000000  0.0000000  1.0000000 )       (  0.0000000 )


      isym =  8     inv. 180 deg rotation - cart. axis [1,0,0]   

 cryst.   s( 8) = (    -1          0          0      )    f =( -0.5000000 )
                  (     0          1          0      )       ( -0.5000000 )
                  (     0          0          1      )       (  0.5000000 )

 cart.    s( 8) = ( -1.0000000  0.0000000  0.0000000 )    f =( -0.5000000 )
                  (  0.0000000  1.0000000  0.0000000 )       ( -0.5079604 )
                  (  0.0000000  0.0000000  1.0000000 )       (  0.7249991 )


     double point group D_2h (mmm) 
     there are 10 classes and  2 irreducible representations
     the character table:

       E     -E     C2    C2'  C2''  i     -i     s_v   s_v' s_v''
                   -C2   -C2'  -C2''             -s_v  -s_v' -s_v'
G_5+   2.00 -2.00  0.00  0.00  0.00  2.00 -2.00  0.00  0.00  0.00
G_5-   2.00 -2.00  0.00  0.00  0.00 -2.00  2.00  0.00  0.00  0.00

     the symmetry operations in each class and the name of the first element:

     E             1
          identity                                               
     -E           -1
          identity E                                             
      C2  -C2      2   -2
          180 deg rotation - cart. axis [0,0,1]                  
      C2' -C2'     4   -4
          180 deg rotation - cart. axis [1,0,0]                  
     C2'' -C2''    3   -3
          180 deg rotation - cart. axis [0,1,0]                  
     i             5
          inversion                                              
     -i           -5
          inversion E                                            
      s_v -s_v     6   -6
          inv. 180 deg rotation - cart. axis [0,0,1]             
      s_v'-s_v'    8   -8
          inv. 180 deg rotation - cart. axis [1,0,0]             
     s_v''-s_v'    7   -7
          inv. 180 deg rotation - cart. axis [0,1,0]             

   Cartesian axes

     site n.     atom                  positions (alat units)
         1           Cs  tau(   1) = (   0.0046830   0.0237045   1.0874986  )
         2           Cs  tau(   2) = (   0.5046830   0.4842559   1.0874986  )
         3           Cs  tau(   3) = (   0.9953170   0.9922163   0.3624995  )
         4           Cs  tau(   4) = (   0.4953170   0.5316649   0.3624995  )
         5           Sn  tau(   5) = (   0.5000000   0.0000000   0.0000000  )
         6           Sn  tau(   6) = (   0.0000000   0.5079604   0.7249991  )
         7           Sn  tau(   7) = (   0.0000000   0.5079604   0.0000000  )
         8           Sn  tau(   8) = (   0.5000000   0.0000000   0.7249991  )
         9           I   tau(   9) = (   0.7030980   0.7148750   1.4390304  )
        10           I   tau(  10) = (   0.2969020   0.3010458   0.7140313  )
        11           I   tau(  11) = (   0.7030980   0.7148750   0.7359669  )
        12           I   tau(  12) = (   0.2969020   0.3010458   0.0109678  )
        13           I   tau(  13) = (   0.5026480   0.9956207   0.3624995  )
        14           I   tau(  14) = (   0.2030980   0.8090062   0.7359669  )
        15           I   tau(  15) = (   0.9973520   0.4876603   1.0874986  )
        16           I   tau(  16) = (   0.7969020   0.2069146   0.7140313  )
        17           I   tau(  17) = (   0.7969020   0.2069146   0.0109678  )
        18           I   tau(  18) = (   0.4973520   0.0203001   1.0874986  )
        19           I   tau(  19) = (   0.0026480   0.5282605   0.3624995  )
        20           I   tau(  20) = (   0.2030980   0.8090062   1.4390304  )

   Crystallographic axes

     site n.     atom                  positions (cryst. coord.)
         1           Cs  tau(   1) = (  0.0046830  0.0233330  0.7500000  )
         2           Cs  tau(   2) = (  0.5046830  0.4766670  0.7500000  )
         3           Cs  tau(   3) = (  0.9953170  0.9766670  0.2500000  )
         4           Cs  tau(   4) = (  0.4953170  0.5233330  0.2500000  )
         5           Sn  tau(   5) = (  0.5000000  0.0000000  0.0000000  )
         6           Sn  tau(   6) = (  0.0000000  0.5000000  0.5000000  )
         7           Sn  tau(   7) = (  0.0000000  0.5000000  0.0000000  )
         8           Sn  tau(   8) = (  0.5000000  0.0000000  0.5000000  )
         9           I   tau(   9) = (  0.7030980  0.7036720  0.9924360  )
        10           I   tau(  10) = (  0.2969020  0.2963280  0.4924360  )
        11           I   tau(  11) = (  0.7030980  0.7036720  0.5075640  )
        12           I   tau(  12) = (  0.2969020  0.2963280  0.0075640  )
        13           I   tau(  13) = (  0.5026480  0.9800180  0.2500000  )
        14           I   tau(  14) = (  0.2030980  0.7963280  0.5075640  )
        15           I   tau(  15) = (  0.9973520  0.4800180  0.7500000  )
        16           I   tau(  16) = (  0.7969020  0.2036720  0.4924360  )
        17           I   tau(  17) = (  0.7969020  0.2036720  0.0075640  )
        18           I   tau(  18) = (  0.4973520  0.0199820  0.7500000  )
        19           I   tau(  19) = (  0.0026480  0.5199820  0.2500000  )
        20           I   tau(  20) = (  0.2030980  0.7963280  0.9924360  )

     number of k points=    64
                       cart. coord. in units 2pi/alat
        k(    1) = (   0.0625000   0.0615205   0.0431035), wk =   0.0156250
        k(    2) = (   0.0625000   0.0615205   0.1293105), wk =   0.0156250
        k(    3) = (   0.0625000   0.0615205   0.2155175), wk =   0.0156250
        k(    4) = (   0.0625000   0.0615205   0.3017245), wk =   0.0156250
        k(    5) = (   0.0625000   0.1845616   0.0431035), wk =   0.0156250
        k(    6) = (   0.0625000   0.1845616   0.1293105), wk =   0.0156250
        k(    7) = (   0.0625000   0.1845616   0.2155175), wk =   0.0156250
        k(    8) = (   0.0625000   0.1845616   0.3017245), wk =   0.0156250
        k(    9) = (   0.0625000   0.3076027   0.0431035), wk =   0.0156250
        k(   10) = (   0.0625000   0.3076027   0.1293105), wk =   0.0156250
        k(   11) = (   0.0625000   0.3076027   0.2155175), wk =   0.0156250
        k(   12) = (   0.0625000   0.3076027   0.3017245), wk =   0.0156250
        k(   13) = (   0.0625000   0.4306438   0.0431035), wk =   0.0156250
        k(   14) = (   0.0625000   0.4306438   0.1293105), wk =   0.0156250
        k(   15) = (   0.0625000   0.4306438   0.2155175), wk =   0.0156250
        k(   16) = (   0.0625000   0.4306438   0.3017245), wk =   0.0156250
        k(   17) = (   0.1875000   0.0615205   0.0431035), wk =   0.0156250
        k(   18) = (   0.1875000   0.0615205   0.1293105), wk =   0.0156250
        k(   19) = (   0.1875000   0.0615205   0.2155175), wk =   0.0156250
        k(   20) = (   0.1875000   0.0615205   0.3017245), wk =   0.0156250
        k(   21) = (   0.1875000   0.1845616   0.0431035), wk =   0.0156250
        k(   22) = (   0.1875000   0.1845616   0.1293105), wk =   0.0156250
        k(   23) = (   0.1875000   0.1845616   0.2155175), wk =   0.0156250
        k(   24) = (   0.1875000   0.1845616   0.3017245), wk =   0.0156250
        k(   25) = (   0.1875000   0.3076027   0.0431035), wk =   0.0156250
        k(   26) = (   0.1875000   0.3076027   0.1293105), wk =   0.0156250
        k(   27) = (   0.1875000   0.3076027   0.2155175), wk =   0.0156250
        k(   28) = (   0.1875000   0.3076027   0.3017245), wk =   0.0156250
        k(   29) = (   0.1875000   0.4306438   0.0431035), wk =   0.0156250
        k(   30) = (   0.1875000   0.4306438   0.1293105), wk =   0.0156250
        k(   31) = (   0.1875000   0.4306438   0.2155175), wk =   0.0156250
        k(   32) = (   0.1875000   0.4306438   0.3017245), wk =   0.0156250
        k(   33) = (   0.3125000   0.0615205   0.0431035), wk =   0.0156250
        k(   34) = (   0.3125000   0.0615205   0.1293105), wk =   0.0156250
        k(   35) = (   0.3125000   0.0615205   0.2155175), wk =   0.0156250
        k(   36) = (   0.3125000   0.0615205   0.3017245), wk =   0.0156250
        k(   37) = (   0.3125000   0.1845616   0.0431035), wk =   0.0156250
        k(   38) = (   0.3125000   0.1845616   0.1293105), wk =   0.0156250
        k(   39) = (   0.3125000   0.1845616   0.2155175), wk =   0.0156250
        k(   40) = (   0.3125000   0.1845616   0.3017245), wk =   0.0156250
        k(   41) = (   0.3125000   0.3076027   0.0431035), wk =   0.0156250
        k(   42) = (   0.3125000   0.3076027   0.1293105), wk =   0.0156250
        k(   43) = (   0.3125000   0.3076027   0.2155175), wk =   0.0156250
        k(   44) = (   0.3125000   0.3076027   0.3017245), wk =   0.0156250
        k(   45) = (   0.3125000   0.4306438   0.0431035), wk =   0.0156250
        k(   46) = (   0.3125000   0.4306438   0.1293105), wk =   0.0156250
        k(   47) = (   0.3125000   0.4306438   0.2155175), wk =   0.0156250
        k(   48) = (   0.3125000   0.4306438   0.3017245), wk =   0.0156250
        k(   49) = (   0.4375000   0.0615205   0.0431035), wk =   0.0156250
        k(   50) = (   0.4375000   0.0615205   0.1293105), wk =   0.0156250
        k(   51) = (   0.4375000   0.0615205   0.2155175), wk =   0.0156250
        k(   52) = (   0.4375000   0.0615205   0.3017245), wk =   0.0156250
        k(   53) = (   0.4375000   0.1845616   0.0431035), wk =   0.0156250
        k(   54) = (   0.4375000   0.1845616   0.1293105), wk =   0.0156250
        k(   55) = (   0.4375000   0.1845616   0.2155175), wk =   0.0156250
        k(   56) = (   0.4375000   0.1845616   0.3017245), wk =   0.0156250
        k(   57) = (   0.4375000   0.3076027   0.0431035), wk =   0.0156250
        k(   58) = (   0.4375000   0.3076027   0.1293105), wk =   0.0156250
        k(   59) = (   0.4375000   0.3076027   0.2155175), wk =   0.0156250
        k(   60) = (   0.4375000   0.3076027   0.3017245), wk =   0.0156250
        k(   61) = (   0.4375000   0.4306438   0.0431035), wk =   0.0156250
        k(   62) = (   0.4375000   0.4306438   0.1293105), wk =   0.0156250
        k(   63) = (   0.4375000   0.4306438   0.2155175), wk =   0.0156250
        k(   64) = (   0.4375000   0.4306438   0.3017245), wk =   0.0156250

                       cryst. coord.
        k(    1) = (   0.0625000   0.0625000   0.0625000), wk =   0.0156250
        k(    2) = (   0.0625000   0.0625000   0.1875000), wk =   0.0156250
        k(    3) = (   0.0625000   0.0625000   0.3125000), wk =   0.0156250
        k(    4) = (   0.0625000   0.0625000   0.4375000), wk =   0.0156250
        k(    5) = (   0.0625000   0.1875000   0.0625000), wk =   0.0156250
        k(    6) = (   0.0625000   0.1875000   0.1875000), wk =   0.0156250
        k(    7) = (   0.0625000   0.1875000   0.3125000), wk =   0.0156250
        k(    8) = (   0.0625000   0.1875000   0.4375000), wk =   0.0156250
        k(    9) = (   0.0625000   0.3125000   0.0625000), wk =   0.0156250
        k(   10) = (   0.0625000   0.3125000   0.1875000), wk =   0.0156250
        k(   11) = (   0.0625000   0.3125000   0.3125000), wk =   0.0156250
        k(   12) = (   0.0625000   0.3125000   0.4375000), wk =   0.0156250
        k(   13) = (   0.0625000   0.4375000   0.0625000), wk =   0.0156250
        k(   14) = (   0.0625000   0.4375000   0.1875000), wk =   0.0156250
        k(   15) = (   0.0625000   0.4375000   0.3125000), wk =   0.0156250
        k(   16) = (   0.0625000   0.4375000   0.4375000), wk =   0.0156250
        k(   17) = (   0.1875000   0.0625000   0.0625000), wk =   0.0156250
        k(   18) = (   0.1875000   0.0625000   0.1875000), wk =   0.0156250
        k(   19) = (   0.1875000   0.0625000   0.3125000), wk =   0.0156250
        k(   20) = (   0.1875000   0.0625000   0.4375000), wk =   0.0156250
        k(   21) = (   0.1875000   0.1875000   0.0625000), wk =   0.0156250
        k(   22) = (   0.1875000   0.1875000   0.1875000), wk =   0.0156250
        k(   23) = (   0.1875000   0.1875000   0.3125000), wk =   0.0156250
        k(   24) = (   0.1875000   0.1875000   0.4375000), wk =   0.0156250
        k(   25) = (   0.1875000   0.3125000   0.0625000), wk =   0.0156250
        k(   26) = (   0.1875000   0.3125000   0.1875000), wk =   0.0156250
        k(   27) = (   0.1875000   0.3125000   0.3125000), wk =   0.0156250
        k(   28) = (   0.1875000   0.3125000   0.4375000), wk =   0.0156250
        k(   29) = (   0.1875000   0.4375000   0.0625000), wk =   0.0156250
        k(   30) = (   0.1875000   0.4375000   0.1875000), wk =   0.0156250
        k(   31) = (   0.1875000   0.4375000   0.3125000), wk =   0.0156250
        k(   32) = (   0.1875000   0.4375000   0.4375000), wk =   0.0156250
        k(   33) = (   0.3125000   0.0625000   0.0625000), wk =   0.0156250
        k(   34) = (   0.3125000   0.0625000   0.1875000), wk =   0.0156250
        k(   35) = (   0.3125000   0.0625000   0.3125000), wk =   0.0156250
        k(   36) = (   0.3125000   0.0625000   0.4375000), wk =   0.0156250
        k(   37) = (   0.3125000   0.1875000   0.0625000), wk =   0.0156250
        k(   38) = (   0.3125000   0.1875000   0.1875000), wk =   0.0156250
        k(   39) = (   0.3125000   0.1875000   0.3125000), wk =   0.0156250
        k(   40) = (   0.3125000   0.1875000   0.4375000), wk =   0.0156250
        k(   41) = (   0.3125000   0.3125000   0.0625000), wk =   0.0156250
        k(   42) = (   0.3125000   0.3125000   0.1875000), wk =   0.0156250
        k(   43) = (   0.3125000   0.3125000   0.3125000), wk =   0.0156250
        k(   44) = (   0.3125000   0.3125000   0.4375000), wk =   0.0156250
        k(   45) = (   0.3125000   0.4375000   0.0625000), wk =   0.0156250
        k(   46) = (   0.3125000   0.4375000   0.1875000), wk =   0.0156250
        k(   47) = (   0.3125000   0.4375000   0.3125000), wk =   0.0156250
        k(   48) = (   0.3125000   0.4375000   0.4375000), wk =   0.0156250
        k(   49) = (   0.4375000   0.0625000   0.0625000), wk =   0.0156250
        k(   50) = (   0.4375000   0.0625000   0.1875000), wk =   0.0156250
        k(   51) = (   0.4375000   0.0625000   0.3125000), wk =   0.0156250
        k(   52) = (   0.4375000   0.0625000   0.4375000), wk =   0.0156250
        k(   53) = (   0.4375000   0.1875000   0.0625000), wk =   0.0156250
        k(   54) = (   0.4375000   0.1875000   0.1875000), wk =   0.0156250
        k(   55) = (   0.4375000   0.1875000   0.3125000), wk =   0.0156250
        k(   56) = (   0.4375000   0.1875000   0.4375000), wk =   0.0156250
        k(   57) = (   0.4375000   0.3125000   0.0625000), wk =   0.0156250
        k(   58) = (   0.4375000   0.3125000   0.1875000), wk =   0.0156250
        k(   59) = (   0.4375000   0.3125000   0.3125000), wk =   0.0156250
        k(   60) = (   0.4375000   0.3125000   0.4375000), wk =   0.0156250
        k(   61) = (   0.4375000   0.4375000   0.0625000), wk =   0.0156250
        k(   62) = (   0.4375000   0.4375000   0.1875000), wk =   0.0156250
        k(   63) = (   0.4375000   0.4375000   0.3125000), wk =   0.0156250
        k(   64) = (   0.4375000   0.4375000   0.4375000), wk =   0.0156250

     Dense  grid:   731927 G-vectors     FFT dimensions: ( 100, 100, 144)

     Smooth grid:   523933 G-vectors     FFT dimensions: (  90,  90, 128)

     Dynamical RAM for                 wfc:       7.49 MB

     Dynamical RAM for     wfc (w. buffer):       7.49 MB

     Dynamical RAM for           str. fact:       0.70 MB

     Dynamical RAM for           local pot:       0.00 MB

     Dynamical RAM for          nlocal pot:      16.57 MB

     Dynamical RAM for                qrad:      36.03 MB

     Dynamical RAM for          rho,v,vnew:       5.54 MB

     Dynamical RAM for           G-vectors:       0.96 MB

     Dynamical RAM for          h,s,v(r/c):       5.93 MB

     Dynamical RAM for          <psi|beta>:       4.37 MB

     Dynamical RAM for                 psi:      14.99 MB

     Dynamical RAM for                hpsi:      14.99 MB

     Dynamical RAM for                spsi:      14.99 MB

     Dynamical RAM for      wfcinit/wfcrot:      13.98 MB

     Dynamical RAM for           addusdens:     478.13 MB

     Estimated static dynamical RAM per process >      70.04 MB

     Estimated max dynamical RAM per process >     548.17 MB

     Estimated total dynamical RAM >      25.70 GB

     The potential is recalculated from file :
     ./CsSnI3.save/charge-density

     Starting wfcs are  208 randomized atomic wfcs

     Band Structure Calculation
     Davidson diagonalization with overlap

     Computing kpt #:     1  of    64
     total cpu time spent up to now is       68.8 secs

     Computing kpt #:     2  of    64
     c_bands:  2 eigenvalues not converged
     total cpu time spent up to now is      131.3 secs

     Computing kpt #:     3  of    64
     total cpu time spent up to now is      183.0 secs

     Computing kpt #:     4  of    64
     total cpu time spent up to now is      231.5 secs

     Computing kpt #:     5  of    64
     total cpu time spent up to now is      284.2 secs

     Computing kpt #:     6  of    64
     total cpu time spent up to now is      345.5 secs

     Computing kpt #:     7  of    64
     total cpu time spent up to now is      396.6 secs

     Computing kpt #:     8  of    64
     total cpu time spent up to now is      448.0 secs

     Computing kpt #:     9  of    64
     total cpu time spent up to now is      499.3 secs

     Computing kpt #:    10  of    64
     c_bands:  2 eigenvalues not converged
     total cpu time spent up to now is      561.4 secs

     Computing kpt #:    11  of    64
     total cpu time spent up to now is      618.4 secs

     Computing kpt #:    12  of    64
     total cpu time spent up to now is      666.6 secs

     Computing kpt #:    13  of    64
     total cpu time spent up to now is      712.8 secs

     Computing kpt #:    14  of    64
     total cpu time spent up to now is      760.1 secs

     Computing kpt #:    15  of    64
     total cpu time spent up to now is      815.5 secs

     Computing kpt #:    16  of    64
     total cpu time spent up to now is      867.7 secs

     Computing kpt #:    17  of    64
     total cpu time spent up to now is      923.3 secs

     Computing kpt #:    18  of    64
     total cpu time spent up to now is      984.7 secs

     Computing kpt #:    19  of    64
     total cpu time spent up to now is     1035.8 secs

     Computing kpt #:    20  of    64
     total cpu time spent up to now is     1087.1 secs

     Computing kpt #:    21  of    64
     total cpu time spent up to now is     1135.2 secs

     Computing kpt #:    22  of    64
     total cpu time spent up to now is     1192.2 secs

     Computing kpt #:    23  of    64
     total cpu time spent up to now is     1239.6 secs

     Computing kpt #:    24  of    64
     total cpu time spent up to now is     1286.0 secs

     Computing kpt #:    25  of    64
     c_bands:  1 eigenvalues not converged
     total cpu time spent up to now is     1347.9 secs

     Computing kpt #:    26  of    64
     c_bands:  1 eigenvalues not converged
     total cpu time spent up to now is     1409.6 secs

     Computing kpt #:    27  of    64
     total cpu time spent up to now is     1457.0 secs

     Computing kpt #:    28  of    64
     total cpu time spent up to now is     1502.7 secs

     Computing kpt #:    29  of    64
     total cpu time spent up to now is     1549.9 secs

     Computing kpt #:    30  of    64
     total cpu time spent up to now is     1601.6 secs

     Computing kpt #:    31  of    64
     c_bands:  2 eigenvalues not converged
     total cpu time spent up to now is     1663.2 secs

     Computing kpt #:    32  of    64
     total cpu time spent up to now is     1711.4 secs

     Computing kpt #:    33  of    64
     total cpu time spent up to now is     1762.5 secs

     Computing kpt #:    34  of    64
     c_bands:  2 eigenvalues not converged
     total cpu time spent up to now is     1824.0 secs

     Computing kpt #:    35  of    64
     total cpu time spent up to now is     1885.0 secs

     Computing kpt #:    36  of    64
     total cpu time spent up to now is     1935.4 secs

     Computing kpt #:    37  of    64
     total cpu time spent up to now is     1995.9 secs

     Computing kpt #:    38  of    64
     c_bands:  1 eigenvalues not converged
     total cpu time spent up to now is     2056.8 secs

     Computing kpt #:    39  of    64
     total cpu time spent up to now is     2104.2 secs

     Computing kpt #:    40  of    64
     total cpu time spent up to now is     2149.6 secs

     Computing kpt #:    41  of    64
     c_bands:  2 eigenvalues not converged
     total cpu time spent up to now is     2211.2 secs

     Computing kpt #:    42  of    64
     c_bands:  1 eigenvalues not converged
     total cpu time spent up to now is     2272.3 secs

     Computing kpt #:    43  of    64
     total cpu time spent up to now is     2319.0 secs

     Computing kpt #:    44  of    64
     total cpu time spent up to now is     2364.7 secs

     Computing kpt #:    45  of    64
     total cpu time spent up to now is     2414.9 secs

     Computing kpt #:    46  of    64
     total cpu time spent up to now is     2471.3 secs

     Computing kpt #:    47  of    64
     total cpu time spent up to now is     2523.0 secs

     Computing kpt #:    48  of    64
     total cpu time spent up to now is     2573.6 secs

     Computing kpt #:    49  of    64
     total cpu time spent up to now is     2619.3 secs

     Computing kpt #:    50  of    64
     total cpu time spent up to now is     2665.6 secs

     Computing kpt #:    51  of    64
     total cpu time spent up to now is     2720.5 secs

     Computing kpt #:    52  of    64
     total cpu time spent up to now is     2775.6 secs

     Computing kpt #:    53  of    64
     total cpu time spent up to now is     2821.6 secs

     Computing kpt #:    54  of    64
     total cpu time spent up to now is     2871.7 secs

     Computing kpt #:    55  of    64
     c_bands:  1 eigenvalues not converged
     total cpu time spent up to now is     2932.4 secs

     Computing kpt #:    56  of    64
     total cpu time spent up to now is     2979.4 secs

     Computing kpt #:    57  of    64
     total cpu time spent up to now is     3029.8 secs

     Computing kpt #:    58  of    64
     total cpu time spent up to now is     3084.7 secs

     Computing kpt #:    59  of    64
     total cpu time spent up to now is     3139.1 secs

     Computing kpt #:    60  of    64
     total cpu time spent up to now is     3188.7 secs

     Computing kpt #:    61  of    64
     total cpu time spent up to now is     3239.0 secs

     Computing kpt #:    62  of    64
     total cpu time spent up to now is     3290.0 secs

     Computing kpt #:    63  of    64
     c_bands:  2 eigenvalues not converged
     total cpu time spent up to now is     3351.5 secs

     Computing kpt #:    64  of    64
     total cpu time spent up to now is     3408.0 secs

     ethr =  5.68E-10,  avg # of iterations = 76.9

     total cpu time spent up to now is     3408.0 secs

     End of band structure calculation

          k = 0.0625 0.0615 0.0431 ( 65488 PWs)   bands (ev):

   -18.8140 -18.8140 -18.8140 -18.8140 -18.8134 -18.8134 -18.8134 -18.8134
   -18.8081 -18.8081 -18.8079 -18.8079 -18.8078 -18.8078 -18.8076 -18.8076
   -18.2059 -18.2059 -18.2054 -18.2054 -18.2049 -18.2049 -18.2045 -18.2045
   -17.7770 -17.7770 -17.7770 -17.7770 -17.7758 -17.7758 -17.7758 -17.7758
   -17.7704 -17.7704 -17.7700 -17.7700 -17.7697 -17.7697 -17.7693 -17.7693
   -17.7642 -17.7642 -17.7642 -17.7642 -17.7641 -17.7641 -17.7641 -17.7641
    -9.2453  -9.2453  -9.0716  -9.0716  -8.9252  -8.9252  -8.8699  -8.8699
    -8.8679  -8.8679  -8.8136  -8.8136  -8.8122  -8.8122  -8.7947  -8.7947
    -8.7911  -8.7911  -8.6706  -8.6706  -8.6429  -8.6429  -8.6361  -8.6361
    -6.1547  -6.1547  -6.1456  -6.1456  -6.1443  -6.1443  -6.1377  -6.1377
    -4.5513  -4.5513  -4.5309  -4.5309  -4.5271  -4.5271  -4.5216  -4.5216
    -4.5153  -4.5153  -4.5119  -4.5119  -4.5031  -4.5031  -4.4975  -4.4975
    -4.4096  -4.4096  -3.8452  -3.8452  -3.3060  -3.3060  -2.6029  -2.6029
    -0.7656  -0.7656  -0.7054  -0.7054  -0.6585  -0.6585  -0.5266  -0.5266
    -0.5053  -0.5053  -0.4358  -0.4358   0.2997   0.2997   0.3835   0.3835
     0.3947   0.3947   0.6670   0.6670   0.8522   0.8522   0.8725   0.8725
     0.9556   0.9556   1.0459   1.0459   1.0765   1.0765   1.1895   1.1895
     1.3103   1.3103   1.3631   1.3631   1.3997   1.3997   1.4476   1.4476
     1.4614   1.4614   1.4866   1.4866   1.5657   1.5657   1.5904   1.5904
     1.6410   1.6410   1.6615   1.6615   1.8879   1.8879   1.9083   1.9083
     2.0166   2.0166   2.0752   2.0752   2.0995   2.0995   2.1310   2.1310
     2.2998   2.2998   2.4680   2.4680   2.8904   2.8904   3.4049   3.4049
     4.0063   4.0063   4.3522   4.3522

     occupation numbers 
     1.0000   1.0000   1.0000   1.0000   1.0000   1.0000   1.0000   1.0000
     1.0000   1.0000   1.0000   1.0000   1.0000   1.0000   1.0000   1.0000
     1.0000   1.0000   1.0000   1.0000   1.0000   1.0000   1.0000   1.0000
     1.0000   1.0000   1.0000   1.0000   1.0000   1.0000   1.0000   1.0000
     1.0000   1.0000   1.0000   1.0000   1.0000   1.0000   1.0000   1.0000
     1.0000   1.0000   1.0000   1.0000   1.0000   1.0000   1.0000   1.0000
     1.0000   1.0000   1.0000   1.0000   1.0000   1.0000   1.0000   1.0000
     1.0000   1.0000   1.0000   1.0000   1.0000   1.0000   1.0000   1.0000
     1.0000   1.0000   1.0000   1.0000   1.0000   1.0000   1.0000   1.0000
     1.0000   1.0000   1.0000   1.0000   1.0000   1.0000   1.0000   1.0000
     1.0000   1.0000   1.0000   1.0000   1.0000   1.0000   1.0000   1.0000
     1.0000   1.0000   1.0000   1.0000   1.0000   1.0000   1.0000   1.0000
     1.0000   1.0000   1.0000   1.0000   1.0000   1.0000   1.0000   1.0000
     1.0000   1.0000   1.0000   1.0000   1.0000   1.0000   1.0000   1.0000
     1.0000   1.0000   1.0000   1.0000   1.0000   1.0000   1.0000   1.0000
     1.0000   1.0000   1.0000   1.0000   1.0000   1.0000   1.0000   1.0000
     1.0000   1.0000   1.0000   1.0000   1.0000   1.0000   1.0000   1.0000
     1.0000   1.0000   1.0000   1.0000   1.0000   1.0000   1.0000   1.0000
     1.0000   1.0000   1.0000   1.0000   1.0000   1.0000   1.0000   1.0000
     1.0000   1.0000   1.0000   1.0000   1.0000   1.0000   1.0000   1.0000
     1.0000   1.0000   1.0000   1.0000   1.0000   1.0000   1.0000   1.0000
     1.0000   1.0000   1.0000   1.0000   1.0000   1.0000   1.0000   1.0000
     0.0000   0.0000   0.0000   0.0000

          k = 0.0625 0.0615 0.1293 ( 65462 PWs)   bands (ev):

   -18.8140 -18.8140 -18.8140 -18.8140 -18.8134 -18.8134 -18.8134 -18.8134
   -18.8081 -18.8081 -18.8079 -18.8079 -18.8078 -18.8078 -18.8076 -18.8076
   -18.2058 -18.2058 -18.2055 -18.2055 -18.2049 -18.2049 -18.2046 -18.2046
   -17.7770 -17.7770 -17.7770 -17.7770 -17.7758 -17.7758 -17.7758 -17.7758
   -17.7703 -17.7703 -17.7699 -17.7699 -17.7697 -17.7697 -17.7693 -17.7693
   -17.7642 -17.7642 -17.7642 -17.7642 -17.7641 -17.7641 -17.7641 -17.7641
    -9.2364  -9.2364  -9.0948  -9.0948  -8.9213  -8.9213  -8.8733  -8.8733
    -8.8458  -8.8458  -8.8130  -8.8130  -8.8111  -8.8111  -8.7943  -8.7943
    -8.7911  -8.7911  -8.6811  -8.6811  -8.6424  -8.6424  -8.6366  -8.6366
    -6.1540  -6.1540  -6.1456  -6.1456  -6.1443  -6.1443  -6.1382  -6.1382
    -4.5492  -4.5492  -4.5309  -4.5309  -4.5258  -4.5258  -4.5214  -4.5214
    -4.5153  -4.5153  -4.5122  -4.5122  -4.5047  -4.5047  -4.4987  -4.4987
    -4.3740  -4.3740  -3.8985  -3.8985  -3.2691  -3.2691  -2.6865  -2.6865
    -0.7232  -0.7232  -0.6724  -0.6724  -0.6416  -0.6416  -0.4813  -0.4813
    -0.4466  -0.4466  -0.3851  -0.3851   0.3076   0.3076   0.3705   0.3705
     0.3887   0.3887   0.6245   0.6245   0.8201   0.8201   0.8837   0.8837
     0.9623   0.9623   1.0309   1.0309   1.1048   1.1048   1.1758   1.1758
     1.2832   1.2832   1.3291   1.3291   1.3857   1.3857   1.4025   1.4025
     1.4460   1.4460   1.4717   1.4717   1.5332   1.5332   1.5831   1.5831
     1.6705   1.6705   1.7038   1.7038   1.8740   1.8740   1.9169   1.9169
     1.9930   1.9930   2.0340   2.0340   2.0802   2.0802   2.1374   2.1374
     2.2620   2.2620   2.3995   2.3995   2.8980   2.8980   3.2201   3.2201
     4.1571   4.1571   4.4863   4.4863

     occupation numbers 
     1.0000   1.0000   1.0000   1.0000   1.0000   1.0000   1.0000   1.0000
     1.0000   1.0000   1.0000   1.0000   1.0000   1.0000   1.0000   1.0000
     1.0000   1.0000   1.0000   1.0000   1.0000   1.0000   1.0000   1.0000
     1.0000   1.0000   1.0000   1.0000   1.0000   1.0000   1.0000   1.0000
     1.0000   1.0000   1.0000   1.0000   1.0000   1.0000   1.0000   1.0000
     1.0000   1.0000   1.0000   1.0000   1.0000   1.0000   1.0000   1.0000
     1.0000   1.0000   1.0000   1.0000   1.0000   1.0000   1.0000   1.0000
     1.0000   1.0000   1.0000   1.0000   1.0000   1.0000   1.0000   1.0000
     1.0000   1.0000   1.0000   1.0000   1.0000   1.0000   1.0000   1.0000
     1.0000   1.0000   1.0000   1.0000   1.0000   1.0000   1.0000   1.0000
     1.0000   1.0000   1.0000   1.0000   1.0000   1.0000   1.0000   1.0000
     1.0000   1.0000   1.0000   1.0000   1.0000   1.0000   1.0000   1.0000
     1.0000   1.0000   1.0000   1.0000   1.0000   1.0000   1.0000   1.0000
     1.0000   1.0000   1.0000   1.0000   1.0000   1.0000   1.0000   1.0000
     1.0000   1.0000   1.0000   1.0000   1.0000   1.0000   1.0000   1.0000
     1.0000   1.0000   1.0000   1.0000   1.0000   1.0000   1.0000   1.0000
     1.0000   1.0000   1.0000   1.0000   1.0000   1.0000   1.0000   1.0000
     1.0000   1.0000   1.0000   1.0000   1.0000   1.0000   1.0000   1.0000
     1.0000   1.0000   1.0000   1.0000   1.0000   1.0000   1.0000   1.0000
     1.0000   1.0000   1.0000   1.0000   1.0000   1.0000   1.0000   1.0000
     1.0000   1.0000   1.0000   1.0000   1.0000   1.0000   1.0000   1.0000
     1.0000   1.0000   1.0000   1.0000   1.0000   1.0000   1.0000   1.0000
     0.0000   0.0000   0.0000   0.0000

          k = 0.0625 0.0615 0.2155 ( 65502 PWs)   bands (ev):

   -18.8140 -18.8140 -18.8140 -18.8140 -18.8134 -18.8134 -18.8134 -18.8134
   -18.8080 -18.8080 -18.8079 -18.8079 -18.8078 -18.8078 -18.8077 -18.8077
   -18.2058 -18.2058 -18.2055 -18.2055 -18.2049 -18.2049 -18.2046 -18.2046
   -17.7770 -17.7770 -17.7770 -17.7770 -17.7758 -17.7758 -17.7758 -17.7758
   -17.7702 -17.7702 -17.7698 -17.7698 -17.7698 -17.7698 -17.7694 -17.7694
   -17.7642 -17.7642 -17.7642 -17.7642 -17.7641 -17.7641 -17.7641 -17.7641
    -9.2191  -9.2191  -9.1284  -9.1284  -8.9141  -8.9141  -8.8823  -8.8823
    -8.8193  -8.8193  -8.8122  -8.8122  -8.8011  -8.8011  -8.7935  -8.7935
    -8.7909  -8.7909  -8.7016  -8.7016  -8.6415  -8.6415  -8.6376  -8.6376
    -6.1525  -6.1525  -6.1469  -6.1469  -6.1433  -6.1433  -6.1391  -6.1391
    -4.5454  -4.5454  -4.5322  -4.5322  -4.5237  -4.5237  -4.5211  -4.5211
    -4.5151  -4.5151  -4.5114  -4.5114  -4.5075  -4.5075  -4.5012  -4.5012
    -4.3060  -4.3060  -3.9909  -3.9909  -3.1966  -3.1966  -2.8183  -2.8183
    -0.7089  -0.7089  -0.6738  -0.6738  -0.5827  -0.5827  -0.4866  -0.4866
    -0.2693  -0.2693  -0.1986  -0.1986   0.3214   0.3214   0.3287   0.3287
     0.3766   0.3766   0.5089   0.5089   0.7939   0.7939   0.9038   0.9038
     0.9751   0.9751   1.0026   1.0026   1.0772   1.0772   1.0975   1.0975
     1.2181   1.2181   1.3429   1.3429   1.3540   1.3540   1.3946   1.3946
     1.4302   1.4302   1.4595   1.4595   1.4928   1.4928   1.5587   1.5587
     1.6992   1.6992   1.7792   1.7792   1.8550   1.8550   1.9246   1.9246
     1.9605   1.9605   1.9760   1.9760   2.0726   2.0726   2.1587   2.1587
     2.1952   2.1952   2.3214   2.3214   2.9147   2.9147   3.0777   3.0777
     4.2433   4.2433   4.4461   4.4461

     occupation numbers 
     1.0000   1.0000   1.0000   1.0000   1.0000   1.0000   1.0000   1.0000
     1.0000   1.0000   1.0000   1.0000   1.0000   1.0000   1.0000   1.0000
     1.0000   1.0000   1.0000   1.0000   1.0000   1.0000   1.0000   1.0000
     1.0000   1.0000   1.0000   1.0000   1.0000   1.0000   1.0000   1.0000
     1.0000   1.0000   1.0000   1.0000   1.0000   1.0000   1.0000   1.0000
     1.0000   1.0000   1.0000   1.0000   1.0000   1.0000   1.0000   1.0000
     1.0000   1.0000   1.0000   1.0000   1.0000   1.0000   1.0000   1.0000
     1.0000   1.0000   1.0000   1.0000   1.0000   1.0000   1.0000   1.0000
     1.0000   1.0000   1.0000   1.0000   1.0000   1.0000   1.0000   1.0000
     1.0000   1.0000   1.0000   1.0000   1.0000   1.0000   1.0000   1.0000
     1.0000   1.0000   1.0000   1.0000   1.0000   1.0000   1.0000   1.0000
     1.0000   1.0000   1.0000   1.0000   1.0000   1.0000   1.0000   1.0000
     1.0000   1.0000   1.0000   1.0000   1.0000   1.0000   1.0000   1.0000
     1.0000   1.0000   1.0000   1.0000   1.0000   1.0000   1.0000   1.0000
     1.0000   1.0000   1.0000   1.0000   1.0000   1.0000   1.0000   1.0000
     1.0000   1.0000   1.0000   1.0000   1.0000   1.0000   1.0000   1.0000
     1.0000   1.0000   1.0000   1.0000   1.0000   1.0000   1.0000   1.0000
     1.0000   1.0000   1.0000   1.0000   1.0000   1.0000   1.0000   1.0000
     1.0000   1.0000   1.0000   1.0000   1.0000   1.0000   1.0000   1.0000
     1.0000   1.0000   1.0000   1.0000   1.0000   1.0000   1.0000   1.0000
     1.0000   1.0000   1.0000   1.0000   1.0000   1.0000   1.0000   1.0000
     1.0000   1.0000   1.0000   1.0000   1.0000   1.0000   1.0000   1.0000
     0.0000   0.0000   0.0000   0.0000

          k = 0.0625 0.0615 0.3017 ( 65515 PWs)   bands (ev):

   -18.8140 -18.8140 -18.8140 -18.8140 -18.8134 -18.8134 -18.8134 -18.8134
   -18.8080 -18.8080 -18.8079 -18.8079 -18.8078 -18.8078 -18.8077 -18.8077
   -18.2057 -18.2057 -18.2056 -18.2056 -18.2048 -18.2048 -18.2047 -18.2047
   -17.7770 -17.7770 -17.7770 -17.7770 -17.7758 -17.7758 -17.7758 -17.7758
   -17.7701 -17.7701 -17.7700 -17.7700 -17.7697 -17.7697 -17.7696 -17.7696
   -17.7642 -17.7642 -17.7642 -17.7642 -17.7641 -17.7641 -17.7641 -17.7641
    -9.1942  -9.1942  -9.1631  -9.1631  -8.9043  -8.9043  -8.8932  -8.8932
    -8.8143  -8.8143  -8.8126  -8.8126  -8.7927  -8.7927  -8.7919  -8.7919
    -8.7656  -8.7656  -8.7306  -8.7306  -8.6402  -8.6402  -8.6389  -8.6389
    -6.1507  -6.1507  -6.1487  -6.1487  -6.1419  -6.1419  -6.1404  -6.1404
    -4.5406  -4.5406  -4.5357  -4.5357  -4.5219  -4.5219  -4.5210  -4.5210
    -4.5139  -4.5139  -4.5111  -4.5111  -4.5083  -4.5083  -4.5047  -4.5047
    -4.2118  -4.2118  -4.1018  -4.1018  -3.0918  -3.0918  -2.9613  -2.9613
    -0.6968  -0.6968  -0.6842  -0.6842  -0.5451  -0.5451  -0.5132  -0.5132
    -0.0059  -0.0059   0.0422   0.0422   0.2141   0.2141   0.2992   0.2992
     0.3412   0.3412   0.3604   0.3604   0.8031   0.8031   0.8823   0.8823
     0.9455   0.9455   0.9770   0.9770   1.0096   1.0096   1.0412   1.0412
     1.2682   1.2682   1.3086   1.3086   1.3643   1.3643   1.3857   1.3857
     1.4291   1.4291   1.4449   1.4449   1.4865   1.4865   1.5167   1.5167
     1.7387   1.7387   1.7822   1.7822   1.8881   1.8881   1.9132   1.9132
     1.9476   1.9476   1.9703   1.9703   2.0678   2.0678   2.1104   2.1104
     2.2029   2.2029   2.2553   2.2553   2.9437   2.9437   2.9929   2.9929
     4.3171   4.3171   4.3867   4.3867

     occupation numbers 
     1.0000   1.0000   1.0000   1.0000   1.0000   1.0000   1.0000   1.0000
     1.0000   1.0000   1.0000   1.0000   1.0000   1.0000   1.0000   1.0000
     1.0000   1.0000   1.0000   1.0000   1.0000   1.0000   1.0000   1.0000
     1.0000   1.0000   1.0000   1.0000   1.0000   1.0000   1.0000   1.0000
     1.0000   1.0000   1.0000   1.0000   1.0000   1.0000   1.0000   1.0000
     1.0000   1.0000   1.0000   1.0000   1.0000   1.0000   1.0000   1.0000
     1.0000   1.0000   1.0000   1.0000   1.0000   1.0000   1.0000   1.0000
     1.0000   1.0000   1.0000   1.0000   1.0000   1.0000   1.0000   1.0000
     1.0000   1.0000   1.0000   1.0000   1.0000   1.0000   1.0000   1.0000
     1.0000   1.0000   1.0000   1.0000   1.0000   1.0000   1.0000   1.0000
     1.0000   1.0000   1.0000   1.0000   1.0000   1.0000   1.0000   1.0000
     1.0000   1.0000   1.0000   1.0000   1.0000   1.0000   1.0000   1.0000
     1.0000   1.0000   1.0000   1.0000   1.0000   1.0000   1.0000   1.0000
     1.0000   1.0000   1.0000   1.0000   1.0000   1.0000   1.0000   1.0000
     1.0000   1.0000   1.0000   1.0000   1.0000   1.0000   1.0000   1.0000
     1.0000   1.0000   1.0000   1.0000   1.0000   1.0000   1.0000   1.0000
     1.0000   1.0000   1.0000   1.0000   1.0000   1.0000   1.0000   1.0000
     1.0000   1.0000   1.0000   1.0000   1.0000   1.0000   1.0000   1.0000
     1.0000   1.0000   1.0000   1.0000   1.0000   1.0000   1.0000   1.0000
     1.0000   1.0000   1.0000   1.0000   1.0000   1.0000   1.0000   1.0000
     1.0000   1.0000   1.0000   1.0000   1.0000   1.0000   1.0000   1.0000
     1.0000   1.0000   1.0000   1.0000   1.0000   1.0000   1.0000   1.0000
     0.0000   0.0000   0.0000   0.0000

          k = 0.0625 0.1846 0.0431 ( 65470 PWs)   bands (ev):

   -18.8139 -18.8139 -18.8139 -18.8139 -18.8134 -18.8134 -18.8134 -18.8134
   -18.8081 -18.8081 -18.8079 -18.8079 -18.8078 -18.8078 -18.8076 -18.8076
   -18.2058 -18.2058 -18.2054 -18.2054 -18.2050 -18.2050 -18.2046 -18.2046
   -17.7769 -17.7769 -17.7769 -17.7769 -17.7759 -17.7759 -17.7759 -17.7759
   -17.7704 -17.7704 -17.7700 -17.7700 -17.7697 -17.7697 -17.7693 -17.7693
   -17.7642 -17.7642 -17.7642 -17.7642 -17.7641 -17.7641 -17.7641 -17.7641
    -9.2284  -9.2284  -9.0542  -9.0542  -8.9720  -8.9720  -8.8708  -8.8708
    -8.8684  -8.8684  -8.8320  -8.8320  -8.7975  -8.7975  -8.7836  -8.7836
    -8.7650  -8.7650  -8.6760  -8.6760  -8.6547  -8.6547  -8.6479  -8.6479
    -6.1529  -6.1529  -6.1449  -6.1449  -6.1438  -6.1438  -6.1378  -6.1378
    -4.5473  -4.5473  -4.5301  -4.5301  -4.5238  -4.5238  -4.5208  -4.5208
    -4.5160  -4.5160  -4.5100  -4.5100  -4.5031  -4.5031  -4.4986  -4.4986
    -4.3411  -4.3411  -3.7757  -3.7757  -3.4180  -3.4180  -2.7525  -2.7525
    -0.7410  -0.7410  -0.6067  -0.6067  -0.5680  -0.5680  -0.5193  -0.5193
    -0.3623  -0.3623  -0.3057  -0.3057   0.3043   0.3043   0.3646   0.3646
     0.3833   0.3833   0.6215   0.6215   0.7490   0.7490   0.8985   0.8985
     0.9753   0.9753   1.0136   1.0136   1.0510   1.0510   1.1659   1.1659
     1.1894   1.1894   1.3046   1.3046   1.3391   1.3391   1.4020   1.4020
     1.4312   1.4312   1.4743   1.4743   1.5383   1.5383   1.5622   1.5622
     1.6750   1.6750   1.7341   1.7341   1.8638   1.8638   1.9153   1.9153
     1.9495   1.9495   2.0644   2.0644   2.0844   2.0844   2.1464   2.1464
     2.2508   2.2508   2.4696   2.4696   2.6566   2.6566   3.1327   3.1327
     4.1498   4.1498   4.5138   4.5138

     occupation numbers 
     1.0000   1.0000   1.0000   1.0000   1.0000   1.0000   1.0000   1.0000
     1.0000   1.0000   1.0000   1.0000   1.0000   1.0000   1.0000   1.0000
     1.0000   1.0000   1.0000   1.0000   1.0000   1.0000   1.0000   1.0000
     1.0000   1.0000   1.0000   1.0000   1.0000   1.0000   1.0000   1.0000
     1.0000   1.0000   1.0000   1.0000   1.0000   1.0000   1.0000   1.0000
     1.0000   1.0000   1.0000   1.0000   1.0000   1.0000   1.0000   1.0000
     1.0000   1.0000   1.0000   1.0000   1.0000   1.0000   1.0000   1.0000
     1.0000   1.0000   1.0000   1.0000   1.0000   1.0000   1.0000   1.0000
     1.0000   1.0000   1.0000   1.0000   1.0000   1.0000   1.0000   1.0000
     1.0000   1.0000   1.0000   1.0000   1.0000   1.0000   1.0000   1.0000
     1.0000   1.0000   1.0000   1.0000   1.0000   1.0000   1.0000   1.0000
     1.0000   1.0000   1.0000   1.0000   1.0000   1.0000   1.0000   1.0000
     1.0000   1.0000   1.0000   1.0000   1.0000   1.0000   1.0000   1.0000
     1.0000   1.0000   1.0000   1.0000   1.0000   1.0000   1.0000   1.0000
     1.0000   1.0000   1.0000   1.0000   1.0000   1.0000   1.0000   1.0000
     1.0000   1.0000   1.0000   1.0000   1.0000   1.0000   1.0000   1.0000
     1.0000   1.0000   1.0000   1.0000   1.0000   1.0000   1.0000   1.0000
     1.0000   1.0000   1.0000   1.0000   1.0000   1.0000   1.0000   1.0000
     1.0000   1.0000   1.0000   1.0000   1.0000   1.0000   1.0000   1.0000
     1.0000   1.0000   1.0000   1.0000   1.0000   1.0000   1.0000   1.0000
     1.0000   1.0000   1.0000   1.0000   1.0000   1.0000   1.0000   1.0000
     1.0000   1.0000   1.0000   1.0000   1.0000   1.0000   1.0000   1.0000
     0.0000   0.0000   0.0000   0.0000

          k = 0.0625 0.1846 0.1293 ( 65461 PWs)   bands (ev):

   -18.8139 -18.8139 -18.8139 -18.8139 -18.8134 -18.8134 -18.8134 -18.8134
   -18.8081 -18.8081 -18.8079 -18.8079 -18.8078 -18.8078 -18.8076 -18.8076
   -18.2058 -18.2058 -18.2054 -18.2054 -18.2049 -18.2049 -18.2046 -18.2046
   -17.7770 -17.7770 -17.7769 -17.7769 -17.7759 -17.7759 -17.7759 -17.7759
   -17.7703 -17.7703 -17.7700 -17.7700 -17.7697 -17.7697 -17.7694 -17.7694
   -17.7642 -17.7642 -17.7642 -17.7642 -17.7641 -17.7641 -17.7641 -17.7641
    -9.2196  -9.2196  -9.0780  -9.0780  -8.9666  -8.9666  -8.8859  -8.8859
    -8.8436  -8.8436  -8.8214  -8.8214  -8.7972  -8.7972  -8.7831  -8.7831
    -8.7665  -8.7665  -8.6857  -8.6857  -8.6543  -8.6543  -8.6488  -8.6488
    -6.1522  -6.1522  -6.1453  -6.1453  -6.1435  -6.1435  -6.1382  -6.1382
    -4.5456  -4.5456  -4.5301  -4.5301  -4.5231  -4.5231  -4.5202  -4.5202
    -4.5156  -4.5156  -4.5107  -4.5107  -4.5044  -4.5044  -4.4996  -4.4996
    -4.3056  -4.3056  -3.8295  -3.8295  -3.3820  -3.3820  -2.8281  -2.8281
    -0.6729  -0.6729  -0.5829  -0.5829  -0.5518  -0.5518  -0.4249  -0.4249
    -0.3313  -0.3313  -0.3032  -0.3032   0.3108   0.3108   0.3476   0.3476
     0.3794   0.3794   0.5956   0.5956   0.7393   0.7393   0.9001   0.9001
     0.9810   0.9810   1.0040   1.0040   1.0442   1.0442   1.1348   1.1348
     1.2094   1.2094   1.2833   1.2833   1.3025   1.3025   1.3531   1.3531
     1.4108   1.4108   1.4703   1.4703   1.5074   1.5074   1.5505   1.5505
     1.7235   1.7235   1.7388   1.7388   1.8576   1.8576   1.9177   1.9177
     1.9411   1.9411   2.0351   2.0351   2.0707   2.0707   2.1506   2.1506
     2.2246   2.2246   2.3954   2.3954   2.6605   2.6605   2.9638   2.9638
     4.3654   4.3654   4.6620   4.6620

     occupation numbers 
     1.0000   1.0000   1.0000   1.0000   1.0000   1.0000   1.0000   1.0000
     1.0000   1.0000   1.0000   1.0000   1.0000   1.0000   1.0000   1.0000
     1.0000   1.0000   1.0000   1.0000   1.0000   1.0000   1.0000   1.0000
     1.0000   1.0000   1.0000   1.0000   1.0000   1.0000   1.0000   1.0000
     1.0000   1.0000   1.0000   1.0000   1.0000   1.0000   1.0000   1.0000
     1.0000   1.0000   1.0000   1.0000   1.0000   1.0000   1.0000   1.0000
     1.0000   1.0000   1.0000   1.0000   1.0000   1.0000   1.0000   1.0000
     1.0000   1.0000   1.0000   1.0000   1.0000   1.0000   1.0000   1.0000
     1.0000   1.0000   1.0000   1.0000   1.0000   1.0000   1.0000   1.0000
     1.0000   1.0000   1.0000   1.0000   1.0000   1.0000   1.0000   1.0000
     1.0000   1.0000   1.0000   1.0000   1.0000   1.0000   1.0000   1.0000
     1.0000   1.0000   1.0000   1.0000   1.0000   1.0000   1.0000   1.0000
     1.0000   1.0000   1.0000   1.0000   1.0000   1.0000   1.0000   1.0000
     1.0000   1.0000   1.0000   1.0000   1.0000   1.0000   1.0000   1.0000
     1.0000   1.0000   1.0000   1.0000   1.0000   1.0000   1.0000   1.0000
     1.0000   1.0000   1.0000   1.0000   1.0000   1.0000   1.0000   1.0000
     1.0000   1.0000   1.0000   1.0000   1.0000   1.0000   1.0000   1.0000
     1.0000   1.0000   1.0000   1.0000   1.0000   1.0000   1.0000   1.0000
     1.0000   1.0000   1.0000   1.0000   1.0000   1.0000   1.0000   1.0000
     1.0000   1.0000   1.0000   1.0000   1.0000   1.0000   1.0000   1.0000
     1.0000   1.0000   1.0000   1.0000   1.0000   1.0000   1.0000   1.0000
     1.0000   1.0000   1.0000   1.0000   1.0000   1.0000   1.0000   1.0000
     0.0000   0.0000   0.0000   0.0000

          k = 0.0625 0.1846 0.2155 ( 65454 PWs)   bands (ev):

   -18.8139 -18.8139 -18.8139 -18.8139 -18.8134 -18.8134 -18.8134 -18.8134
   -18.8080 -18.8080 -18.8079 -18.8079 -18.8078 -18.8078 -18.8077 -18.8077
   -18.2057 -18.2057 -18.2055 -18.2055 -18.2049 -18.2049 -18.2047 -18.2047
   -17.7769 -17.7769 -17.7769 -17.7769 -17.7759 -17.7759 -17.7759 -17.7759
   -17.7702 -17.7702 -17.7699 -17.7699 -17.7698 -17.7698 -17.7695 -17.7695
   -17.7642 -17.7642 -17.7642 -17.7642 -17.7641 -17.7641 -17.7641 -17.7641
    -9.2024  -9.2024  -9.1120  -9.1120  -8.9563  -8.9563  -8.9050  -8.9050
    -8.8112  -8.8112  -8.8094  -8.8094  -8.7952  -8.7952  -8.7815  -8.7815
    -8.7693  -8.7693  -8.7050  -8.7050  -8.6535  -8.6535  -8.6500  -8.6500
    -6.1511  -6.1511  -6.1464  -6.1464  -6.1426  -6.1426  -6.1390  -6.1390
    -4.5424  -4.5424  -4.5313  -4.5313  -4.5217  -4.5217  -4.5196  -4.5196
    -4.5148  -4.5148  -4.5110  -4.5110  -4.5065  -4.5065  -4.5016  -4.5016
    -4.2376  -4.2376  -3.9224  -3.9224  -3.3113  -3.3113  -2.9499  -2.9499
    -0.6318  -0.6318  -0.5812  -0.5812  -0.4804  -0.4804  -0.3527  -0.3527
    -0.2345  -0.2345  -0.1728  -0.1728   0.2999   0.2999   0.3232   0.3232
     0.3694   0.3694   0.5075   0.5075   0.7341   0.7341   0.9027   0.9027
     0.9706   0.9706   0.9875   0.9875   1.0291   1.0291   1.0455   1.0455
     1.2150   1.2150   1.2245   1.2245   1.2934   1.2934   1.3314   1.3314
     1.3832   1.3832   1.4488   1.4488   1.4847   1.4847   1.5324   1.5324
     1.7340   1.7340   1.7916   1.7916   1.8571   1.8571   1.9130   1.9130
     1.9329   1.9329   1.9918   1.9918   2.0699   2.0699   2.1596   2.1596
     2.1787   2.1787   2.3161   2.3161   2.6701   2.6701   2.8157   2.8157
     4.4768   4.4768   4.6740   4.6740

     occupation numbers 
     1.0000   1.0000   1.0000   1.0000   1.0000   1.0000   1.0000   1.0000
     1.0000   1.0000   1.0000   1.0000   1.0000   1.0000   1.0000   1.0000
     1.0000   1.0000   1.0000   1.0000   1.0000   1.0000   1.0000   1.0000
     1.0000   1.0000   1.0000   1.0000   1.0000   1.0000   1.0000   1.0000
     1.0000   1.0000   1.0000   1.0000   1.0000   1.0000   1.0000   1.0000
     1.0000   1.0000   1.0000   1.0000   1.0000   1.0000   1.0000   1.0000
     1.0000   1.0000   1.0000   1.0000   1.0000   1.0000   1.0000   1.0000
     1.0000   1.0000   1.0000   1.0000   1.0000   1.0000   1.0000   1.0000
     1.0000   1.0000   1.0000   1.0000   1.0000   1.0000   1.0000   1.0000
     1.0000   1.0000   1.0000   1.0000   1.0000   1.0000   1.0000   1.0000
     1.0000   1.0000   1.0000   1.0000   1.0000   1.0000   1.0000   1.0000
     1.0000   1.0000   1.0000   1.0000   1.0000   1.0000   1.0000   1.0000
     1.0000   1.0000   1.0000   1.0000   1.0000   1.0000   1.0000   1.0000
     1.0000   1.0000   1.0000   1.0000   1.0000   1.0000   1.0000   1.0000
     1.0000   1.0000   1.0000   1.0000   1.0000   1.0000   1.0000   1.0000
     1.0000   1.0000   1.0000   1.0000   1.0000   1.0000   1.0000   1.0000
     1.0000   1.0000   1.0000   1.0000   1.0000   1.0000   1.0000   1.0000
     1.0000   1.0000   1.0000   1.0000   1.0000   1.0000   1.0000   1.0000
     1.0000   1.0000   1.0000   1.0000   1.0000   1.0000   1.0000   1.0000
     1.0000   1.0000   1.0000   1.0000   1.0000   1.0000   1.0000   1.0000
     1.0000   1.0000   1.0000   1.0000   1.0000   1.0000   1.0000   1.0000
     1.0000   1.0000   1.0000   1.0000   1.0000   1.0000   1.0000   1.0000
     0.0000   0.0000   0.0000   0.0000

          k = 0.0625 0.1846 0.3017 ( 65486 PWs)   bands (ev):

   -18.8139 -18.8139 -18.8139 -18.8139 -18.8134 -18.8134 -18.8134 -18.8134
   -18.8080 -18.8080 -18.8079 -18.8079 -18.8078 -18.8078 -18.8078 -18.8078
   -18.2056 -18.2056 -18.2056 -18.2056 -18.2048 -18.2048 -18.2047 -18.2047
   -17.7769 -17.7769 -17.7769 -17.7769 -17.7759 -17.7759 -17.7759 -17.7759
   -17.7701 -17.7701 -17.7699 -17.7699 -17.7697 -17.7697 -17.7696 -17.7696
   -17.7642 -17.7642 -17.7642 -17.7642 -17.7641 -17.7641 -17.7641 -17.7641
    -9.1776  -9.1776  -9.1467  -9.1467  -8.9418  -8.9418  -8.9243  -8.9243
    -8.8041  -8.8041  -8.8008  -8.8008  -8.7788  -8.7788  -8.7749  -8.7749
    -8.7655  -8.7655  -8.7327  -8.7327  -8.6525  -8.6525  -8.6513  -8.6513
    -6.1496  -6.1496  -6.1478  -6.1478  -6.1414  -6.1414  -6.1401  -6.1401
    -4.5384  -4.5384  -4.5341  -4.5341  -4.5206  -4.5206  -4.5193  -4.5193
    -4.5137  -4.5137  -4.5110  -4.5110  -4.5073  -4.5073  -4.5044  -4.5044
    -4.1436  -4.1436  -4.0336  -4.0336  -3.2099  -3.2099  -3.0849  -3.0849
    -0.6116  -0.6116  -0.5938  -0.5938  -0.4235  -0.4235  -0.3820  -0.3820
    -0.0110  -0.0110   0.0646   0.0646   0.1873   0.1873   0.3152   0.3152
     0.3398   0.3398   0.3590   0.3590   0.7566   0.7566   0.8382   0.8382
     0.9310   0.9310   0.9575   0.9575   1.0178   1.0178   1.0304   1.0304
     1.1991   1.1991   1.2048   1.2048   1.3038   1.3038   1.3158   1.3158
     1.3863   1.3863   1.4145   1.4145   1.4890   1.4890   1.5085   1.5085
     1.7465   1.7465   1.7893   1.7893   1.8833   1.8833   1.8979   1.8979
     1.9539   1.9539   1.9936   1.9936   2.0653   2.0653   2.0997   2.0997
     2.2032   2.2032   2.2520   2.2520   2.6899   2.6899   2.7316   2.7316
     4.5505   4.5505   4.6172   4.6172

     occupation numbers 
     1.0000   1.0000   1.0000   1.0000   1.0000   1.0000   1.0000   1.0000
     1.0000   1.0000   1.0000   1.0000   1.0000   1.0000   1.0000   1.0000
     1.0000   1.0000   1.0000   1.0000   1.0000   1.0000   1.0000   1.0000
     1.0000   1.0000   1.0000   1.0000   1.0000   1.0000   1.0000   1.0000
     1.0000   1.0000   1.0000   1.0000   1.0000   1.0000   1.0000   1.0000
     1.0000   1.0000   1.0000   1.0000   1.0000   1.0000   1.0000   1.0000
     1.0000   1.0000   1.0000   1.0000   1.0000   1.0000   1.0000   1.0000
     1.0000   1.0000   1.0000   1.0000   1.0000   1.0000   1.0000   1.0000
     1.0000   1.0000   1.0000   1.0000   1.0000   1.0000   1.0000   1.0000
     1.0000   1.0000   1.0000   1.0000   1.0000   1.0000   1.0000   1.0000
     1.0000   1.0000   1.0000   1.0000   1.0000   1.0000   1.0000   1.0000
     1.0000   1.0000   1.0000   1.0000   1.0000   1.0000   1.0000   1.0000
     1.0000   1.0000   1.0000   1.0000   1.0000   1.0000   1.0000   1.0000
     1.0000   1.0000   1.0000   1.0000   1.0000   1.0000   1.0000   1.0000
     1.0000   1.0000   1.0000   1.0000   1.0000   1.0000   1.0000   1.0000
     1.0000   1.0000   1.0000   1.0000   1.0000   1.0000   1.0000   1.0000
     1.0000   1.0000   1.0000   1.0000   1.0000   1.0000   1.0000   1.0000
     1.0000   1.0000   1.0000   1.0000   1.0000   1.0000   1.0000   1.0000
     1.0000   1.0000   1.0000   1.0000   1.0000   1.0000   1.0000   1.0000
     1.0000   1.0000   1.0000   1.0000   1.0000   1.0000   1.0000   1.0000
     1.0000   1.0000   1.0000   1.0000   1.0000   1.0000   1.0000   1.0000
     1.0000   1.0000   1.0000   1.0000   1.0000   1.0000   1.0000   1.0000
     0.0000   0.0000   0.0000   0.0000

          k = 0.0625 0.3076 0.0431 ( 65460 PWs)   bands (ev):

   -18.8139 -18.8139 -18.8138 -18.8138 -18.8135 -18.8135 -18.8135 -18.8135
   -18.8081 -18.8081 -18.8080 -18.8080 -18.8078 -18.8078 -18.8077 -18.8077
   -18.2057 -18.2057 -18.2054 -18.2054 -18.2049 -18.2049 -18.2047 -18.2047
   -17.7768 -17.7768 -17.7768 -17.7768 -17.7761 -17.7761 -17.7760 -17.7760
   -17.7703 -17.7703 -17.7701 -17.7701 -17.7696 -17.7696 -17.7694 -17.7694
   -17.7642 -17.7642 -17.7642 -17.7642 -17.7641 -17.7641 -17.7641 -17.7641
    -9.1958  -9.1958  -9.0324  -9.0324  -9.0213  -9.0213  -8.8858  -8.8858
    -8.8678  -8.8678  -8.8568  -8.8568  -8.7749  -8.7749  -8.7627  -8.7627
    -8.7334  -8.7334  -8.6896  -8.6896  -8.6764  -8.6764  -8.6666  -8.6666
    -6.1499  -6.1499  -6.1446  -6.1446  -6.1425  -6.1425  -6.1383  -6.1383
    -4.5411  -4.5411  -4.5292  -4.5292  -4.5205  -4.5205  -4.5181  -4.5181
    -4.5167  -4.5167  -4.5071  -4.5071  -4.5032  -4.5032  -4.5005  -4.5005
    -4.2107  -4.2107  -3.6424  -3.6424  -3.6045  -3.6045  -2.9817  -2.9817
    -0.7035  -0.7035  -0.5715  -0.5715  -0.4464  -0.4464  -0.3859  -0.3859
    -0.0806  -0.0806  -0.0708  -0.0708   0.2357   0.2357   0.2829   0.2829
     0.3600   0.3600   0.5810   0.5810   0.6119   0.6119   0.8917   0.8917
     0.9514   0.9514   0.9709   0.9709   1.0114   1.0114   1.0178   1.0178
     1.1962   1.1962   1.2248   1.2248   1.3182   1.3182   1.3566   1.3566
     1.3947   1.3947   1.4631   1.4631   1.4744   1.4744   1.5074   1.5074
     1.6987   1.6987   1.8070   1.8070   1.8252   1.8252   1.8874   1.8874
     1.9487   1.9487   2.0225   2.0225   2.0525   2.0525   2.1428   2.1428
     2.1763   2.1763   2.3801   2.3801   2.4898   2.4898   2.8542   2.8542
     4.3093   4.3093   4.7066   4.7066

     occupation numbers 
     1.0000   1.0000   1.0000   1.0000   1.0000   1.0000   1.0000   1.0000
     1.0000   1.0000   1.0000   1.0000   1.0000   1.0000   1.0000   1.0000
     1.0000   1.0000   1.0000   1.0000   1.0000   1.0000   1.0000   1.0000
     1.0000   1.0000   1.0000   1.0000   1.0000   1.0000   1.0000   1.0000
     1.0000   1.0000   1.0000   1.0000   1.0000   1.0000   1.0000   1.0000
     1.0000   1.0000   1.0000   1.0000   1.0000   1.0000   1.0000   1.0000
     1.0000   1.0000   1.0000   1.0000   1.0000   1.0000   1.0000   1.0000
     1.0000   1.0000   1.0000   1.0000   1.0000   1.0000   1.0000   1.0000
     1.0000   1.0000   1.0000   1.0000   1.0000   1.0000   1.0000   1.0000
     1.0000   1.0000   1.0000   1.0000   1.0000   1.0000   1.0000   1.0000
     1.0000   1.0000   1.0000   1.0000   1.0000   1.0000   1.0000   1.0000
     1.0000   1.0000   1.0000   1.0000   1.0000   1.0000   1.0000   1.0000
     1.0000   1.0000   1.0000   1.0000   1.0000   1.0000   1.0000   1.0000
     1.0000   1.0000   1.0000   1.0000   1.0000   1.0000   1.0000   1.0000
     1.0000   1.0000   1.0000   1.0000   1.0000   1.0000   1.0000   1.0000
     1.0000   1.0000   1.0000   1.0000   1.0000   1.0000   1.0000   1.0000
     1.0000   1.0000   1.0000   1.0000   1.0000   1.0000   1.0000   1.0000
     1.0000   1.0000   1.0000   1.0000   1.0000   1.0000   1.0000   1.0000
     1.0000   1.0000   1.0000   1.0000   1.0000   1.0000   1.0000   1.0000
     1.0000   1.0000   1.0000   1.0000   1.0000   1.0000   1.0000   1.0000
     1.0000   1.0000   1.0000   1.0000   1.0000   1.0000   1.0000   1.0000
     1.0000   1.0000   1.0000   1.0000   1.0000   1.0000   1.0000   1.0000
     0.0000   0.0000   0.0000   0.0000

          k = 0.0625 0.3076 0.1293 ( 65451 PWs)   bands (ev):

   -18.8139 -18.8139 -18.8138 -18.8138 -18.8135 -18.8135 -18.8135 -18.8135
   -18.8080 -18.8080 -18.8079 -18.8079 -18.8078 -18.8078 -18.8077 -18.8077
   -18.2057 -18.2057 -18.2054 -18.2054 -18.2049 -18.2049 -18.2047 -18.2047
   -17.7768 -17.7768 -17.7768 -17.7768 -17.7760 -17.7760 -17.7760 -17.7760
   -17.7702 -17.7702 -17.7700 -17.7700 -17.7696 -17.7696 -17.7694 -17.7694
   -17.7642 -17.7642 -17.7641 -17.7641 -17.7641 -17.7641 -17.7641 -17.7641
    -9.1872  -9.1872  -9.0467  -9.0467  -9.0254  -9.0254  -8.9151  -8.9151
    -8.8422  -8.8422  -8.8306  -8.8306  -8.7751  -8.7751  -8.7624  -8.7624
    -8.7371  -8.7371  -8.6965  -8.6965  -8.6762  -8.6762  -8.6693  -8.6693
    -6.1495  -6.1495  -6.1450  -6.1450  -6.1422  -6.1422  -6.1386  -6.1386
    -4.5398  -4.5398  -4.5294  -4.5294  -4.5206  -4.5206  -4.5175  -4.5175
    -4.5154  -4.5154  -4.5087  -4.5087  -4.5039  -4.5039  -4.5010  -4.5010
    -4.1754  -4.1754  -3.6973  -3.6973  -3.5693  -3.5693  -3.0486  -3.0486
    -0.6127  -0.6127  -0.4703  -0.4703  -0.4268  -0.4268  -0.3898  -0.3898
    -0.0922  -0.0922  -0.0477  -0.0477   0.2434   0.2434   0.2660   0.2660
     0.3520   0.3520   0.5690   0.5690   0.6127   0.6127   0.8761   0.8761
     0.9448   0.9448   0.9687   0.9687   1.0043   1.0043   1.0284   1.0284
     1.1886   1.1886   1.2143   1.2143   1.2880   1.2880   1.3269   1.3269
     1.3602   1.3602   1.4380   1.4380   1.4623   1.4623   1.4777   1.4777
     1.7397   1.7397   1.8074   1.8074   1.8213   1.8213   1.8884   1.8884
     1.9482   1.9482   2.0252   2.0252   2.0406   2.0406   2.1442   2.1442
     2.1662   2.1662   2.3767   2.3767   2.4012   2.4012   2.6909   2.6909
     4.6065   4.6065   4.9457   4.9457

     occupation numbers 
     1.0000   1.0000   1.0000   1.0000   1.0000   1.0000   1.0000   1.0000
     1.0000   1.0000   1.0000   1.0000   1.0000   1.0000   1.0000   1.0000
     1.0000   1.0000   1.0000   1.0000   1.0000   1.0000   1.0000   1.0000
     1.0000   1.0000   1.0000   1.0000   1.0000   1.0000   1.0000   1.0000
     1.0000   1.0000   1.0000   1.0000   1.0000   1.0000   1.0000   1.0000
     1.0000   1.0000   1.0000   1.0000   1.0000   1.0000   1.0000   1.0000
     1.0000   1.0000   1.0000   1.0000   1.0000   1.0000   1.0000   1.0000
     1.0000   1.0000   1.0000   1.0000   1.0000   1.0000   1.0000   1.0000
     1.0000   1.0000   1.0000   1.0000   1.0000   1.0000   1.0000   1.0000
     1.0000   1.0000   1.0000   1.0000   1.0000   1.0000   1.0000   1.0000
     1.0000   1.0000   1.0000   1.0000   1.0000   1.0000   1.0000   1.0000
     1.0000   1.0000   1.0000   1.0000   1.0000   1.0000   1.0000   1.0000
     1.0000   1.0000   1.0000   1.0000   1.0000   1.0000   1.0000   1.0000
     1.0000   1.0000   1.0000   1.0000   1.0000   1.0000   1.0000   1.0000
     1.0000   1.0000   1.0000   1.0000   1.0000   1.0000   1.0000   1.0000
     1.0000   1.0000   1.0000   1.0000   1.0000   1.0000   1.0000   1.0000
     1.0000   1.0000   1.0000   1.0000   1.0000   1.0000   1.0000   1.0000
     1.0000   1.0000   1.0000   1.0000   1.0000   1.0000   1.0000   1.0000
     1.0000   1.0000   1.0000   1.0000   1.0000   1.0000   1.0000   1.0000
     1.0000   1.0000   1.0000   1.0000   1.0000   1.0000   1.0000   1.0000
     1.0000   1.0000   1.0000   1.0000   1.0000   1.0000   1.0000   1.0000
     1.0000   1.0000   1.0000   1.0000   1.0000   1.0000   1.0000   1.0000
     0.0000   0.0000   0.0000   0.0000

          k = 0.0625 0.3076 0.2155 ( 65452 PWs)   bands (ev):

   -18.8139 -18.8139 -18.8138 -18.8138 -18.8135 -18.8135 -18.8135 -18.8135
   -18.8080 -18.8080 -18.8079 -18.8079 -18.8078 -18.8078 -18.8077 -18.8077
   -18.2056 -18.2056 -18.2055 -18.2055 -18.2049 -18.2049 -18.2048 -18.2048
   -17.7768 -17.7768 -17.7768 -17.7768 -17.7760 -17.7760 -17.7760 -17.7760
   -17.7701 -17.7701 -17.7699 -17.7699 -17.7697 -17.7697 -17.7695 -17.7695
   -17.7642 -17.7642 -17.7642 -17.7642 -17.7641 -17.7641 -17.7641 -17.7641
    -9.1703  -9.1703  -9.0810  -9.0810  -9.0125  -9.0125  -8.9439  -8.9439
    -8.8085  -8.8085  -8.8066  -8.8066  -8.7759  -8.7759  -8.7613  -8.7613
    -8.7439  -8.7439  -8.7123  -8.7123  -8.6756  -8.6756  -8.6719  -8.6719
    -6.1488  -6.1488  -6.1457  -6.1457  -6.1415  -6.1415  -6.1391  -6.1391
    -4.5376  -4.5376  -4.5302  -4.5302  -4.5201  -4.5201  -4.5173  -4.5173
    -4.5134  -4.5134  -4.5104  -4.5104  -4.5051  -4.5051  -4.5021  -4.5021
    -4.1079  -4.1079  -3.7916  -3.7916  -3.5008  -3.5008  -3.1592  -3.1592
    -0.5082  -0.5082  -0.4172  -0.4172  -0.3555  -0.3555  -0.2781  -0.2781
    -0.1237  -0.1237   0.0262   0.0262   0.2229   0.2229   0.2594   0.2594
     0.3317   0.3317   0.5150   0.5150   0.6198   0.6198   0.8158   0.8158
     0.9319   0.9319   0.9599   0.9599   1.0029   1.0029   1.0449   1.0449
     1.1381   1.1381   1.2142   1.2142   1.2591   1.2591   1.2802   1.2802
     1.3150   1.3150   1.3868   1.3868   1.4502   1.4502   1.4636   1.4636
     1.7666   1.7666   1.7995   1.7995   1.8469   1.8469   1.9035   1.9035
     1.9317   1.9317   2.0081   2.0081   2.0487   2.0487   2.1270   2.1270
     2.1659   2.1659   2.3029   2.3029   2.3883   2.3883   2.5271   2.5271
     4.8780   4.8780   5.0856   5.0856

     occupation numbers 
     1.0000   1.0000   1.0000   1.0000   1.0000   1.0000   1.0000   1.0000
     1.0000   1.0000   1.0000   1.0000   1.0000   1.0000   1.0000   1.0000
     1.0000   1.0000   1.0000   1.0000   1.0000   1.0000   1.0000   1.0000
     1.0000   1.0000   1.0000   1.0000   1.0000   1.0000   1.0000   1.0000
     1.0000   1.0000   1.0000   1.0000   1.0000   1.0000   1.0000   1.0000
     1.0000   1.0000   1.0000   1.0000   1.0000   1.0000   1.0000   1.0000
     1.0000   1.0000   1.0000   1.0000   1.0000   1.0000   1.0000   1.0000
     1.0000   1.0000   1.0000   1.0000   1.0000   1.0000   1.0000   1.0000
     1.0000   1.0000   1.0000   1.0000   1.0000   1.0000   1.0000   1.0000
     1.0000   1.0000   1.0000   1.0000   1.0000   1.0000   1.0000   1.0000
     1.0000   1.0000   1.0000   1.0000   1.0000   1.0000   1.0000   1.0000
     1.0000   1.0000   1.0000   1.0000   1.0000   1.0000   1.0000   1.0000
     1.0000   1.0000   1.0000   1.0000   1.0000   1.0000   1.0000   1.0000
     1.0000   1.0000   1.0000   1.0000   1.0000   1.0000   1.0000   1.0000
     1.0000   1.0000   1.0000   1.0000   1.0000   1.0000   1.0000   1.0000
     1.0000   1.0000   1.0000   1.0000   1.0000   1.0000   1.0000   1.0000
     1.0000   1.0000   1.0000   1.0000   1.0000   1.0000   1.0000   1.0000
     1.0000   1.0000   1.0000   1.0000   1.0000   1.0000   1.0000   1.0000
     1.0000   1.0000   1.0000   1.0000   1.0000   1.0000   1.0000   1.0000
     1.0000   1.0000   1.0000   1.0000   1.0000   1.0000   1.0000   1.0000
     1.0000   1.0000   1.0000   1.0000   1.0000   1.0000   1.0000   1.0000
     1.0000   1.0000   1.0000   1.0000   1.0000   1.0000   1.0000   1.0000
     0.0000   0.0000   0.0000   0.0000

          k = 0.0625 0.3076 0.3017 ( 65444 PWs)   bands (ev):

   -18.8139 -18.8139 -18.8138 -18.8138 -18.8135 -18.8135 -18.8135 -18.8135
   -18.8079 -18.8079 -18.8079 -18.8079 -18.8078 -18.8078 -18.8078 -18.8078
   -18.2056 -18.2056 -18.2055 -18.2055 -18.2049 -18.2049 -18.2048 -18.2048
   -17.7768 -17.7768 -17.7768 -17.7768 -17.7760 -17.7760 -17.7760 -17.7760
   -17.7700 -17.7700 -17.7699 -17.7699 -17.7698 -17.7698 -17.7696 -17.7696
   -17.7642 -17.7642 -17.7642 -17.7642 -17.7641 -17.7641 -17.7641 -17.7641
    -9.1460  -9.1460  -9.1155  -9.1155  -8.9939  -8.9939  -8.9706  -8.9706
    -8.7911  -8.7911  -8.7827  -8.7827  -8.7690  -8.7690  -8.7575  -8.7575
    -8.7524  -8.7524  -8.7367  -8.7367  -8.6748  -8.6748  -8.6737  -8.6737
    -6.1479  -6.1479  -6.1466  -6.1466  -6.1407  -6.1407  -6.1398  -6.1398
    -4.5348  -4.5348  -4.5319  -4.5319  -4.5192  -4.5192  -4.5176  -4.5176
    -4.5126  -4.5126  -4.5105  -4.5105  -4.5057  -4.5057  -4.5038  -4.5038
    -4.0140  -4.0140  -3.9037  -3.9037  -3.4032  -3.4032  -3.2847  -3.2847
    -0.4604  -0.4604  -0.4334  -0.4334  -0.2528  -0.2528  -0.1773  -0.1773
    -0.0577  -0.0577   0.1204   0.1204   0.1737   0.1737   0.2838   0.2838
     0.2970   0.2970   0.3825   0.3825   0.6479   0.6479   0.7183   0.7183
     0.9236   0.9236   0.9406   0.9406   1.0195   1.0195   1.0399   1.0399
     1.1350   1.1350   1.1723   1.1723   1.2376   1.2376   1.2518   1.2518
     1.3154   1.3154   1.3474   1.3474   1.4452   1.4452   1.4560   1.4560
     1.7667   1.7667   1.7947   1.7947   1.8713   1.8713   1.8946   1.8946
     1.9622   1.9622   2.0035   2.0035   2.0545   2.0545   2.0805   2.0805
     2.1934   2.1934   2.2398   2.2398   2.3995   2.3995   2.4349   2.4349
     4.9697   4.9697   5.0329   5.0329

     occupation numbers 
     1.0000   1.0000   1.0000   1.0000   1.0000   1.0000   1.0000   1.0000
     1.0000   1.0000   1.0000   1.0000   1.0000   1.0000   1.0000   1.0000
     1.0000   1.0000   1.0000   1.0000   1.0000   1.0000   1.0000   1.0000
     1.0000   1.0000   1.0000   1.0000   1.0000   1.0000   1.0000   1.0000
     1.0000   1.0000   1.0000   1.0000   1.0000   1.0000   1.0000   1.0000
     1.0000   1.0000   1.0000   1.0000   1.0000   1.0000   1.0000   1.0000
     1.0000   1.0000   1.0000   1.0000   1.0000   1.0000   1.0000   1.0000
     1.0000   1.0000   1.0000   1.0000   1.0000   1.0000   1.0000   1.0000
     1.0000   1.0000   1.0000   1.0000   1.0000   1.0000   1.0000   1.0000
     1.0000   1.0000   1.0000   1.0000   1.0000   1.0000   1.0000   1.0000
     1.0000   1.0000   1.0000   1.0000   1.0000   1.0000   1.0000   1.0000
     1.0000   1.0000   1.0000   1.0000   1.0000   1.0000   1.0000   1.0000
     1.0000   1.0000   1.0000   1.0000   1.0000   1.0000   1.0000   1.0000
     1.0000   1.0000   1.0000   1.0000   1.0000   1.0000   1.0000   1.0000
     1.0000   1.0000   1.0000   1.0000   1.0000   1.0000   1.0000   1.0000
     1.0000   1.0000   1.0000   1.0000   1.0000   1.0000   1.0000   1.0000
     1.0000   1.0000   1.0000   1.0000   1.0000   1.0000   1.0000   1.0000
     1.0000   1.0000   1.0000   1.0000   1.0000   1.0000   1.0000   1.0000
     1.0000   1.0000   1.0000   1.0000   1.0000   1.0000   1.0000   1.0000
     1.0000   1.0000   1.0000   1.0000   1.0000   1.0000   1.0000   1.0000
     1.0000   1.0000   1.0000   1.0000   1.0000   1.0000   1.0000   1.0000
     1.0000   1.0000   1.0000   1.0000   1.0000   1.0000   1.0000   1.0000
     0.0000   0.0000   0.0000   0.0000

          k = 0.0625 0.4306 0.0431 ( 65433 PWs)   bands (ev):

   -18.8137 -18.8137 -18.8137 -18.8137 -18.8136 -18.8136 -18.8136 -18.8136
   -18.8080 -18.8080 -18.8080 -18.8080 -18.8077 -18.8077 -18.8077 -18.8077
   -18.2056 -18.2056 -18.2055 -18.2055 -18.2049 -18.2049 -18.2048 -18.2048
   -17.7765 -17.7765 -17.7765 -17.7765 -17.7763 -17.7763 -17.7763 -17.7763
   -17.7702 -17.7702 -17.7702 -17.7702 -17.7695 -17.7695 -17.7694 -17.7694
   -17.7642 -17.7642 -17.7642 -17.7642 -17.7641 -17.7641 -17.7641 -17.7641
    -9.1498  -9.1498  -9.0938  -9.0938  -8.9772  -8.9772  -8.9282  -8.9282
    -8.8667  -8.8667  -8.8644  -8.8644  -8.7459  -8.7459  -8.7350  -8.7350
    -8.7154  -8.7154  -8.7062  -8.7062  -8.7047  -8.7047  -8.6856  -8.6856
    -6.1470  -6.1470  -6.1451  -6.1451  -6.1409  -6.1409  -6.1394  -6.1394
    -4.5348  -4.5348  -4.5305  -4.5305  -4.5197  -4.5197  -4.5177  -4.5177
    -4.5121  -4.5121  -4.5071  -4.5071  -4.5035  -4.5035  -4.5016  -4.5016
    -4.0311  -4.0311  -3.8206  -3.8206  -3.4552  -3.4552  -3.2279  -3.2279
    -0.6615  -0.6615  -0.6158  -0.6158  -0.2321  -0.2321  -0.1644  -0.1644
     0.0105   0.0105   0.0647   0.0647   0.1975   0.1975   0.2519   0.2519
     0.3170   0.3170   0.4856   0.4856   0.6027   0.6027   0.7399   0.7399
     0.9242   0.9242   0.9452   0.9452   0.9634   0.9634   0.9822   0.9822
     1.2140   1.2140   1.2217   1.2217   1.2683   1.2683   1.3163   1.3163
     1.4061   1.4061   1.4138   1.4138   1.4482   1.4482   1.4587   1.4587
     1.7112   1.7112   1.7555   1.7555   1.8690   1.8690   1.9025   1.9025
     1.9561   1.9561   1.9869   1.9869   2.0205   2.0205   2.0844   2.0844
     2.1602   2.1602   2.2170   2.2170   2.5435   2.5435   2.6598   2.6598
     4.4596   4.4596   4.5977   4.5977

     occupation numbers 
     1.0000   1.0000   1.0000   1.0000   1.0000   1.0000   1.0000   1.0000
     1.0000   1.0000   1.0000   1.0000   1.0000   1.0000   1.0000   1.0000
     1.0000   1.0000   1.0000   1.0000   1.0000   1.0000   1.0000   1.0000
     1.0000   1.0000   1.0000   1.0000   1.0000   1.0000   1.0000   1.0000
     1.0000   1.0000   1.0000   1.0000   1.0000   1.0000   1.0000   1.0000
     1.0000   1.0000   1.0000   1.0000   1.0000   1.0000   1.0000   1.0000
     1.0000   1.0000   1.0000   1.0000   1.0000   1.0000   1.0000   1.0000
     1.0000   1.0000   1.0000   1.0000   1.0000   1.0000   1.0000   1.0000
     1.0000   1.0000   1.0000   1.0000   1.0000   1.0000   1.0000   1.0000
     1.0000   1.0000   1.0000   1.0000   1.0000   1.0000   1.0000   1.0000
     1.0000   1.0000   1.0000   1.0000   1.0000   1.0000   1.0000   1.0000
     1.0000   1.0000   1.0000   1.0000   1.0000   1.0000   1.0000   1.0000
     1.0000   1.0000   1.0000   1.0000   1.0000   1.0000   1.0000   1.0000
     1.0000   1.0000   1.0000   1.0000   1.0000   1.0000   1.0000   1.0000
     1.0000   1.0000   1.0000   1.0000   1.0000   1.0000   1.0000   1.0000
     1.0000   1.0000   1.0000   1.0000   1.0000   1.0000   1.0000   1.0000
     1.0000   1.0000   1.0000   1.0000   1.0000   1.0000   1.0000   1.0000
     1.0000   1.0000   1.0000   1.0000   1.0000   1.0000   1.0000   1.0000
     1.0000   1.0000   1.0000   1.0000   1.0000   1.0000   1.0000   1.0000
     1.0000   1.0000   1.0000   1.0000   1.0000   1.0000   1.0000   1.0000
     1.0000   1.0000   1.0000   1.0000   1.0000   1.0000   1.0000   1.0000
     1.0000   1.0000   1.0000   1.0000   1.0000   1.0000   1.0000   1.0000
     0.0000   0.0000   0.0000   0.0000

          k = 0.0625 0.4306 0.1293 ( 65441 PWs)   bands (ev):

   -18.8137 -18.8137 -18.8137 -18.8137 -18.8136 -18.8136 -18.8136 -18.8136
   -18.8080 -18.8080 -18.8080 -18.8080 -18.8077 -18.8077 -18.8077 -18.8077
   -18.2056 -18.2056 -18.2055 -18.2055 -18.2049 -18.2049 -18.2048 -18.2048
   -17.7765 -17.7765 -17.7765 -17.7765 -17.7763 -17.7763 -17.7763 -17.7763
   -17.7702 -17.7702 -17.7701 -17.7701 -17.7696 -17.7696 -17.7695 -17.7695
   -17.7642 -17.7642 -17.7642 -17.7642 -17.7641 -17.7641 -17.7641 -17.7641
    -9.1415  -9.1415  -9.0861  -9.0861  -9.0042  -9.0042  -8.9577  -8.9577
    -8.8401  -8.8401  -8.8365  -8.8365  -8.7469  -8.7469  -8.7348  -8.7348
    -8.7188  -8.7188  -8.7109  -8.7109  -8.7045  -8.7045  -8.6908  -8.6908
    -6.1469  -6.1469  -6.1453  -6.1453  -6.1407  -6.1407  -6.1395  -6.1395
    -4.5342  -4.5342  -4.5303  -4.5303  -4.5203  -4.5203  -4.5163  -4.5163
    -4.5117  -4.5117  -4.5079  -4.5079  -4.5048  -4.5048  -4.5013  -4.5013
    -3.9962  -3.9962  -3.7858  -3.7858  -3.5122  -3.5122  -3.2887  -3.2887
    -0.5618  -0.5618  -0.5128  -0.5128  -0.2194  -0.2194  -0.1736  -0.1736
     0.0205   0.0205   0.0528   0.0528   0.1731   0.1731   0.2686   0.2686
     0.3006   0.3006   0.4907   0.4907   0.5957   0.5957   0.7176   0.7176
     0.9308   0.9308   0.9568   0.9568   0.9659   0.9659   0.9996   0.9996
     1.2019   1.2019   1.2115   1.2115   1.2494   1.2494   1.3131   1.3131
     1.3524   1.3524   1.3713   1.3713   1.4062   1.4062   1.4346   1.4346
     1.7266   1.7266   1.7922   1.7922   1.8513   1.8513   1.9066   1.9066
     1.9666   1.9666   1.9769   1.9769   2.0316   2.0316   2.0821   2.0821
     2.1619   2.1619   2.2197   2.2197   2.4137   2.4137   2.5198   2.5198
     4.7583   4.7583   4.8850   4.8850

     occupation numbers 
     1.0000   1.0000   1.0000   1.0000   1.0000   1.0000   1.0000   1.0000
     1.0000   1.0000   1.0000   1.0000   1.0000   1.0000   1.0000   1.0000
     1.0000   1.0000   1.0000   1.0000   1.0000   1.0000   1.0000   1.0000
     1.0000   1.0000   1.0000   1.0000   1.0000   1.0000   1.0000   1.0000
     1.0000   1.0000   1.0000   1.0000   1.0000   1.0000   1.0000   1.0000
     1.0000   1.0000   1.0000   1.0000   1.0000   1.0000   1.0000   1.0000
     1.0000   1.0000   1.0000   1.0000   1.0000   1.0000   1.0000   1.0000
     1.0000   1.0000   1.0000   1.0000   1.0000   1.0000   1.0000   1.0000
     1.0000   1.0000   1.0000   1.0000   1.0000   1.0000   1.0000   1.0000
     1.0000   1.0000   1.0000   1.0000   1.0000   1.0000   1.0000   1.0000
     1.0000   1.0000   1.0000   1.0000   1.0000   1.0000   1.0000   1.0000
[...]
   -18.8079 -18.8079 -18.8079 -18.8079 -18.8078 -18.8078 -18.8078 -18.8078
   -18.2053 -18.2053 -18.2052 -18.2052 -18.2051 -18.2051 -18.2051 -18.2051
   -17.7765 -17.7765 -17.7765 -17.7765 -17.7764 -17.7764 -17.7764 -17.7764
   -17.7699 -17.7699 -17.7699 -17.7699 -17.7698 -17.7698 -17.7697 -17.7697
   -17.7642 -17.7642 -17.7642 -17.7642 -17.7641 -17.7641 -17.7641 -17.7641
    -9.0684  -9.0684  -9.0377  -9.0377  -9.0323  -9.0323  -9.0024  -9.0024
    -8.8151  -8.8151  -8.8126  -8.8126  -8.7991  -8.7991  -8.7916  -8.7916
    -8.7283  -8.7283  -8.7166  -8.7166  -8.7036  -8.7036  -8.6944  -8.6944
    -6.1416  -6.1416  -6.1411  -6.1411  -6.1397  -6.1397  -6.1394  -6.1394
    -4.5204  -4.5204  -4.5184  -4.5184  -4.5154  -4.5154  -4.5137  -4.5137
    -4.5080  -4.5080  -4.5069  -4.5069  -4.5060  -4.5060  -4.5040  -4.5040
    -3.7518  -3.7518  -3.6376  -3.6376  -3.6272  -3.6272  -3.5110  -3.5110
    -0.5130  -0.5130  -0.4804  -0.4804  -0.3712  -0.3712  -0.3275  -0.3275
    -0.0444  -0.0444   0.0117   0.0117   0.1584   0.1584   0.2049   0.2049
     0.5332   0.5332   0.5676   0.5676   0.5905   0.5905   0.6207   0.6207
     0.9301   0.9301   0.9475   0.9475   0.9760   0.9760   1.0051   1.0051
     1.2221   1.2221   1.2490   1.2490   1.2700   1.2700   1.2834   1.2834
     1.3486   1.3486   1.3825   1.3825   1.4338   1.4338   1.4545   1.4545
     1.7505   1.7505   1.7682   1.7682   1.8258   1.8258   1.8440   1.8440
     1.9391   1.9391   1.9950   1.9950   2.0076   2.0076   2.0423   2.0423
     2.2012   2.2012   2.2716   2.2716   2.3362   2.3362   2.4110   2.4110
     4.8137   4.8137   4.8761   4.8761

     occupation numbers 
     1.0000   1.0000   1.0000   1.0000   1.0000   1.0000   1.0000   1.0000
     1.0000   1.0000   1.0000   1.0000   1.0000   1.0000   1.0000   1.0000
     1.0000   1.0000   1.0000   1.0000   1.0000   1.0000   1.0000   1.0000
     1.0000   1.0000   1.0000   1.0000   1.0000   1.0000   1.0000   1.0000
     1.0000   1.0000   1.0000   1.0000   1.0000   1.0000   1.0000   1.0000
     1.0000   1.0000   1.0000   1.0000   1.0000   1.0000   1.0000   1.0000
     1.0000   1.0000   1.0000   1.0000   1.0000   1.0000   1.0000   1.0000
     1.0000   1.0000   1.0000   1.0000   1.0000   1.0000   1.0000   1.0000
     1.0000   1.0000   1.0000   1.0000   1.0000   1.0000   1.0000   1.0000
     1.0000   1.0000   1.0000   1.0000   1.0000   1.0000   1.0000   1.0000
     1.0000   1.0000   1.0000   1.0000   1.0000   1.0000   1.0000   1.0000
     1.0000   1.0000   1.0000   1.0000   1.0000   1.0000   1.0000   1.0000
     1.0000   1.0000   1.0000   1.0000   1.0000   1.0000   1.0000   1.0000
     1.0000   1.0000   1.0000   1.0000   1.0000   1.0000   1.0000   1.0000
     1.0000   1.0000   1.0000   1.0000   1.0000   1.0000   1.0000   1.0000
     1.0000   1.0000   1.0000   1.0000   1.0000   1.0000   1.0000   1.0000
     1.0000   1.0000   1.0000   1.0000   1.0000   1.0000   1.0000   1.0000
     1.0000   1.0000   1.0000   1.0000   1.0000   1.0000   1.0000   1.0000
     1.0000   1.0000   1.0000   1.0000   1.0000   1.0000   1.0000   1.0000
     1.0000   1.0000   1.0000   1.0000   1.0000   1.0000   1.0000   1.0000
     1.0000   1.0000   1.0000   1.0000   1.0000   1.0000   1.0000   1.0000
     1.0000   1.0000   1.0000   1.0000   1.0000   1.0000   1.0000   1.0000
     0.0000   0.0000   0.0000   0.0000

          k = 0.4375 0.4306 0.0431 ( 65512 PWs)   bands (ev):

   -18.8137 -18.8137 -18.8137 -18.8137 -18.8137 -18.8137 -18.8137 -18.8137
   -18.8080 -18.8080 -18.8080 -18.8080 -18.8077 -18.8077 -18.8077 -18.8077
   -18.2054 -18.2054 -18.2054 -18.2054 -18.2050 -18.2050 -18.2049 -18.2049
   -17.7765 -17.7765 -17.7765 -17.7765 -17.7764 -17.7764 -17.7764 -17.7764
   -17.7702 -17.7702 -17.7702 -17.7702 -17.7695 -17.7695 -17.7694 -17.7694
   -17.7642 -17.7642 -17.7642 -17.7642 -17.7641 -17.7641 -17.7641 -17.7641
    -9.0982  -9.0982  -9.0841  -9.0841  -8.8990  -8.8990  -8.8857  -8.8857
    -8.8603  -8.8603  -8.8359  -8.8359  -8.8273  -8.8273  -8.8174  -8.8174
    -8.8079  -8.8079  -8.7930  -8.7930  -8.6531  -8.6531  -8.6498  -8.6498
    -6.1407  -6.1407  -6.1404  -6.1404  -6.1391  -6.1391  -6.1386  -6.1386
    -4.5200  -4.5200  -4.5189  -4.5189  -4.5165  -4.5165  -4.5159  -4.5159
    -4.5044  -4.5044  -4.5033  -4.5033  -4.5010  -4.5010  -4.5005  -4.5005
    -3.8994  -3.8994  -3.8555  -3.8555  -3.2958  -3.2958  -3.2468  -3.2468
    -0.7083  -0.7083  -0.6858  -0.6858  -0.5045  -0.5045  -0.4587  -0.4587
    -0.4369  -0.4369  -0.3846  -0.3846   0.2900   0.2900   0.2931   0.2931
     0.5890   0.5890   0.6167   0.6167   0.8951   0.8951   0.9237   0.9237
     0.9526   0.9526   0.9630   0.9630   1.1021   1.1021   1.1234   1.1234
     1.2106   1.2106   1.2330   1.2330   1.2925   1.2925   1.2996   1.2996
     1.4346   1.4346   1.4613   1.4613   1.5389   1.5389   1.5471   1.5471
     1.6685   1.6685   1.6946   1.6946   1.7545   1.7545   1.7682   1.7682
     1.8496   1.8496   1.8691   1.8691   2.1049   2.1049   2.1140   2.1140
     2.2299   2.2299   2.2953   2.2953   2.8220   2.8220   2.8985   2.8985
     4.3837   4.3837   4.4617   4.4617

     occupation numbers 
     1.0000   1.0000   1.0000   1.0000   1.0000   1.0000   1.0000   1.0000
     1.0000   1.0000   1.0000   1.0000   1.0000   1.0000   1.0000   1.0000
     1.0000   1.0000   1.0000   1.0000   1.0000   1.0000   1.0000   1.0000
     1.0000   1.0000   1.0000   1.0000   1.0000   1.0000   1.0000   1.0000
     1.0000   1.0000   1.0000   1.0000   1.0000   1.0000   1.0000   1.0000
     1.0000   1.0000   1.0000   1.0000   1.0000   1.0000   1.0000   1.0000
     1.0000   1.0000   1.0000   1.0000   1.0000   1.0000   1.0000   1.0000
     1.0000   1.0000   1.0000   1.0000   1.0000   1.0000   1.0000   1.0000
     1.0000   1.0000   1.0000   1.0000   1.0000   1.0000   1.0000   1.0000
     1.0000   1.0000   1.0000   1.0000   1.0000   1.0000   1.0000   1.0000
     1.0000   1.0000   1.0000   1.0000   1.0000   1.0000   1.0000   1.0000
     1.0000   1.0000   1.0000   1.0000   1.0000   1.0000   1.0000   1.0000
     1.0000   1.0000   1.0000   1.0000   1.0000   1.0000   1.0000   1.0000
     1.0000   1.0000   1.0000   1.0000   1.0000   1.0000   1.0000   1.0000
     1.0000   1.0000   1.0000   1.0000   1.0000   1.0000   1.0000   1.0000
     1.0000   1.0000   1.0000   1.0000   1.0000   1.0000   1.0000   1.0000
     1.0000   1.0000   1.0000   1.0000   1.0000   1.0000   1.0000   1.0000
     1.0000   1.0000   1.0000   1.0000   1.0000   1.0000   1.0000   1.0000
     1.0000   1.0000   1.0000   1.0000   1.0000   1.0000   1.0000   1.0000
     1.0000   1.0000   1.0000   1.0000   1.0000   1.0000   1.0000   1.0000
     1.0000   1.0000   1.0000   1.0000   1.0000   1.0000   1.0000   1.0000
     1.0000   1.0000   1.0000   1.0000   1.0000   1.0000   1.0000   1.0000
     0.0000   0.0000   0.0000   0.0000

          k = 0.4375 0.4306 0.1293 ( 65518 PWs)   bands (ev):

   -18.8137 -18.8137 -18.8137 -18.8137 -18.8137 -18.8137 -18.8137 -18.8137
   -18.8080 -18.8080 -18.8080 -18.8080 -18.8077 -18.8077 -18.8077 -18.8077
   -18.2054 -18.2054 -18.2053 -18.2053 -18.2050 -18.2050 -18.2050 -18.2050
   -17.7765 -17.7765 -17.7765 -17.7765 -17.7764 -17.7764 -17.7764 -17.7764
   -17.7701 -17.7701 -17.7701 -17.7701 -17.7695 -17.7695 -17.7695 -17.7695
   -17.7642 -17.7642 -17.7642 -17.7642 -17.7641 -17.7641 -17.7641 -17.7641
    -9.0894  -9.0894  -9.0754  -9.0754  -8.9395  -8.9395  -8.9257  -8.9257
    -8.8348  -8.8348  -8.8270  -8.8270  -8.8197  -8.8197  -8.8101  -8.8101
    -8.7939  -8.7939  -8.7785  -8.7785  -8.6605  -8.6605  -8.6573  -8.6573
    -6.1406  -6.1406  -6.1404  -6.1404  -6.1392  -6.1392  -6.1387  -6.1387
    -4.5194  -4.5194  -4.5183  -4.5183  -4.5161  -4.5161  -4.5147  -4.5147
    -4.5054  -4.5054  -4.5040  -4.5040  -4.5023  -4.5023  -4.5013  -4.5013
    -3.8633  -3.8633  -3.8193  -3.8193  -3.3569  -3.3569  -3.3091  -3.3091
    -0.6455  -0.6455  -0.6130  -0.6130  -0.4731  -0.4731  -0.4296  -0.4296
    -0.4102  -0.4102  -0.3789  -0.3789   0.2922   0.2922   0.2977   0.2977
     0.5837   0.5837   0.6068   0.6068   0.8432   0.8432   0.8670   0.8670
     0.9485   0.9485   0.9585   0.9585   1.0775   1.0775   1.0933   1.0933
     1.2011   1.2011   1.2380   1.2380   1.2906   1.2906   1.2976   1.2976
     1.3942   1.3942   1.4430   1.4430   1.5127   1.5127   1.5293   1.5293
     1.6907   1.6907   1.7216   1.7216   1.7638   1.7638   1.7894   1.7894
     1.8554   1.8554   1.8876   1.8876   2.0871   2.0871   2.0998   2.0998
     2.2409   2.2409   2.3071   2.3071   2.6823   2.6823   2.7549   2.7549
     4.5365   4.5365   4.6592   4.6592

     occupation numbers 
     1.0000   1.0000   1.0000   1.0000   1.0000   1.0000   1.0000   1.0000
     1.0000   1.0000   1.0000   1.0000   1.0000   1.0000   1.0000   1.0000
     1.0000   1.0000   1.0000   1.0000   1.0000   1.0000   1.0000   1.0000
     1.0000   1.0000   1.0000   1.0000   1.0000   1.0000   1.0000   1.0000
     1.0000   1.0000   1.0000   1.0000   1.0000   1.0000   1.0000   1.0000
     1.0000   1.0000   1.0000   1.0000   1.0000   1.0000   1.0000   1.0000
     1.0000   1.0000   1.0000   1.0000   1.0000   1.0000   1.0000   1.0000
     1.0000   1.0000   1.0000   1.0000   1.0000   1.0000   1.0000   1.0000
     1.0000   1.0000   1.0000   1.0000   1.0000   1.0000   1.0000   1.0000
     1.0000   1.0000   1.0000   1.0000   1.0000   1.0000   1.0000   1.0000
     1.0000   1.0000   1.0000   1.0000   1.0000   1.0000   1.0000   1.0000
     1.0000   1.0000   1.0000   1.0000   1.0000   1.0000   1.0000   1.0000
     1.0000   1.0000   1.0000   1.0000   1.0000   1.0000   1.0000   1.0000
     1.0000   1.0000   1.0000   1.0000   1.0000   1.0000   1.0000   1.0000
     1.0000   1.0000   1.0000   1.0000   1.0000   1.0000   1.0000   1.0000
     1.0000   1.0000   1.0000   1.0000   1.0000   1.0000   1.0000   1.0000
     1.0000   1.0000   1.0000   1.0000   1.0000   1.0000   1.0000   1.0000
     1.0000   1.0000   1.0000   1.0000   1.0000   1.0000   1.0000   1.0000
     1.0000   1.0000   1.0000   1.0000   1.0000   1.0000   1.0000   1.0000
     1.0000   1.0000   1.0000   1.0000   1.0000   1.0000   1.0000   1.0000
     1.0000   1.0000   1.0000   1.0000   1.0000   1.0000   1.0000   1.0000
     1.0000   1.0000   1.0000   1.0000   1.0000   1.0000   1.0000   1.0000
     0.0000   0.0000   0.0000   0.0000

          k = 0.4375 0.4306 0.2155 ( 65510 PWs)   bands (ev):

   -18.8137 -18.8137 -18.8137 -18.8137 -18.8137 -18.8137 -18.8137 -18.8137
   -18.8080 -18.8080 -18.8079 -18.8079 -18.8078 -18.8078 -18.8078 -18.8078
   -18.2053 -18.2053 -18.2053 -18.2053 -18.2051 -18.2051 -18.2050 -18.2050
   -17.7765 -17.7765 -17.7765 -17.7765 -17.7764 -17.7764 -17.7764 -17.7764
   -17.7700 -17.7700 -17.7700 -17.7700 -17.7696 -17.7696 -17.7696 -17.7696
   -17.7642 -17.7642 -17.7642 -17.7642 -17.7641 -17.7641 -17.7641 -17.7641
    -9.0723  -9.0723  -9.0584  -9.0584  -8.9794  -8.9794  -8.9657  -8.9657
    -8.8260  -8.8260  -8.8237  -8.8237  -8.8196  -8.8196  -8.8114  -8.8114
    -8.7572  -8.7572  -8.7508  -8.7508  -8.6750  -8.6750  -8.6720  -8.6720
    -6.1406  -6.1406  -6.1403  -6.1403  -6.1392  -6.1392  -6.1389  -6.1389
    -4.5182  -4.5182  -4.5170  -4.5170  -4.5150  -4.5150  -4.5133  -4.5133
    -4.5068  -4.5068  -4.5055  -4.5055  -4.5042  -4.5042  -4.5029  -4.5029
    -3.7937  -3.7937  -3.7497  -3.7497  -3.4601  -3.4601  -3.4137  -3.4137
    -0.5871  -0.5871  -0.5403  -0.5403  -0.4863  -0.4863  -0.4296  -0.4296
    -0.2623  -0.2623  -0.2391  -0.2391   0.2774   0.2774   0.2872   0.2872
     0.5734   0.5734   0.5893   0.5893   0.7276   0.7276   0.7445   0.7445
     0.9435   0.9435   0.9586   0.9586   1.0176   1.0176   1.0457   1.0457
     1.2181   1.2181   1.2456   1.2456   1.2837   1.2837   1.2906   1.2906
     1.3821   1.3821   1.4322   1.4322   1.4765   1.4765   1.5015   1.5015
     1.7144   1.7144   1.7475   1.7475   1.7669   1.7669   1.8003   1.8003
     1.8898   1.8898   1.9280   1.9280   2.0525   2.0525   2.0716   2.0716
     2.2676   2.2676   2.3343   2.3343   2.5223   2.5223   2.5929   2.5929
     4.6355   4.6355   4.7817   4.7818

     occupation numbers 
     1.0000   1.0000   1.0000   1.0000   1.0000   1.0000   1.0000   1.0000
     1.0000   1.0000   1.0000   1.0000   1.0000   1.0000   1.0000   1.0000
     1.0000   1.0000   1.0000   1.0000   1.0000   1.0000   1.0000   1.0000
     1.0000   1.0000   1.0000   1.0000   1.0000   1.0000   1.0000   1.0000
     1.0000   1.0000   1.0000   1.0000   1.0000   1.0000   1.0000   1.0000
     1.0000   1.0000   1.0000   1.0000   1.0000   1.0000   1.0000   1.0000
     1.0000   1.0000   1.0000   1.0000   1.0000   1.0000   1.0000   1.0000
     1.0000   1.0000   1.0000   1.0000   1.0000   1.0000   1.0000   1.0000
     1.0000   1.0000   1.0000   1.0000   1.0000   1.0000   1.0000   1.0000
     1.0000   1.0000   1.0000   1.0000   1.0000   1.0000   1.0000   1.0000
     1.0000   1.0000   1.0000   1.0000   1.0000   1.0000   1.0000   1.0000
     1.0000   1.0000   1.0000   1.0000   1.0000   1.0000   1.0000   1.0000
     1.0000   1.0000   1.0000   1.0000   1.0000   1.0000   1.0000   1.0000
     1.0000   1.0000   1.0000   1.0000   1.0000   1.0000   1.0000   1.0000
     1.0000   1.0000   1.0000   1.0000   1.0000   1.0000   1.0000   1.0000
     1.0000   1.0000   1.0000   1.0000   1.0000   1.0000   1.0000   1.0000
     1.0000   1.0000   1.0000   1.0000   1.0000   1.0000   1.0000   1.0000
     1.0000   1.0000   1.0000   1.0000   1.0000   1.0000   1.0000   1.0000
     1.0000   1.0000   1.0000   1.0000   1.0000   1.0000   1.0000   1.0000
     1.0000   1.0000   1.0000   1.0000   1.0000   1.0000   1.0000   1.0000
     1.0000   1.0000   1.0000   1.0000   1.0000   1.0000   1.0000   1.0000
     1.0000   1.0000   1.0000   1.0000   1.0000   1.0000   1.0000   1.0000
     0.0000   0.0000   0.0000   0.0000

          k = 0.4375 0.4306 0.3017 ( 65495 PWs)   bands (ev):

   -18.8137 -18.8137 -18.8137 -18.8137 -18.8137 -18.8137 -18.8137 -18.8137
   -18.8079 -18.8079 -18.8079 -18.8079 -18.8078 -18.8078 -18.8078 -18.8078
   -18.2053 -18.2053 -18.2052 -18.2052 -18.2051 -18.2051 -18.2051 -18.2051
   -17.7765 -17.7765 -17.7765 -17.7765 -17.7764 -17.7764 -17.7764 -17.7764
   -17.7699 -17.7699 -17.7699 -17.7699 -17.7697 -17.7697 -17.7697 -17.7697
   -17.7642 -17.7642 -17.7641 -17.7641 -17.7641 -17.7641 -17.7641 -17.7641
    -9.0475  -9.0475  -9.0337  -9.0337  -9.0160  -9.0160  -9.0023  -9.0023
    -8.8244  -8.8244  -8.8230  -8.8230  -8.8167  -8.8167  -8.8137  -8.8137
    -8.7241  -8.7241  -8.7204  -8.7204  -8.6963  -8.6963  -8.6934  -8.6934
    -6.1405  -6.1405  -6.1403  -6.1403  -6.1392  -6.1392  -6.1390  -6.1390
    -4.5170  -4.5170  -4.5157  -4.5157  -4.5138  -4.5138  -4.5127  -4.5127
    -4.5077  -4.5077  -4.5070  -4.5070  -4.5055  -4.5055  -4.5045  -4.5045
    -3.6962  -3.6962  -3.6519  -3.6519  -3.5802  -3.5802  -3.5350  -3.5350
    -0.5476  -0.5476  -0.5145  -0.5145  -0.4945  -0.4945  -0.4589  -0.4589
    -0.0287  -0.0287  -0.0102  -0.0102   0.1826   0.1826   0.1984   0.1984
     0.5679   0.5679   0.5774   0.5774   0.6092   0.6092   0.6181   0.6181
     0.9487   0.9487   0.9664   0.9664   0.9790   0.9790   1.0021   1.0021
     1.2441   1.2441   1.2609   1.2609   1.2690   1.2690   1.2785   1.2785
     1.4018   1.4018   1.4352   1.4352   1.4453   1.4453   1.4707   1.4707
     1.7338   1.7338   1.7498   1.7498   1.7762   1.7762   1.7928   1.7928
     1.9467   1.9467   1.9798   1.9798   2.0046   2.0046   2.0307   2.0307
     2.3162   2.3162   2.3768   2.3768   2.4081   2.4081   2.4699   2.4699
     4.7061   4.7061   4.7682   4.7682

     occupation numbers 
     1.0000   1.0000   1.0000   1.0000   1.0000   1.0000   1.0000   1.0000
     1.0000   1.0000   1.0000   1.0000   1.0000   1.0000   1.0000   1.0000
     1.0000   1.0000   1.0000   1.0000   1.0000   1.0000   1.0000   1.0000
     1.0000   1.0000   1.0000   1.0000   1.0000   1.0000   1.0000   1.0000
     1.0000   1.0000   1.0000   1.0000   1.0000   1.0000   1.0000   1.0000
     1.0000   1.0000   1.0000   1.0000   1.0000   1.0000   1.0000   1.0000
     1.0000   1.0000   1.0000   1.0000   1.0000   1.0000   1.0000   1.0000
     1.0000   1.0000   1.0000   1.0000   1.0000   1.0000   1.0000   1.0000
     1.0000   1.0000   1.0000   1.0000   1.0000   1.0000   1.0000   1.0000
     1.0000   1.0000   1.0000   1.0000   1.0000   1.0000   1.0000   1.0000
     1.0000   1.0000   1.0000   1.0000   1.0000   1.0000   1.0000   1.0000
     1.0000   1.0000   1.0000   1.0000   1.0000   1.0000   1.0000   1.0000
     1.0000   1.0000   1.0000   1.0000   1.0000   1.0000   1.0000   1.0000
     1.0000   1.0000   1.0000   1.0000   1.0000   1.0000   1.0000   1.0000
     1.0000   1.0000   1.0000   1.0000   1.0000   1.0000   1.0000   1.0000
     1.0000   1.0000   1.0000   1.0000   1.0000   1.0000   1.0000   1.0000
     1.0000   1.0000   1.0000   1.0000   1.0000   1.0000   1.0000   1.0000
     1.0000   1.0000   1.0000   1.0000   1.0000   1.0000   1.0000   1.0000
     1.0000   1.0000   1.0000   1.0000   1.0000   1.0000   1.0000   1.0000
     1.0000   1.0000   1.0000   1.0000   1.0000   1.0000   1.0000   1.0000
     1.0000   1.0000   1.0000   1.0000   1.0000   1.0000   1.0000   1.0000
     1.0000   1.0000   1.0000   1.0000   1.0000   1.0000   1.0000   1.0000
     0.0000   0.0000   0.0000   0.0000

     highest occupied, lowest unoccupied level (ev):     3.4049    4.0063

     Writing output data file ./CsSnI3.save/

     init_run     :      8.50s CPU      8.09s WALL (       1 calls)
     electrons    :   5953.25s CPU   3393.46s WALL (       1 calls)

     Called by init_run:
     wfcinit      :      0.00s CPU      1.94s WALL (       1 calls)
     wfcinit:atom :      1.04s CPU      0.89s WALL (      64 calls)
     wfcinit:wfcr :    164.86s CPU     93.32s WALL (      64 calls)
     potinit      :      0.23s CPU      0.24s WALL (       1 calls)
     hinit0       :      3.09s CPU      2.13s WALL (       1 calls)

     Called by electrons:
     c_bands      :   5953.23s CPU   3393.08s WALL (       1 calls)
     v_of_rho     :      0.11s CPU      0.07s WALL (       1 calls)
     v_h          :      0.01s CPU      0.00s WALL (       1 calls)
     v_xc         :      0.11s CPU      0.07s WALL (       1 calls)
     newd         :      4.79s CPU      3.38s WALL (       1 calls)

     Called by c_bands:
     init_us_2    :      1.93s CPU      1.16s WALL (      64 calls)
     cegterg      :   5755.80s CPU   3251.18s WALL (     277 calls)

     Called by sum_band:

     Called by *egterg:
     cdiaghg      :    309.23s CPU    204.67s WALL (    4985 calls)
     cegterg:over :    512.53s CPU    334.24s WALL (    4921 calls)
     cegterg:upda :    241.27s CPU    124.63s WALL (    4921 calls)
     cegterg:last :    554.90s CPU    290.92s WALL (    1929 calls)
     h_psi        :   3533.45s CPU   1876.67s WALL (    5262 calls)
     s_psi        :    577.27s CPU    374.43s WALL (    5262 calls)
     g_psi        :     12.79s CPU      6.44s WALL (    4921 calls)

     Called by h_psi:
     h_psi:calbec :    554.49s CPU    305.76s WALL (    5262 calls)
     vloc_psi     :   2409.06s CPU   1234.54s WALL (    5262 calls)
     add_vuspsi   :    537.89s CPU    320.02s WALL (    5262 calls)

     General routines
     calbec       :    554.40s CPU    305.72s WALL (    5262 calls)
     fft          :      0.19s CPU      0.15s WALL (      19 calls)
     ffts         :      0.03s CPU      0.02s WALL (       4 calls)
     fftw         :   2137.47s CPU   1097.01s WALL ( 1496944 calls)
     interpolate  :      0.07s CPU      0.04s WALL (       4 calls)
     davcio       :      0.22s CPU     34.39s WALL (     128 calls)

     Parallel routines
     fft_scatt_xy :    165.68s CPU     83.81s WALL ( 1496967 calls)
     fft_scatt_yz :   1336.71s CPU    690.57s WALL ( 1496967 calls)

     PWSCF        :      1h40m CPU      1h 1m WALL


   This run was terminated on:  19:27:45  31Jan2021            

=------------------------------------------------------------------------------=
   JOB DONE.
=------------------------------------------------------------------------------=
