
     Program PWSCF v.6.7MaX starts on 14Jan2021 at 14: 5:17 

     This program is part of the open-source Quantum ESPRESSO suite
     for quantum simulation of materials; please cite
         "P. Giannozzi et al., J. Phys.:Condens. Matter 21 395502 (2009);
         "P. Giannozzi et al., J. Phys.:Condens. Matter 29 465901 (2017);
          URL http://www.quantum-espresso.org", 
     in publications or presentations arising from this work. More details at
     http://www.quantum-espresso.org/quote

     Parallel version (MPI), running on    19 processors

     MPI processes distributed on     1 nodes
     R & G space division:  proc/nbgrp/npool/nimage =      19
     Waiting for input...
     Reading input from standard input

     Current dimensions of program PWSCF are:
     Max number of different atomic species (ntypx) = 10
     Max number of k-points (npk) =  40000
     Max angular momentum in pseudopotentials (lmaxx) =  3
     file Sn.pbe-dn-kjpaw_psl.1.0.0.UPF: wavefunction(s)  5S 5P 4D renormalized
     file I.pbe-n-kjpaw_psl.1.0.0.UPF: wavefunction(s)  5S renormalized

     Subspace diagonalization in iterative solution of the eigenvalue problem:
     a serial algorithm will be used

     Message from routine setup:
     using ibrav=0 with symmetry is DISCOURAGED, use correct ibrav instead

     Parallelization info
     --------------------
     sticks:   dense  smooth     PW     G-vecs:    dense   smooth      PW
     Min         187     187     51                 8403     8403    1211
     Max         188     188     52                 8406     8406    1216
     Sum        3569    3569    973               159699   159699   23031


     Title: 
     SnI4un                                                                     


     bravais-lattice index     =            0
     lattice parameter (alat)  =      12.6355  a.u.
     unit-cell volume          =    2017.3401 (a.u.)^3
     number of atoms/cell      =            5
     number of atomic types    =            2
     number of electrons       =        42.00
     number of Kohn-Sham states=           21
     kinetic-energy cutoff     =      70.0000  Ry
     charge density cutoff     =     280.0000  Ry
     scf convergence threshold =      1.0E-06
     mixing beta               =       0.5000
     number of iterations used =            8  plain     mixing
     energy convergence thresh.=      1.0E-04
     force convergence thresh. =      1.0E-04
     press convergence thresh. =      5.0E-01
     Exchange-correlation= SLA  PW   PBX  PBC
                           (   1   4   3   4   0   0   0)
     nstep                     =           50


     celldm(1)=  12.635518  celldm(2)=   0.000000  celldm(3)=   0.000000
     celldm(4)=   0.000000  celldm(5)=   0.000000  celldm(6)=   0.000000

     crystal axes: (cart. coord. in units of alat)
               a(1) = (   1.000000   0.000000   0.000000 )  
               a(2) = (   0.000000   1.000000   0.000000 )  
               a(3) = (   0.000000   0.000000   1.000000 )  

     reciprocal axes: (cart. coord. in units 2 pi/alat)
               b(1) = (  1.000000  0.000000  0.000000 )  
               b(2) = (  0.000000  1.000000  0.000000 )  
               b(3) = (  0.000000  0.000000  1.000000 )  


     PseudoPot. # 1 for Sn read from file:
     ../../../pseudo/Sn.pbe-dn-kjpaw_psl.1.0.0.UPF
     MD5 check sum: 67f11dec737d427557dc41ea34975807
     Pseudo is Projector augmented-wave + core cor, Zval = 14.0
     Generated using &quot;atomic&quot; code by A. Dal Corso  v.6.3
     Shape of augmentation charge: PSQ
     Using radial grid of 1243 points,  6 beta functions with: 
                l(1) =   0
                l(2) =   0
                l(3) =   1
                l(4) =   1
                l(5) =   2
                l(6) =   2
     Q(r) pseudized with 0 coefficients 


     PseudoPot. # 2 for I  read from file:
     ../../../pseudo/I.pbe-n-kjpaw_psl.1.0.0.UPF
     MD5 check sum: cd3d296c3308a581e1559a0c8a554cb5
     Pseudo is Projector augmented-wave + core cor, Zval =  7.0
     Generated using &quot;atomic&quot; code by A. Dal Corso  v.6.3
     Shape of augmentation charge: PSQ
     Using radial grid of 1247 points,  6 beta functions with: 
                l(1) =   0
                l(2) =   0
                l(3) =   1
                l(4) =   1
                l(5) =   2
                l(6) =   2
     Q(r) pseudized with 0 coefficients 


     atomic species   valence    mass     pseudopotential
        Sn            14.00   118.70000     Sn( 1.00)
        I              7.00   126.90000     I ( 1.00)

     24 Sym. Ops. (no inversion) found


                                    s                        frac. trans.

      isym =  1     identity                                     

 cryst.   s( 1) = (     1          0          0      )
                  (     0          1          0      )
                  (     0          0          1      )

 cart.    s( 1) = (  1.0000000  0.0000000  0.0000000 )
                  (  0.0000000  1.0000000  0.0000000 )
                  (  0.0000000  0.0000000  1.0000000 )


      isym =  2     180 deg rotation - cart. axis [0,0,1]        

 cryst.   s( 2) = (    -1          0          0      )
                  (     0         -1          0      )
                  (     0          0          1      )

 cart.    s( 2) = ( -1.0000000  0.0000000  0.0000000 )
                  (  0.0000000 -1.0000000  0.0000000 )
                  (  0.0000000  0.0000000  1.0000000 )


      isym =  3     180 deg rotation - cart. axis [0,1,0]        

 cryst.   s( 3) = (    -1          0          0      )
                  (     0          1          0      )
                  (     0          0         -1      )

 cart.    s( 3) = ( -1.0000000  0.0000000  0.0000000 )
                  (  0.0000000  1.0000000  0.0000000 )
                  (  0.0000000  0.0000000 -1.0000000 )


      isym =  4     180 deg rotation - cart. axis [1,0,0]        

 cryst.   s( 4) = (     1          0          0      )
                  (     0         -1          0      )
                  (     0          0         -1      )

 cart.    s( 4) = (  1.0000000  0.0000000  0.0000000 )
                  (  0.0000000 -1.0000000  0.0000000 )
                  (  0.0000000  0.0000000 -1.0000000 )


      isym =  5     120 deg rotation - cart. axis [-1,-1,-1]     

 cryst.   s( 5) = (     0          0          1      )
                  (     1          0          0      )
                  (     0          1          0      )

 cart.    s( 5) = (  0.0000000  1.0000000  0.0000000 )
                  (  0.0000000  0.0000000  1.0000000 )
                  (  1.0000000  0.0000000  0.0000000 )


      isym =  6     120 deg rotation - cart. axis [-1,1,1]       

 cryst.   s( 6) = (     0          0         -1      )
                  (    -1          0          0      )
                  (     0          1          0      )

 cart.    s( 6) = (  0.0000000 -1.0000000  0.0000000 )
                  (  0.0000000  0.0000000  1.0000000 )
                  ( -1.0000000  0.0000000  0.0000000 )


      isym =  7     120 deg rotation - cart. axis [1,1,-1]       

 cryst.   s( 7) = (     0          0         -1      )
                  (     1          0          0      )
                  (     0         -1          0      )

 cart.    s( 7) = (  0.0000000  1.0000000  0.0000000 )
                  (  0.0000000  0.0000000 -1.0000000 )
                  ( -1.0000000  0.0000000  0.0000000 )


      isym =  8     120 deg rotation - cart. axis [1,-1,1]       

 cryst.   s( 8) = (     0          0          1      )
                  (    -1          0          0      )
                  (     0         -1          0      )

 cart.    s( 8) = (  0.0000000 -1.0000000  0.0000000 )
                  (  0.0000000  0.0000000 -1.0000000 )
                  (  1.0000000  0.0000000  0.0000000 )


      isym =  9     120 deg rotation - cart. axis [1,1,1]        

 cryst.   s( 9) = (     0          1          0      )
                  (     0          0          1      )
                  (     1          0          0      )

 cart.    s( 9) = (  0.0000000  0.0000000  1.0000000 )
                  (  1.0000000  0.0000000  0.0000000 )
                  (  0.0000000  1.0000000  0.0000000 )


      isym = 10     120 deg rotation - cart. axis [-1,1,-1]      

 cryst.   s(10) = (     0         -1          0      )
                  (     0          0         -1      )
                  (     1          0          0      )

 cart.    s(10) = (  0.0000000  0.0000000  1.0000000 )
                  ( -1.0000000  0.0000000  0.0000000 )
                  (  0.0000000 -1.0000000  0.0000000 )


      isym = 11     120 deg rotation - cart. axis [1,-1,-1]      

 cryst.   s(11) = (     0         -1          0      )
                  (     0          0          1      )
                  (    -1          0          0      )

 cart.    s(11) = (  0.0000000  0.0000000 -1.0000000 )
                  ( -1.0000000  0.0000000  0.0000000 )
                  (  0.0000000  1.0000000  0.0000000 )


      isym = 12     120 deg rotation - cart. axis [-1,-1,1]      

 cryst.   s(12) = (     0          1          0      )
                  (     0          0         -1      )
                  (    -1          0          0      )

 cart.    s(12) = (  0.0000000  0.0000000 -1.0000000 )
                  (  1.0000000  0.0000000  0.0000000 )
                  (  0.0000000 -1.0000000  0.0000000 )


      isym = 13     inv. 180 deg rotation - cart. axis [1,1,0]   

 cryst.   s(13) = (     0         -1          0      )
                  (    -1          0          0      )
                  (     0          0          1      )

 cart.    s(13) = (  0.0000000 -1.0000000  0.0000000 )
                  ( -1.0000000  0.0000000  0.0000000 )
                  (  0.0000000  0.0000000  1.0000000 )


      isym = 14     inv. 180 deg rotation - cart. axis [1,-1,0]  

 cryst.   s(14) = (     0          1          0      )
                  (     1          0          0      )
                  (     0          0          1      )

 cart.    s(14) = (  0.0000000  1.0000000  0.0000000 )
                  (  1.0000000  0.0000000  0.0000000 )
                  (  0.0000000  0.0000000  1.0000000 )


      isym = 15     inv.  90 deg rotation - cart. axis [0,0,-1]  

 cryst.   s(15) = (     0          1          0      )
                  (    -1          0          0      )
                  (     0          0         -1      )

 cart.    s(15) = (  0.0000000 -1.0000000  0.0000000 )
                  (  1.0000000  0.0000000  0.0000000 )
                  (  0.0000000  0.0000000 -1.0000000 )


      isym = 16     inv.  90 deg rotation - cart. axis [0,0,1]   

 cryst.   s(16) = (     0         -1          0      )
                  (     1          0          0      )
                  (     0          0         -1      )

 cart.    s(16) = (  0.0000000  1.0000000  0.0000000 )
                  ( -1.0000000  0.0000000  0.0000000 )
                  (  0.0000000  0.0000000 -1.0000000 )


      isym = 17     inv. 180 deg rotation - cart. axis [1,0,1]   

 cryst.   s(17) = (     0          0         -1      )
                  (     0          1          0      )
                  (    -1          0          0      )

 cart.    s(17) = (  0.0000000  0.0000000 -1.0000000 )
                  (  0.0000000  1.0000000  0.0000000 )
                  ( -1.0000000  0.0000000  0.0000000 )


      isym = 18     inv. 180 deg rotation - cart. axis [-1,0,1]  

 cryst.   s(18) = (     0          0          1      )
                  (     0          1          0      )
                  (     1          0          0      )

 cart.    s(18) = (  0.0000000  0.0000000  1.0000000 )
                  (  0.0000000  1.0000000  0.0000000 )
                  (  1.0000000  0.0000000  0.0000000 )


      isym = 19     inv.  90 deg rotation - cart. axis [0,1,0]   

 cryst.   s(19) = (     0          0          1      )
                  (     0         -1          0      )
                  (    -1          0          0      )

 cart.    s(19) = (  0.0000000  0.0000000 -1.0000000 )
                  (  0.0000000 -1.0000000  0.0000000 )
                  (  1.0000000  0.0000000  0.0000000 )


      isym = 20     inv.  90 deg rotation - cart. axis [0,-1,0]  

 cryst.   s(20) = (     0          0         -1      )
                  (     0         -1          0      )
                  (     1          0          0      )

 cart.    s(20) = (  0.0000000  0.0000000  1.0000000 )
                  (  0.0000000 -1.0000000  0.0000000 )
                  ( -1.0000000  0.0000000  0.0000000 )


      isym = 21     inv. 180 deg rotation - cart. axis [0,1,1]   

 cryst.   s(21) = (     1          0          0      )
                  (     0          0         -1      )
                  (     0         -1          0      )

 cart.    s(21) = (  1.0000000  0.0000000  0.0000000 )
                  (  0.0000000  0.0000000 -1.0000000 )
                  (  0.0000000 -1.0000000  0.0000000 )


      isym = 22     inv. 180 deg rotation - cart. axis [0,1,-1]  

 cryst.   s(22) = (     1          0          0      )
                  (     0          0          1      )
                  (     0          1          0      )

 cart.    s(22) = (  1.0000000  0.0000000  0.0000000 )
                  (  0.0000000  0.0000000  1.0000000 )
                  (  0.0000000  1.0000000  0.0000000 )


      isym = 23     inv.  90 deg rotation - cart. axis [-1,0,0]  

 cryst.   s(23) = (    -1          0          0      )
                  (     0          0          1      )
                  (     0         -1          0      )

 cart.    s(23) = ( -1.0000000  0.0000000  0.0000000 )
                  (  0.0000000  0.0000000 -1.0000000 )
                  (  0.0000000  1.0000000  0.0000000 )


      isym = 24     inv.  90 deg rotation - cart. axis [1,0,0]   

 cryst.   s(24) = (    -1          0          0      )
                  (     0          0         -1      )
                  (     0          1          0      )

 cart.    s(24) = ( -1.0000000  0.0000000  0.0000000 )
                  (  0.0000000  0.0000000  1.0000000 )
                  (  0.0000000 -1.0000000  0.0000000 )


   Cartesian axes

     site n.     atom                  positions (alat units)
         1           Sn  tau(   1) = (   0.0000000   0.0000000   0.0000000  )
         2           I   tau(   2) = (   0.2339030   0.7660970   0.7660970  )
         3           I   tau(   3) = (   0.7660970   0.2339030   0.7660970  )
         4           I   tau(   4) = (   0.7660970   0.7660970   0.2339030  )
         5           I   tau(   5) = (   0.2339030   0.2339030   0.2339030  )

   Crystallographic axes

     site n.     atom                  positions (cryst. coord.)
         1           Sn  tau(   1) = (  0.0000000  0.0000000  0.0000000  )
         2           I   tau(   2) = (  0.2339030  0.7660970  0.7660970  )
         3           I   tau(   3) = (  0.7660970  0.2339030  0.7660970  )
         4           I   tau(   4) = (  0.7660970  0.7660970  0.2339030  )
         5           I   tau(   5) = (  0.2339030  0.2339030  0.2339030  )

     number of k points=     4
                       cart. coord. in units 2pi/alat
        k(    1) = (   0.0000000   0.0000000   0.0000000), wk =   0.2500000
        k(    2) = (   0.0000000   0.0000000  -0.5000000), wk =   0.7500000
        k(    3) = (   0.0000000  -0.5000000  -0.5000000), wk =   0.7500000
        k(    4) = (  -0.5000000  -0.5000000  -0.5000000), wk =   0.2500000

                       cryst. coord.
        k(    1) = (   0.0000000   0.0000000   0.0000000), wk =   0.2500000
        k(    2) = (   0.0000000   0.0000000  -0.5000000), wk =   0.7500000
        k(    3) = (   0.0000000  -0.5000000  -0.5000000), wk =   0.7500000
        k(    4) = (  -0.5000000  -0.5000000  -0.5000000), wk =   0.2500000

     Dense  grid:   159699 G-vectors     FFT dimensions: (  72,  72,  72)

     Dynamical RAM for                 wfc:       0.34 MB

     Dynamical RAM for     wfc (w. buffer):       1.68 MB

     Dynamical RAM for           str. fact:       0.26 MB

     Dynamical RAM for           local pot:       0.00 MB

     Dynamical RAM for          nlocal pot:       1.44 MB

     Dynamical RAM for                qrad:       5.37 MB

     Dynamical RAM for          rho,v,vnew:       0.86 MB

     Dynamical RAM for               rhoin:       0.29 MB

     Dynamical RAM for            rho*nmix:       2.05 MB

     Dynamical RAM for           G-vectors:       0.55 MB

     Dynamical RAM for          h,s,v(r/c):       0.08 MB

     Dynamical RAM for          <psi|beta>:       0.03 MB

     Dynamical RAM for                 psi:       0.67 MB

     Dynamical RAM for                hpsi:       0.67 MB

     Dynamical RAM for                spsi:       0.67 MB

     Dynamical RAM for      wfcinit/wfcrot:       0.82 MB

     Dynamical RAM for           addusdens:      24.37 MB

     Dynamical RAM for          addusforce:      25.22 MB

     Dynamical RAM for         addusstress:      25.78 MB

     Estimated static dynamical RAM per process >      13.67 MB

     Estimated max dynamical RAM per process >      39.45 MB

     Estimated total dynamical RAM >     749.64 MB

     Initial potential from superposition of free atoms

     starting charge   41.99831, renormalised to   42.00000
     Starting wfcs are   25 randomized atomic wfcs
     Checking if some PAW data can be deallocated... 
       PAW data deallocated on   15 nodes for type:  1
       PAW data deallocated on    4 nodes for type:  2

     total cpu time spent up to now is        4.0 secs

     Self-consistent Calculation

     iteration #  1     ecut=    70.00 Ry     beta= 0.50
     Davidson diagonalization with overlap
     ethr =  1.00E-02,  avg # of iterations =  1.8

     Threshold (ethr) on eigenvalues was too large:
     Diagonalizing with lowered threshold

     Davidson diagonalization with overlap
     ethr =  3.53E-04,  avg # of iterations =  2.0

     total cpu time spent up to now is        6.1 secs

     total energy              =   -1957.80742650 Ry
     estimated scf accuracy    <       0.12288257 Ry

     iteration #  2     ecut=    70.00 Ry     beta= 0.50
     Davidson diagonalization with overlap
     ethr =  2.93E-04,  avg # of iterations =  3.8

     total cpu time spent up to now is        7.5 secs

     total energy              =   -1957.83359635 Ry
     estimated scf accuracy    <       0.03697755 Ry

     iteration #  3     ecut=    70.00 Ry     beta= 0.50
     Davidson diagonalization with overlap
     ethr =  8.80E-05,  avg # of iterations =  2.0

     total cpu time spent up to now is        8.8 secs

     total energy              =   -1957.83948634 Ry
     estimated scf accuracy    <       0.00232104 Ry

     iteration #  4     ecut=    70.00 Ry     beta= 0.50
     Davidson diagonalization with overlap
     ethr =  5.53E-06,  avg # of iterations =  4.0

     total cpu time spent up to now is       10.1 secs

     total energy              =   -1957.83959168 Ry
     estimated scf accuracy    <       0.00082930 Ry

     iteration #  5     ecut=    70.00 Ry     beta= 0.50
     Davidson diagonalization with overlap
     ethr =  1.97E-06,  avg # of iterations =  3.8

     total cpu time spent up to now is       11.5 secs

     total energy              =   -1957.83980832 Ry
     estimated scf accuracy    <       0.00012089 Ry

     iteration #  6     ecut=    70.00 Ry     beta= 0.50
     Davidson diagonalization with overlap
     ethr =  2.88E-07,  avg # of iterations =  2.5

     total cpu time spent up to now is       12.7 secs

     total energy              =   -1957.83981888 Ry
     estimated scf accuracy    <       0.00000997 Ry

     iteration #  7     ecut=    70.00 Ry     beta= 0.50
     Davidson diagonalization with overlap
     ethr =  2.37E-08,  avg # of iterations =  5.8

     total cpu time spent up to now is       14.4 secs

     total energy              =   -1957.83982574 Ry
     estimated scf accuracy    <       0.00001442 Ry

     iteration #  8     ecut=    70.00 Ry     beta= 0.50
     Davidson diagonalization with overlap
     ethr =  2.37E-08,  avg # of iterations =  2.0

     total cpu time spent up to now is       15.6 secs

     total energy              =   -1957.83982641 Ry
     estimated scf accuracy    <       0.00000140 Ry

     iteration #  9     ecut=    70.00 Ry     beta= 0.50
     Davidson diagonalization with overlap
     ethr =  3.33E-09,  avg # of iterations =  4.5

     total cpu time spent up to now is       17.0 secs

     End of self-consistent calculation

          k = 0.0000 0.0000 0.0000 ( 20005 PWs)   bands (ev):

   -21.3226 -21.3226 -21.3226 -21.2671 -21.2671 -11.8472 -11.1145 -11.1145
   -11.1145  -6.2858  -2.4203  -2.4203  -2.4203  -1.3469  -1.3469  -0.4650
    -0.4650  -0.4650  -0.2540  -0.2540  -0.2540

     occupation numbers 
     1.0000   1.0000   1.0000   1.0000   1.0000   1.0000   1.0000   1.0000
     1.0000   1.0000   1.0000   1.0000   1.0000   1.0000   1.0000   1.0000
     1.0000   1.0000   1.0000   1.0000   1.0000

          k = 0.0000 0.0000-0.5000 ( 19946 PWs)   bands (ev):

   -21.3226 -21.3226 -21.3226 -21.2671 -21.2671 -11.7920 -11.1895 -11.1128
   -11.1128  -6.2261  -2.5740  -2.4512  -2.4512  -1.1145  -0.9343  -0.8750
    -0.7774  -0.4824  -0.4824  -0.2846  -0.2846

     occupation numbers 
     1.0000   1.0000   1.0000   1.0000   1.0000   1.0000   1.0000   1.0000
     1.0000   1.0000   1.0000   1.0000   1.0000   1.0000   1.0000   1.0000
     1.0000   1.0000   1.0000   1.0000   1.0000

          k = 0.0000-0.5000-0.5000 ( 19968 PWs)   bands (ev):

   -21.3226 -21.3226 -21.3226 -21.2671 -21.2671 -11.7514 -11.1637 -11.1637
   -11.1353  -6.2208  -2.7078  -2.4642  -2.4642  -1.0506  -1.0506  -0.9063
    -0.6808  -0.4078  -0.4078  -0.3773  -0.1144

     occupation numbers 
     1.0000   1.0000   1.0000   1.0000   1.0000   1.0000   1.0000   1.0000
     1.0000   1.0000   1.0000   1.0000   1.0000   1.0000   1.0000   1.0000
     1.0000   1.0000   1.0000   1.0000   1.0000

          k =-0.5000-0.5000-0.5000 ( 19952 PWs)   bands (ev):

   -21.3226 -21.3226 -21.3226 -21.2671 -21.2671 -11.7261 -11.1615 -11.1615
   -11.1615  -6.2739  -2.6267  -2.6267  -2.6267  -0.9792  -0.9792  -0.9792
    -0.3258  -0.3258  -0.1624  -0.1624  -0.1624

     occupation numbers 
     1.0000   1.0000   1.0000   1.0000   1.0000   1.0000   1.0000   1.0000
     1.0000   1.0000   1.0000   1.0000   1.0000   1.0000   1.0000   1.0000
     1.0000   1.0000   1.0000   1.0000   1.0000

     highest occupied level (ev):    -0.1144

!    total energy              =   -1957.83982684 Ry

     total all-electron energy =    -69286.457388 Ry
     estimated scf accuracy    <       0.00000038 Ry

     The total energy is the sum of the following terms:
     one-electron contribution =    -155.28190534 Ry
     hartree contribution      =      94.73995234 Ry
     xc contribution           =    -110.99145753 Ry
     ewald contribution        =    -119.43299796 Ry
     one-center paw contrib.   =   -1666.87341834 Ry
      -> PAW hartree energy AE =     109.61869688 Ry
      -> PAW hartree energy PS =    -108.87385582 Ry
      -> PAW xc energy AE      =    -329.04189262 Ry
      -> PAW xc energy PS      =      47.34470777 Ry
      -> total E_H with PAW    =      95.48479340 Ry
      -> total E_XC with PAW   =    -392.68864238 Ry

     convergence has been achieved in   9 iterations

     Forces acting on atoms (cartesian axes, Ry/au):

     atom    1 type  1   force =     0.00000000    0.00000000    0.00000000
     atom    2 type  2   force =    -0.00071002    0.00071002    0.00071002
     atom    3 type  2   force =     0.00071002   -0.00071002    0.00071002
     atom    4 type  2   force =     0.00071002    0.00071002   -0.00071002
     atom    5 type  2   force =    -0.00071002   -0.00071002   -0.00071002
     The non-local contrib.  to forces
     atom    1 type  1   force =     0.00000000    0.00000000    0.00000000
     atom    2 type  2   force =    -0.09102061    0.09102061    0.09102061
     atom    3 type  2   force =     0.09102061   -0.09102061    0.09102061
     atom    4 type  2   force =     0.09102061    0.09102061   -0.09102061
     atom    5 type  2   force =    -0.09102061   -0.09102061   -0.09102061
     The ionic contribution  to forces
     atom    1 type  1   force =    -0.00000000   -0.00000000   -0.00000000
     atom    2 type  2   force =     3.79412130   -3.79412130   -3.79412130
     atom    3 type  2   force =    -3.79412130    3.79412130   -3.79412130
     atom    4 type  2   force =    -3.79412130   -3.79412130    3.79412130
     atom    5 type  2   force =     3.79412130    3.79412130    3.79412130
     The local contribution  to forces
     atom    1 type  1   force =     0.00000000   -0.00000000   -0.00000000
     atom    2 type  2   force =    -3.71559088    3.71559088    3.71559088
     atom    3 type  2   force =     3.71559088   -3.71559088    3.71559088
     atom    4 type  2   force =     3.71559088    3.71559088   -3.71559088
     atom    5 type  2   force =    -3.71559088   -3.71559088   -3.71559088
     The core correction contribution to forces
     atom    1 type  1   force =     0.00000000    0.00000000    0.00000000
     atom    2 type  2   force =     0.01142388   -0.01142388   -0.01142388
     atom    3 type  2   force =    -0.01142388    0.01142388   -0.01142388
     atom    4 type  2   force =    -0.01142388   -0.01142388    0.01142388
     atom    5 type  2   force =     0.01142388    0.01142388    0.01142388
     The Hubbard contrib.    to forces
     atom    1 type  1   force =     0.00000000    0.00000000    0.00000000
     atom    2 type  2   force =     0.00000000    0.00000000    0.00000000
     atom    3 type  2   force =     0.00000000    0.00000000    0.00000000
     atom    4 type  2   force =     0.00000000    0.00000000    0.00000000
     atom    5 type  2   force =     0.00000000    0.00000000    0.00000000
     The SCF correction term to forces
     atom    1 type  1   force =    -0.00000000   -0.00000000   -0.00000000
     atom    2 type  2   force =     0.00035629   -0.00035629   -0.00035629
     atom    3 type  2   force =    -0.00035629    0.00035629   -0.00035629
     atom    4 type  2   force =    -0.00035629   -0.00035629    0.00035629
     atom    5 type  2   force =     0.00035629    0.00035629    0.00035629

     Total force =     0.002460     Total SCF correction =     0.001234
     SCF correction compared to forces is large: reduce conv_thr to get better values


     Computing stress (Cartesian axis) and pressure

          total   stress  (Ry/bohr**3)                   (kbar)     P=        1.26
   0.00000855   0.00000000   0.00000000            1.26        0.00        0.00
   0.00000000   0.00000855   0.00000000            0.00        1.26        0.00
   0.00000000   0.00000000   0.00000855            0.00        0.00        1.26

     kinetic stress (kbar)   4003.13      0.00      0.00
                                0.00   4003.13      0.00
                                0.00      0.00   4003.13

     local   stress (kbar)  -2878.20     -0.00     -0.00
                               -0.00  -2878.20     -0.00
                               -0.00     -0.00  -2878.20

     nonloc. stress (kbar)    795.44      0.00      0.00
                                0.00    795.44      0.00
                                0.00      0.00    795.44

     hartree stress (kbar)   2302.82      0.00     -0.00
                                0.00   2302.82     -0.00
                               -0.00     -0.00   2302.82

     exc-cor stress (kbar)   4100.17      0.00      0.00
                                0.00   4100.17      0.00
                                0.00      0.00   4100.17

     corecor stress (kbar)  -5419.07     -0.00     -0.00
                               -0.00  -5419.07      0.00
                               -0.00      0.00  -5419.07

     ewald   stress (kbar)  -2903.03     -0.00     -0.00
                               -0.00  -2903.03     -0.00
                               -0.00     -0.00  -2903.03

     hubbard stress (kbar)      0.00      0.00      0.00
                                0.00      0.00      0.00
                                0.00      0.00      0.00

     DFT-D   stress (kbar)      0.00      0.00      0.00
                                0.00      0.00      0.00
                                0.00      0.00      0.00

     XDM     stress (kbar)      0.00      0.00      0.00
                                0.00      0.00      0.00
                                0.00      0.00      0.00

     dft-nl  stress (kbar)      0.00      0.00      0.00
                                0.00      0.00      0.00
                                0.00      0.00      0.00

     TS-vdW  stress (kbar)      0.00      0.00      0.00
                                0.00      0.00      0.00
                                0.00      0.00      0.00



     BFGS Geometry Optimization
     Energy error            =      0.0E+00
     Gradient error          =      7.1E-04
     Cell gradient error     =      8.5E-06


     number of scf cycles    =   1
     number of bfgs steps    =   0

     enthalpy new            =   -1957.8398268358 Ry

     new trust radius        =       0.0019190865 bohr
     new conv_thr            =       0.0000010000 Ry

     new unit-cell volume =   2018.63329 a.u.^3 (   299.13059 Ang^3 )
     density =      3.47673 g/cm^3

CELL_PARAMETERS (angstrom)
   6.687856464   0.000000000   0.000000000
   0.000000000   6.687856464   0.000000000
   0.000000000   0.000000000   6.687856464

ATOMIC_POSITIONS (crystal)
Sn            0.0000000000        0.0000000000        0.0000000000
I             0.2338468079        0.7661531921        0.7661531921
I             0.7661531921        0.2338468079        0.7661531921
I             0.7661531921        0.7661531921        0.2338468079
I             0.2338468079        0.2338468079        0.2338468079



     Writing output data file ./out/SnI4un.save/
     NEW-OLD atomic charge density approx. for the potential
     extrapolated charge   42.02691, renormalised to   42.00000

     total cpu time spent up to now is       25.8 secs

     Self-consistent Calculation

     iteration #  1     ecut=    70.00 Ry     beta= 0.50
     Davidson diagonalization with overlap
     ethr =  1.00E-06,  avg # of iterations =  4.0

     total cpu time spent up to now is       27.2 secs

     total energy              =   -1957.83972174 Ry
     estimated scf accuracy    <       0.00010854 Ry

     iteration #  2     ecut=    70.00 Ry     beta= 0.50
     Davidson diagonalization with overlap
     ethr =  2.58E-07,  avg # of iterations =  6.0

     total cpu time spent up to now is       28.9 secs

     total energy              =   -1957.83983012 Ry
     estimated scf accuracy    <       0.00023411 Ry

     iteration #  3     ecut=    70.00 Ry     beta= 0.50
     Davidson diagonalization with overlap
     ethr =  2.58E-07,  avg # of iterations =  2.0

     total cpu time spent up to now is       30.2 secs

     total energy              =   -1957.83983426 Ry
     estimated scf accuracy    <       0.00004466 Ry

     iteration #  4     ecut=    70.00 Ry     beta= 0.50
     Davidson diagonalization with overlap
     ethr =  1.06E-07,  avg # of iterations =  3.5

     total cpu time spent up to now is       31.4 secs

     total energy              =   -1957.83984037 Ry
     estimated scf accuracy    <       0.00000555 Ry

     iteration #  5     ecut=    70.00 Ry     beta= 0.50
     Davidson diagonalization with overlap
     ethr =  1.32E-08,  avg # of iterations =  3.0

     total cpu time spent up to now is       32.6 secs

     total energy              =   -1957.83984086 Ry
     estimated scf accuracy    <       0.00000424 Ry

     iteration #  6     ecut=    70.00 Ry     beta= 0.50
     Davidson diagonalization with overlap
     ethr =  1.01E-08,  avg # of iterations =  1.0

     total cpu time spent up to now is       33.7 secs

     total energy              =   -1957.83984044 Ry
     estimated scf accuracy    <       0.00000402 Ry

     iteration #  7     ecut=    70.00 Ry     beta= 0.50
     Davidson diagonalization with overlap
     ethr =  9.58E-09,  avg # of iterations =  1.2

     total cpu time spent up to now is       34.8 secs

     total energy              =   -1957.83984020 Ry
     estimated scf accuracy    <       0.00000248 Ry

     iteration #  8     ecut=    70.00 Ry     beta= 0.50
     Davidson diagonalization with overlap
     ethr =  5.92E-09,  avg # of iterations =  2.0

     total cpu time spent up to now is       36.0 secs

     total energy              =   -1957.83984018 Ry
     estimated scf accuracy    <       0.00000130 Ry

     iteration #  9     ecut=    70.00 Ry     beta= 0.50
     Davidson diagonalization with overlap
     ethr =  3.10E-09,  avg # of iterations =  2.2

     total cpu time spent up to now is       37.1 secs

     End of self-consistent calculation

          k = 0.0000 0.0000 0.0000 ( 20005 PWs)   bands (ev):

   -21.3283 -21.3283 -21.3283 -21.2728 -21.2728 -11.8518 -11.1194 -11.1194
   -11.1194  -6.2901  -2.4251  -2.4251  -2.4251  -1.3507  -1.3507  -0.4696
    -0.4696  -0.4696  -0.2594  -0.2594  -0.2594

     occupation numbers 
     1.0000   1.0000   1.0000   1.0000   1.0000   1.0000   1.0000   1.0000
     1.0000   1.0000   1.0000   1.0000   1.0000   1.0000   1.0000   1.0000
     1.0000   1.0000   1.0000   1.0000   1.0000

          k = 0.0000 0.0000-0.4999 ( 19946 PWs)   bands (ev):

   -21.3283 -21.3283 -21.3283 -21.2728 -21.2727 -11.7968 -11.1942 -11.1178
   -11.1178  -6.2306  -2.5782  -2.4559  -2.4559  -1.1188  -0.9386  -0.8794
    -0.7813  -0.4873  -0.4873  -0.2894  -0.2894

     occupation numbers 
     1.0000   1.0000   1.0000   1.0000   1.0000   1.0000   1.0000   1.0000
     1.0000   1.0000   1.0000   1.0000   1.0000   1.0000   1.0000   1.0000
     1.0000   1.0000   1.0000   1.0000   1.0000

          k = 0.0000-0.4999-0.4999 ( 19968 PWs)   bands (ev):

   -21.3283 -21.3283 -21.3283 -21.2728 -21.2728 -11.7563 -11.1685 -11.1685
   -11.1401  -6.2253  -2.7118  -2.4689  -2.4689  -1.0546  -1.0546  -0.9108
    -0.6851  -0.4126  -0.4126  -0.3827  -0.1195

     occupation numbers 
     1.0000   1.0000   1.0000   1.0000   1.0000   1.0000   1.0000   1.0000
     1.0000   1.0000   1.0000   1.0000   1.0000   1.0000   1.0000   1.0000
     1.0000   1.0000   1.0000   1.0000   1.0000

          k =-0.4999-0.4999-0.4999 ( 19952 PWs)   bands (ev):

   -21.3283 -21.3283 -21.3283 -21.2728 -21.2728 -11.7310 -11.1663 -11.1663
   -11.1663  -6.2781  -2.6309  -2.6309  -2.6309  -0.9835  -0.9835  -0.9835
    -0.3313  -0.3313  -0.1675  -0.1675  -0.1675

     occupation numbers 
     1.0000   1.0000   1.0000   1.0000   1.0000   1.0000   1.0000   1.0000
     1.0000   1.0000   1.0000   1.0000   1.0000   1.0000   1.0000   1.0000
     1.0000   1.0000   1.0000   1.0000   1.0000

     highest occupied level (ev):    -0.1195

!    total energy              =   -1957.83983959 Ry

     total all-electron energy =    -69286.457401 Ry
     estimated scf accuracy    <       0.00000079 Ry

     The total energy is the sum of the following terms:
     one-electron contribution =    -155.38902177 Ry
     hartree contribution      =      94.78994606 Ry
     xc contribution           =    -110.99211732 Ry
     ewald contribution        =    -119.37515405 Ry
     one-center paw contrib.   =   -1666.87349252 Ry
      -> PAW hartree energy AE =     109.61888315 Ry
      -> PAW hartree energy PS =    -108.87382749 Ry
      -> PAW xc energy AE      =    -329.04235042 Ry
      -> PAW xc energy PS      =      47.34497485 Ry
      -> total E_H with PAW    =      95.53500172 Ry
      -> total E_XC with PAW   =    -392.68949289 Ry

     convergence has been achieved in   9 iterations

     Forces acting on atoms (cartesian axes, Ry/au):

     atom    1 type  1   force =     0.00000000    0.00000000    0.00000000
     atom    2 type  2   force =    -0.00077105    0.00077105    0.00077105
     atom    3 type  2   force =     0.00077105   -0.00077105    0.00077105
     atom    4 type  2   force =     0.00077105    0.00077105   -0.00077105
     atom    5 type  2   force =    -0.00077105   -0.00077105   -0.00077105
     The non-local contrib.  to forces
     atom    1 type  1   force =     0.00000000    0.00000000    0.00000000
     atom    2 type  2   force =    -0.09092049    0.09092049    0.09092049
     atom    3 type  2   force =     0.09092049   -0.09092049    0.09092049
     atom    4 type  2   force =     0.09092049    0.09092049   -0.09092049
     atom    5 type  2   force =    -0.09092049   -0.09092049   -0.09092049
     The ionic contribution  to forces
     atom    1 type  1   force =     0.00000000    0.00000000    0.00000000
     atom    2 type  2   force =     3.79587838   -3.79587838   -3.79587838
     atom    3 type  2   force =    -3.79587838    3.79587838   -3.79587838
     atom    4 type  2   force =    -3.79587838   -3.79587838    3.79587838
     atom    5 type  2   force =     3.79587838    3.79587838    3.79587838
     The local contribution  to forces
     atom    1 type  1   force =     0.00000000    0.00000000    0.00000000
     atom    2 type  2   force =    -3.71761445    3.71761445    3.71761445
     atom    3 type  2   force =     3.71761445   -3.71761445    3.71761445
     atom    4 type  2   force =     3.71761445    3.71761445   -3.71761445
     atom    5 type  2   force =    -3.71761445   -3.71761445   -3.71761445
     The core correction contribution to forces
     atom    1 type  1   force =     0.00000000    0.00000000   -0.00000000
     atom    2 type  2   force =     0.01141325   -0.01141325   -0.01141325
     atom    3 type  2   force =    -0.01141325    0.01141325   -0.01141325
     atom    4 type  2   force =    -0.01141325   -0.01141325    0.01141325
     atom    5 type  2   force =     0.01141325    0.01141325    0.01141325
     The Hubbard contrib.    to forces
     atom    1 type  1   force =     0.00000000    0.00000000    0.00000000
     atom    2 type  2   force =     0.00000000    0.00000000    0.00000000
     atom    3 type  2   force =     0.00000000    0.00000000    0.00000000
     atom    4 type  2   force =     0.00000000    0.00000000    0.00000000
     atom    5 type  2   force =     0.00000000    0.00000000    0.00000000
     The SCF correction term to forces
     atom    1 type  1   force =     0.00000000   -0.00000000    0.00000000
     atom    2 type  2   force =     0.00047227   -0.00047227   -0.00047227
     atom    3 type  2   force =    -0.00047227    0.00047227   -0.00047227
     atom    4 type  2   force =    -0.00047227   -0.00047227    0.00047227
     atom    5 type  2   force =     0.00047227    0.00047227    0.00047227

     Total force =     0.002671     Total SCF correction =     0.001636
     SCF correction compared to forces is large: reduce conv_thr to get better values


     Computing stress (Cartesian axis) and pressure

          total   stress  (Ry/bohr**3)                   (kbar)     P=        1.78
   0.00001210   0.00000000   0.00000000            1.78        0.00        0.00
   0.00000000   0.00001210   0.00000000            0.00        1.78        0.00
   0.00000000   0.00000000   0.00001210            0.00        0.00        1.78

     kinetic stress (kbar)   4000.62      0.00      0.00
                                0.00   4000.62      0.00
                                0.00      0.00   4000.62

     local   stress (kbar)  -2878.93      0.00      0.00
                                0.00  -2878.93      0.00
                                0.00      0.00  -2878.93

     nonloc. stress (kbar)    795.37      0.00      0.00
                                0.00    795.37      0.00
                                0.00      0.00    795.37

     hartree stress (kbar)   2302.56      0.00      0.00
                                0.00   2302.56     -0.00
                                0.00     -0.00   2302.56

     exc-cor stress (kbar)   4097.53      0.00     -0.00
                                0.00   4097.53     -0.00
                               -0.00     -0.00   4097.53

     corecor stress (kbar)  -5415.61      0.00      0.00
                                0.00  -5415.61      0.00
                                0.00      0.00  -5415.61

     ewald   stress (kbar)  -2899.77      0.00     -0.00
                                0.00  -2899.77     -0.00
                               -0.00     -0.00  -2899.77

     hubbard stress (kbar)      0.00      0.00      0.00
                                0.00      0.00      0.00
                                0.00      0.00      0.00

     DFT-D   stress (kbar)      0.00      0.00      0.00
                                0.00      0.00      0.00
                                0.00      0.00      0.00

     XDM     stress (kbar)      0.00      0.00      0.00
                                0.00      0.00      0.00
                                0.00      0.00      0.00

     dft-nl  stress (kbar)      0.00      0.00      0.00
                                0.00      0.00      0.00
                                0.00      0.00      0.00

     TS-vdW  stress (kbar)      0.00      0.00      0.00
                                0.00      0.00      0.00
                                0.00      0.00      0.00


     Energy error            =      1.3E-05
     Gradient error          =      7.7E-04
     Cell gradient error     =      1.2E-05


     number of scf cycles    =   2
     number of bfgs steps    =   1

     enthalpy old            =   -1957.8398268358 Ry
     enthalpy new            =   -1957.8398395942 Ry

     CASE: enthalpy_new < enthalpy_old


     WARNING: bfgs curvature condition failed, Theta= 0.615
     uphill step: resetting bfgs history

     new trust radius        =       0.0021112206 bohr
     new conv_thr            =       0.0000000100 Ry

     new unit-cell volume =   2020.05646 a.u.^3 (   299.34148 Ang^3 )
     density =      3.47428 g/cm^3

CELL_PARAMETERS (angstrom)
   6.689427774   0.000000000   0.000000000
   0.000000000   6.689427774   0.000000000
   0.000000000   0.000000000   6.689427774

ATOMIC_POSITIONS (crystal)
Sn            0.0000000000        0.0000000000        0.0000000000
I             0.2337994340        0.7662005660        0.7662005660
I             0.7662005660        0.2337994340        0.7662005660
I             0.7662005660        0.7662005660        0.2337994340
I             0.2337994340        0.2337994340        0.2337994340



     Writing output data file ./out/SnI4un.save/
     NEW-OLD atomic charge density approx. for the potential
     extrapolated charge   42.02959, renormalised to   42.00000

     total cpu time spent up to now is       45.8 secs

     Self-consistent Calculation

     iteration #  1     ecut=    70.00 Ry     beta= 0.50
     Davidson diagonalization with overlap
     ethr =  1.00E-06,  avg # of iterations =  3.2

     total cpu time spent up to now is       47.3 secs

     total energy              =   -1957.83971291 Ry
     estimated scf accuracy    <       0.00013630 Ry

     iteration #  2     ecut=    70.00 Ry     beta= 0.50
     Davidson diagonalization with overlap
     ethr =  3.25E-07,  avg # of iterations =  5.5

     total cpu time spent up to now is       48.9 secs

     total energy              =   -1957.83984335 Ry
     estimated scf accuracy    <       0.00024847 Ry

     iteration #  3     ecut=    70.00 Ry     beta= 0.50
     Davidson diagonalization with overlap
     ethr =  3.25E-07,  avg # of iterations =  2.0

     total cpu time spent up to now is       50.2 secs

     total energy              =   -1957.83984336 Ry
     estimated scf accuracy    <       0.00005121 Ry

     iteration #  4     ecut=    70.00 Ry     beta= 0.50
     Davidson diagonalization with overlap
     ethr =  1.22E-07,  avg # of iterations =  3.5

     total cpu time spent up to now is       51.5 secs

     total energy              =   -1957.83985290 Ry
     estimated scf accuracy    <       0.00000374 Ry

     iteration #  5     ecut=    70.00 Ry     beta= 0.50
     Davidson diagonalization with overlap
     ethr =  8.91E-09,  avg # of iterations =  3.5

     total cpu time spent up to now is       52.7 secs

     total energy              =   -1957.83985373 Ry
     estimated scf accuracy    <       0.00000296 Ry

     iteration #  6     ecut=    70.00 Ry     beta= 0.50
     Davidson diagonalization with overlap
     ethr =  7.04E-09,  avg # of iterations =  1.0

     total cpu time spent up to now is       53.8 secs

     total energy              =   -1957.83985391 Ry
     estimated scf accuracy    <       0.00000344 Ry

     iteration #  7     ecut=    70.00 Ry     beta= 0.50
     Davidson diagonalization with overlap
     ethr =  7.04E-09,  avg # of iterations =  1.0

     total cpu time spent up to now is       54.9 secs

     total energy              =   -1957.83985340 Ry
     estimated scf accuracy    <       0.00000373 Ry

     iteration #  8     ecut=    70.00 Ry     beta= 0.50
     Davidson diagonalization with overlap
     ethr =  7.04E-09,  avg # of iterations =  1.0

     total cpu time spent up to now is       56.0 secs

     total energy              =   -1957.83985265 Ry
     estimated scf accuracy    <       0.00000229 Ry

     iteration #  9     ecut=    70.00 Ry     beta= 0.50
     Davidson diagonalization with overlap
     ethr =  5.45E-09,  avg # of iterations =  2.2

     total cpu time spent up to now is       57.2 secs

     total energy              =   -1957.83985298 Ry
     estimated scf accuracy    <       0.00000021 Ry

     iteration # 10     ecut=    70.00 Ry     beta= 0.50
     Davidson diagonalization with overlap
     ethr =  5.05E-10,  avg # of iterations =  5.5

     total cpu time spent up to now is       58.8 secs

     total energy              =   -1957.83985285 Ry
     estimated scf accuracy    <       0.00000093 Ry

     iteration # 11     ecut=    70.00 Ry     beta= 0.50
     Davidson diagonalization with overlap
     ethr =  5.05E-10,  avg # of iterations =  4.0

     total cpu time spent up to now is       60.3 secs

     total energy              =   -1957.83985309 Ry
     estimated scf accuracy    <       0.00000002 Ry

     iteration # 12     ecut=    70.00 Ry     beta= 0.50
     Davidson diagonalization with overlap
     ethr =  3.93E-11,  avg # of iterations =  4.2

     total cpu time spent up to now is       61.8 secs

     total energy              =   -1957.83985306 Ry
     estimated scf accuracy    <       0.00000015 Ry

     iteration # 13     ecut=    70.00 Ry     beta= 0.50
     Davidson diagonalization with overlap
     ethr =  3.93E-11,  avg # of iterations =  3.8

     total cpu time spent up to now is       63.3 secs

     total energy              =   -1957.83985307 Ry
     estimated scf accuracy    <       0.00000001 Ry

     iteration # 14     ecut=    70.00 Ry     beta= 0.50
     Davidson diagonalization with overlap
     ethr =  3.40E-11,  avg # of iterations =  1.0

     total cpu time spent up to now is       64.4 secs

     total energy              =   -1957.83985307 Ry
     estimated scf accuracy    <       0.00000001 Ry

     iteration # 15     ecut=    70.00 Ry     beta= 0.50
     Davidson diagonalization with overlap
     ethr =  2.95E-11,  avg # of iterations =  3.2

     total cpu time spent up to now is       65.7 secs

     End of self-consistent calculation

          k = 0.0000 0.0000 0.0000 ( 20005 PWs)   bands (ev):

   -21.3282 -21.3282 -21.3282 -21.2728 -21.2728 -11.8551 -11.1234 -11.1234
   -11.1234  -6.2931  -2.4288  -2.4288  -2.4288  -1.3539  -1.3539  -0.4738
    -0.4738  -0.4738  -0.2643  -0.2643  -0.2643

     occupation numbers 
     1.0000   1.0000   1.0000   1.0000   1.0000   1.0000   1.0000   1.0000
     1.0000   1.0000   1.0000   1.0000   1.0000   1.0000   1.0000   1.0000
     1.0000   1.0000   1.0000   1.0000   1.0000

          k = 0.0000 0.0000-0.4998 ( 19946 PWs)   bands (ev):

   -21.3282 -21.3282 -21.3282 -21.2727 -21.2727 -11.8002 -11.1979 -11.1217
   -11.1217  -6.2337  -2.5815  -2.4596  -2.4596  -1.1225  -0.9424  -0.8833
    -0.7847  -0.4917  -0.4917  -0.2938  -0.2938

     occupation numbers 
     1.0000   1.0000   1.0000   1.0000   1.0000   1.0000   1.0000   1.0000
     1.0000   1.0000   1.0000   1.0000   1.0000   1.0000   1.0000   1.0000
     1.0000   1.0000   1.0000   1.0000   1.0000

          k = 0.0000-0.4998-0.4998 ( 19968 PWs)   bands (ev):

   -21.3282 -21.3282 -21.3282 -21.2727 -21.2727 -11.7598 -11.1724 -11.1724
   -11.1440  -6.2284  -2.7149  -2.4726  -2.4726  -1.0581  -1.0581  -0.9146
    -0.6890  -0.4168  -0.4168  -0.3875  -0.1241

     occupation numbers 
     1.0000   1.0000   1.0000   1.0000   1.0000   1.0000   1.0000   1.0000
     1.0000   1.0000   1.0000   1.0000   1.0000   1.0000   1.0000   1.0000
     1.0000   1.0000   1.0000   1.0000   1.0000

          k =-0.4998-0.4998-0.4998 ( 19952 PWs)   bands (ev):

   -21.3282 -21.3282 -21.3282 -21.2727 -21.2727 -11.7346 -11.1701 -11.1701
   -11.1701  -6.2811  -2.6342  -2.6342  -2.6342  -0.9874  -0.9874  -0.9874
    -0.3361  -0.3361  -0.1721  -0.1721  -0.1721

     occupation numbers 
     1.0000   1.0000   1.0000   1.0000   1.0000   1.0000   1.0000   1.0000
     1.0000   1.0000   1.0000   1.0000   1.0000   1.0000   1.0000   1.0000
     1.0000   1.0000   1.0000   1.0000   1.0000

     highest occupied level (ev):    -0.1241

!    total energy              =   -1957.83985307 Ry

     total all-electron energy =    -69286.457414 Ry
     estimated scf accuracy    <          1.2E-10 Ry

     The total energy is the sum of the following terms:
     one-electron contribution =    -155.47717272 Ry
     hartree contribution      =      94.82182789 Ry
     xc contribution           =    -110.99120019 Ry
     ewald contribution        =    -119.31983754 Ry
     one-center paw contrib.   =   -1666.87347051 Ry
      -> PAW hartree energy AE =     109.61185162 Ry
      -> PAW hartree energy PS =    -108.86702181 Ry
      -> PAW xc energy AE      =    -329.04121570 Ry
      -> PAW xc energy PS      =      47.34409723 Ry
      -> total E_H with PAW    =      95.56665771 Ry
      -> total E_XC with PAW   =    -392.68831866 Ry

     convergence has been achieved in  15 iterations

     Forces acting on atoms (cartesian axes, Ry/au):

     atom    1 type  1   force =     0.00000000    0.00000000    0.00000000
     atom    2 type  2   force =    -0.00067714    0.00067714    0.00067714
     atom    3 type  2   force =     0.00067714   -0.00067714    0.00067714
     atom    4 type  2   force =     0.00067714    0.00067714   -0.00067714
     atom    5 type  2   force =    -0.00067714   -0.00067714   -0.00067714
     The non-local contrib.  to forces
     atom    1 type  1   force =     0.00000000    0.00000000    0.00000000
     atom    2 type  2   force =    -0.09104167    0.09104167    0.09104167
     atom    3 type  2   force =     0.09104167   -0.09104167    0.09104167
     atom    4 type  2   force =     0.09104167    0.09104167   -0.09104167
     atom    5 type  2   force =    -0.09104167   -0.09104167   -0.09104167
     The ionic contribution  to forces
     atom    1 type  1   force =     0.00000000    0.00000000   -0.00000000
     atom    2 type  2   force =     3.79694312   -3.79694312   -3.79694312
     atom    3 type  2   force =    -3.79694312    3.79694312   -3.79694312
     atom    4 type  2   force =    -3.79694312   -3.79694312    3.79694312
     atom    5 type  2   force =     3.79694312    3.79694312    3.79694312
     The local contribution  to forces
     atom    1 type  1   force =     0.00000000    0.00000000   -0.00000000
     atom    2 type  2   force =    -3.71800552    3.71800552    3.71800552
     atom    3 type  2   force =     3.71800552   -3.71800552    3.71800552
     atom    4 type  2   force =     3.71800552    3.71800552   -3.71800552
     atom    5 type  2   force =    -3.71800552   -3.71800552   -3.71800552
     The core correction contribution to forces
     atom    1 type  1   force =     0.00000000    0.00000000    0.00000000
     atom    2 type  2   force =     0.01143365   -0.01143365   -0.01143365
     atom    3 type  2   force =    -0.01143365    0.01143365   -0.01143365
     atom    4 type  2   force =    -0.01143365   -0.01143365    0.01143365
     atom    5 type  2   force =     0.01143365    0.01143365    0.01143365
     The Hubbard contrib.    to forces
     atom    1 type  1   force =     0.00000000    0.00000000    0.00000000
     atom    2 type  2   force =     0.00000000    0.00000000    0.00000000
     atom    3 type  2   force =     0.00000000    0.00000000    0.00000000
     atom    4 type  2   force =     0.00000000    0.00000000    0.00000000
     atom    5 type  2   force =     0.00000000    0.00000000    0.00000000
     The SCF correction term to forces
     atom    1 type  1   force =     0.00000000   -0.00000000   -0.00000000
     atom    2 type  2   force =    -0.00000671    0.00000671    0.00000671
     atom    3 type  2   force =     0.00000671   -0.00000671    0.00000671
     atom    4 type  2   force =     0.00000671    0.00000671   -0.00000671
     atom    5 type  2   force =    -0.00000671   -0.00000671   -0.00000671

     Total force =     0.002346     Total SCF correction =     0.000023


     Computing stress (Cartesian axis) and pressure

          total   stress  (Ry/bohr**3)                   (kbar)     P=        0.81
   0.00000551   0.00000000   0.00000000            0.81        0.00        0.00
   0.00000000   0.00000551   0.00000000            0.00        0.81        0.00
   0.00000000   0.00000000   0.00000551            0.00        0.00        0.81

     kinetic stress (kbar)   3997.74      0.00      0.00
                                0.00   3997.74      0.00
                                0.00      0.00   3997.74

     local   stress (kbar)  -2879.08      0.00      0.00
                                0.00  -2879.08      0.00
                                0.00      0.00  -2879.08

     nonloc. stress (kbar)    793.94      0.00      0.00
                                0.00    793.94      0.00
                                0.00      0.00    793.94

     hartree stress (kbar)   2301.71     -0.00      0.00
                               -0.00   2301.71      0.00
                                0.00      0.00   2301.71

     exc-cor stress (kbar)   4094.66     -0.00     -0.00
                               -0.00   4094.66     -0.00
                               -0.00     -0.00   4094.66

     corecor stress (kbar)  -5411.79     -0.00      0.00
                               -0.00  -5411.79      0.00
                                0.00      0.00  -5411.79

     ewald   stress (kbar)  -2896.38      0.00     -0.00
                                0.00  -2896.38     -0.00
                               -0.00     -0.00  -2896.38

     hubbard stress (kbar)      0.00      0.00      0.00
                                0.00      0.00      0.00
                                0.00      0.00      0.00

     DFT-D   stress (kbar)      0.00      0.00      0.00
                                0.00      0.00      0.00
                                0.00      0.00      0.00

     XDM     stress (kbar)      0.00      0.00      0.00
                                0.00      0.00      0.00
                                0.00      0.00      0.00

     dft-nl  stress (kbar)      0.00      0.00      0.00
                                0.00      0.00      0.00
                                0.00      0.00      0.00

     TS-vdW  stress (kbar)      0.00      0.00      0.00
                                0.00      0.00      0.00
                                0.00      0.00      0.00


     Energy error            =      1.3E-05
     Gradient error          =      6.8E-04
     Cell gradient error     =      5.5E-06


     number of scf cycles    =   3
     number of bfgs steps    =   2

     enthalpy old            =   -1957.8398395942 Ry
     enthalpy new            =   -1957.8398530687 Ry

     CASE: enthalpy_new < enthalpy_old

     new trust radius        =       0.0025048116 bohr
     new conv_thr            =       0.0000000100 Ry

     new unit-cell volume =   2021.73843 a.u.^3 (   299.59073 Ang^3 )
     density =      3.47139 g/cm^3

CELL_PARAMETERS (angstrom)
   6.691283877   0.000000000   0.000000000
   0.000000000   6.691283877   0.000000000
   0.000000000   0.000000000   6.691283877

ATOMIC_POSITIONS (crystal)
Sn            0.0000000000        0.0000000000        0.0000000000
I             0.2336850338        0.7663149662        0.7663149662
I             0.7663149662        0.2336850338        0.7663149662
I             0.7663149662        0.7663149662        0.2336850338
I             0.2336850338        0.2336850338        0.2336850338



     Writing output data file ./out/SnI4un.save/
     NEW-OLD atomic charge density approx. for the potential
     extrapolated charge   42.03494, renormalised to   42.00000

     total cpu time spent up to now is       74.4 secs

     Self-consistent Calculation

     iteration #  1     ecut=    70.00 Ry     beta= 0.50
     Davidson diagonalization with overlap
     ethr =  1.00E-06,  avg # of iterations =  4.0

     total cpu time spent up to now is       75.8 secs

     total energy              =   -1957.83968771 Ry
     estimated scf accuracy    <       0.00015491 Ry

     iteration #  2     ecut=    70.00 Ry     beta= 0.50
     Davidson diagonalization with overlap
     ethr =  3.69E-07,  avg # of iterations =  5.2

     total cpu time spent up to now is       77.4 secs

     total energy              =   -1957.83986636 Ry
     estimated scf accuracy    <       0.00037296 Ry

     iteration #  3     ecut=    70.00 Ry     beta= 0.50
     Davidson diagonalization with overlap
     ethr =  3.69E-07,  avg # of iterations =  2.0

     total cpu time spent up to now is       78.7 secs

     total energy              =   -1957.83985676 Ry
     estimated scf accuracy    <       0.00008803 Ry

     iteration #  4     ecut=    70.00 Ry     beta= 0.50
     Davidson diagonalization with overlap
     ethr =  2.10E-07,  avg # of iterations =  4.0

     total cpu time spent up to now is       80.0 secs

     total energy              =   -1957.83987355 Ry
     estimated scf accuracy    <       0.00000327 Ry

     iteration #  5     ecut=    70.00 Ry     beta= 0.50
     Davidson diagonalization with overlap
     ethr =  7.79E-09,  avg # of iterations =  2.5

     total cpu time spent up to now is       81.3 secs

     total energy              =   -1957.83987449 Ry
     estimated scf accuracy    <       0.00000414 Ry

     iteration #  6     ecut=    70.00 Ry     beta= 0.50
     Davidson diagonalization with overlap
     ethr =  7.79E-09,  avg # of iterations =  2.0

     total cpu time spent up to now is       82.4 secs

     total energy              =   -1957.83987411 Ry
     estimated scf accuracy    <       0.00000477 Ry

     iteration #  7     ecut=    70.00 Ry     beta= 0.50
     Davidson diagonalization with overlap
     ethr =  7.79E-09,  avg # of iterations =  1.0

     total cpu time spent up to now is       83.5 secs

     total energy              =   -1957.83987380 Ry
     estimated scf accuracy    <       0.00000340 Ry

     iteration #  8     ecut=    70.00 Ry     beta= 0.50
     Davidson diagonalization with overlap
     ethr =  7.79E-09,  avg # of iterations =  1.0

     total cpu time spent up to now is       84.7 secs

     total energy              =   -1957.83987292 Ry
     estimated scf accuracy    <       0.00000213 Ry

     iteration #  9     ecut=    70.00 Ry     beta= 0.50
     Davidson diagonalization with overlap
     ethr =  5.07E-09,  avg # of iterations =  4.2

     total cpu time spent up to now is       86.0 secs

     total energy              =   -1957.83987368 Ry
     estimated scf accuracy    <       0.00000041 Ry

     iteration # 10     ecut=    70.00 Ry     beta= 0.50
     Davidson diagonalization with overlap
     ethr =  9.83E-10,  avg # of iterations =  2.0

     total cpu time spent up to now is       87.2 secs

     total energy              =   -1957.83987356 Ry
     estimated scf accuracy    <       0.00000031 Ry

     iteration # 11     ecut=    70.00 Ry     beta= 0.50
     Davidson diagonalization with overlap
     ethr =  7.48E-10,  avg # of iterations =  3.0

     total cpu time spent up to now is       88.5 secs

     End of self-consistent calculation

          k = 0.0000 0.0000 0.0000 ( 20005 PWs)   bands (ev):

   -21.3338 -21.3338 -21.3338 -21.2782 -21.2782 -11.8616 -11.1291 -11.1291
   -11.1291  -6.2985  -2.4353  -2.4353  -2.4353  -1.3584  -1.3584  -0.4791
    -0.4791  -0.4791  -0.2710  -0.2710  -0.2710

     occupation numbers 
     1.0000   1.0000   1.0000   1.0000   1.0000   1.0000   1.0000   1.0000
     1.0000   1.0000   1.0000   1.0000   1.0000   1.0000   1.0000   1.0000
     1.0000   1.0000   1.0000   1.0000   1.0000

          k = 0.0000 0.0000-0.4996 ( 19946 PWs)   bands (ev):

   -21.3338 -21.3338 -21.3338 -21.2782 -21.2782 -11.8070 -11.2033 -11.1275
   -11.1275  -6.2394  -2.5870  -2.4662  -2.4662  -1.1279  -0.9475  -0.8885
    -0.7889  -0.4975  -0.4975  -0.2993  -0.2993

     occupation numbers 
     1.0000   1.0000   1.0000   1.0000   1.0000   1.0000   1.0000   1.0000
     1.0000   1.0000   1.0000   1.0000   1.0000   1.0000   1.0000   1.0000
     1.0000   1.0000   1.0000   1.0000   1.0000

          k = 0.0000-0.4996-0.4996 ( 19968 PWs)   bands (ev):

   -21.3338 -21.3338 -21.3338 -21.2782 -21.2782 -11.7668 -11.1779 -11.1779
   -11.1495  -6.2341  -2.7203  -2.4791  -2.4791  -1.0626  -1.0626  -0.9201
    -0.6939  -0.4222  -0.4222  -0.3944  -0.1299

     occupation numbers 
     1.0000   1.0000   1.0000   1.0000   1.0000   1.0000   1.0000   1.0000
     1.0000   1.0000   1.0000   1.0000   1.0000   1.0000   1.0000   1.0000
     1.0000   1.0000   1.0000   1.0000   1.0000

          k =-0.4996-0.4996-0.4996 ( 19952 PWs)   bands (ev):

   -21.3338 -21.3338 -21.3338 -21.2782 -21.2782 -11.7416 -11.1757 -11.1757
   -11.1757  -6.2863  -2.6400  -2.6400  -2.6400  -0.9925  -0.9925  -0.9925
    -0.3428  -0.3428  -0.1781  -0.1781  -0.1781

     occupation numbers 
     1.0000   1.0000   1.0000   1.0000   1.0000   1.0000   1.0000   1.0000
     1.0000   1.0000   1.0000   1.0000   1.0000   1.0000   1.0000   1.0000
     1.0000   1.0000   1.0000   1.0000   1.0000

     highest occupied level (ev):    -0.1299

!    total energy              =   -1957.83987363 Ry

     total all-electron energy =    -69286.457435 Ry
     estimated scf accuracy    <          7.3E-09 Ry

     The total energy is the sum of the following terms:
     one-electron contribution =    -155.65780611 Ry
     hartree contribution      =      94.90426602 Ry
     xc contribution           =    -110.99194996 Ry
     ewald contribution        =    -119.22080630 Ry
     one-center paw contrib.   =   -1666.87357729 Ry
      -> PAW hartree energy AE =     109.62030609 Ry
      -> PAW hartree energy PS =    -108.87552656 Ry
      -> PAW xc energy AE      =    -329.04188011 Ry
      -> PAW xc energy PS      =      47.34474678 Ry
      -> total E_H with PAW    =      95.64904556 Ry
      -> total E_XC with PAW   =    -392.68908329 Ry

     convergence has been achieved in  11 iterations

     Forces acting on atoms (cartesian axes, Ry/au):

     atom    1 type  1   force =     0.00000000    0.00000000    0.00000000
     atom    2 type  2   force =    -0.00055049    0.00055049    0.00055049
     atom    3 type  2   force =     0.00055049   -0.00055049    0.00055049
     atom    4 type  2   force =     0.00055049    0.00055049   -0.00055049
     atom    5 type  2   force =    -0.00055049   -0.00055049   -0.00055049
     The non-local contrib.  to forces
     atom    1 type  1   force =     0.00000000    0.00000000    0.00000000
     atom    2 type  2   force =    -0.09100595    0.09100595    0.09100595
     atom    3 type  2   force =     0.09100595   -0.09100595    0.09100595
     atom    4 type  2   force =     0.09100595    0.09100595   -0.09100595
     atom    5 type  2   force =    -0.09100595   -0.09100595   -0.09100595
     The ionic contribution  to forces
     atom    1 type  1   force =    -0.00000000   -0.00000000    0.00000000
     atom    2 type  2   force =     3.80171577   -3.80171577   -3.80171577
     atom    3 type  2   force =    -3.80171577    3.80171577   -3.80171577
     atom    4 type  2   force =    -3.80171577   -3.80171577    3.80171577
     atom    5 type  2   force =     3.80171577    3.80171577    3.80171577
     The local contribution  to forces
     atom    1 type  1   force =     0.00000000    0.00000000    0.00000000
     atom    2 type  2   force =    -3.72270826    3.72270826    3.72270826
     atom    3 type  2   force =     3.72270826   -3.72270826    3.72270826
     atom    4 type  2   force =     3.72270826    3.72270826   -3.72270826
     atom    5 type  2   force =    -3.72270826   -3.72270826   -3.72270826
     The core correction contribution to forces
     atom    1 type  1   force =     0.00000000    0.00000000   -0.00000000
     atom    2 type  2   force =     0.01142520   -0.01142520   -0.01142520
     atom    3 type  2   force =    -0.01142520    0.01142520   -0.01142520
     atom    4 type  2   force =    -0.01142520   -0.01142520    0.01142520
     atom    5 type  2   force =     0.01142520    0.01142520    0.01142520
     The Hubbard contrib.    to forces
     atom    1 type  1   force =     0.00000000    0.00000000    0.00000000
     atom    2 type  2   force =     0.00000000    0.00000000    0.00000000
     atom    3 type  2   force =     0.00000000    0.00000000    0.00000000
     atom    4 type  2   force =     0.00000000    0.00000000    0.00000000
     atom    5 type  2   force =     0.00000000    0.00000000    0.00000000
     The SCF correction term to forces
     atom    1 type  1   force =    -0.00000000   -0.00000000    0.00000000
     atom    2 type  2   force =     0.00002276   -0.00002276   -0.00002276
     atom    3 type  2   force =    -0.00002276    0.00002276   -0.00002276
     atom    4 type  2   force =    -0.00002276   -0.00002276    0.00002276
     atom    5 type  2   force =     0.00002276    0.00002276    0.00002276

     Total force =     0.001907     Total SCF correction =     0.000079


     Computing stress (Cartesian axis) and pressure

          total   stress  (Ry/bohr**3)                   (kbar)     P=        0.96
   0.00000653   0.00000000   0.00000000            0.96        0.00        0.00
   0.00000000   0.00000653   0.00000000            0.00        0.96        0.00
   0.00000000   0.00000000   0.00000653            0.00        0.00        0.96

     kinetic stress (kbar)   3994.47      0.00      0.00
                                0.00   3994.47      0.00
                                0.00      0.00   3994.47

     local   stress (kbar)  -2881.08      0.00     -0.00
                                0.00  -2881.08     -0.00
                               -0.00     -0.00  -2881.08

     nonloc. stress (kbar)    793.39      0.00      0.00
                                0.00    793.39      0.00
                                0.00      0.00    793.39

     hartree stress (kbar)   2301.80      0.00      0.00
                                0.00   2301.80      0.00
                                0.00      0.00   2301.80

     exc-cor stress (kbar)   4091.24     -0.00      0.00
                               -0.00   4091.24      0.00
                                0.00      0.00   4091.24

     corecor stress (kbar)  -5407.29     -0.00     -0.00
                               -0.00  -5407.29     -0.00
                               -0.00     -0.00  -5407.29

     ewald   stress (kbar)  -2891.57      0.00      0.00
                                0.00  -2891.57      0.00
                                0.00      0.00  -2891.57

     hubbard stress (kbar)      0.00      0.00      0.00
                                0.00      0.00      0.00
                                0.00      0.00      0.00

     DFT-D   stress (kbar)      0.00      0.00      0.00
                                0.00      0.00      0.00
                                0.00      0.00      0.00

     XDM     stress (kbar)      0.00      0.00      0.00
                                0.00      0.00      0.00
                                0.00      0.00      0.00

     dft-nl  stress (kbar)      0.00      0.00      0.00
                                0.00      0.00      0.00
                                0.00      0.00      0.00

     TS-vdW  stress (kbar)      0.00      0.00      0.00
                                0.00      0.00      0.00
                                0.00      0.00      0.00


     Energy error            =      2.1E-05
     Gradient error          =      5.5E-04
     Cell gradient error     =      6.5E-06


     number of scf cycles    =   4
     number of bfgs steps    =   3

     enthalpy old            =   -1957.8398530687 Ry
     enthalpy new            =   -1957.8398736312 Ry

     CASE: enthalpy_new < enthalpy_old


     WARNING: bfgs curvature condition failed, Theta= 0.818
     new trust radius        =       0.0027560573 bohr
     new conv_thr            =       0.0000000100 Ry

     new unit-cell volume =   2023.59784 a.u.^3 (   299.86626 Ang^3 )
     density =      3.46820 g/cm^3

CELL_PARAMETERS (angstrom)
   6.693334591   0.000000000   0.000000000
   0.000000000   6.693334591   0.000000000
   0.000000000   0.000000000   6.693334591

ATOMIC_POSITIONS (crystal)
Sn            0.0000000000        0.0000000000        0.0000000000
I             0.2335642279        0.7664357721        0.7664357721
I             0.7664357721        0.2335642279        0.7664357721
I             0.7664357721        0.7664357721        0.2335642279
I             0.2335642279        0.2335642279        0.2335642279



     Writing output data file ./out/SnI4un.save/
     NEW-OLD atomic charge density approx. for the potential
     extrapolated charge   42.03859, renormalised to   42.00000

     total cpu time spent up to now is       97.2 secs

     Self-consistent Calculation

     iteration #  1     ecut=    70.00 Ry     beta= 0.50
     Davidson diagonalization with overlap
     ethr =  1.00E-06,  avg # of iterations =  5.0

     total cpu time spent up to now is       98.7 secs

     total energy              =   -1957.83965406 Ry
     estimated scf accuracy    <       0.00020331 Ry

     iteration #  2     ecut=    70.00 Ry     beta= 0.50
     Davidson diagonalization with overlap
     ethr =  4.84E-07,  avg # of iterations =  5.0

     total cpu time spent up to now is      100.4 secs

     total energy              =   -1957.83988476 Ry
     estimated scf accuracy    <       0.00048885 Ry

     iteration #  3     ecut=    70.00 Ry     beta= 0.50
     Davidson diagonalization with overlap
     ethr =  4.84E-07,  avg # of iterations =  2.0

     total cpu time spent up to now is      101.6 secs

     total energy              =   -1957.83987339 Ry
     estimated scf accuracy    <       0.00011450 Ry

     iteration #  4     ecut=    70.00 Ry     beta= 0.50
     Davidson diagonalization with overlap
     ethr =  2.73E-07,  avg # of iterations =  4.0

     total cpu time spent up to now is      102.9 secs

     total energy              =   -1957.83989482 Ry
     estimated scf accuracy    <       0.00000457 Ry

     iteration #  5     ecut=    70.00 Ry     beta= 0.50
     Davidson diagonalization with overlap
     ethr =  1.09E-08,  avg # of iterations =  2.5

     total cpu time spent up to now is      104.2 secs

     total energy              =   -1957.83989599 Ry
     estimated scf accuracy    <       0.00000573 Ry

     iteration #  6     ecut=    70.00 Ry     beta= 0.50
     Davidson diagonalization with overlap
     ethr =  1.09E-08,  avg # of iterations =  2.0

     total cpu time spent up to now is      105.4 secs

     total energy              =   -1957.83989531 Ry
     estimated scf accuracy    <       0.00000646 Ry

     iteration #  7     ecut=    70.00 Ry     beta= 0.50
     Davidson diagonalization with overlap
     ethr =  1.09E-08,  avg # of iterations =  1.0

     total cpu time spent up to now is      106.5 secs

     total energy              =   -1957.83989507 Ry
     estimated scf accuracy    <       0.00000440 Ry

     iteration #  8     ecut=    70.00 Ry     beta= 0.50
     Davidson diagonalization with overlap
     ethr =  1.05E-08,  avg # of iterations =  1.0

     total cpu time spent up to now is      107.5 secs

     total energy              =   -1957.83989385 Ry
     estimated scf accuracy    <       0.00000324 Ry

     iteration #  9     ecut=    70.00 Ry     beta= 0.50
     Davidson diagonalization with overlap
     ethr =  7.72E-09,  avg # of iterations =  4.0

     total cpu time spent up to now is      108.9 secs

     total energy              =   -1957.83989475 Ry
     estimated scf accuracy    <       0.00000027 Ry

     iteration # 10     ecut=    70.00 Ry     beta= 0.50
     Davidson diagonalization with overlap
     ethr =  6.37E-10,  avg # of iterations =  3.0

     total cpu time spent up to now is      110.4 secs

     total energy              =   -1957.83989463 Ry
     estimated scf accuracy    <       0.00000039 Ry

     iteration # 11     ecut=    70.00 Ry     beta= 0.50
     Davidson diagonalization with overlap
     ethr =  6.37E-10,  avg # of iterations =  3.5

     total cpu time spent up to now is      111.7 secs

     End of self-consistent calculation

          k = 0.0000 0.0000 0.0000 ( 20005 PWs)   bands (ev):

   -21.3392 -21.3392 -21.3392 -21.2835 -21.2835 -11.8687 -11.1356 -11.1356
   -11.1356  -6.3042  -2.4424  -2.4424  -2.4424  -1.3634  -1.3634  -0.4850
    -0.4850  -0.4850  -0.2784  -0.2784  -0.2784

     occupation numbers 
     1.0000   1.0000   1.0000   1.0000   1.0000   1.0000   1.0000   1.0000
     1.0000   1.0000   1.0000   1.0000   1.0000   1.0000   1.0000   1.0000
     1.0000   1.0000   1.0000   1.0000   1.0000

          k = 0.0000 0.0000-0.4995 ( 19946 PWs)   bands (ev):

   -21.3391 -21.3391 -21.3391 -21.2834 -21.2834 -11.8144 -11.2094 -11.1339
   -11.1339  -6.2455  -2.5931  -2.4733  -2.4733  -1.1340  -0.9533  -0.8945
    -0.7936  -0.5040  -0.5040  -0.3054  -0.3054

     occupation numbers 
     1.0000   1.0000   1.0000   1.0000   1.0000   1.0000   1.0000   1.0000
     1.0000   1.0000   1.0000   1.0000   1.0000   1.0000   1.0000   1.0000
     1.0000   1.0000   1.0000   1.0000   1.0000

          k = 0.0000-0.4995-0.4995 ( 19968 PWs)   bands (ev):

   -21.3392 -21.3391 -21.3391 -21.2834 -21.2834 -11.7744 -11.1842 -11.1842
   -11.1558  -6.2401  -2.7262  -2.4862  -2.4862  -1.0677  -1.0677  -0.9263
    -0.6994  -0.4284  -0.4284  -0.4020  -0.1364

     occupation numbers 
     1.0000   1.0000   1.0000   1.0000   1.0000   1.0000   1.0000   1.0000
     1.0000   1.0000   1.0000   1.0000   1.0000   1.0000   1.0000   1.0000
     1.0000   1.0000   1.0000   1.0000   1.0000

          k =-0.4995-0.4995-0.4995 ( 19952 PWs)   bands (ev):

   -21.3391 -21.3391 -21.3391 -21.2834 -21.2834 -11.7492 -11.1820 -11.1820
   -11.1820  -6.2919  -2.6464  -2.6464  -2.6464  -0.9982  -0.9982  -0.9982
    -0.3504  -0.3504  -0.1848  -0.1848  -0.1848

     occupation numbers 
     1.0000   1.0000   1.0000   1.0000   1.0000   1.0000   1.0000   1.0000
     1.0000   1.0000   1.0000   1.0000   1.0000   1.0000   1.0000   1.0000
     1.0000   1.0000   1.0000   1.0000   1.0000

     highest occupied level (ev):    -0.1364

!    total energy              =   -1957.83989471 Ry

     total all-electron energy =    -69286.457456 Ry
     estimated scf accuracy    <          2.4E-09 Ry

     The total energy is the sum of the following terms:
     one-electron contribution =    -155.85030237 Ry
     hartree contribution      =      94.99136928 Ry
     xc contribution           =    -110.99269873 Ry
     ewald contribution        =    -119.11454604 Ry
     one-center paw contrib.   =   -1666.87371684 Ry
      -> PAW hartree energy AE =     109.62729273 Ry
      -> PAW hartree energy PS =    -108.88257283 Ry
      -> PAW xc energy AE      =    -329.04236624 Ry
      -> PAW xc energy PS      =      47.34524444 Ry
      -> total E_H with PAW    =      95.73608919 Ry
      -> total E_XC with PAW   =    -392.68982054 Ry

     convergence has been achieved in  11 iterations

     Forces acting on atoms (cartesian axes, Ry/au):

     atom    1 type  1   force =     0.00000000    0.00000000    0.00000000
     atom    2 type  2   force =    -0.00042633    0.00042633    0.00042633
     atom    3 type  2   force =     0.00042633   -0.00042633    0.00042633
     atom    4 type  2   force =     0.00042633    0.00042633   -0.00042633
     atom    5 type  2   force =    -0.00042633   -0.00042633   -0.00042633
     The non-local contrib.  to forces
     atom    1 type  1   force =     0.00000000    0.00000000    0.00000000
     atom    2 type  2   force =    -0.09097264    0.09097264    0.09097264
     atom    3 type  2   force =     0.09097264   -0.09097264    0.09097264
     atom    4 type  2   force =     0.09097264    0.09097264   -0.09097264
     atom    5 type  2   force =    -0.09097264   -0.09097264   -0.09097264
     The ionic contribution  to forces
     atom    1 type  1   force =    -0.00000000   -0.00000000   -0.00000000
     atom    2 type  2   force =     3.80665489   -3.80665489   -3.80665489
     atom    3 type  2   force =    -3.80665489    3.80665489   -3.80665489
     atom    4 type  2   force =    -3.80665489   -3.80665489    3.80665489
     atom    5 type  2   force =     3.80665489    3.80665489    3.80665489
     The local contribution  to forces
     atom    1 type  1   force =     0.00000000    0.00000000   -0.00000000
     atom    2 type  2   force =    -3.72752067    3.72752067    3.72752067
     atom    3 type  2   force =     3.72752067   -3.72752067    3.72752067
     atom    4 type  2   force =     3.72752067    3.72752067   -3.72752067
     atom    5 type  2   force =    -3.72752067   -3.72752067   -3.72752067
     The core correction contribution to forces
     atom    1 type  1   force =     0.00000000    0.00000000    0.00000000
     atom    2 type  2   force =     0.01141789   -0.01141789   -0.01141789
     atom    3 type  2   force =    -0.01141789    0.01141789   -0.01141789
     atom    4 type  2   force =    -0.01141789   -0.01141789    0.01141789
     atom    5 type  2   force =     0.01141789    0.01141789    0.01141789
     The Hubbard contrib.    to forces
     atom    1 type  1   force =     0.00000000    0.00000000    0.00000000
     atom    2 type  2   force =     0.00000000    0.00000000    0.00000000
     atom    3 type  2   force =     0.00000000    0.00000000    0.00000000
     atom    4 type  2   force =     0.00000000    0.00000000    0.00000000
     atom    5 type  2   force =     0.00000000    0.00000000    0.00000000
     The SCF correction term to forces
     atom    1 type  1   force =     0.00000000    0.00000000    0.00000000
     atom    2 type  2   force =    -0.00000579    0.00000579    0.00000579
     atom    3 type  2   force =     0.00000579   -0.00000579    0.00000579
     atom    4 type  2   force =     0.00000579    0.00000579   -0.00000579
     atom    5 type  2   force =    -0.00000579   -0.00000579   -0.00000579

     Total force =     0.001477     Total SCF correction =     0.000020


     Computing stress (Cartesian axis) and pressure

          total   stress  (Ry/bohr**3)                   (kbar)     P=        1.00
[...]
                  (  0.0000000  1.0000000  0.0000000 )


      isym = 23     inv.  90 deg rotation - cart. axis [-1,0,0]  

 cryst.   s(23) = (    -1          0          0      )
                  (     0          0          1      )
                  (     0         -1          0      )

 cart.    s(23) = ( -1.0000000  0.0000000  0.0000000 )
                  (  0.0000000  0.0000000 -1.0000000 )
                  (  0.0000000  1.0000000  0.0000000 )


      isym = 24     inv.  90 deg rotation - cart. axis [1,0,0]   

 cryst.   s(24) = (    -1          0          0      )
                  (     0          0         -1      )
                  (     0          1          0      )

 cart.    s(24) = ( -1.0000000  0.0000000  0.0000000 )
                  (  0.0000000  0.0000000  1.0000000 )
                  (  0.0000000 -1.0000000  0.0000000 )


   Cartesian axes

     site n.     atom                  positions (alat units)
         1           Sn  tau(   1) = (   0.0000000   0.0000000   0.0000000  )
         2           I   tau(   2) = (   0.2336567   0.7965052   0.7965052  )
         3           I   tau(   3) = (   0.7965052   0.2336567   0.7965052  )
         4           I   tau(   4) = (   0.7965052   0.7965052   0.2336567  )
         5           I   tau(   5) = (   0.2336567   0.2336567   0.2336567  )

   Crystallographic axes

     site n.     atom                  positions (cryst. coord.)
         1           Sn  tau(   1) = (  0.0000000  0.0000000  0.0000000  )
         2           I   tau(   2) = (  0.2268155  0.7731845  0.7731845  )
         3           I   tau(   3) = (  0.7731845  0.2268155  0.7731845  )
         4           I   tau(   4) = (  0.7731845  0.7731845  0.2268155  )
         5           I   tau(   5) = (  0.2268155  0.2268155  0.2268155  )

     number of k points=     4
                       cart. coord. in units 2pi/alat
        k(    1) = (   0.0000000   0.0000000   0.0000000), wk =   0.2500000
        k(    2) = (   0.0000000   0.0000000  -0.4853606), wk =   0.7500000
        k(    3) = (   0.0000000  -0.4853606  -0.4853606), wk =   0.7500000
        k(    4) = (  -0.4853606  -0.4853606  -0.4853606), wk =   0.2500000

                       cryst. coord.
        k(    1) = (   0.0000000   0.0000000   0.0000000), wk =   0.2500000
        k(    2) = (   0.0000000   0.0000000  -0.5000000), wk =   0.7500000
        k(    3) = (   0.0000000  -0.5000000  -0.5000000), wk =   0.7500000
        k(    4) = (  -0.5000000  -0.5000000  -0.5000000), wk =   0.2500000

     Dense  grid:   174173 G-vectors     FFT dimensions: (  72,  72,  72)

     Dynamical RAM for                 wfc:       0.37 MB

     Dynamical RAM for     wfc (w. buffer):       1.84 MB

     Dynamical RAM for           str. fact:       0.28 MB

     Dynamical RAM for           local pot:       0.13 MB

     Dynamical RAM for          nlocal pot:       1.58 MB

     Dynamical RAM for                qrad:       5.37 MB

     Dynamical RAM for          rho,v,vnew:       0.89 MB

     Dynamical RAM for               rhoin:       0.30 MB

     Dynamical RAM for            rho*nmix:       2.24 MB

     Dynamical RAM for           G-vectors:       0.59 MB

     Dynamical RAM for          h,s,v(r/c):       0.08 MB

     Dynamical RAM for          <psi|beta>:       0.03 MB

     Dynamical RAM for                 psi:       0.74 MB

     Dynamical RAM for                hpsi:       0.74 MB

     Dynamical RAM for                spsi:       0.74 MB

     Dynamical RAM for      wfcinit/wfcrot:       0.89 MB

     Dynamical RAM for           addusdens:      26.58 MB

     Dynamical RAM for          addusforce:      27.50 MB

     Dynamical RAM for         addusstress:      28.12 MB

     Estimated static dynamical RAM per process >      14.43 MB

     Estimated max dynamical RAM per process >      42.55 MB

     Estimated total dynamical RAM >     808.49 MB

     Initial potential from superposition of free atoms

     starting charge   41.99831, renormalised to   42.00000
     Starting wfcs are   25 randomized atomic wfcs
     Checking if some PAW data can be deallocated... 
       PAW data deallocated on   15 nodes for type:  1
       PAW data deallocated on    4 nodes for type:  2

     total cpu time spent up to now is      478.8 secs

     Self-consistent Calculation

     iteration #  1     ecut=    70.00 Ry     beta= 0.50
     Davidson diagonalization with overlap
     ethr =  1.00E-06,  avg # of iterations =  9.0

     total cpu time spent up to now is      482.0 secs

     total energy              =   -1957.81916365 Ry
     estimated scf accuracy    <       0.11092272 Ry

     iteration #  2     ecut=    70.00 Ry     beta= 0.50
     Davidson diagonalization with overlap
     ethr =  2.64E-04,  avg # of iterations =  3.0

     total cpu time spent up to now is      483.3 secs

     total energy              =   -1957.83763934 Ry
     estimated scf accuracy    <       0.02282136 Ry

     iteration #  3     ecut=    70.00 Ry     beta= 0.50
     Davidson diagonalization with overlap
     ethr =  5.43E-05,  avg # of iterations =  2.0

     total cpu time spent up to now is      484.7 secs

     total energy              =   -1957.84134759 Ry
     estimated scf accuracy    <       0.00210254 Ry

     iteration #  4     ecut=    70.00 Ry     beta= 0.50
     Davidson diagonalization with overlap
     ethr =  5.01E-06,  avg # of iterations =  4.2

     total cpu time spent up to now is      486.0 secs

     total energy              =   -1957.84148036 Ry
     estimated scf accuracy    <       0.00070560 Ry

     iteration #  5     ecut=    70.00 Ry     beta= 0.50
     Davidson diagonalization with overlap
     ethr =  1.68E-06,  avg # of iterations =  4.0

     total cpu time spent up to now is      487.5 secs

     total energy              =   -1957.84164532 Ry
     estimated scf accuracy    <       0.00007640 Ry

     iteration #  6     ecut=    70.00 Ry     beta= 0.50
     Davidson diagonalization with overlap
     ethr =  1.82E-07,  avg # of iterations =  4.0

     total cpu time spent up to now is      488.9 secs

     total energy              =   -1957.84166641 Ry
     estimated scf accuracy    <       0.00000931 Ry

     iteration #  7     ecut=    70.00 Ry     beta= 0.50
     Davidson diagonalization with overlap
     ethr =  2.22E-08,  avg # of iterations =  2.0

     total cpu time spent up to now is      490.2 secs

     total energy              =   -1957.84166733 Ry
     estimated scf accuracy    <       0.00000073 Ry

     iteration #  8     ecut=    70.00 Ry     beta= 0.50
     Davidson diagonalization with overlap
     ethr =  1.73E-09,  avg # of iterations =  6.0

     total cpu time spent up to now is      492.0 secs

     total energy              =   -1957.84166794 Ry
     estimated scf accuracy    <       0.00000143 Ry

     iteration #  9     ecut=    70.00 Ry     beta= 0.50
     Davidson diagonalization with overlap
     ethr =  1.73E-09,  avg # of iterations =  2.0

     total cpu time spent up to now is      493.2 secs

     total energy              =   -1957.84166783 Ry
     estimated scf accuracy    <       0.00000045 Ry

     iteration # 10     ecut=    70.00 Ry     beta= 0.50
     Davidson diagonalization with overlap
     ethr =  1.06E-09,  avg # of iterations =  3.8

     total cpu time spent up to now is      494.6 secs

     total energy              =   -1957.84166790 Ry
     estimated scf accuracy    <       0.00000001 Ry

     iteration # 11     ecut=    70.00 Ry     beta= 0.50
     Davidson diagonalization with overlap
     ethr =  3.22E-11,  avg # of iterations =  4.5

     total cpu time spent up to now is      496.1 secs

     End of self-consistent calculation

          k = 0.0000 0.0000 0.0000 ( 21879 PWs)   bands (ev):

   -21.8618 -21.8618 -21.8618 -21.8056 -21.8056 -12.3758 -11.6711 -11.6711
   -11.6711  -6.8122  -2.9884  -2.9884  -2.9884  -1.7874  -1.7874  -1.0060
    -1.0060  -1.0060  -0.9003  -0.9003  -0.9003

     occupation numbers 
     1.0000   1.0000   1.0000   1.0000   1.0000   1.0000   1.0000   1.0000
     1.0000   1.0000   1.0000   1.0000   1.0000   1.0000   1.0000   1.0000
     1.0000   1.0000   1.0000   1.0000   1.0000

          k = 0.0000 0.0000-0.4854 ( 21794 PWs)   bands (ev):

   -21.8618 -21.8617 -21.8617 -21.8056 -21.8056 -12.3400 -11.7198 -11.6700
   -11.6700  -6.7744  -3.0831  -3.0174  -3.0174  -1.6187  -1.4423  -1.3956
    -1.2323  -1.0641  -1.0641  -0.8544  -0.8544

     occupation numbers 
     1.0000   1.0000   1.0000   1.0000   1.0000   1.0000   1.0000   1.0000
     1.0000   1.0000   1.0000   1.0000   1.0000   1.0000   1.0000   1.0000
     1.0000   1.0000   1.0000   1.0000   1.0000

          k = 0.0000-0.4854-0.4854 ( 21712 PWs)   bands (ev):

   -21.8617 -21.8617 -21.8617 -21.8056 -21.8055 -12.3119 -11.7059 -11.7059
   -11.6815  -6.7685  -3.1927  -3.0255  -3.0255  -1.5205  -1.5205  -1.4336
    -1.2021  -1.0194  -0.9615  -0.9615  -0.7146

     occupation numbers 
     1.0000   1.0000   1.0000   1.0000   1.0000   1.0000   1.0000   1.0000
     1.0000   1.0000   1.0000   1.0000   1.0000   1.0000   1.0000   1.0000
     1.0000   1.0000   1.0000   1.0000   1.0000

          k =-0.4854-0.4854-0.4854 ( 21776 PWs)   bands (ev):

   -21.8617 -21.8617 -21.8617 -21.8055 -21.8055 -12.2917 -11.7045 -11.7045
   -11.7045  -6.7963  -3.1364  -3.1364  -3.1364  -1.4903  -1.4903  -1.4903
    -0.9703  -0.9703  -0.7642  -0.7642  -0.7642

     occupation numbers 
     1.0000   1.0000   1.0000   1.0000   1.0000   1.0000   1.0000   1.0000
     1.0000   1.0000   1.0000   1.0000   1.0000   1.0000   1.0000   1.0000
     1.0000   1.0000   1.0000   1.0000   1.0000

     highest occupied level (ev):    -0.7146

!    total energy              =   -1957.84166791 Ry

     total all-electron energy =    -69286.459229 Ry
     estimated scf accuracy    <          3.9E-09 Ry

     The total energy is the sum of the following terms:
     one-electron contribution =    -168.96810675 Ry
     hartree contribution      =     100.73468889 Ry
     xc contribution           =    -110.98439044 Ry
     ewald contribution        =    -111.75033168 Ry
     one-center paw contrib.   =   -1666.87352792 Ry
      -> PAW hartree energy AE =     109.65346999 Ry
      -> PAW hartree energy PS =    -108.90896934 Ry
      -> PAW xc energy AE      =    -329.04428687 Ry
      -> PAW xc energy PS      =      47.34717233 Ry
      -> total E_H with PAW    =     101.47918954 Ry
      -> total E_XC with PAW   =    -392.68150498 Ry

     convergence has been achieved in  11 iterations

     Forces acting on atoms (cartesian axes, Ry/au):

     atom    1 type  1   force =     0.00000000    0.00000000    0.00000000
     atom    2 type  2   force =     0.00008973   -0.00008973   -0.00008973
     atom    3 type  2   force =    -0.00008973    0.00008973   -0.00008973
     atom    4 type  2   force =    -0.00008973   -0.00008973    0.00008973
     atom    5 type  2   force =     0.00008973    0.00008973    0.00008973
     The non-local contrib.  to forces
     atom    1 type  1   force =     0.00000000    0.00000000    0.00000000
     atom    2 type  2   force =    -0.09070468    0.09070468    0.09070468
     atom    3 type  2   force =     0.09070468   -0.09070468    0.09070468
     atom    4 type  2   force =     0.09070468    0.09070468   -0.09070468
     atom    5 type  2   force =    -0.09070468   -0.09070468   -0.09070468
     The ionic contribution  to forces
     atom    1 type  1   force =    -0.00000000   -0.00000000   -0.00000000
     atom    2 type  2   force =     3.99213439   -3.99213439   -3.99213439
     atom    3 type  2   force =    -3.99213439    3.99213439   -3.99213439
     atom    4 type  2   force =    -3.99213439   -3.99213439    3.99213439
     atom    5 type  2   force =     3.99213439    3.99213439    3.99213439
     The local contribution  to forces
     atom    1 type  1   force =     0.00000000   -0.00000000   -0.00000000
     atom    2 type  2   force =    -3.91266334    3.91266334    3.91266334
     atom    3 type  2   force =     3.91266334   -3.91266334    3.91266334
     atom    4 type  2   force =     3.91266334    3.91266334   -3.91266334
     atom    5 type  2   force =    -3.91266334   -3.91266334   -3.91266334
     The core correction contribution to forces
     atom    1 type  1   force =     0.00000000    0.00000000    0.00000000
     atom    2 type  2   force =     0.01136127   -0.01136127   -0.01136127
     atom    3 type  2   force =    -0.01136127    0.01136127   -0.01136127
     atom    4 type  2   force =    -0.01136127   -0.01136127    0.01136127
     atom    5 type  2   force =     0.01136127    0.01136127    0.01136127
     The Hubbard contrib.    to forces
     atom    1 type  1   force =     0.00000000    0.00000000    0.00000000
     atom    2 type  2   force =     0.00000000    0.00000000    0.00000000
     atom    3 type  2   force =     0.00000000    0.00000000    0.00000000
     atom    4 type  2   force =     0.00000000    0.00000000    0.00000000
     atom    5 type  2   force =     0.00000000    0.00000000    0.00000000
     The SCF correction term to forces
     atom    1 type  1   force =     0.00000000    0.00000000    0.00000000
     atom    2 type  2   force =    -0.00003791    0.00003791    0.00003791
     atom    3 type  2   force =     0.00003791   -0.00003791    0.00003791
     atom    4 type  2   force =     0.00003791    0.00003791   -0.00003791
     atom    5 type  2   force =    -0.00003791   -0.00003791   -0.00003791

     Total force =     0.000311     Total SCF correction =     0.000131
     SCF correction compared to forces is large: reduce conv_thr to get better values


     Computing stress (Cartesian axis) and pressure

          total   stress  (Ry/bohr**3)                   (kbar)     P=        0.37
   0.00000251   0.00000000   0.00000000            0.37        0.00        0.00
   0.00000000   0.00000251   0.00000000            0.00        0.37        0.00
   0.00000000   0.00000000   0.00000251            0.00        0.00        0.37

     kinetic stress (kbar)   3661.22      0.00      0.00
                                0.00   3661.22      0.00
                                0.00      0.00   3661.22

     local   stress (kbar)  -2936.76     -0.00     -0.00
                               -0.00  -2936.76     -0.00
                               -0.00     -0.00  -2936.76

     nonloc. stress (kbar)    727.18      0.00      0.00
                                0.00    727.18      0.00
                                0.00      0.00    727.18

     hartree stress (kbar)   2239.70     -0.00     -0.00
                               -0.00   2239.70      0.00
                               -0.00      0.00   2239.70

     exc-cor stress (kbar)   3750.53      0.00      0.00
                                0.00   3750.53      0.00
                                0.00      0.00   3750.53

     corecor stress (kbar)  -4956.88      0.00     -0.00
                                0.00  -4956.88     -0.00
                               -0.00     -0.00  -4956.88

     ewald   stress (kbar)  -2484.62      0.00      0.00
                                0.00  -2484.62      0.00
                                0.00      0.00  -2484.62

     hubbard stress (kbar)      0.00      0.00      0.00
                                0.00      0.00      0.00
                                0.00      0.00      0.00

     DFT-D   stress (kbar)      0.00      0.00      0.00
                                0.00      0.00      0.00
                                0.00      0.00      0.00

     XDM     stress (kbar)      0.00      0.00      0.00
                                0.00      0.00      0.00
                                0.00      0.00      0.00

     dft-nl  stress (kbar)      0.00      0.00      0.00
                                0.00      0.00      0.00
                                0.00      0.00      0.00

     TS-vdW  stress (kbar)      0.00      0.00      0.00
                                0.00      0.00      0.00
                                0.00      0.00      0.00



     Writing output data file ./out/SnI4un.save/

     init_run     :      5.66s CPU      5.83s WALL (       2 calls)
     electrons    :    333.96s CPU    339.26s WALL (      18 calls)
     update_pot   :     40.95s CPU     41.06s WALL (      16 calls)
     forces       :     27.28s CPU     27.36s WALL (      18 calls)
     stress       :     77.33s CPU     77.52s WALL (      18 calls)

     Called by init_run:
     wfcinit      :      0.68s CPU      0.71s WALL (       2 calls)
     wfcinit:atom :      0.01s CPU      0.01s WALL (       8 calls)
     wfcinit:wfcr :      0.63s CPU      0.64s WALL (       8 calls)
     potinit      :      1.57s CPU      1.61s WALL (       2 calls)
     hinit0       :      2.82s CPU      2.83s WALL (       2 calls)

     Called by electrons:
     c_bands      :    201.92s CPU    205.46s WALL (     251 calls)
     sum_band     :     57.42s CPU     57.89s WALL (     251 calls)
     v_of_rho     :      8.64s CPU      8.70s WALL (     268 calls)
     v_h          :      0.59s CPU      0.60s WALL (     268 calls)
     v_xc         :      9.13s CPU      9.20s WALL (     304 calls)
     newd         :     29.47s CPU     29.58s WALL (     268 calls)
     PAW_pot      :     41.26s CPU     41.43s WALL (     284 calls)
     mix_rho      :      1.93s CPU      1.95s WALL (     251 calls)

     Called by c_bands:
     init_us_2    :      3.02s CPU      3.21s WALL (    2224 calls)
     cegterg      :    193.13s CPU    194.98s WALL (    1004 calls)

     Called by sum_band:
     sum_band:wei :      0.00s CPU      0.00s WALL (     251 calls)
     sum_band:loo :     28.64s CPU     28.97s WALL (     251 calls)
     sum_band:buf :      0.21s CPU      0.23s WALL (    1004 calls)
     sum_band:ini :      1.37s CPU      1.40s WALL (    1004 calls)
     sum_band:cal :      7.47s CPU      7.50s WALL (    1068 calls)
     sum_band:bec :      0.10s CPU      0.10s WALL (    1068 calls)
     addusdens    :     26.42s CPU     26.53s WALL (     251 calls)
     addusd:skk   :      0.12s CPU      0.12s WALL (     502 calls)
     addusd:dgemm :     10.01s CPU     10.06s WALL (     502 calls)
     addusd:qvan2 :     12.97s CPU     13.01s WALL (     502 calls)

     Called by *egterg:
     cdiaghg      :      3.34s CPU      3.37s WALL (    4197 calls)
     cegterg:over :     10.46s CPU     10.51s WALL (    3261 calls)
     cegterg:upda :      5.35s CPU      5.38s WALL (    3261 calls)
     cegterg:last :     12.76s CPU     12.80s WALL (    2200 calls)
     h_psi        :    139.51s CPU    141.09s WALL (    4273 calls)
     s_psi        :     16.87s CPU     16.98s WALL (    4273 calls)
     g_psi        :      0.48s CPU      0.49s WALL (    3261 calls)

     Called by h_psi:
     h_psi:calbec :     20.73s CPU     20.83s WALL (    4273 calls)
     vloc_psi     :    101.38s CPU    102.79s WALL (    4273 calls)
     add_vuspsi   :     16.94s CPU     17.01s WALL (    4273 calls)

     General routines
     calbec       :     30.65s CPU     30.79s WALL (    5701 calls)
     fft          :      7.53s CPU      7.59s WALL (    3415 calls)
     ffts         :      0.38s CPU      0.39s WALL (     251 calls)
     fftw         :    113.23s CPU    114.79s WALL (  136278 calls)

     Parallel routines
     fft_scatt_xy :      8.40s CPU      8.51s WALL (  139944 calls)
     fft_scatt_yz :     24.31s CPU     24.61s WALL (  139944 calls)

     PAW routines
     PAW_pot      :     41.26s CPU     41.43s WALL (     284 calls)
     PAW_symme    :      0.21s CPU      0.22s WALL (     535 calls)

     PWSCF        :   8m10.97s CPU   8m22.68s WALL


   This run was terminated on:  14:13:39  14Jan2021            

=------------------------------------------------------------------------------=
   JOB DONE.
=------------------------------------------------------------------------------=
