
     Program PWSCF v.6.7MaX starts on 31Jan2021 at 10:37: 3 

     This program is part of the open-source Quantum ESPRESSO suite
     for quantum simulation of materials; please cite
         "P. Giannozzi et al., J. Phys.:Condens. Matter 21 395502 (2009);
         "P. Giannozzi et al., J. Phys.:Condens. Matter 29 465901 (2017);
          URL http://www.quantum-espresso.org", 
     in publications or presentations arising from this work. More details at
     http://www.quantum-espresso.org/quote

     Parallel version (MPI & OpenMP), running on      96 processor cores
     Number of MPI processes:                48
     Threads/MPI process:                     2

     MPI processes distributed on     2 nodes
     R & G space division:  proc/nbgrp/npool/nimage =      48
     Waiting for input...
     Reading input from standard input

     Current dimensions of program PWSCF are:
     Max number of different atomic species (ntypx) = 10
     Max number of k-points (npk) =  40000
     Max angular momentum in pseudopotentials (lmaxx) =  3
     file Sn.rel-pbesol-dn-rrkjus_psl.1.0.0.UPF: wavefunction(s)  5S 4D 4D renormalized
     file I.rel-pbesol-n-rrkjus_psl.1.0.0.UPF: wavefunction(s)  5S renormalized

     Subspace diagonalization in iterative solution of the eigenvalue problem:
     a serial algorithm will be used


     Parallelization info
     --------------------
     sticks:   dense  smooth     PW     G-vecs:    dense   smooth      PW
     Min         189     151     40                13599     9733    1332
     Max         191     152     41                13602     9738    1335
     Sum        9093    7289   1933               652791   467329   63989


     Title: 
     SnI2                                                                       


     bravais-lattice index     =            1
     lattice parameter (alat)  =      14.4199  a.u.
     unit-cell volume          =    2998.4083 (a.u.)^3
     number of atoms/cell      =            6
     number of atomic types    =            2
     number of electrons       =        56.00
     number of Kohn-Sham states=           56
     kinetic-energy cutoff     =     110.0000  Ry
     charge density cutoff     =     550.0000  Ry
     scf convergence threshold =      1.0E-06
     mixing beta               =       0.3500
     number of iterations used =            8  plain     mixing
     Exchange-correlation= PBESOL
                           (   1   4  10   8   0   0   0)
     Non magnetic calculation with spin-orbit


     celldm(1)=  14.419944  celldm(2)=   0.000000  celldm(3)=   0.000000
     celldm(4)=   0.000000  celldm(5)=   0.000000  celldm(6)=   0.000000

     crystal axes: (cart. coord. in units of alat)
               a(1) = (   1.000000   0.000000   0.000000 )  
               a(2) = (   0.000000   1.000000   0.000000 )  
               a(3) = (   0.000000   0.000000   1.000000 )  

     reciprocal axes: (cart. coord. in units 2 pi/alat)
               b(1) = (  1.000000  0.000000  0.000000 )  
               b(2) = (  0.000000  1.000000  0.000000 )  
               b(3) = (  0.000000  0.000000  1.000000 )  


     PseudoPot. # 1 for Sn read from file:
     /scratch/cmalosso/degironcoli/pseudo/pseudo-usp/Sn.rel-pbesol-dn-rrkjus_psl.1.0.0.UPF
     MD5 check sum: c1cf6ea56b96a3656bdf0d1db379e093
     Pseudo is Ultrasoft + core correction, Zval = 14.0
     Generated using &quot;atomic&quot; code by A. Dal Corso  v.6.3
     Using radial grid of 1243 points, 10 beta functions with: 
                l(1) =   0
                l(2) =   0
                l(3) =   1
                l(4) =   1
                l(5) =   1
                l(6) =   1
                l(7) =   2
                l(8) =   2
                l(9) =   2
               l(10) =   2
     Q(r) pseudized with 0 coefficients 


     PseudoPot. # 2 for I  read from file:
     /scratch/cmalosso/degironcoli/pseudo/pseudo-usp/I.rel-pbesol-n-rrkjus_psl.1.0.0.UPF
     MD5 check sum: 0f96c6bfb1b448f280658f96eb466b08
     Pseudo is Ultrasoft + core correction, Zval =  7.0
     Generated using &quot;atomic&quot; code by A. Dal Corso  v.6.3
     Using radial grid of 1247 points, 10 beta functions with: 
                l(1) =   0
                l(2) =   0
                l(3) =   1
                l(4) =   1
                l(5) =   1
                l(6) =   1
                l(7) =   2
                l(8) =   2
                l(9) =   2
               l(10) =   2
     Q(r) pseudized with 0 coefficients 


     atomic species   valence    mass     pseudopotential
        Sn            14.00   118.70000     Sn( 1.00)
        I              7.00   126.90000     I ( 1.00)

     16 Sym. Ops., with inversion, found ( 8 have fractional translation)


                                    s                        frac. trans.

      isym =  1     identity                                     

 cryst.   s( 1) = (     1          0          0      )
                  (     0          1          0      )
                  (     0          0          1      )

 cart.    s( 1) = (  1.0000000  0.0000000  0.0000000 )
                  (  0.0000000  1.0000000  0.0000000 )
                  (  0.0000000  0.0000000  1.0000000 )


      isym =  2     180 deg rotation - cart. axis [0,0,1]        

 cryst.   s( 2) = (    -1          0          0      )
                  (     0         -1          0      )
                  (     0          0          1      )

 cart.    s( 2) = ( -1.0000000  0.0000000  0.0000000 )
                  (  0.0000000 -1.0000000  0.0000000 )
                  (  0.0000000  0.0000000  1.0000000 )


      isym =  3     180 deg rotation - cart. axis [0,1,0]        

 cryst.   s( 3) = (    -1          0          0      )    f =(  0.5000000 )
                  (     0          1          0      )       ( -0.5000000 )
                  (     0          0         -1      )       (  0.5000000 )

 cart.    s( 3) = ( -1.0000000  0.0000000  0.0000000 )    f =(  0.5000000 )
                  (  0.0000000  1.0000000  0.0000000 )       ( -0.5000000 )
                  (  0.0000000  0.0000000 -1.0000000 )       (  0.5000000 )


      isym =  4     180 deg rotation - cart. axis [1,0,0]        

 cryst.   s( 4) = (     1          0          0      )    f =( -0.5000000 )
                  (     0         -1          0      )       (  0.5000000 )
                  (     0          0         -1      )       (  0.5000000 )

 cart.    s( 4) = (  1.0000000  0.0000000  0.0000000 )    f =( -0.5000000 )
                  (  0.0000000 -1.0000000  0.0000000 )       (  0.5000000 )
                  (  0.0000000  0.0000000 -1.0000000 )       (  0.5000000 )


      isym =  5     180 deg rotation - cart. axis [1,1,0]        

 cryst.   s( 5) = (     0          1          0      )
                  (     1          0          0      )
                  (     0          0         -1      )

 cart.    s( 5) = (  0.0000000  1.0000000  0.0000000 )
                  (  1.0000000  0.0000000  0.0000000 )
                  (  0.0000000  0.0000000 -1.0000000 )


      isym =  6     180 deg rotation - cart. axis [1,-1,0]       

 cryst.   s( 6) = (     0         -1          0      )
                  (    -1          0          0      )
                  (     0          0         -1      )

 cart.    s( 6) = (  0.0000000 -1.0000000  0.0000000 )
                  ( -1.0000000  0.0000000  0.0000000 )
                  (  0.0000000  0.0000000 -1.0000000 )


      isym =  7      90 deg rotation - cart. axis [0,0,-1]       

 cryst.   s( 7) = (     0         -1          0      )    f =( -0.5000000 )
                  (     1          0          0      )       (  0.5000000 )
                  (     0          0          1      )       ( -0.5000000 )

 cart.    s( 7) = (  0.0000000  1.0000000  0.0000000 )    f =( -0.5000000 )
                  ( -1.0000000  0.0000000  0.0000000 )       (  0.5000000 )
                  (  0.0000000  0.0000000  1.0000000 )       ( -0.5000000 )


      isym =  8      90 deg rotation - cart. axis [0,0,1]        

 cryst.   s( 8) = (     0          1          0      )    f =(  0.5000000 )
                  (    -1          0          0      )       ( -0.5000000 )
                  (     0          0          1      )       ( -0.5000000 )

 cart.    s( 8) = (  0.0000000 -1.0000000  0.0000000 )    f =(  0.5000000 )
                  (  1.0000000  0.0000000  0.0000000 )       ( -0.5000000 )
                  (  0.0000000  0.0000000  1.0000000 )       ( -0.5000000 )


      isym =  9     inversion                                    

 cryst.   s( 9) = (    -1          0          0      )
                  (     0         -1          0      )
                  (     0          0         -1      )

 cart.    s( 9) = ( -1.0000000  0.0000000  0.0000000 )
                  (  0.0000000 -1.0000000  0.0000000 )
                  (  0.0000000  0.0000000 -1.0000000 )


      isym = 10     inv. 180 deg rotation - cart. axis [0,0,1]   

 cryst.   s(10) = (     1          0          0      )
                  (     0          1          0      )
                  (     0          0         -1      )

 cart.    s(10) = (  1.0000000  0.0000000  0.0000000 )
                  (  0.0000000  1.0000000  0.0000000 )
                  (  0.0000000  0.0000000 -1.0000000 )


      isym = 11     inv. 180 deg rotation - cart. axis [0,1,0]   

 cryst.   s(11) = (     1          0          0      )    f =( -0.5000000 )
                  (     0         -1          0      )       (  0.5000000 )
                  (     0          0          1      )       ( -0.5000000 )

 cart.    s(11) = (  1.0000000  0.0000000  0.0000000 )    f =( -0.5000000 )
                  (  0.0000000 -1.0000000  0.0000000 )       (  0.5000000 )
                  (  0.0000000  0.0000000  1.0000000 )       ( -0.5000000 )


      isym = 12     inv. 180 deg rotation - cart. axis [1,0,0]   

 cryst.   s(12) = (    -1          0          0      )    f =(  0.5000000 )
                  (     0          1          0      )       ( -0.5000000 )
                  (     0          0          1      )       ( -0.5000000 )

 cart.    s(12) = ( -1.0000000  0.0000000  0.0000000 )    f =(  0.5000000 )
                  (  0.0000000  1.0000000  0.0000000 )       ( -0.5000000 )
                  (  0.0000000  0.0000000  1.0000000 )       ( -0.5000000 )


      isym = 13     inv. 180 deg rotation - cart. axis [1,1,0]   

 cryst.   s(13) = (     0         -1          0      )
                  (    -1          0          0      )
                  (     0          0          1      )

 cart.    s(13) = (  0.0000000 -1.0000000  0.0000000 )
                  ( -1.0000000  0.0000000  0.0000000 )
                  (  0.0000000  0.0000000  1.0000000 )


      isym = 14     inv. 180 deg rotation - cart. axis [1,-1,0]  

 cryst.   s(14) = (     0          1          0      )
                  (     1          0          0      )
                  (     0          0          1      )

 cart.    s(14) = (  0.0000000  1.0000000  0.0000000 )
                  (  1.0000000  0.0000000  0.0000000 )
                  (  0.0000000  0.0000000  1.0000000 )


      isym = 15     inv.  90 deg rotation - cart. axis [0,0,-1]  

 cryst.   s(15) = (     0          1          0      )    f =(  0.5000000 )
                  (    -1          0          0      )       ( -0.5000000 )
                  (     0          0         -1      )       (  0.5000000 )

 cart.    s(15) = (  0.0000000 -1.0000000  0.0000000 )    f =(  0.5000000 )
                  (  1.0000000  0.0000000  0.0000000 )       ( -0.5000000 )
                  (  0.0000000  0.0000000 -1.0000000 )       (  0.5000000 )


      isym = 16     inv.  90 deg rotation - cart. axis [0,0,1]   

 cryst.   s(16) = (     0         -1          0      )    f =( -0.5000000 )
                  (     1          0          0      )       (  0.5000000 )
                  (     0          0         -1      )       (  0.5000000 )

 cart.    s(16) = (  0.0000000  1.0000000  0.0000000 )    f =( -0.5000000 )
                  ( -1.0000000  0.0000000  0.0000000 )       (  0.5000000 )
                  (  0.0000000  0.0000000 -1.0000000 )       (  0.5000000 )


     double point group D_4h(4/mmm)
     there are 14 classes and  4 irreducible representations
     the character table:

       E     -E    2C4   -2C4   C2    2C2' 2C2'' i     -i    2S4   -2S4   s_h 
                               -C2   -2C2' -2C2'                         -s_h 
G_6+   2.00 -2.00  1.41 -1.41  0.00  0.00  0.00  2.00 -2.00  1.41 -1.41  0.00
G_7+   2.00 -2.00 -1.41  1.41  0.00  0.00  0.00  2.00 -2.00 -1.41  1.41  0.00
G_6-   2.00 -2.00  1.41 -1.41  0.00  0.00  0.00 -2.00  2.00 -1.41  1.41  0.00
G_7-   2.00 -2.00 -1.41  1.41  0.00  0.00  0.00 -2.00  2.00  1.41 -1.41  0.00

        2s_v  2s_d
       -2s_v -2s_d
G_6+   0.00  0.00
G_7+   0.00  0.00
G_6-   0.00  0.00
G_7-   0.00  0.00

     the symmetry operations in each class and the name of the first element:

     E             1
          identity                                               
     -E           -1
          identity E                                             
     2C4           7    8
           90 deg rotation - cart. axis [0,0,-1]                 
     -2C4         -7   -8
           90 deg rotation - cart. axis [0,0,-1] E               
      C2  -C2      2   -2
          180 deg rotation - cart. axis [0,0,1]                  
      2C2'-2C2'    3   -3    4   -4
          180 deg rotation - cart. axis [0,1,0]                  
     2C2''-2C2'    5   -5   -6    6
          180 deg rotation - cart. axis [1,1,0]                  
     i             9
          inversion                                              
     -i           -9
          inversion E                                            
     2S4          15   16
          inv.  90 deg rotation - cart. axis [0,0,-1]            
     -2S4        -15  -16
          inv.  90 deg rotation - cart. axis [0,0,-1] E          
      s_h -s_h    10  -10
          inv. 180 deg rotation - cart. axis [0,0,1]             
      2s_v-2s_v   11  -11   12  -12
          inv. 180 deg rotation - cart. axis [0,1,0]             
      2s_d-2s_d   13  -13  -14   14
          inv. 180 deg rotation - cart. axis [1,1,0]             

   Cartesian axes

     site n.     atom                  positions (alat units)
         1           Sn  tau(   1) = (   0.0000000   0.0000000   0.0000000  )
         2           Sn  tau(   2) = (   0.5000000   0.5000000   0.5000000  )
         3           I   tau(   3) = (   0.2985210   0.2985210   0.0000000  )
         4           I   tau(   4) = (   0.7014790   0.7014790   0.0000000  )
         5           I   tau(   5) = (   0.7985210   0.2014790   0.5000000  )
         6           I   tau(   6) = (   0.2014790   0.7985210   0.5000000  )

   Crystallographic axes

     site n.     atom                  positions (cryst. coord.)
         1           Sn  tau(   1) = (  0.0000000  0.0000000  0.0000000  )
         2           Sn  tau(   2) = (  0.5000000  0.5000000  0.5000000  )
         3           I   tau(   3) = (  0.2985210  0.2985210  0.0000000  )
         4           I   tau(   4) = (  0.7014790  0.7014790  0.0000000  )
         5           I   tau(   5) = (  0.7985210  0.2014790  0.5000000  )
         6           I   tau(   6) = (  0.2014790  0.7985210  0.5000000  )

     number of k points=    18
                       cart. coord. in units 2pi/alat
        k(    1) = (   0.0833333   0.0833333   0.0833333), wk =   0.0370370
        k(    2) = (   0.0833333   0.0833333   0.2500000), wk =   0.0370370
        k(    3) = (   0.0833333   0.0833333   0.4166667), wk =   0.0370370
        k(    4) = (   0.0833333   0.2500000   0.2500000), wk =   0.0740741
        k(    5) = (   0.0833333   0.2500000   0.4166667), wk =   0.0740741
        k(    6) = (   0.0833333   0.4166667   0.4166667), wk =   0.0740741
        k(    7) = (   0.2500000   0.2500000   0.2500000), wk =   0.0370370
        k(    8) = (   0.2500000   0.2500000   0.4166667), wk =   0.0370370
        k(    9) = (   0.2500000   0.4166667   0.4166667), wk =   0.0740741
        k(   10) = (   0.4166667   0.4166667   0.4166667), wk =   0.0370370
        k(   11) = (   0.0833333   0.2500000   0.0833333), wk =   0.0740741
        k(   12) = (   0.0833333   0.4166667   0.0833333), wk =   0.0740741
        k(   13) = (   0.2500000   0.2500000   0.0833333), wk =   0.0370370
        k(   14) = (   0.2500000   0.4166667   0.0833333), wk =   0.0740741
        k(   15) = (   0.4166667   0.0833333   0.2500000), wk =   0.0740741
        k(   16) = (   0.4166667   0.4166667   0.0833333), wk =   0.0370370
        k(   17) = (   0.2500000   0.4166667   0.2500000), wk =   0.0740741
        k(   18) = (   0.4166667   0.4166667   0.2500000), wk =   0.0370370

                       cryst. coord.
        k(    1) = (   0.0833333   0.0833333   0.0833333), wk =   0.0370370
        k(    2) = (   0.0833333   0.0833333   0.2500000), wk =   0.0370370
        k(    3) = (   0.0833333   0.0833333   0.4166667), wk =   0.0370370
        k(    4) = (   0.0833333   0.2500000   0.2500000), wk =   0.0740741
        k(    5) = (   0.0833333   0.2500000   0.4166667), wk =   0.0740741
        k(    6) = (   0.0833333   0.4166667   0.4166667), wk =   0.0740741
        k(    7) = (   0.2500000   0.2500000   0.2500000), wk =   0.0370370
        k(    8) = (   0.2500000   0.2500000   0.4166667), wk =   0.0370370
        k(    9) = (   0.2500000   0.4166667   0.4166667), wk =   0.0740741
        k(   10) = (   0.4166667   0.4166667   0.4166667), wk =   0.0370370
        k(   11) = (   0.0833333   0.2500000   0.0833333), wk =   0.0740741
        k(   12) = (   0.0833333   0.4166667   0.0833333), wk =   0.0740741
        k(   13) = (   0.2500000   0.2500000   0.0833333), wk =   0.0370370
        k(   14) = (   0.2500000   0.4166667   0.0833333), wk =   0.0740741
        k(   15) = (   0.4166667   0.0833333   0.2500000), wk =   0.0740741
        k(   16) = (   0.4166667   0.4166667   0.0833333), wk =   0.0370370
        k(   17) = (   0.2500000   0.4166667   0.2500000), wk =   0.0740741
        k(   18) = (   0.4166667   0.4166667   0.2500000), wk =   0.0370370

     Dense  grid:   652791 G-vectors     FFT dimensions: ( 108, 108, 108)

     Smooth grid:   467329 G-vectors     FFT dimensions: ( 100, 100, 100)

     Dynamical RAM for                 wfc:       2.08 MB

     Dynamical RAM for     wfc (w. buffer):      39.52 MB

     Dynamical RAM for           str. fact:       0.42 MB

     Dynamical RAM for           local pot:       0.00 MB

     Dynamical RAM for          nlocal pot:       3.79 MB

     Dynamical RAM for                qrad:       9.86 MB

     Dynamical RAM for          rho,v,vnew:       5.69 MB

     Dynamical RAM for               rhoin:       1.90 MB

     Dynamical RAM for            rho*nmix:      13.28 MB

     Dynamical RAM for           G-vectors:       0.85 MB

     Dynamical RAM for          h,s,v(r/c):       0.57 MB

     Dynamical RAM for          <psi|beta>:       0.35 MB

     Dynamical RAM for                 psi:       4.16 MB

     Dynamical RAM for                hpsi:       4.16 MB

     Dynamical RAM for                spsi:       4.16 MB

     Dynamical RAM for      wfcinit/wfcrot:       3.89 MB

     Dynamical RAM for           addusdens:     127.41 MB

     Dynamical RAM for          addusforce:     128.81 MB

     Dynamical RAM for         addusstress:     130.31 MB

     Estimated static dynamical RAM per process >      78.06 MB

     Estimated max dynamical RAM per process >     208.37 MB

     Estimated total dynamical RAM >       9.77 GB

     Initial potential from superposition of free atoms

     starting charge   55.99772, renormalised to   56.00000
     Starting wfcs are   68 randomized atomic wfcs

     total cpu time spent up to now is        9.5 secs

     Self-consistent Calculation

     iteration #  1     ecut=   110.00 Ry     beta= 0.35
     Davidson diagonalization with overlap
     ethr =  1.00E-02,  avg # of iterations =  1.0

     total cpu time spent up to now is       25.4 secs

     total energy              =    -458.30166589 Ry
     estimated scf accuracy    <       0.58923582 Ry

     iteration #  2     ecut=   110.00 Ry     beta= 0.35
     Davidson diagonalization with overlap
     ethr =  1.05E-03,  avg # of iterations =  3.0

     total cpu time spent up to now is       45.1 secs

     total energy              =    -458.37946214 Ry
     estimated scf accuracy    <       0.06205655 Ry

     iteration #  3     ecut=   110.00 Ry     beta= 0.35
     Davidson diagonalization with overlap
     ethr =  1.11E-04,  avg # of iterations =  5.3

     total cpu time spent up to now is       69.7 secs

     total energy              =    -458.39289714 Ry
     estimated scf accuracy    <       0.04739104 Ry

     iteration #  4     ecut=   110.00 Ry     beta= 0.35
     Davidson diagonalization with overlap
     ethr =  8.46E-05,  avg # of iterations =  5.1

     total cpu time spent up to now is       93.3 secs

     total energy              =    -458.40352825 Ry
     estimated scf accuracy    <       0.03319339 Ry

     iteration #  5     ecut=   110.00 Ry     beta= 0.35
     Davidson diagonalization with overlap
     ethr =  5.93E-05,  avg # of iterations =  4.5

     total cpu time spent up to now is      113.2 secs

     total energy              =    -458.40971136 Ry
     estimated scf accuracy    <       0.00084018 Ry

     iteration #  6     ecut=   110.00 Ry     beta= 0.35
     Davidson diagonalization with overlap
     ethr =  1.50E-06,  avg # of iterations = 10.0

     total cpu time spent up to now is      145.7 secs

     total energy              =    -458.40821427 Ry
     estimated scf accuracy    <       0.00841801 Ry

     iteration #  7     ecut=   110.00 Ry     beta= 0.35
     Davidson diagonalization with overlap
     ethr =  1.50E-06,  avg # of iterations =  7.1

     total cpu time spent up to now is      173.9 secs

     total energy              =    -458.41037641 Ry
     estimated scf accuracy    <       0.00079007 Ry

     iteration #  8     ecut=   110.00 Ry     beta= 0.35
     Davidson diagonalization with overlap
     ethr =  1.41E-06,  avg # of iterations =  2.3

     total cpu time spent up to now is      192.4 secs

     total energy              =    -458.41042352 Ry
     estimated scf accuracy    <       0.00011147 Ry

     iteration #  9     ecut=   110.00 Ry     beta= 0.35
     Davidson diagonalization with overlap
     ethr =  1.99E-07,  avg # of iterations =  5.1

     total cpu time spent up to now is      216.2 secs

     total energy              =    -458.41047190 Ry
     estimated scf accuracy    <       0.00000178 Ry

     iteration # 10     ecut=   110.00 Ry     beta= 0.35
     Davidson diagonalization with overlap
     ethr =  3.19E-09,  avg # of iterations =  9.4

     total cpu time spent up to now is      246.8 secs

     total energy              =    -458.41047281 Ry
     estimated scf accuracy    <       0.00001181 Ry

     iteration # 11     ecut=   110.00 Ry     beta= 0.35
     Davidson diagonalization with overlap
     ethr =  3.19E-09,  avg # of iterations =  4.3

     total cpu time spent up to now is      267.2 secs

     total energy              =    -458.41047192 Ry
     estimated scf accuracy    <       0.00000384 Ry

     iteration # 12     ecut=   110.00 Ry     beta= 0.35
     Davidson diagonalization with overlap
     ethr =  3.19E-09,  avg # of iterations =  5.1

     total cpu time spent up to now is      289.6 secs

     End of self-consistent calculation

          k = 0.0833 0.0833 0.0833 ( 58320 PWs)   bands (ev):

   -23.2613 -23.2613 -23.2613 -23.2613 -23.1364 -23.1364 -23.1363 -23.1363
   -22.2409 -22.2409 -22.2409 -22.2409 -22.1320 -22.1320 -22.1320 -22.1320
   -22.0811 -22.0811 -22.0811 -22.0811 -11.6214 -11.6214 -11.5307 -11.5307
   -11.4810 -11.4810 -11.4767 -11.4767  -7.0746  -7.0746  -6.8751  -6.8751
    -2.6883  -2.6883  -2.5267  -2.5267  -2.1404  -2.1404  -2.0292  -2.0292
    -1.8817  -1.8817  -1.5298  -1.5298  -1.2264  -1.2264  -1.1332  -1.1332
    -1.1083  -1.1083  -0.9959  -0.9959  -0.9242  -0.9242  -0.8837  -0.8837

     occupation numbers 
     1.0000   1.0000   1.0000   1.0000   1.0000   1.0000   1.0000   1.0000
     1.0000   1.0000   1.0000   1.0000   1.0000   1.0000   1.0000   1.0000
     1.0000   1.0000   1.0000   1.0000   1.0000   1.0000   1.0000   1.0000
     1.0000   1.0000   1.0000   1.0000   1.0000   1.0000   1.0000   1.0000
     1.0000   1.0000   1.0000   1.0000   1.0000   1.0000   1.0000   1.0000
     1.0000   1.0000   1.0000   1.0000   1.0000   1.0000   1.0000   1.0000
     1.0000   1.0000   1.0000   1.0000   1.0000   1.0000   1.0000   1.0000

          k = 0.0833 0.0833 0.2500 ( 58377 PWs)   bands (ev):

   -23.2613 -23.2613 -23.2613 -23.2613 -23.1364 -23.1364 -23.1363 -23.1363
   -22.2409 -22.2409 -22.2409 -22.2409 -22.1320 -22.1320 -22.1320 -22.1320
   -22.0811 -22.0811 -22.0811 -22.0811 -11.6090 -11.6090 -11.5425 -11.5425
   -11.4810 -11.4810 -11.4766 -11.4766  -7.0545  -7.0545  -6.9088  -6.9088
    -2.6756  -2.6756  -2.5240  -2.5240  -2.1289  -2.1289  -2.0076  -2.0076
    -1.8561  -1.8561  -1.5543  -1.5543  -1.2242  -1.2242  -1.1743  -1.1743
    -1.1317  -1.1317  -1.0238  -1.0238  -0.9345  -0.9345  -0.8971  -0.8971

     occupation numbers 
     1.0000   1.0000   1.0000   1.0000   1.0000   1.0000   1.0000   1.0000
     1.0000   1.0000   1.0000   1.0000   1.0000   1.0000   1.0000   1.0000
     1.0000   1.0000   1.0000   1.0000   1.0000   1.0000   1.0000   1.0000
     1.0000   1.0000   1.0000   1.0000   1.0000   1.0000   1.0000   1.0000
     1.0000   1.0000   1.0000   1.0000   1.0000   1.0000   1.0000   1.0000
     1.0000   1.0000   1.0000   1.0000   1.0000   1.0000   1.0000   1.0000
     1.0000   1.0000   1.0000   1.0000   1.0000   1.0000   1.0000   1.0000

          k = 0.0833 0.0833 0.4167 ( 58398 PWs)   bands (ev):

   -23.2613 -23.2613 -23.2613 -23.2613 -23.1363 -23.1363 -23.1363 -23.1363
   -22.2409 -22.2409 -22.2409 -22.2409 -22.1320 -22.1320 -22.1320 -22.1320
   -22.0811 -22.0811 -22.0811 -22.0811 -11.5878 -11.5878 -11.5631 -11.5631
   -11.4809 -11.4809 -11.4764 -11.4764  -7.0152  -7.0152  -6.9617  -6.9617
    -2.6634  -2.6634  -2.5199  -2.5199  -2.1277  -2.1277  -1.9902  -1.9902
    -1.7897  -1.7897  -1.6112  -1.6112  -1.2230  -1.2230  -1.2031  -1.2031
    -1.1354  -1.1354  -1.0586  -1.0586  -0.9615  -0.9615  -0.9112  -0.9112

     occupation numbers 
     1.0000   1.0000   1.0000   1.0000   1.0000   1.0000   1.0000   1.0000
     1.0000   1.0000   1.0000   1.0000   1.0000   1.0000   1.0000   1.0000
     1.0000   1.0000   1.0000   1.0000   1.0000   1.0000   1.0000   1.0000
     1.0000   1.0000   1.0000   1.0000   1.0000   1.0000   1.0000   1.0000
     1.0000   1.0000   1.0000   1.0000   1.0000   1.0000   1.0000   1.0000
     1.0000   1.0000   1.0000   1.0000   1.0000   1.0000   1.0000   1.0000
     1.0000   1.0000   1.0000   1.0000   1.0000   1.0000   1.0000   1.0000

          k = 0.0833 0.2500 0.2500 ( 58428 PWs)   bands (ev):

   -23.2613 -23.2613 -23.2613 -23.2613 -23.1364 -23.1364 -23.1363 -23.1363
   -22.2409 -22.2409 -22.2409 -22.2409 -22.1320 -22.1320 -22.1320 -22.1320
   -22.0811 -22.0811 -22.0811 -22.0811 -11.5940 -11.5940 -11.5377 -11.5377
   -11.4955 -11.4955 -11.4826 -11.4826  -7.0314  -7.0314  -6.9241  -6.9241
    -2.8229  -2.8229  -2.6488  -2.6488  -2.0989  -2.0989  -1.9414  -1.9414
    -1.8141  -1.8141  -1.5762  -1.5762  -1.2496  -1.2496  -1.1820  -1.1820
    -1.0524  -1.0524  -0.9638  -0.9638  -0.8990  -0.8990  -0.7151  -0.7151

     occupation numbers 
     1.0000   1.0000   1.0000   1.0000   1.0000   1.0000   1.0000   1.0000
     1.0000   1.0000   1.0000   1.0000   1.0000   1.0000   1.0000   1.0000
     1.0000   1.0000   1.0000   1.0000   1.0000   1.0000   1.0000   1.0000
     1.0000   1.0000   1.0000   1.0000   1.0000   1.0000   1.0000   1.0000
     1.0000   1.0000   1.0000   1.0000   1.0000   1.0000   1.0000   1.0000
     1.0000   1.0000   1.0000   1.0000   1.0000   1.0000   1.0000   1.0000
     1.0000   1.0000   1.0000   1.0000   1.0000   1.0000   1.0000   1.0000

          k = 0.0833 0.2500 0.4167 ( 58419 PWs)   bands (ev):

   -23.2613 -23.2613 -23.2613 -23.2613 -23.1363 -23.1363 -23.1363 -23.1363
   -22.2409 -22.2409 -22.2409 -22.2409 -22.1320 -22.1320 -22.1320 -22.1320
   -22.0811 -22.0811 -22.0811 -22.0811 -11.5765 -11.5765 -11.5534 -11.5534
   -11.4954 -11.4954 -11.4836 -11.4836  -7.0046  -7.0046  -6.9639  -6.9639
    -2.8354  -2.8354  -2.6527  -2.6527  -2.0650  -2.0650  -1.8869  -1.8869
    -1.8346  -1.8346  -1.5843  -1.5843  -1.2566  -1.2566  -1.1778  -1.1778
    -1.0678  -1.0678  -0.9798  -0.9798  -0.8923  -0.8923  -0.7144  -0.7144

     occupation numbers 
     1.0000   1.0000   1.0000   1.0000   1.0000   1.0000   1.0000   1.0000
     1.0000   1.0000   1.0000   1.0000   1.0000   1.0000   1.0000   1.0000
     1.0000   1.0000   1.0000   1.0000   1.0000   1.0000   1.0000   1.0000
     1.0000   1.0000   1.0000   1.0000   1.0000   1.0000   1.0000   1.0000
     1.0000   1.0000   1.0000   1.0000   1.0000   1.0000   1.0000   1.0000
     1.0000   1.0000   1.0000   1.0000   1.0000   1.0000   1.0000   1.0000
     1.0000   1.0000   1.0000   1.0000   1.0000   1.0000   1.0000   1.0000

          k = 0.0833 0.4167 0.4167 ( 58453 PWs)   bands (ev):

   -23.2613 -23.2613 -23.2613 -23.2613 -23.1363 -23.1363 -23.1363 -23.1363
   -22.2409 -22.2409 -22.2409 -22.2409 -22.1320 -22.1320 -22.1320 -22.1320
   -22.0811 -22.0811 -22.0811 -22.0811 -11.5577 -11.5577 -11.5444 -11.5444
   -11.5085 -11.5085 -11.4989 -11.4989  -6.9883  -6.9883  -6.9718  -6.9718
    -2.9027  -2.9027  -2.8258  -2.8258  -2.0198  -2.0198  -1.9099  -1.9099
    -1.7858  -1.7858  -1.5862  -1.5862  -1.2440  -1.2440  -1.1975  -1.1975
    -0.9684  -0.9684  -0.9351  -0.9351  -0.7182  -0.7182  -0.5753  -0.5753

     occupation numbers 
     1.0000   1.0000   1.0000   1.0000   1.0000   1.0000   1.0000   1.0000
     1.0000   1.0000   1.0000   1.0000   1.0000   1.0000   1.0000   1.0000
     1.0000   1.0000   1.0000   1.0000   1.0000   1.0000   1.0000   1.0000
     1.0000   1.0000   1.0000   1.0000   1.0000   1.0000   1.0000   1.0000
     1.0000   1.0000   1.0000   1.0000   1.0000   1.0000   1.0000   1.0000
     1.0000   1.0000   1.0000   1.0000   1.0000   1.0000   1.0000   1.0000
     1.0000   1.0000   1.0000   1.0000   1.0000   1.0000   1.0000   1.0000

          k = 0.2500 0.2500 0.2500 ( 58381 PWs)   bands (ev):

   -23.2613 -23.2613 -23.2613 -23.2613 -23.1363 -23.1363 -23.1363 -23.1363
   -22.2409 -22.2409 -22.2409 -22.2409 -22.1320 -22.1320 -22.1320 -22.1320
   -22.0811 -22.0811 -22.0811 -22.0811 -11.5855 -11.5855 -11.5376 -11.5376
   -11.5047 -11.5047 -11.4815 -11.4815  -7.0214  -7.0214  -6.9408  -6.9408
    -2.8812  -2.8812  -2.5359  -2.5359  -2.0962  -2.0962  -1.9271  -1.9271
    -1.8729  -1.8729  -1.6038  -1.6038  -1.2958  -1.2958  -1.2283  -1.2283
    -1.1216  -1.1216  -0.9334  -0.9334  -0.8783  -0.8783  -0.5885  -0.5885

     occupation numbers 
     1.0000   1.0000   1.0000   1.0000   1.0000   1.0000   1.0000   1.0000
     1.0000   1.0000   1.0000   1.0000   1.0000   1.0000   1.0000   1.0000
     1.0000   1.0000   1.0000   1.0000   1.0000   1.0000   1.0000   1.0000
     1.0000   1.0000   1.0000   1.0000   1.0000   1.0000   1.0000   1.0000
     1.0000   1.0000   1.0000   1.0000   1.0000   1.0000   1.0000   1.0000
     1.0000   1.0000   1.0000   1.0000   1.0000   1.0000   1.0000   1.0000
     1.0000   1.0000   1.0000   1.0000   1.0000   1.0000   1.0000   1.0000

          k = 0.2500 0.2500 0.4167 ( 58442 PWs)   bands (ev):

   -23.2613 -23.2613 -23.2613 -23.2613 -23.1363 -23.1363 -23.1363 -23.1363
   -22.2409 -22.2409 -22.2409 -22.2409 -22.1320 -22.1320 -22.1320 -22.1320
   -22.0811 -22.0811 -22.0811 -22.0811 -11.5743 -11.5743 -11.5448 -11.5448
   -11.5078 -11.5078 -11.4813 -11.4813  -7.0055  -7.0055  -6.9700  -6.9700
    -2.8990  -2.8990  -2.5213  -2.5213  -2.1170  -2.1170  -1.8877  -1.8877
    -1.8737  -1.8737  -1.5833  -1.5833  -1.3082  -1.3082  -1.2065  -1.2065
    -1.1210  -1.1210  -0.9277  -0.9277  -0.8680  -0.8680  -0.5780  -0.5780

     occupation numbers 
     1.0000   1.0000   1.0000   1.0000   1.0000   1.0000   1.0000   1.0000
     1.0000   1.0000   1.0000   1.0000   1.0000   1.0000   1.0000   1.0000
     1.0000   1.0000   1.0000   1.0000   1.0000   1.0000   1.0000   1.0000
     1.0000   1.0000   1.0000   1.0000   1.0000   1.0000   1.0000   1.0000
     1.0000   1.0000   1.0000   1.0000   1.0000   1.0000   1.0000   1.0000
     1.0000   1.0000   1.0000   1.0000   1.0000   1.0000   1.0000   1.0000
     1.0000   1.0000   1.0000   1.0000   1.0000   1.0000   1.0000   1.0000

          k = 0.2500 0.4167 0.4167 ( 58427 PWs)   bands (ev):

   -23.2613 -23.2613 -23.2613 -23.2613 -23.1363 -23.1363 -23.1363 -23.1363
   -22.2409 -22.2409 -22.2409 -22.2409 -22.1320 -22.1320 -22.1320 -22.1320
   -22.0811 -22.0811 -22.0811 -22.0811 -11.5647 -11.5647 -11.5504 -11.5504
   -11.5031 -11.5031 -11.4892 -11.4892  -6.9990  -6.9990  -6.9836  -6.9836
    -2.8245  -2.8245  -2.6478  -2.6478  -2.0798  -2.0798  -1.9404  -1.9404
    -1.8230  -1.8230  -1.5892  -1.5892  -1.2926  -1.2926  -1.2359  -1.2359
    -1.0296  -1.0296  -0.8981  -0.8981  -0.8319  -0.8319  -0.7220  -0.7220

     occupation numbers 
     1.0000   1.0000   1.0000   1.0000   1.0000   1.0000   1.0000   1.0000
     1.0000   1.0000   1.0000   1.0000   1.0000   1.0000   1.0000   1.0000
     1.0000   1.0000   1.0000   1.0000   1.0000   1.0000   1.0000   1.0000
     1.0000   1.0000   1.0000   1.0000   1.0000   1.0000   1.0000   1.0000
     1.0000   1.0000   1.0000   1.0000   1.0000   1.0000   1.0000   1.0000
     1.0000   1.0000   1.0000   1.0000   1.0000   1.0000   1.0000   1.0000
     1.0000   1.0000   1.0000   1.0000   1.0000   1.0000   1.0000   1.0000

          k = 0.4167 0.4167 0.4167 ( 58402 PWs)   bands (ev):

   -23.2613 -23.2613 -23.2613 -23.2613 -23.1363 -23.1363 -23.1363 -23.1363
   -22.2409 -22.2409 -22.2409 -22.2409 -22.1320 -22.1320 -22.1320 -22.1320
   -22.0811 -22.0811 -22.0811 -22.0811 -11.5663 -11.5663 -11.5607 -11.5607
   -11.4920 -11.4920 -11.4863 -11.4863  -7.0058  -7.0058  -6.9991  -6.9991
    -2.6451  -2.6451  -2.5228  -2.5228  -2.1156  -2.1156  -1.9821  -1.9821
    -1.8675  -1.8675  -1.6644  -1.6644  -1.3327  -1.3327  -1.2813  -1.2813
    -1.0936  -1.0936  -1.0114  -1.0114  -0.8103  -0.8103  -0.7955  -0.7955

     occupation numbers 
     1.0000   1.0000   1.0000   1.0000   1.0000   1.0000   1.0000   1.0000
     1.0000   1.0000   1.0000   1.0000   1.0000   1.0000   1.0000   1.0000
     1.0000   1.0000   1.0000   1.0000   1.0000   1.0000   1.0000   1.0000
     1.0000   1.0000   1.0000   1.0000   1.0000   1.0000   1.0000   1.0000
     1.0000   1.0000   1.0000   1.0000   1.0000   1.0000   1.0000   1.0000
     1.0000   1.0000   1.0000   1.0000   1.0000   1.0000   1.0000   1.0000
     1.0000   1.0000   1.0000   1.0000   1.0000   1.0000   1.0000   1.0000

          k = 0.0833 0.2500 0.0833 ( 58377 PWs)   bands (ev):

   -23.2613 -23.2613 -23.2613 -23.2613 -23.1364 -23.1364 -23.1363 -23.1363
   -22.2409 -22.2409 -22.2409 -22.2409 -22.1320 -22.1320 -22.1320 -22.1320
   -22.0811 -22.0811 -22.0811 -22.0811 -11.6046 -11.6046 -11.5293 -11.5293
   -11.4951 -11.4951 -11.4818 -11.4818  -7.0445  -7.0445  -6.8979  -6.8979
    -2.8073  -2.8073  -2.6438  -2.6438  -2.1560  -2.1560  -1.9717  -1.9717
    -1.8025  -1.8025  -1.5551  -1.5551  -1.2427  -1.2427  -1.1861  -1.1861
    -1.0387  -1.0387  -0.9560  -0.9560  -0.9016  -0.9016  -0.7150  -0.7150

     occupation numbers 
     1.0000   1.0000   1.0000   1.0000   1.0000   1.0000   1.0000   1.0000
     1.0000   1.0000   1.0000   1.0000   1.0000   1.0000   1.0000   1.0000
     1.0000   1.0000   1.0000   1.0000   1.0000   1.0000   1.0000   1.0000
     1.0000   1.0000   1.0000   1.0000   1.0000   1.0000   1.0000   1.0000
     1.0000   1.0000   1.0000   1.0000   1.0000   1.0000   1.0000   1.0000
     1.0000   1.0000   1.0000   1.0000   1.0000   1.0000   1.0000   1.0000
     1.0000   1.0000   1.0000   1.0000   1.0000   1.0000   1.0000   1.0000

          k = 0.0833 0.4167 0.0833 ( 58398 PWs)   bands (ev):

   -23.2613 -23.2613 -23.2613 -23.2613 -23.1363 -23.1363 -23.1363 -23.1363
   -22.2409 -22.2409 -22.2409 -22.2409 -22.1320 -22.1320 -22.1320 -22.1320
   -22.0811 -22.0811 -22.0811 -22.0811 -11.5757 -11.5757 -11.5442 -11.5442
   -11.5004 -11.5004 -11.4915 -11.4915  -6.9945  -6.9945  -6.9406  -6.9406
    -2.8600  -2.8600  -2.7931  -2.7931  -2.1008  -2.1008  -2.0130  -2.0130
    -1.7058  -1.7058  -1.6059  -1.6059  -1.2687  -1.2687  -1.2444  -1.2444
    -0.9969  -0.9969  -0.9484  -0.9484  -0.7242  -0.7242  -0.5962  -0.5962

     occupation numbers 
     1.0000   1.0000   1.0000   1.0000   1.0000   1.0000   1.0000   1.0000
     1.0000   1.0000   1.0000   1.0000   1.0000   1.0000   1.0000   1.0000
     1.0000   1.0000   1.0000   1.0000   1.0000   1.0000   1.0000   1.0000
     1.0000   1.0000   1.0000   1.0000   1.0000   1.0000   1.0000   1.0000
     1.0000   1.0000   1.0000   1.0000   1.0000   1.0000   1.0000   1.0000
     1.0000   1.0000   1.0000   1.0000   1.0000   1.0000   1.0000   1.0000
     1.0000   1.0000   1.0000   1.0000   1.0000   1.0000   1.0000   1.0000

          k = 0.2500 0.2500 0.0833 ( 58428 PWs)   bands (ev):

   -23.2613 -23.2613 -23.2613 -23.2613 -23.1364 -23.1364 -23.1363 -23.1363
   -22.2409 -22.2409 -22.2409 -22.2409 -22.1320 -22.1320 -22.1320 -22.1320
   -22.0811 -22.0811 -22.0811 -22.0811 -11.5936 -11.5936 -11.5340 -11.5340
   -11.5012 -11.5012 -11.4817 -11.4817  -7.0287  -7.0287  -6.9201  -6.9201
    -2.8596  -2.8596  -2.5521  -2.5521  -2.0855  -2.0855  -1.9803  -1.9803
    -1.8692  -1.8692  -1.5868  -1.5868  -1.2951  -1.2951  -1.2495  -1.2495
    -1.1217  -1.1217  -0.9327  -0.9327  -0.8977  -0.8977  -0.5977  -0.5977

     occupation numbers 
     1.0000   1.0000   1.0000   1.0000   1.0000   1.0000   1.0000   1.0000
     1.0000   1.0000   1.0000   1.0000   1.0000   1.0000   1.0000   1.0000
     1.0000   1.0000   1.0000   1.0000   1.0000   1.0000   1.0000   1.0000
     1.0000   1.0000   1.0000   1.0000   1.0000   1.0000   1.0000   1.0000
     1.0000   1.0000   1.0000   1.0000   1.0000   1.0000   1.0000   1.0000
     1.0000   1.0000   1.0000   1.0000   1.0000   1.0000   1.0000   1.0000
     1.0000   1.0000   1.0000   1.0000   1.0000   1.0000   1.0000   1.0000

          k = 0.2500 0.4167 0.0833 ( 58419 PWs)   bands (ev):

   -23.2613 -23.2613 -23.2613 -23.2613 -23.1363 -23.1363 -23.1363 -23.1363
   -22.2409 -22.2409 -22.2409 -22.2409 -22.1320 -22.1320 -22.1320 -22.1320
   -22.0811 -22.0811 -22.0811 -22.0811 -11.5742 -11.5742 -11.5516 -11.5516
   -11.4966 -11.4966 -11.4877 -11.4877  -6.9978  -6.9978  -6.9576  -6.9576
    -2.7904  -2.7904  -2.6399  -2.6399  -2.0654  -2.0654  -2.0072  -2.0072
    -1.7671  -1.7671  -1.6406  -1.6406  -1.3494  -1.3494  -1.3216  -1.3216
    -1.0338  -1.0338  -0.9322  -0.9322  -0.8577  -0.8577  -0.7081  -0.7081

     occupation numbers 
     1.0000   1.0000   1.0000   1.0000   1.0000   1.0000   1.0000   1.0000
     1.0000   1.0000   1.0000   1.0000   1.0000   1.0000   1.0000   1.0000
     1.0000   1.0000   1.0000   1.0000   1.0000   1.0000   1.0000   1.0000
     1.0000   1.0000   1.0000   1.0000   1.0000   1.0000   1.0000   1.0000
     1.0000   1.0000   1.0000   1.0000   1.0000   1.0000   1.0000   1.0000
     1.0000   1.0000   1.0000   1.0000   1.0000   1.0000   1.0000   1.0000
     1.0000   1.0000   1.0000   1.0000   1.0000   1.0000   1.0000   1.0000

          k = 0.4167 0.0833 0.2500 ( 58419 PWs)   bands (ev):

   -23.2613 -23.2613 -23.2613 -23.2613 -23.1363 -23.1363 -23.1363 -23.1363
   -22.2409 -22.2409 -22.2409 -22.2409 -22.1320 -22.1320 -22.1320 -22.1320
   -22.0811 -22.0811 -22.0811 -22.0811 -11.5684 -11.5684 -11.5428 -11.5428
   -11.5047 -11.5047 -11.4947 -11.4947  -6.9937  -6.9937  -6.9539  -6.9539
    -2.8834  -2.8834  -2.8106  -2.8106  -2.0486  -2.0486  -1.9604  -1.9604
    -1.7558  -1.7558  -1.5932  -1.5932  -1.2594  -1.2594  -1.2249  -1.2249
    -0.9985  -0.9985  -0.9268  -0.9268  -0.7250  -0.7250  -0.5886  -0.5886

     occupation numbers 
     1.0000   1.0000   1.0000   1.0000   1.0000   1.0000   1.0000   1.0000
     1.0000   1.0000   1.0000   1.0000   1.0000   1.0000   1.0000   1.0000
     1.0000   1.0000   1.0000   1.0000   1.0000   1.0000   1.0000   1.0000
     1.0000   1.0000   1.0000   1.0000   1.0000   1.0000   1.0000   1.0000
     1.0000   1.0000   1.0000   1.0000   1.0000   1.0000   1.0000   1.0000
     1.0000   1.0000   1.0000   1.0000   1.0000   1.0000   1.0000   1.0000
     1.0000   1.0000   1.0000   1.0000   1.0000   1.0000   1.0000   1.0000

          k = 0.4167 0.4167 0.0833 ( 58453 PWs)   bands (ev):

   -23.2613 -23.2613 -23.2613 -23.2613 -23.1363 -23.1363 -23.1363 -23.1363
   -22.2409 -22.2409 -22.2409 -22.2409 -22.1320 -22.1320 -22.1320 -22.1320
   -22.0811 -22.0811 -22.0811 -22.0811 -11.5697 -11.5697 -11.5616 -11.5616
   -11.4905 -11.4905 -11.4867 -11.4867  -6.9952  -6.9952  -6.9803  -6.9803
    -2.6353  -2.6353  -2.5418  -2.5418  -2.0230  -2.0230  -1.9607  -1.9607
    -1.8491  -1.8491  -1.7229  -1.7229  -1.4104  -1.4104  -1.4008  -1.4008
    -1.1216  -1.1216  -1.0271  -1.0271  -0.8402  -0.8402  -0.8161  -0.8161

     occupation numbers 
     1.0000   1.0000   1.0000   1.0000   1.0000   1.0000   1.0000   1.0000
     1.0000   1.0000   1.0000   1.0000   1.0000   1.0000   1.0000   1.0000
     1.0000   1.0000   1.0000   1.0000   1.0000   1.0000   1.0000   1.0000
     1.0000   1.0000   1.0000   1.0000   1.0000   1.0000   1.0000   1.0000
     1.0000   1.0000   1.0000   1.0000   1.0000   1.0000   1.0000   1.0000
     1.0000   1.0000   1.0000   1.0000   1.0000   1.0000   1.0000   1.0000
     1.0000   1.0000   1.0000   1.0000   1.0000   1.0000   1.0000   1.0000

          k = 0.2500 0.4167 0.2500 ( 58442 PWs)   bands (ev):

   -23.2613 -23.2613 -23.2613 -23.2613 -23.1363 -23.1363 -23.1363 -23.1363
   -22.2409 -22.2409 -22.2409 -22.2409 -22.1320 -22.1320 -22.1320 -22.1320
   -22.0811 -22.0811 -22.0811 -22.0811 -11.5699 -11.5699 -11.5508 -11.5508
   -11.4997 -11.4997 -11.4884 -11.4884  -6.9997  -6.9997  -6.9693  -6.9693
    -2.8090  -2.8090  -2.6441  -2.6441  -2.0663  -2.0663  -1.9620  -1.9620
    -1.8069  -1.8069  -1.6253  -1.6253  -1.3196  -1.3196  -1.2836  -1.2836
    -1.0276  -1.0276  -0.9159  -0.9159  -0.8457  -0.8457  -0.7136  -0.7136

     occupation numbers 
     1.0000   1.0000   1.0000   1.0000   1.0000   1.0000   1.0000   1.0000
     1.0000   1.0000   1.0000   1.0000   1.0000   1.0000   1.0000   1.0000
     1.0000   1.0000   1.0000   1.0000   1.0000   1.0000   1.0000   1.0000
     1.0000   1.0000   1.0000   1.0000   1.0000   1.0000   1.0000   1.0000
     1.0000   1.0000   1.0000   1.0000   1.0000   1.0000   1.0000   1.0000
     1.0000   1.0000   1.0000   1.0000   1.0000   1.0000   1.0000   1.0000
     1.0000   1.0000   1.0000   1.0000   1.0000   1.0000   1.0000   1.0000

          k = 0.4167 0.4167 0.2500 ( 58427 PWs)   bands (ev):

   -23.2613 -23.2613 -23.2613 -23.2613 -23.1363 -23.1363 -23.1363 -23.1363
   -22.2409 -22.2409 -22.2409 -22.2409 -22.1320 -22.1320 -22.1320 -22.1320
   -22.0811 -22.0811 -22.0811 -22.0811 -11.5681 -11.5681 -11.5611 -11.5611
   -11.4912 -11.4912 -11.4865 -11.4865  -7.0009  -7.0009  -6.9893  -6.9893
    -2.6407  -2.6407  -2.5319  -2.5319  -2.0698  -2.0698  -1.9626  -1.9626
    -1.8639  -1.8639  -1.7007  -1.7007  -1.3727  -1.3727  -1.3529  -1.3529
    -1.0986  -1.0986  -1.0088  -1.0088  -0.8260  -0.8260  -0.8093  -0.8093

     occupation numbers 
     1.0000   1.0000   1.0000   1.0000   1.0000   1.0000   1.0000   1.0000
     1.0000   1.0000   1.0000   1.0000   1.0000   1.0000   1.0000   1.0000
     1.0000   1.0000   1.0000   1.0000   1.0000   1.0000   1.0000   1.0000
     1.0000   1.0000   1.0000   1.0000   1.0000   1.0000   1.0000   1.0000
     1.0000   1.0000   1.0000   1.0000   1.0000   1.0000   1.0000   1.0000
     1.0000   1.0000   1.0000   1.0000   1.0000   1.0000   1.0000   1.0000
     1.0000   1.0000   1.0000   1.0000   1.0000   1.0000   1.0000   1.0000

     highest occupied level (ev):    -0.5753

!    total energy              =    -458.41047255 Ry
     estimated scf accuracy    <       0.00000006 Ry

     The total energy is the sum of the following terms:
     one-electron contribution =    -256.48797261 Ry
     hartree contribution      =     145.40927574 Ry
     xc contribution           =    -157.08001534 Ry
     ewald contribution        =    -190.25176033 Ry

     convergence has been achieved in  12 iterations

     Forces acting on atoms (cartesian axes, Ry/au):

     atom    1 type  1   force =     0.00000000    0.00000000    0.00000000
     atom    2 type  1   force =     0.00000000    0.00000000   -0.00000000
     atom    3 type  2   force =    -0.01801691   -0.01801691    0.00000000
     atom    4 type  2   force =     0.01801691    0.01801691   -0.00000000
     atom    5 type  2   force =    -0.01801691    0.01801691   -0.00000000
     atom    6 type  2   force =     0.01801691   -0.01801691    0.00000000
     The non-local contrib.  to forces
     atom    1 type  1   force =     0.00000000    0.00000000    0.00000000
     atom    2 type  1   force =     0.00000000    0.00000000    0.00000000
     atom    3 type  2   force =    -0.04134005   -0.04134005   -0.00000000
     atom    4 type  2   force =     0.04134005    0.04134005   -0.00000000
     atom    5 type  2   force =    -0.04134005    0.04134005    0.00000000
     atom    6 type  2   force =     0.04134005   -0.04134005    0.00000000
     The ionic contribution  to forces
     atom    1 type  1   force =    -0.00000000   -0.00000000    0.00000000
     atom    2 type  1   force =    -0.00000000   -0.00000000    0.00000000
     atom    3 type  2   force =     1.38633658    1.38633658    0.00000000
     atom    4 type  2   force =    -1.38633658   -1.38633658   -0.00000000
     atom    5 type  2   force =     1.38633658   -1.38633658    0.00000000
     atom    6 type  2   force =    -1.38633658    1.38633658    0.00000000
     The local contribution  to forces
     atom    1 type  1   force =     0.00000000    0.00000000    0.00000000
     atom    2 type  1   force =     0.00000000    0.00000000    0.00000000
     atom    3 type  2   force =    -1.36696354   -1.36696354    0.00000000
     atom    4 type  2   force =     1.36696354    1.36696354    0.00000000
     atom    5 type  2   force =    -1.36696354    1.36696354    0.00000000
     atom    6 type  2   force =     1.36696354   -1.36696354    0.00000000
     The core correction contribution to forces
     atom    1 type  1   force =     0.00000000    0.00000000    0.00000000
     atom    2 type  1   force =     0.00000000    0.00000000    0.00000000
     atom    3 type  2   force =     0.00390618    0.00390618    0.00000000
     atom    4 type  2   force =    -0.00390618   -0.00390618    0.00000000
     atom    5 type  2   force =     0.00390618   -0.00390618   -0.00000000
     atom    6 type  2   force =    -0.00390618    0.00390618   -0.00000000
     The Hubbard contrib.    to forces
     atom    1 type  1   force =     0.00000000    0.00000000    0.00000000
     atom    2 type  1   force =     0.00000000    0.00000000    0.00000000
     atom    3 type  2   force =     0.00000000    0.00000000    0.00000000
     atom    4 type  2   force =     0.00000000    0.00000000    0.00000000
     atom    5 type  2   force =     0.00000000    0.00000000    0.00000000
     atom    6 type  2   force =     0.00000000    0.00000000    0.00000000
     The SCF correction term to forces
     atom    1 type  1   force =     0.00000000   -0.00000000   -0.00000000
     atom    2 type  1   force =     0.00000000   -0.00000000    0.00000000
     atom    3 type  2   force =     0.00004392    0.00004392   -0.00000000
     atom    4 type  2   force =    -0.00004392   -0.00004392   -0.00000000
     atom    5 type  2   force =     0.00004392   -0.00004392   -0.00000000
     atom    6 type  2   force =    -0.00004392    0.00004392   -0.00000000

     Total force =     0.050960     Total SCF correction =     0.000124


     Computing stress (Cartesian axis) and pressure

          total   stress  (Ry/bohr**3)                   (kbar)     P=      -27.01
  -0.00018603   0.00000000   0.00000000          -27.37        0.00        0.00
   0.00000000  -0.00018603   0.00000000            0.00      -27.37        0.00
   0.00000000   0.00000000  -0.00017881            0.00        0.00      -26.30

     kinetic stress (kbar)   4477.35      0.00      0.00
                                0.00   4477.35      0.00
                                0.00      0.00   4472.15

     local   stress (kbar)  -2714.56      0.00      0.00
                                0.00  -2714.56     -0.00
                                0.00     -0.00  -2198.87

     nonloc. stress (kbar)     70.50      0.00      0.00
                                0.00     70.50      0.00
                                0.00      0.00     55.29

     hartree stress (kbar)   2422.34     -0.00     -0.00
                               -0.00   2422.34      0.00
                               -0.00      0.00   2289.26

     exc-cor stress (kbar)   3792.41      0.00     -0.00
                                0.00   3792.41     -0.00
                               -0.00     -0.00   3791.41

     corecor stress (kbar)  -5084.42     -0.00     -0.00
                               -0.00  -5084.42      0.00
                               -0.00     -0.00  -5083.57

     ewald   stress (kbar)  -2990.99      0.00     -0.00
                                0.00  -2990.99     -0.00
                               -0.00     -0.00  -3351.97

     hubbard stress (kbar)      0.00      0.00      0.00
                                0.00      0.00      0.00
                                0.00      0.00      0.00

     DFT-D   stress (kbar)      0.00      0.00      0.00
                                0.00      0.00      0.00
                                0.00      0.00      0.00

     XDM     stress (kbar)      0.00      0.00      0.00
                                0.00      0.00      0.00
                                0.00      0.00      0.00

     dft-nl  stress (kbar)      0.00      0.00      0.00
                                0.00      0.00      0.00
                                0.00      0.00      0.00

     TS-vdW  stress (kbar)      0.00      0.00      0.00
                                0.00      0.00      0.00
                                0.00      0.00      0.00



     Writing output data file ./SnI2.save/

     init_run     :     14.79s CPU      8.61s WALL (       1 calls)
     electrons    :    522.28s CPU    280.32s WALL (       1 calls)
     forces       :      5.90s CPU      3.93s WALL (       1 calls)
     stress       :     24.80s CPU     13.07s WALL (       1 calls)

     Called by init_run:
     wfcinit      :     12.04s CPU      6.57s WALL (       1 calls)
     wfcinit:atom :      0.10s CPU      0.06s WALL (      18 calls)
     wfcinit:wfcr :     11.50s CPU      6.11s WALL (      18 calls)
     potinit      :      0.44s CPU      0.28s WALL (       1 calls)
     hinit0       :      0.73s CPU      0.62s WALL (       1 calls)

     Called by electrons:
     c_bands      :    419.53s CPU    221.26s WALL (      12 calls)
     sum_band     :     85.28s CPU     47.70s WALL (      12 calls)
     v_of_rho     :      1.72s CPU      1.08s WALL (      13 calls)
     v_h          :      0.16s CPU      0.10s WALL (      13 calls)
     v_xc         :      1.79s CPU      1.13s WALL (      15 calls)
     newd         :     14.28s CPU      8.93s WALL (      13 calls)
     mix_rho      :      1.28s CPU      0.92s WALL (      12 calls)

     Called by c_bands:
     init_us_2    :      2.73s CPU      1.42s WALL (     486 calls)
     cegterg      :    401.41s CPU    210.69s WALL (     216 calls)

     Called by sum_band:
     sum_band:wei :      0.00s CPU      0.00s WALL (      12 calls)
     sum_band:loo :     71.56s CPU     37.37s WALL (      12 calls)
     sum_band:buf :      0.42s CPU      0.38s WALL (     216 calls)
     sum_band:ini :      1.00s CPU      0.51s WALL (     216 calls)
     sum_band:cal :      5.11s CPU      2.72s WALL (     216 calls)
     sum_band:bec :      6.15s CPU      3.11s WALL (     216 calls)
     addusdens    :     12.76s CPU      9.57s WALL (      12 calls)
     addusd:skk   :      0.02s CPU      0.01s WALL (      24 calls)
     addusd:dgemm :      4.67s CPU      5.48s WALL (      24 calls)
     addusd:qvan2 :      7.80s CPU      3.93s WALL (      24 calls)

     Called by *egterg:
     cdiaghg      :      9.35s CPU      5.03s WALL (    1335 calls)
     cegterg:over :     17.81s CPU     10.06s WALL (    1119 calls)
     cegterg:upda :      9.27s CPU      4.68s WALL (    1119 calls)
     cegterg:last :     16.50s CPU      8.36s WALL (     607 calls)
     h_psi        :    327.97s CPU    170.50s WALL (    1353 calls)
     s_psi        :     19.11s CPU     10.45s WALL (    1353 calls)
     g_psi        :      1.05s CPU      0.53s WALL (    1119 calls)

     Called by h_psi:
     h_psi:calbec :     18.22s CPU      9.83s WALL (    1353 calls)
     vloc_psi     :    290.49s CPU    150.33s WALL (    1353 calls)
     add_vuspsi   :     17.47s CPU      9.42s WALL (    1353 calls)

     General routines
     calbec       :     26.39s CPU     14.69s WALL (    1659 calls)
     fft          :      2.87s CPU      1.94s WALL (     303 calls)
     ffts         :      0.75s CPU      0.48s WALL (     100 calls)
     fftw         :    295.67s CPU    153.77s WALL (  185284 calls)
     interpolate  :      0.90s CPU      0.58s WALL (      52 calls)

     Parallel routines
     fft_scatt_xy :     21.37s CPU     10.92s WALL (  185687 calls)
     fft_scatt_yz :    170.31s CPU     89.96s WALL (  185687 calls)

     PWSCF        :   9m31.67s CPU   5m17.99s WALL


   This run was terminated on:  10:42:21  31Jan2021            

=------------------------------------------------------------------------------=
   JOB DONE.
=------------------------------------------------------------------------------=
