
     Program PWSCF v.6.6 starts on 31Jan2021 at 12:13:56 

     This program is part of the open-source Quantum ESPRESSO suite
     for quantum simulation of materials; please cite
         "P. Giannozzi et al., J. Phys.:Condens. Matter 21 395502 (2009);
         "P. Giannozzi et al., J. Phys.:Condens. Matter 29 465901 (2017);
          URL http://www.quantum-espresso.org", 
     in publications or presentations arising from this work. More details at
     http://www.quantum-espresso.org/quote

     Parallel version (MPI), running on    32 processors

     MPI processes distributed on     1 nodes
     R & G space division:  proc/nbgrp/npool/nimage =      32
     Fft bands division:     nmany     =       1
     Waiting for input...
     Reading input from standard input

     Current dimensions of program PWSCF are:
     Max number of different atomic species (ntypx) = 10
     Max number of k-points (npk) =  40000
     Max angular momentum in pseudopotentials (lmaxx) =  3
     file Sn.rel-pbe-dn-rrkjus_psl.1.0.0.UPF: wavefunction(s)  5S 4D 4D renormalized

     Subspace diagonalization in iterative solution of the eigenvalue problem:
     a serial algorithm will be used

 
     Parallelization info
     --------------------
     sticks:   dense  smooth     PW     G-vecs:    dense   smooth      PW
     Min         165     165     46                 5571     5571     814
     Max         166     166     47                 5573     5573     816
     Sum        5297    5297   1473               178307   178307   26059
 

     Title: 
     CsIsalt                                                                    


     bravais-lattice index     =            6
     lattice parameter (alat)  =      14.4199  a.u.
     unit-cell volume          =    1845.1511 (a.u.)^3
     number of atoms/cell      =            6
     number of atomic types    =            2
     number of electrons       =        56.00
     number of Kohn-Sham states=           56
     kinetic-energy cutoff     =      80.0000  Ry
     charge density cutoff     =     320.0000  Ry
     convergence threshold     =      1.0E-06
     mixing beta               =       0.6000
     number of iterations used =            8  plain     mixing
     Exchange-correlation= PBE
                           (   1   4   3   4   0   0   0)
     Non magnetic calculation with spin-orbit


     celldm(1)=  14.419944  celldm(2)=   0.000000  celldm(3)=   0.615377
     celldm(4)=   0.000000  celldm(5)=   0.000000  celldm(6)=   0.000000

     crystal axes: (cart. coord. in units of alat)
               a(1) = (   1.000000   0.000000   0.000000 )  
               a(2) = (   0.000000   1.000000   0.000000 )  
               a(3) = (   0.000000   0.000000   0.615377 )  

     reciprocal axes: (cart. coord. in units 2 pi/alat)
               b(1) = (  1.000000  0.000000  0.000000 )  
               b(2) = (  0.000000  1.000000  0.000000 )  
               b(3) = (  0.000000  0.000000  1.625020 )  


     PseudoPot. # 1 for Sn read from file:
     /scratch/afiorent/degironcoli/pseudo/pseudo-usp/Sn.rel-pbe-dn-rrkjus_psl.1.0.0.UPF
     MD5 check sum: e9415cc9ba1036dfb73502962f03961a
     Pseudo is Ultrasoft + core correction, Zval = 14.0
     Generated using "atomic" code by A. Dal Corso v.6.3
     Using radial grid of 1243 points, 10 beta functions with: 
                l(1) =   0
                l(2) =   0
                l(3) =   1
                l(4) =   1
                l(5) =   1
                l(6) =   1
                l(7) =   2
                l(8) =   2
                l(9) =   2
               l(10) =   2
     Q(r) pseudized with 0 coefficients 


     PseudoPot. # 2 for I  read from file:
     /scratch/afiorent/degironcoli/pseudo/pseudo-usp/I.rel-pbe-n-rrkjus_psl.0.2.2.UPF
     MD5 check sum: b9024a078df971004264c9bcc9ff756e
     Pseudo is Ultrasoft + core correction, Zval =  7.0
     Generated using "atomic" code by A. Dal Corso v.5.0.2 svn rev. 9415
     Using radial grid of 1247 points,  6 beta functions with: 
                l(1) =   0
                l(2) =   0
                l(3) =   1
                l(4) =   1
                l(5) =   1
                l(6) =   1
     Q(r) pseudized with 0 coefficients 


     atomic species   valence    mass     pseudopotential
        Sn            14.00   118.70000     Sn( 1.00)
        I              7.00   126.90000     I ( 1.00)

     16 Sym. Ops., with inversion, found ( 8 have fractional translation)


                                    s                        frac. trans.

      isym =  1     identity                                     

 cryst.   s( 1) = (     1          0          0      )
                  (     0          1          0      )
                  (     0          0          1      )

 cart.    s( 1) = (  1.0000000  0.0000000  0.0000000 )
                  (  0.0000000  1.0000000  0.0000000 )
                  (  0.0000000  0.0000000  1.0000000 )


      isym =  2     180 deg rotation - cart. axis [0,0,1]        

 cryst.   s( 2) = (    -1          0          0      )
                  (     0         -1          0      )
                  (     0          0          1      )

 cart.    s( 2) = ( -1.0000000  0.0000000  0.0000000 )
                  (  0.0000000 -1.0000000  0.0000000 )
                  (  0.0000000  0.0000000  1.0000000 )


      isym =  3     180 deg rotation - cart. axis [0,1,0]        

 cryst.   s( 3) = (    -1          0          0      )    f =(  0.5000000 )
                  (     0          1          0      )       ( -0.5000000 )
                  (     0          0         -1      )       (  0.5000000 )

 cart.    s( 3) = ( -1.0000000  0.0000000  0.0000000 )    f =(  0.5000000 )
                  (  0.0000000  1.0000000  0.0000000 )       ( -0.5000000 )
                  (  0.0000000  0.0000000 -1.0000000 )       (  0.3076884 )


      isym =  4     180 deg rotation - cart. axis [1,0,0]        

 cryst.   s( 4) = (     1          0          0      )    f =( -0.5000000 )
                  (     0         -1          0      )       (  0.5000000 )
                  (     0          0         -1      )       (  0.5000000 )

 cart.    s( 4) = (  1.0000000  0.0000000  0.0000000 )    f =( -0.5000000 )
                  (  0.0000000 -1.0000000  0.0000000 )       (  0.5000000 )
                  (  0.0000000  0.0000000 -1.0000000 )       (  0.3076884 )


      isym =  5     180 deg rotation - cart. axis [1,1,0]        

 cryst.   s( 5) = (     0          1          0      )
                  (     1          0          0      )
                  (     0          0         -1      )

 cart.    s( 5) = (  0.0000000  1.0000000  0.0000000 )
                  (  1.0000000  0.0000000  0.0000000 )
                  (  0.0000000  0.0000000 -1.0000000 )


      isym =  6     180 deg rotation - cart. axis [1,-1,0]       

 cryst.   s( 6) = (     0         -1          0      )
                  (    -1          0          0      )
                  (     0          0         -1      )

 cart.    s( 6) = (  0.0000000 -1.0000000  0.0000000 )
                  ( -1.0000000  0.0000000  0.0000000 )
                  (  0.0000000  0.0000000 -1.0000000 )


      isym =  7      90 deg rotation - cart. axis [0,0,-1]       

 cryst.   s( 7) = (     0         -1          0      )    f =( -0.5000000 )
                  (     1          0          0      )       (  0.5000000 )
                  (     0          0          1      )       ( -0.5000000 )

 cart.    s( 7) = (  0.0000000  1.0000000  0.0000000 )    f =( -0.5000000 )
                  ( -1.0000000  0.0000000  0.0000000 )       (  0.5000000 )
                  (  0.0000000  0.0000000  1.0000000 )       ( -0.3076884 )


      isym =  8      90 deg rotation - cart. axis [0,0,1]        

 cryst.   s( 8) = (     0          1          0      )    f =(  0.5000000 )
                  (    -1          0          0      )       ( -0.5000000 )
                  (     0          0          1      )       ( -0.5000000 )

 cart.    s( 8) = (  0.0000000 -1.0000000  0.0000000 )    f =(  0.5000000 )
                  (  1.0000000  0.0000000  0.0000000 )       ( -0.5000000 )
                  (  0.0000000  0.0000000  1.0000000 )       ( -0.3076884 )


      isym =  9     inversion                                    

 cryst.   s( 9) = (    -1          0          0      )
                  (     0         -1          0      )
                  (     0          0         -1      )

 cart.    s( 9) = ( -1.0000000  0.0000000  0.0000000 )
                  (  0.0000000 -1.0000000  0.0000000 )
                  (  0.0000000  0.0000000 -1.0000000 )


      isym = 10     inv. 180 deg rotation - cart. axis [0,0,1]   

 cryst.   s(10) = (     1          0          0      )
                  (     0          1          0      )
                  (     0          0         -1      )

 cart.    s(10) = (  1.0000000  0.0000000  0.0000000 )
                  (  0.0000000  1.0000000  0.0000000 )
                  (  0.0000000  0.0000000 -1.0000000 )


      isym = 11     inv. 180 deg rotation - cart. axis [0,1,0]   

 cryst.   s(11) = (     1          0          0      )    f =( -0.5000000 )
                  (     0         -1          0      )       (  0.5000000 )
                  (     0          0          1      )       ( -0.5000000 )

 cart.    s(11) = (  1.0000000  0.0000000  0.0000000 )    f =( -0.5000000 )
                  (  0.0000000 -1.0000000  0.0000000 )       (  0.5000000 )
                  (  0.0000000  0.0000000  1.0000000 )       ( -0.3076884 )


      isym = 12     inv. 180 deg rotation - cart. axis [1,0,0]   

 cryst.   s(12) = (    -1          0          0      )    f =(  0.5000000 )
                  (     0          1          0      )       ( -0.5000000 )
                  (     0          0          1      )       ( -0.5000000 )

 cart.    s(12) = ( -1.0000000  0.0000000  0.0000000 )    f =(  0.5000000 )
                  (  0.0000000  1.0000000  0.0000000 )       ( -0.5000000 )
                  (  0.0000000  0.0000000  1.0000000 )       ( -0.3076884 )


      isym = 13     inv. 180 deg rotation - cart. axis [1,1,0]   

 cryst.   s(13) = (     0         -1          0      )
                  (    -1          0          0      )
                  (     0          0          1      )

 cart.    s(13) = (  0.0000000 -1.0000000  0.0000000 )
                  ( -1.0000000  0.0000000  0.0000000 )
                  (  0.0000000  0.0000000  1.0000000 )


      isym = 14     inv. 180 deg rotation - cart. axis [1,-1,0]  

 cryst.   s(14) = (     0          1          0      )
                  (     1          0          0      )
                  (     0          0          1      )

 cart.    s(14) = (  0.0000000  1.0000000  0.0000000 )
                  (  1.0000000  0.0000000  0.0000000 )
                  (  0.0000000  0.0000000  1.0000000 )


      isym = 15     inv.  90 deg rotation - cart. axis [0,0,-1]  

 cryst.   s(15) = (     0          1          0      )    f =(  0.5000000 )
                  (    -1          0          0      )       ( -0.5000000 )
                  (     0          0         -1      )       (  0.5000000 )

 cart.    s(15) = (  0.0000000 -1.0000000  0.0000000 )    f =(  0.5000000 )
                  (  1.0000000  0.0000000  0.0000000 )       ( -0.5000000 )
                  (  0.0000000  0.0000000 -1.0000000 )       (  0.3076884 )


      isym = 16     inv.  90 deg rotation - cart. axis [0,0,1]   

 cryst.   s(16) = (     0         -1          0      )    f =( -0.5000000 )
                  (     1          0          0      )       (  0.5000000 )
                  (     0          0         -1      )       (  0.5000000 )

 cart.    s(16) = (  0.0000000  1.0000000  0.0000000 )    f =( -0.5000000 )
                  ( -1.0000000  0.0000000  0.0000000 )       (  0.5000000 )
                  (  0.0000000  0.0000000 -1.0000000 )       (  0.3076884 )


     double point group D_4h(4/mmm)
     there are 14 classes and  4 irreducible representations
     the character table:

       E     -E    2C4   -2C4   C2    2C2' 2C2'' i     -i    2S4   -2S4   s_h 
                               -C2   -2C2' -2C2'                         -s_h 
G_6+   2.00 -2.00  1.41 -1.41  0.00  0.00  0.00  2.00 -2.00  1.41 -1.41  0.00
G_7+   2.00 -2.00 -1.41  1.41  0.00  0.00  0.00  2.00 -2.00 -1.41  1.41  0.00
G_6-   2.00 -2.00  1.41 -1.41  0.00  0.00  0.00 -2.00  2.00 -1.41  1.41  0.00
G_7-   2.00 -2.00 -1.41  1.41  0.00  0.00  0.00 -2.00  2.00  1.41 -1.41  0.00

        2s_v  2s_d
       -2s_v -2s_d
G_6+   0.00  0.00
G_7+   0.00  0.00
G_6-   0.00  0.00
G_7-   0.00  0.00

     the symmetry operations in each class and the name of the first element:

     E             1
          identity                                               
     -E           -1
          identity E                                             
     2C4           7    8
           90 deg rotation - cart. axis [0,0,-1]                 
     -2C4         -7   -8
           90 deg rotation - cart. axis [0,0,-1] E               
      C2  -C2      2   -2
          180 deg rotation - cart. axis [0,0,1]                  
      2C2'-2C2'    3   -3    4   -4
          180 deg rotation - cart. axis [0,1,0]                  
     2C2''-2C2'    5   -5   -6    6
          180 deg rotation - cart. axis [1,1,0]                  
     i             9
          inversion                                              
     -i           -9
          inversion E                                            
     2S4          15   16
          inv.  90 deg rotation - cart. axis [0,0,-1]            
     -2S4        -15  -16
          inv.  90 deg rotation - cart. axis [0,0,-1] E          
      s_h -s_h    10  -10
          inv. 180 deg rotation - cart. axis [0,0,1]             
      2s_v-2s_v   11  -11   12  -12
          inv. 180 deg rotation - cart. axis [0,1,0]             
      2s_d-2s_d   13  -13  -14   14
          inv. 180 deg rotation - cart. axis [1,1,0]             

   Cartesian axes

     site n.     atom                  positions (alat units)
         1           Sn  tau(   1) = (   0.0000000   0.0000000   0.0000000  )
         2           Sn  tau(   2) = (   0.5000000   0.5000000   0.3076884  )
         3           I   tau(   3) = (   0.2985210   0.2985210   0.0000000  )
         4           I   tau(   4) = (   0.7014790   0.7014790   0.0000000  )
         5           I   tau(   5) = (   0.7985210   0.2014790   0.3076884  )
         6           I   tau(   6) = (   0.2014790   0.7985210   0.3076884  )

   Crystallographic axes

     site n.     atom                  positions (cryst. coord.)
         1           Sn  tau(   1) = (  0.0000000  0.0000000  0.0000000  )
         2           Sn  tau(   2) = (  0.5000000  0.5000000  0.5000000  )
         3           I   tau(   3) = (  0.2985210  0.2985210  0.0000000  )
         4           I   tau(   4) = (  0.7014790  0.7014790  0.0000000  )
         5           I   tau(   5) = (  0.7985210  0.2014790  0.5000000  )
         6           I   tau(   6) = (  0.2014790  0.7985210  0.5000000  )

     number of k points=    18
                       cart. coord. in units 2pi/alat
        k(    1) = (   0.1000000   0.1000000   0.1625020), wk =   0.0640000
        k(    2) = (   0.1000000   0.1000000   0.4875061), wk =   0.0640000
        k(    3) = (   0.1000000   0.1000000  -0.8125102), wk =   0.0320000
        k(    4) = (   0.1000000   0.3000000   0.1625020), wk =   0.1280000
        k(    5) = (   0.1000000   0.3000000   0.4875061), wk =   0.1280000
        k(    6) = (   0.1000000   0.3000000  -0.8125102), wk =   0.0640000
        k(    7) = (   0.1000000  -0.5000000   0.1625020), wk =   0.0640000
        k(    8) = (   0.1000000  -0.5000000   0.4875061), wk =   0.0640000
        k(    9) = (   0.1000000  -0.5000000  -0.8125102), wk =   0.0320000
        k(   10) = (   0.3000000   0.3000000   0.1625020), wk =   0.0640000
        k(   11) = (   0.3000000   0.3000000   0.4875061), wk =   0.0640000
        k(   12) = (   0.3000000   0.3000000  -0.8125102), wk =   0.0320000
        k(   13) = (   0.3000000  -0.5000000   0.1625020), wk =   0.0640000
        k(   14) = (   0.3000000  -0.5000000   0.4875061), wk =   0.0640000
        k(   15) = (   0.3000000  -0.5000000  -0.8125102), wk =   0.0320000
        k(   16) = (  -0.5000000  -0.5000000   0.1625020), wk =   0.0160000
        k(   17) = (  -0.5000000  -0.5000000   0.4875061), wk =   0.0160000
        k(   18) = (  -0.5000000  -0.5000000  -0.8125102), wk =   0.0080000

                       cryst. coord.
        k(    1) = (   0.1000000   0.1000000   0.1000000), wk =   0.0640000
        k(    2) = (   0.1000000   0.1000000   0.3000000), wk =   0.0640000
        k(    3) = (   0.1000000   0.1000000  -0.5000000), wk =   0.0320000
        k(    4) = (   0.1000000   0.3000000   0.1000000), wk =   0.1280000
        k(    5) = (   0.1000000   0.3000000   0.3000000), wk =   0.1280000
        k(    6) = (   0.1000000   0.3000000  -0.5000000), wk =   0.0640000
        k(    7) = (   0.1000000  -0.5000000   0.1000000), wk =   0.0640000
        k(    8) = (   0.1000000  -0.5000000   0.3000000), wk =   0.0640000
        k(    9) = (   0.1000000  -0.5000000  -0.5000000), wk =   0.0320000
        k(   10) = (   0.3000000   0.3000000   0.1000000), wk =   0.0640000
        k(   11) = (   0.3000000   0.3000000   0.3000000), wk =   0.0640000
        k(   12) = (   0.3000000   0.3000000  -0.5000000), wk =   0.0320000
        k(   13) = (   0.3000000  -0.5000000   0.1000000), wk =   0.0640000
        k(   14) = (   0.3000000  -0.5000000   0.3000000), wk =   0.0640000
        k(   15) = (   0.3000000  -0.5000000  -0.5000000), wk =   0.0320000
        k(   16) = (  -0.5000000  -0.5000000   0.1000000), wk =   0.0160000
        k(   17) = (  -0.5000000  -0.5000000   0.3000000), wk =   0.0160000
        k(   18) = (  -0.5000000  -0.5000000  -0.5000000), wk =   0.0080000

     Dense  grid:   178307 G-vectors     FFT dimensions: (  90,  90,  54)

     Dynamical RAM for                 wfc:       1.19 MB

     Dynamical RAM for     wfc (w. buffer):      22.60 MB

     Dynamical RAM for           str. fact:       0.17 MB

     Dynamical RAM for           local pot:       0.00 MB

     Dynamical RAM for          nlocal pot:       1.32 MB

     Dynamical RAM for                qrad:       7.52 MB

     Dynamical RAM for          rho,v,vnew:       2.50 MB

     Dynamical RAM for               rhoin:       0.83 MB

     Dynamical RAM for            rho*nmix:       5.44 MB

     Dynamical RAM for           G-vectors:       0.36 MB

     Dynamical RAM for          h,s,v(r/c):       0.57 MB

     Dynamical RAM for          <psi|beta>:       0.21 MB

     Dynamical RAM for                 psi:       2.38 MB

     Dynamical RAM for                hpsi:       2.38 MB

     Dynamical RAM for                spsi:       2.38 MB

     Dynamical RAM for      wfcinit/wfcrot:       2.27 MB

     Dynamical RAM for           addusdens:      52.21 MB

     Dynamical RAM for          addusforce:      52.82 MB

     Dynamical RAM for         addusstress:      53.40 MB

     Estimated static dynamical RAM per process >      41.99 MB

     Estimated max dynamical RAM per process >      95.40 MB

     Estimated total dynamical RAM >       2.98 GB

     Initial potential from superposition of free atoms

     starting charge   55.99750, renormalised to   56.00000
     Starting wfcs are   68 randomized atomic wfcs

     total cpu time spent up to now is       15.6 secs

     Self-consistent Calculation

     iteration #  1     ecut=    80.00 Ry     beta= 0.60
     Davidson diagonalization with overlap
     ethr =  1.00E-02,  avg # of iterations =  1.0

     Threshold (ethr) on eigenvalues was too large:
     Diagonalizing with lowered threshold

     Davidson diagonalization with overlap
     ethr =  2.76E-04,  avg # of iterations =  2.8

     total cpu time spent up to now is       38.7 secs

     total energy              =    -561.61376025 Ry
     estimated scf accuracy    <       0.14027275 Ry

     iteration #  2     ecut=    80.00 Ry     beta= 0.60
     Davidson diagonalization with overlap
     ethr =  2.50E-04,  avg # of iterations =  3.4

     total cpu time spent up to now is       54.1 secs

     total energy              =    -561.66015405 Ry
     estimated scf accuracy    <       0.02735954 Ry

     iteration #  3     ecut=    80.00 Ry     beta= 0.60
     Davidson diagonalization with overlap
     ethr =  4.89E-05,  avg # of iterations =  2.0

     total cpu time spent up to now is       67.6 secs

     total energy              =    -561.66397428 Ry
     estimated scf accuracy    <       0.00149264 Ry

     iteration #  4     ecut=    80.00 Ry     beta= 0.60
     Davidson diagonalization with overlap
     ethr =  2.67E-06,  avg # of iterations =  4.9

     total cpu time spent up to now is       86.6 secs

     total energy              =    -561.66460841 Ry
     estimated scf accuracy    <       0.00083209 Ry

     iteration #  5     ecut=    80.00 Ry     beta= 0.60
     Davidson diagonalization with overlap
     ethr =  1.49E-06,  avg # of iterations =  2.4

     total cpu time spent up to now is       99.7 secs

     total energy              =    -561.66478671 Ry
     estimated scf accuracy    <       0.00000324 Ry

     iteration #  6     ecut=    80.00 Ry     beta= 0.60
     Davidson diagonalization with overlap
     ethr =  5.78E-09,  avg # of iterations =  8.1

     total cpu time spent up to now is      126.8 secs

     total energy              =    -561.66479720 Ry
     estimated scf accuracy    <       0.00000910 Ry

     iteration #  7     ecut=    80.00 Ry     beta= 0.60
     Davidson diagonalization with overlap
     ethr =  5.78E-09,  avg # of iterations =  2.1

     total cpu time spent up to now is      141.0 secs

     total energy              =    -561.66479744 Ry
     estimated scf accuracy    <       0.00000106 Ry

     iteration #  8     ecut=    80.00 Ry     beta= 0.60
     Davidson diagonalization with overlap
     ethr =  1.90E-09,  avg # of iterations =  4.3

     total cpu time spent up to now is      156.3 secs

     End of self-consistent calculation

          k = 0.1000 0.1000 0.1625 ( 22302 PWs)   bands (ev):

   -18.8610 -18.8610 -18.8601 -18.8601 -18.8557 -18.8557 -18.8555 -18.8555
   -17.8251 -17.8251 -17.8234 -17.8234 -17.8174 -17.8174 -17.8171 -17.8171
   -17.8163 -17.8163 -17.8162 -17.8162  -9.2832  -9.2832  -8.8394  -8.8394
    -8.8094  -8.8094  -8.6909  -8.6909  -4.0281  -4.0281  -2.4585  -2.4585
    -0.3182  -0.3182   0.0440   0.0440   0.3664   0.3664   0.4834   0.4834
     0.9318   0.9318   1.2097   1.2097   1.3230   1.3230   1.6004   1.6004
     2.0658   2.0658   2.2335   2.2335   2.3490   2.3490   3.0004   3.0004

     occupation numbers 
     1.0000   1.0000   1.0000   1.0000   1.0000   1.0000   1.0000   1.0000
     1.0000   1.0000   1.0000   1.0000   1.0000   1.0000   1.0000   1.0000
     1.0000   1.0000   1.0000   1.0000   1.0000   1.0000   1.0000   1.0000
     1.0000   1.0000   1.0000   1.0000   1.0000   1.0000   1.0000   1.0000
     1.0000   1.0000   1.0000   1.0000   1.0000   1.0000   1.0000   1.0000
     1.0000   1.0000   1.0000   1.0000   1.0000   1.0000   1.0000   1.0000
     1.0000   1.0000   1.0000   1.0000   1.0000   1.0000   1.0000   1.0000

          k = 0.1000 0.1000 0.4875 ( 22290 PWs)   bands (ev):

   -18.8607 -18.8607 -18.8602 -18.8602 -18.8557 -18.8557 -18.8556 -18.8556
   -17.8241 -17.8241 -17.8231 -17.8231 -17.8188 -17.8188 -17.8187 -17.8187
   -17.8153 -17.8153 -17.8153 -17.8153  -9.1026  -9.1026  -8.7767  -8.7767
    -8.7410  -8.7410  -8.7021  -8.7021  -3.9518  -3.9518  -3.0073  -3.0073
    -0.4219  -0.4219  -0.0820  -0.0820   0.0526   0.0526   0.2412   0.2412
     0.5227   0.5227   0.8609   0.8609   1.2274   1.2274   1.3865   1.3865
     2.0012   2.0012   2.0584   2.0584   2.2902   2.2902   3.0078   3.0078

     occupation numbers 
     1.0000   1.0000   1.0000   1.0000   1.0000   1.0000   1.0000   1.0000
     1.0000   1.0000   1.0000   1.0000   1.0000   1.0000   1.0000   1.0000
     1.0000   1.0000   1.0000   1.0000   1.0000   1.0000   1.0000   1.0000
     1.0000   1.0000   1.0000   1.0000   1.0000   1.0000   1.0000   1.0000
     1.0000   1.0000   1.0000   1.0000   1.0000   1.0000   1.0000   1.0000
     1.0000   1.0000   1.0000   1.0000   1.0000   1.0000   1.0000   1.0000
     1.0000   1.0000   1.0000   1.0000   1.0000   1.0000   1.0000   1.0000

          k = 0.1000 0.1000-0.8125 ( 22328 PWs)   bands (ev):

   -18.8604 -18.8604 -18.8603 -18.8603 -18.8557 -18.8557 -18.8555 -18.8555
   -17.8233 -17.8233 -17.8233 -17.8233 -17.8197 -17.8197 -17.8196 -17.8196
   -17.8147 -17.8147 -17.8146 -17.8146  -8.8676  -8.8676  -8.8635  -8.8635
    -8.7021  -8.7021  -8.6973  -8.6973  -3.6535  -3.6535  -3.6253  -3.6253
    -0.4877  -0.4877  -0.2976  -0.2976  -0.0600  -0.0600   0.1778   0.1778
     0.3715   0.3715   0.7501   0.7501   1.5430   1.5430   1.5666   1.5666
     1.6449   1.6449   1.6879   1.6879   2.3750   2.3750   2.6160   2.6160

     occupation numbers 
     1.0000   1.0000   1.0000   1.0000   1.0000   1.0000   1.0000   1.0000
     1.0000   1.0000   1.0000   1.0000   1.0000   1.0000   1.0000   1.0000
     1.0000   1.0000   1.0000   1.0000   1.0000   1.0000   1.0000   1.0000
     1.0000   1.0000   1.0000   1.0000   1.0000   1.0000   1.0000   1.0000
     1.0000   1.0000   1.0000   1.0000   1.0000   1.0000   1.0000   1.0000
     1.0000   1.0000   1.0000   1.0000   1.0000   1.0000   1.0000   1.0000
     1.0000   1.0000   1.0000   1.0000   1.0000   1.0000   1.0000   1.0000

          k = 0.1000 0.3000 0.1625 ( 22312 PWs)   bands (ev):

   -18.8608 -18.8608 -18.8603 -18.8603 -18.8556 -18.8556 -18.8555 -18.8555
   -17.8248 -17.8248 -17.8237 -17.8237 -17.8173 -17.8173 -17.8172 -17.8172
   -17.8163 -17.8163 -17.8162 -17.8162  -9.2136  -9.2136  -8.9472  -8.9472
    -8.7829  -8.7829  -8.6963  -8.6963  -3.7889  -3.7889  -2.8598  -2.8598
    -0.1994  -0.1994   0.0910   0.0910   0.4576   0.4576   0.7303   0.7303
     0.9466   0.9466   1.1879   1.1879   1.3738   1.3738   1.5314   1.5314
     1.9807   1.9807   2.1690   2.1690   2.2598   2.2598   2.7002   2.7002

     occupation numbers 
     1.0000   1.0000   1.0000   1.0000   1.0000   1.0000   1.0000   1.0000
     1.0000   1.0000   1.0000   1.0000   1.0000   1.0000   1.0000   1.0000
     1.0000   1.0000   1.0000   1.0000   1.0000   1.0000   1.0000   1.0000
     1.0000   1.0000   1.0000   1.0000   1.0000   1.0000   1.0000   1.0000
     1.0000   1.0000   1.0000   1.0000   1.0000   1.0000   1.0000   1.0000
     1.0000   1.0000   1.0000   1.0000   1.0000   1.0000   1.0000   1.0000
     1.0000   1.0000   1.0000   1.0000   1.0000   1.0000   1.0000   1.0000

          k = 0.1000 0.3000 0.4875 ( 22288 PWs)   bands (ev):

   -18.8606 -18.8606 -18.8603 -18.8603 -18.8557 -18.8557 -18.8555 -18.8555
   -17.8240 -17.8240 -17.8233 -17.8233 -17.8188 -17.8188 -17.8187 -17.8187
   -17.8153 -17.8153 -17.8153 -17.8153  -9.0500  -9.0500  -8.8557  -8.8557
    -8.7298  -8.7298  -8.6947  -8.6947  -3.7894  -3.7894  -3.2105  -3.2105
    -0.5740  -0.5740  -0.3431  -0.3431   0.1639   0.1639   0.2864   0.2864
     0.7546   0.7546   1.1160   1.1160   1.4213   1.4213   1.4956   1.4956
     1.9479   1.9479   2.0263   2.0263   2.2797   2.2797   2.8438   2.8438

     occupation numbers 
     1.0000   1.0000   1.0000   1.0000   1.0000   1.0000   1.0000   1.0000
     1.0000   1.0000   1.0000   1.0000   1.0000   1.0000   1.0000   1.0000
     1.0000   1.0000   1.0000   1.0000   1.0000   1.0000   1.0000   1.0000
     1.0000   1.0000   1.0000   1.0000   1.0000   1.0000   1.0000   1.0000
     1.0000   1.0000   1.0000   1.0000   1.0000   1.0000   1.0000   1.0000
     1.0000   1.0000   1.0000   1.0000   1.0000   1.0000   1.0000   1.0000
     1.0000   1.0000   1.0000   1.0000   1.0000   1.0000   1.0000   1.0000

          k = 0.1000 0.3000-0.8125 ( 22316 PWs)   bands (ev):

   -18.8605 -18.8605 -18.8603 -18.8603 -18.8557 -18.8557 -18.8555 -18.8555
   -17.8234 -17.8234 -17.8233 -17.8233 -17.8196 -17.8196 -17.8195 -17.8195
   -17.8147 -17.8147 -17.8146 -17.8146  -8.8595  -8.8595  -8.8518  -8.8518
    -8.7141  -8.7141  -8.7054  -8.7054  -3.6596  -3.6596  -3.6090  -3.6090
    -0.7032  -0.7032  -0.4820  -0.4820  -0.1413  -0.1413   0.1501   0.1501
     0.6292   0.6292   1.1290   1.1290   1.4833   1.4833   1.6678   1.6678
     1.7263   1.7263   1.8388   1.8388   2.4002   2.4002   2.7889   2.7889

     occupation numbers 
     1.0000   1.0000   1.0000   1.0000   1.0000   1.0000   1.0000   1.0000
     1.0000   1.0000   1.0000   1.0000   1.0000   1.0000   1.0000   1.0000
     1.0000   1.0000   1.0000   1.0000   1.0000   1.0000   1.0000   1.0000
     1.0000   1.0000   1.0000   1.0000   1.0000   1.0000   1.0000   1.0000
     1.0000   1.0000   1.0000   1.0000   1.0000   1.0000   1.0000   1.0000
     1.0000   1.0000   1.0000   1.0000   1.0000   1.0000   1.0000   1.0000
     1.0000   1.0000   1.0000   1.0000   1.0000   1.0000   1.0000   1.0000

          k = 0.1000-0.5000 0.1625 ( 22320 PWs)   bands (ev):

   -18.8606 -18.8606 -18.8606 -18.8606 -18.8556 -18.8556 -18.8556 -18.8556
   -17.8243 -17.8243 -17.8242 -17.8242 -17.8173 -17.8173 -17.8172 -17.8172
   -17.8163 -17.8163 -17.8162 -17.8162  -9.0906  -9.0906  -9.0904  -9.0904
    -8.7350  -8.7350  -8.7343  -8.7343  -3.3755  -3.3755  -3.3557  -3.3557
    -0.0730  -0.0730  -0.0131  -0.0131   0.7013   0.7013   0.7289   0.7289
     1.0642   1.0642   1.1158   1.1158   1.4298   1.4298   1.4764   1.4764
     1.9923   1.9923   2.0368   2.0368   2.3116   2.3116   2.4137   2.4137

     occupation numbers 
     1.0000   1.0000   1.0000   1.0000   1.0000   1.0000   1.0000   1.0000
     1.0000   1.0000   1.0000   1.0000   1.0000   1.0000   1.0000   1.0000
     1.0000   1.0000   1.0000   1.0000   1.0000   1.0000   1.0000   1.0000
     1.0000   1.0000   1.0000   1.0000   1.0000   1.0000   1.0000   1.0000
     1.0000   1.0000   1.0000   1.0000   1.0000   1.0000   1.0000   1.0000
     1.0000   1.0000   1.0000   1.0000   1.0000   1.0000   1.0000   1.0000
     1.0000   1.0000   1.0000   1.0000   1.0000   1.0000   1.0000   1.0000

          k = 0.1000-0.5000 0.4875 ( 22300 PWs)   bands (ev):

   -18.8605 -18.8605 -18.8604 -18.8604 -18.8557 -18.8557 -18.8555 -18.8555
   -17.8237 -17.8237 -17.8236 -17.8236 -17.8187 -17.8187 -17.8187 -17.8187
   -17.8153 -17.8153 -17.8153 -17.8153  -8.9593  -8.9593  -8.9583  -8.9583
    -8.7092  -8.7092  -8.7080  -8.7080  -3.5345  -3.5345  -3.4893  -3.4893
    -0.5951  -0.5951  -0.5043  -0.5043   0.1708   0.1708   0.3201   0.3201
     0.9866   0.9866   1.1851   1.1851   1.5522   1.5522   1.5988   1.5988
     1.8729   1.8729   1.9621   1.9621   2.3914   2.3914   2.6379   2.6379

     occupation numbers 
     1.0000   1.0000   1.0000   1.0000   1.0000   1.0000   1.0000   1.0000
     1.0000   1.0000   1.0000   1.0000   1.0000   1.0000   1.0000   1.0000
     1.0000   1.0000   1.0000   1.0000   1.0000   1.0000   1.0000   1.0000
     1.0000   1.0000   1.0000   1.0000   1.0000   1.0000   1.0000   1.0000
     1.0000   1.0000   1.0000   1.0000   1.0000   1.0000   1.0000   1.0000
     1.0000   1.0000   1.0000   1.0000   1.0000   1.0000   1.0000   1.0000
     1.0000   1.0000   1.0000   1.0000   1.0000   1.0000   1.0000   1.0000

          k = 0.1000-0.5000-0.8125 ( 22272 PWs)   bands (ev):

   -18.8605 -18.8605 -18.8603 -18.8603 -18.8558 -18.8558 -18.8554 -18.8554
   -17.8234 -17.8234 -17.8234 -17.8234 -17.8196 -17.8196 -17.8195 -17.8195
   -17.8147 -17.8147 -17.8146 -17.8146  -8.8503  -8.8503  -8.8475  -8.8475
    -8.7165  -8.7165  -8.7165  -8.7165  -3.6558  -3.6558  -3.6067  -3.6067
    -0.7475  -0.7475  -0.6411  -0.6411  -0.1563  -0.1563   0.1265   0.1265
     0.7274   0.7274   1.3066   1.3066   1.5406   1.5406   1.7208   1.7208
     1.8200   1.8200   1.9269   1.9269   2.4473   2.4473   2.8002   2.8002

     occupation numbers 
     1.0000   1.0000   1.0000   1.0000   1.0000   1.0000   1.0000   1.0000
     1.0000   1.0000   1.0000   1.0000   1.0000   1.0000   1.0000   1.0000
     1.0000   1.0000   1.0000   1.0000   1.0000   1.0000   1.0000   1.0000
     1.0000   1.0000   1.0000   1.0000   1.0000   1.0000   1.0000   1.0000
     1.0000   1.0000   1.0000   1.0000   1.0000   1.0000   1.0000   1.0000
     1.0000   1.0000   1.0000   1.0000   1.0000   1.0000   1.0000   1.0000
     1.0000   1.0000   1.0000   1.0000   1.0000   1.0000   1.0000   1.0000

          k = 0.3000 0.3000 0.1625 ( 22319 PWs)   bands (ev):

   -18.8607 -18.8607 -18.8604 -18.8604 -18.8556 -18.8556 -18.8556 -18.8556
   -17.8246 -17.8246 -17.8239 -17.8239 -17.8173 -17.8173 -17.8172 -17.8172
   -17.8163 -17.8163 -17.8162 -17.8162  -9.1527  -9.1527  -8.9604  -8.9604
    -8.8166  -8.8166  -8.7267  -8.7267  -3.6116  -3.6116  -3.0351  -3.0351
    -0.1509  -0.1509   0.0504   0.0504   0.4634   0.4634   0.8153   0.8153
     0.9557   0.9557   1.1189   1.1189   1.4219   1.4219   1.4917   1.4917
     1.9732   1.9732   2.1039   2.1039   2.2383   2.2383   2.6006   2.6006

     occupation numbers 
     1.0000   1.0000   1.0000   1.0000   1.0000   1.0000   1.0000   1.0000
     1.0000   1.0000   1.0000   1.0000   1.0000   1.0000   1.0000   1.0000
     1.0000   1.0000   1.0000   1.0000   1.0000   1.0000   1.0000   1.0000
     1.0000   1.0000   1.0000   1.0000   1.0000   1.0000   1.0000   1.0000
     1.0000   1.0000   1.0000   1.0000   1.0000   1.0000   1.0000   1.0000
     1.0000   1.0000   1.0000   1.0000   1.0000   1.0000   1.0000   1.0000
     1.0000   1.0000   1.0000   1.0000   1.0000   1.0000   1.0000   1.0000

          k = 0.3000 0.3000 0.4875 ( 22286 PWs)   bands (ev):

   -18.8606 -18.8606 -18.8603 -18.8603 -18.8557 -18.8557 -18.8556 -18.8556
   -17.8238 -17.8238 -17.8234 -17.8234 -17.8188 -17.8188 -17.8187 -17.8187
   -17.8153 -17.8153 -17.8153 -17.8153  -9.0067  -9.0067  -8.8744  -8.8744
    -8.7475  -8.7475  -8.7070  -8.7070  -3.6942  -3.6942  -3.3424  -3.3424
    -0.5082  -0.5082  -0.1203  -0.1203   0.0657   0.0657   0.2317   0.2317
     0.5656   0.5656   1.1381   1.1381   1.5084   1.5084   1.6254   1.6254
     1.9078   1.9078   2.0094   2.0094   2.3175   2.3175   2.6088   2.6088

     occupation numbers 
     1.0000   1.0000   1.0000   1.0000   1.0000   1.0000   1.0000   1.0000
     1.0000   1.0000   1.0000   1.0000   1.0000   1.0000   1.0000   1.0000
     1.0000   1.0000   1.0000   1.0000   1.0000   1.0000   1.0000   1.0000
     1.0000   1.0000   1.0000   1.0000   1.0000   1.0000   1.0000   1.0000
     1.0000   1.0000   1.0000   1.0000   1.0000   1.0000   1.0000   1.0000
     1.0000   1.0000   1.0000   1.0000   1.0000   1.0000   1.0000   1.0000
     1.0000   1.0000   1.0000   1.0000   1.0000   1.0000   1.0000   1.0000

          k = 0.3000 0.3000-0.8125 ( 22272 PWs)   bands (ev):

   -18.8605 -18.8605 -18.8603 -18.8603 -18.8557 -18.8557 -18.8555 -18.8555
   -17.8234 -17.8234 -17.8233 -17.8233 -17.8197 -17.8197 -17.8195 -17.8195
   -17.8147 -17.8147 -17.8146 -17.8146  -8.8597  -8.8597  -8.8473  -8.8473
    -8.7176  -8.7176  -8.7033  -8.7033  -3.6908  -3.6908  -3.6332  -3.6332
    -0.6460  -0.6460  -0.3568  -0.3568  -0.1961  -0.1961   0.3503   0.3503
     0.4024   0.4024   1.0720   1.0720   1.5504   1.5504   1.6959   1.6959
     1.8152   1.8152   1.9077   1.9077   2.2437   2.2437   2.6019   2.6019

     occupation numbers 
     1.0000   1.0000   1.0000   1.0000   1.0000   1.0000   1.0000   1.0000
     1.0000   1.0000   1.0000   1.0000   1.0000   1.0000   1.0000   1.0000
     1.0000   1.0000   1.0000   1.0000   1.0000   1.0000   1.0000   1.0000
     1.0000   1.0000   1.0000   1.0000   1.0000   1.0000   1.0000   1.0000
     1.0000   1.0000   1.0000   1.0000   1.0000   1.0000   1.0000   1.0000
     1.0000   1.0000   1.0000   1.0000   1.0000   1.0000   1.0000   1.0000
     1.0000   1.0000   1.0000   1.0000   1.0000   1.0000   1.0000   1.0000

          k = 0.3000-0.5000 0.1625 ( 22308 PWs)   bands (ev):

   -18.8606 -18.8606 -18.8606 -18.8606 -18.8556 -18.8556 -18.8556 -18.8556
   -17.8243 -17.8243 -17.8242 -17.8242 -17.8173 -17.8173 -17.8173 -17.8173
   -17.8163 -17.8163 -17.8162 -17.8162  -9.0508  -9.0508  -9.0507  -9.0507
    -8.7827  -8.7827  -8.7822  -8.7822  -3.3298  -3.3298  -3.3172  -3.3172
    -0.0654  -0.0654  -0.0381  -0.0381   0.6181   0.6181   0.7135   0.7135
     0.9314   0.9314   1.0553   1.0553   1.4927   1.4927   1.4931   1.4931
     1.9771   1.9771   2.0218   2.0218   2.3595   2.3595   2.4366   2.4366

     occupation numbers 
     1.0000   1.0000   1.0000   1.0000   1.0000   1.0000   1.0000   1.0000
     1.0000   1.0000   1.0000   1.0000   1.0000   1.0000   1.0000   1.0000
     1.0000   1.0000   1.0000   1.0000   1.0000   1.0000   1.0000   1.0000
     1.0000   1.0000   1.0000   1.0000   1.0000   1.0000   1.0000   1.0000
     1.0000   1.0000   1.0000   1.0000   1.0000   1.0000   1.0000   1.0000
     1.0000   1.0000   1.0000   1.0000   1.0000   1.0000   1.0000   1.0000
     1.0000   1.0000   1.0000   1.0000   1.0000   1.0000   1.0000   1.0000

          k = 0.3000-0.5000 0.4875 ( 22284 PWs)   bands (ev):

   -18.8605 -18.8605 -18.8604 -18.8604 -18.8557 -18.8557 -18.8556 -18.8556
   -17.8237 -17.8237 -17.8236 -17.8236 -17.8188 -17.8188 -17.8187 -17.8187
   -17.8153 -17.8153 -17.8153 -17.8153  -8.9367  -8.9367  -8.9360  -8.9360
    -8.7335  -8.7335  -8.7327  -8.7327  -3.5423  -3.5423  -3.5153  -3.5153
    -0.3262  -0.3262  -0.2789  -0.2789   0.1389   0.1389   0.1583   0.1583
     0.8222   0.8222   0.8388   0.8388   1.5646   1.5646   1.6652   1.6652
     1.8881   1.8881   1.9572   1.9572   2.3740   2.3740   2.5246   2.5246

     occupation numbers 
     1.0000   1.0000   1.0000   1.0000   1.0000   1.0000   1.0000   1.0000
     1.0000   1.0000   1.0000   1.0000   1.0000   1.0000   1.0000   1.0000
     1.0000   1.0000   1.0000   1.0000   1.0000   1.0000   1.0000   1.0000
     1.0000   1.0000   1.0000   1.0000   1.0000   1.0000   1.0000   1.0000
     1.0000   1.0000   1.0000   1.0000   1.0000   1.0000   1.0000   1.0000
     1.0000   1.0000   1.0000   1.0000   1.0000   1.0000   1.0000   1.0000
     1.0000   1.0000   1.0000   1.0000   1.0000   1.0000   1.0000   1.0000

          k = 0.3000-0.5000-0.8125 ( 22252 PWs)   bands (ev):

   -18.8605 -18.8605 -18.8603 -18.8603 -18.8557 -18.8557 -18.8555 -18.8555
   -17.8233 -17.8233 -17.8233 -17.8233 -17.8197 -17.8197 -17.8196 -17.8196
   -17.8147 -17.8147 -17.8146 -17.8146  -8.8534  -8.8534  -8.8517  -8.8517
    -8.7105  -8.7105  -8.7105  -8.7105  -3.6935  -3.6935  -3.6649  -3.6649
    -0.4895  -0.4895  -0.4225  -0.4225  -0.1201  -0.1201   0.0291   0.0291
     0.7642   0.7642   0.9892   0.9892   1.6125   1.6125   1.6370   1.6370
     1.8163   1.8163   1.9373   1.9373   2.1788   2.1788   2.4460   2.4460

     occupation numbers 
     1.0000   1.0000   1.0000   1.0000   1.0000   1.0000   1.0000   1.0000
     1.0000   1.0000   1.0000   1.0000   1.0000   1.0000   1.0000   1.0000
     1.0000   1.0000   1.0000   1.0000   1.0000   1.0000   1.0000   1.0000
     1.0000   1.0000   1.0000   1.0000   1.0000   1.0000   1.0000   1.0000
     1.0000   1.0000   1.0000   1.0000   1.0000   1.0000   1.0000   1.0000
     1.0000   1.0000   1.0000   1.0000   1.0000   1.0000   1.0000   1.0000
     1.0000   1.0000   1.0000   1.0000   1.0000   1.0000   1.0000   1.0000

          k =-0.5000-0.5000 0.1625 ( 22272 PWs)   bands (ev):

   -18.8606 -18.8606 -18.8606 -18.8606 -18.8556 -18.8556 -18.8556 -18.8556
   -17.8243 -17.8243 -17.8243 -17.8243 -17.8173 -17.8173 -17.8173 -17.8173
   -17.8162 -17.8162 -17.8162 -17.8162  -9.0171  -9.0171  -9.0171  -9.0171
    -8.8210  -8.8210  -8.8210  -8.8210  -3.2969  -3.2969  -3.2969  -3.2969
    -0.0642  -0.0642  -0.0642  -0.0642   0.6409   0.6409   0.6409   0.6409
     0.9434   0.9434   0.9434   0.9434   1.5231   1.5231   1.5231   1.5231
     1.9621   1.9621   1.9621   1.9621   2.4344   2.4344   2.4344   2.4344

     occupation numbers 
     1.0000   1.0000   1.0000   1.0000   1.0000   1.0000   1.0000   1.0000
     1.0000   1.0000   1.0000   1.0000   1.0000   1.0000   1.0000   1.0000
     1.0000   1.0000   1.0000   1.0000   1.0000   1.0000   1.0000   1.0000
     1.0000   1.0000   1.0000   1.0000   1.0000   1.0000   1.0000   1.0000
     1.0000   1.0000   1.0000   1.0000   1.0000   1.0000   1.0000   1.0000
     1.0000   1.0000   1.0000   1.0000   1.0000   1.0000   1.0000   1.0000
     1.0000   1.0000   1.0000   1.0000   1.0000   1.0000   1.0000   1.0000

          k =-0.5000-0.5000 0.4875 ( 22256 PWs)   bands (ev):

   -18.8604 -18.8604 -18.8604 -18.8604 -18.8556 -18.8556 -18.8556 -18.8556
   -17.8236 -17.8236 -17.8236 -17.8236 -17.8188 -17.8188 -17.8188 -17.8188
   -17.8153 -17.8153 -17.8153 -17.8153  -8.9193  -8.9193  -8.9193  -8.9193
    -8.7514  -8.7514  -8.7514  -8.7514  -3.5389  -3.5389  -3.5389  -3.5389
    -0.0789  -0.0789  -0.0789  -0.0789   0.1798   0.1798   0.1798   0.1798
     0.4747   0.4747   0.4747   0.4747   1.6763   1.6763   1.6763   1.6763
     1.9372   1.9372   1.9372   1.9372   2.4198   2.4198   2.4198   2.4198

     occupation numbers 
     1.0000   1.0000   1.0000   1.0000   1.0000   1.0000   1.0000   1.0000
     1.0000   1.0000   1.0000   1.0000   1.0000   1.0000   1.0000   1.0000
     1.0000   1.0000   1.0000   1.0000   1.0000   1.0000   1.0000   1.0000
     1.0000   1.0000   1.0000   1.0000   1.0000   1.0000   1.0000   1.0000
     1.0000   1.0000   1.0000   1.0000   1.0000   1.0000   1.0000   1.0000
     1.0000   1.0000   1.0000   1.0000   1.0000   1.0000   1.0000   1.0000
     1.0000   1.0000   1.0000   1.0000   1.0000   1.0000   1.0000   1.0000

          k =-0.5000-0.5000-0.8125 ( 22248 PWs)   bands (ev):

   -18.8604 -18.8604 -18.8604 -18.8604 -18.8556 -18.8556 -18.8556 -18.8556
   -17.8233 -17.8233 -17.8233 -17.8233 -17.8197 -17.8197 -17.8197 -17.8197
   -17.8147 -17.8147 -17.8147 -17.8147  -8.8547  -8.8547  -8.8547  -8.8547
    -8.7070  -8.7070  -8.7070  -8.7070  -3.7073  -3.7073  -3.7073  -3.7073
    -0.3724  -0.3724  -0.3724  -0.3724   0.2732   0.2732   0.2732   0.2732
     0.4313   0.4313   0.4313   0.4313   1.6898   1.6898   1.6898   1.6898
     1.8816   1.8816   1.8816   1.8816   2.2031   2.2031   2.2031   2.2031

     occupation numbers 
     1.0000   1.0000   1.0000   1.0000   1.0000   1.0000   1.0000   1.0000
     1.0000   1.0000   1.0000   1.0000   1.0000   1.0000   1.0000   1.0000
     1.0000   1.0000   1.0000   1.0000   1.0000   1.0000   1.0000   1.0000
     1.0000   1.0000   1.0000   1.0000   1.0000   1.0000   1.0000   1.0000
     1.0000   1.0000   1.0000   1.0000   1.0000   1.0000   1.0000   1.0000
     1.0000   1.0000   1.0000   1.0000   1.0000   1.0000   1.0000   1.0000
     1.0000   1.0000   1.0000   1.0000   1.0000   1.0000   1.0000   1.0000

     highest occupied level (ev):     3.0078

!    total energy              =    -561.66479784 Ry
     estimated scf accuracy    <       0.00000015 Ry

     The total energy is the sum of the following terms:
     one-electron contribution =    -209.69509675 Ry
     hartree contribution      =     130.14338059 Ry
     xc contribution           =    -262.57033330 Ry
     ewald contribution        =    -219.54274838 Ry

     convergence has been achieved in   8 iterations

     Forces acting on atoms (cartesian axes, Ry/au):

     atom    1 type  1   force =     0.00000000    0.00000000    0.00000000
     atom    2 type  1   force =     0.00000000    0.00000000   -0.00000000
     atom    3 type  2   force =    -0.00020338   -0.00020338   -0.00000000
     atom    4 type  2   force =     0.00020338    0.00020338   -0.00000000
     atom    5 type  2   force =    -0.00020338    0.00020338    0.00000000
     atom    6 type  2   force =     0.00020338   -0.00020338    0.00000000
     The non-local contrib.  to forces
     atom    1 type  1   force =     0.00000000    0.00000000   -0.00000000
     atom    2 type  1   force =     0.00000000    0.00000000    0.00000000
     atom    3 type  2   force =     0.01450077    0.01450077    0.00000000
     atom    4 type  2   force =    -0.01450077   -0.01450077    0.00000000
     atom    5 type  2   force =     0.01450077   -0.01450077    0.00000000
     atom    6 type  2   force =    -0.01450077    0.01450077    0.00000000
     The ionic contribution  to forces
     atom    1 type  1   force =    -0.00000000   -0.00000000    0.00000000
     atom    2 type  1   force =     0.00000000    0.00000000   -0.00000000
     atom    3 type  2   force =    -0.90990984   -0.90990984    0.00000000
     atom    4 type  2   force =     0.90990984    0.90990984   -0.00000000
     atom    5 type  2   force =    -0.90990984    0.90990984   -0.00000000
     atom    6 type  2   force =     0.90990984   -0.90990984   -0.00000000
     The local contribution  to forces
     atom    1 type  1   force =    -0.00000000   -0.00000000    0.00000000
     atom    2 type  1   force =     0.00000000    0.00000000    0.00000000
     atom    3 type  2   force =     0.89692299    0.89692299   -0.00000000
     atom    4 type  2   force =    -0.89692299   -0.89692299   -0.00000000
     atom    5 type  2   force =     0.89692299   -0.89692299    0.00000000
     atom    6 type  2   force =    -0.89692299    0.89692299    0.00000000
     The core correction contribution to forces
     atom    1 type  1   force =     0.00000000    0.00000000    0.00000000
     atom    2 type  1   force =     0.00000000    0.00000000    0.00000000
     atom    3 type  2   force =    -0.00175562   -0.00175562    0.00000000
     atom    4 type  2   force =     0.00175562    0.00175562    0.00000000
     atom    5 type  2   force =    -0.00175562    0.00175562    0.00000000
     atom    6 type  2   force =     0.00175562   -0.00175562    0.00000000
     The Hubbard contrib.    to forces
     atom    1 type  1   force =     0.00000000    0.00000000    0.00000000
     atom    2 type  1   force =     0.00000000    0.00000000    0.00000000
     atom    3 type  2   force =     0.00000000    0.00000000    0.00000000
     atom    4 type  2   force =     0.00000000    0.00000000    0.00000000
     atom    5 type  2   force =     0.00000000    0.00000000    0.00000000
     atom    6 type  2   force =     0.00000000    0.00000000    0.00000000
     The SCF correction term to forces
     atom    1 type  1   force =     0.00000000    0.00000000   -0.00000000
     atom    2 type  1   force =    -0.00000000   -0.00000000   -0.00000000
     atom    3 type  2   force =     0.00003832    0.00003832    0.00000000
     atom    4 type  2   force =    -0.00003832   -0.00003832    0.00000000
     atom    5 type  2   force =     0.00003832   -0.00003832    0.00000000
     atom    6 type  2   force =    -0.00003832    0.00003832    0.00000000

     Total force =     0.000575     Total SCF correction =     0.000108
     SCF correction compared to forces is large: reduce conv_thr to get better values


     Computing stress (Cartesian axis) and pressure

          total   stress  (Ry/bohr**3)                   (kbar)     P=       -0.07
  -0.00000103   0.00000000   0.00000000           -0.15        0.00        0.00
   0.00000000  -0.00000103   0.00000000            0.00       -0.15        0.00
   0.00000000   0.00000000   0.00000056            0.00        0.00        0.08

     kinetic stress (kbar)   7259.25      0.00      0.00
                                0.00   7259.25      0.00
                                0.00      0.00   7234.47

     local   stress (kbar)    825.01      0.00     -0.00
                                0.00    825.01      0.00
                               -0.00      0.00  -3589.73

     nonloc. stress (kbar)  -2041.31      0.00      0.00
                                0.00  -2041.31      0.00
                                0.00      0.00  -2033.96

     hartree stress (kbar)   2828.29      0.00      0.00
                                0.00   2828.29     -0.00
                                0.00     -0.00   4719.12

     exc-cor stress (kbar)  14203.58      0.00      0.00
                                0.00  14203.58      0.00
                                0.00      0.00  14204.55

     corecor stress (kbar) -16394.21     -0.00     -0.00
                               -0.00 -16394.21     -0.00
                               -0.00     -0.00 -16392.81

     ewald   stress (kbar)  -6680.77      0.00     -0.00
                                0.00  -6680.77     -0.00
                               -0.00     -0.00  -4141.56

     hubbard stress (kbar)      0.00      0.00      0.00
                                0.00      0.00      0.00
                                0.00      0.00      0.00

     DFT-D   stress (kbar)      0.00      0.00      0.00
                                0.00      0.00      0.00
                                0.00      0.00      0.00

     XDM     stress (kbar)      0.00      0.00      0.00
                                0.00      0.00      0.00
                                0.00      0.00      0.00

     dft-nl  stress (kbar)      0.00      0.00      0.00
                                0.00      0.00      0.00
                                0.00      0.00      0.00

     TS-vdW  stress (kbar)      0.00      0.00      0.00
                                0.00      0.00      0.00
                                0.00      0.00      0.00



     Writing output data file ./out/CsIsalt.save/
 
     init_run     :      5.53s CPU      6.10s WALL (       1 calls)
     electrons    :    123.59s CPU    141.30s WALL (       1 calls)
     forces       :      2.31s CPU      2.35s WALL (       1 calls)
     stress       :      8.51s CPU      8.59s WALL (       1 calls)

     Called by init_run:
     wfcinit      :      4.64s CPU      4.99s WALL (       1 calls)
     wfcinit:atom :      0.07s CPU      0.07s WALL (      18 calls)
     wfcinit:wfcr :      4.38s CPU      4.50s WALL (      18 calls)
     potinit      :      0.12s CPU      0.23s WALL (       1 calls)
     hinit0       :      0.39s CPU      0.43s WALL (       1 calls)

     Called by electrons:
     c_bands      :    100.52s CPU    115.87s WALL (       9 calls)
     sum_band     :     20.61s CPU     21.34s WALL (       9 calls)
     v_of_rho     :      0.21s CPU      0.22s WALL (       9 calls)
     v_h          :      0.02s CPU      0.02s WALL (       9 calls)
     v_xc         :      0.23s CPU      0.24s WALL (      11 calls)
     newd         :      2.18s CPU      2.51s WALL (       9 calls)
     mix_rho      :      0.21s CPU      0.23s WALL (       9 calls)

     Called by c_bands:
     init_us_2    :      0.82s CPU      0.83s WALL (     378 calls)
     cegterg      :     93.48s CPU     95.08s WALL (     162 calls)

     Called by sum_band:
     sum_band:wei :      0.00s CPU      0.00s WALL (       9 calls)
     sum_band:loo :     18.57s CPU     18.92s WALL (       9 calls)
     sum_band:buf :      0.46s CPU      0.49s WALL (     162 calls)
     sum_band:ini :      0.37s CPU      0.37s WALL (     162 calls)
     sum_band:cal :      1.24s CPU      1.25s WALL (     162 calls)
     sum_band:bec :      0.99s CPU      0.99s WALL (     162 calls)
     addusdens    :      1.93s CPU      2.30s WALL (       9 calls)
     addusd:skk   :      0.00s CPU      0.00s WALL (      18 calls)
     addusd:dgemm :      1.03s CPU      1.39s WALL (      18 calls)
     addusd:qvan2 :      0.86s CPU      0.86s WALL (      18 calls)

     Called by *egterg:
     cdiaghg      :      3.39s CPU      3.43s WALL (     704 calls)
     cegterg:over :      5.08s CPU      5.10s WALL (     560 calls)
     cegterg:upda :      3.07s CPU      3.09s WALL (     560 calls)
     cegterg:last :      6.41s CPU      6.43s WALL (     406 calls)
     h_psi        :     71.64s CPU     73.21s WALL (     740 calls)
     s_psi        :      4.76s CPU      4.78s WALL (     740 calls)
     g_psi        :      0.28s CPU      0.28s WALL (     560 calls)

     Called by h_psi:
     h_psi:calbec :      4.26s CPU      4.29s WALL (     740 calls)
     vloc_psi     :     61.22s CPU     62.68s WALL (     740 calls)
     add_vuspsi   :      5.00s CPU      5.04s WALL (     740 calls)

     General routines
     calbec       :      6.29s CPU      6.33s WALL (     992 calls)
     fft          :      0.29s CPU      0.33s WALL (     152 calls)
     ffts         :      0.04s CPU      0.04s WALL (      36 calls)
     fftw         :     64.77s CPU     66.31s WALL (  135124 calls)
 
     Parallel routines
     fft_scatt_xy :      8.04s CPU      8.23s WALL (  135312 calls)
     fft_scatt_yz :     24.06s CPU     24.64s WALL (  135312 calls)
 
     PWSCF        :   2m25.58s CPU   3m 7.73s WALL

 
   This run was terminated on:  12:17: 3  31Jan2021            

=------------------------------------------------------------------------------=
   JOB DONE.
=------------------------------------------------------------------------------=
