
     Program PWSCF v.6.4.1 starts on 23Jan2021 at 10:34:18 

     This program is part of the open-source Quantum ESPRESSO suite
     for quantum simulation of materials; please cite
         "P. Giannozzi et al., J. Phys.:Condens. Matter 21 395502 (2009);
         "P. Giannozzi et al., J. Phys.:Condens. Matter 29 465901 (2017);
          URL http://www.quantum-espresso.org", 
     in publications or presentations arising from this work. More details at
     http://www.quantum-espresso.org/quote

     Parallel version (MPI & OpenMP), running on      48 processor cores
     Number of MPI processes:                24
     Threads/MPI process:                     2

     MPI processes distributed on     1 nodes
     R & G space division:  proc/nbgrp/npool/nimage =      24
     Waiting for input...
     Reading input from standard input

     Current dimensions of program PWSCF are:
     Max number of different atomic species (ntypx) = 10
     Max number of k-points (npk) =  40000
     Max angular momentum in pseudopotentials (lmaxx) =  3
               file Cs.rel-pbesol-spn-kjpaw_psl.1.0.0.UPF: wavefunction(s)  5S 6S renormalized
               file Sn.rel-pbesol-dn-kjpaw_psl.1.0.0.UPF: wavefunction(s)  5S 5P 5P 4D 4D renormalized
               file I.rel-pbesol-n-kjpaw_psl.1.0.0.UPF: wavefunction(s)  5S renormalized

     Subspace diagonalization in iterative solution of the eigenvalue problem:
     one sub-group per band group will be used
     scalapack distributed-memory algorithm (size of sub-group:  3*  3 procs)

 
     Parallelization info
     --------------------
     sticks:   dense  smooth     PW     G-vecs:    dense   smooth      PW
     Min         407     271     69                76001    41379    5453
     Max         408     272     70                76009    41387    5468
     Sum        9769    6507   1679              1824109   993219  131163
 

     Title: 
     CsSnI3                                                                     


     bravais-lattice index     =            8
     lattice parameter (alat)  =       9.1317  a.u.
     unit-cell volume          =    6370.5385 (a.u.)^3
     number of atoms/cell      =           20
     number of atomic types    =            3
     number of electrons       =       176.00
     number of Kohn-Sham states=          176
     kinetic-energy cutoff     =     110.0000  Ry
     charge density cutoff     =     660.0000  Ry
     convergence threshold     =      1.0E-06
     mixing beta               =       0.3500
     number of iterations used =            8  plain     mixing
     Exchange-correlation      = SLA PW PSX PSC ( 1  4 10  8 0 0)
     Non magnetic calculation with spin-orbit


     celldm(1)=   9.131705  celldm(2)=   2.227728  celldm(3)=   3.755420
     celldm(4)=   0.000000  celldm(5)=   0.000000  celldm(6)=   0.000000

     crystal axes: (cart. coord. in units of alat)
               a(1) = (   1.000000   0.000000   0.000000 )  
               a(2) = (   0.000000   2.227728   0.000000 )  
               a(3) = (   0.000000   0.000000   3.755420 )  

     reciprocal axes: (cart. coord. in units 2 pi/alat)
               b(1) = (  1.000000  0.000000  0.000000 )  
               b(2) = (  0.000000  0.448888  0.000000 )  
               b(3) = (  0.000000  0.000000  0.266282 )  


     PseudoPot. # 1 for Cs read from file:
     /marconi_scratch/userexternal/cmalosso/degironcoli/pseudo/Cs.rel-pbesol-spn-kjpaw_psl.1.0.0.UPF
     MD5 check sum: 2adfb289dd462649b099d7edbec69378
     Pseudo is Projector augmented-wave + core cor, Zval =  9.0
     Generated using "atomic" code by A. Dal Corso v.6.4.1
     Shape of augmentation charge: PSQ
     Using radial grid of 1251 points, 15 beta functions with: 
                l(1) =   0
                l(2) =   0
                l(3) =   0
                l(4) =   1
                l(5) =   1
                l(6) =   1
                l(7) =   1
                l(8) =   2
                l(9) =   2
               l(10) =   2
               l(11) =   2
               l(12) =   3
               l(13) =   3
               l(14) =   3
               l(15) =   3
     Q(r) pseudized with 0 coefficients 


     PseudoPot. # 2 for Sn read from file:
     /marconi_scratch/userexternal/cmalosso/degironcoli/pseudo/Sn.rel-pbesol-dn-kjpaw_psl.1.0.0.UPF
     MD5 check sum: e69eff64f15ae39ad43ef58bacbfdf88
     Pseudo is Projector augmented-wave + core cor, Zval = 14.0
     Generated using "atomic" code by A. Dal Corso v.6.3
     Shape of augmentation charge: PSQ
     Using radial grid of 1243 points, 10 beta functions with: 
                l(1) =   0
                l(2) =   0
                l(3) =   1
                l(4) =   1
                l(5) =   1
                l(6) =   1
                l(7) =   2
                l(8) =   2
                l(9) =   2
               l(10) =   2
     Q(r) pseudized with 0 coefficients 


     PseudoPot. # 3 for I  read from file:
     /marconi_scratch/userexternal/cmalosso/degironcoli/pseudo/I.rel-pbesol-n-kjpaw_psl.1.0.0.UPF
     MD5 check sum: 4478c427bd443f303eca1937a163b991
     Pseudo is Projector augmented-wave + core cor, Zval =  7.0
     Generated using "atomic" code by A. Dal Corso v.6.3
     Shape of augmentation charge: PSQ
     Using radial grid of 1247 points, 10 beta functions with: 
                l(1) =   0
                l(2) =   0
                l(3) =   1
                l(4) =   1
                l(5) =   1
                l(6) =   1
                l(7) =   2
                l(8) =   2
                l(9) =   2
               l(10) =   2
     Q(r) pseudized with 0 coefficients 


     atomic species   valence    mass     pseudopotential
        Cs             9.00   132.90000     Cs( 1.00)
        Sn            14.00   118.70000     Sn( 1.00)
        I              7.00   126.90000     I ( 1.00)

      8 Sym. Ops., with inversion, found ( 6 have fractional translation)


                                    s                        frac. trans.

      isym =  1     identity                                     

 cryst.   s( 1) = (     1          0          0      )
                  (     0          1          0      )
                  (     0          0          1      )

 cart.    s( 1) = (  1.0000000  0.0000000  0.0000000 )
                  (  0.0000000  1.0000000  0.0000000 )
                  (  0.0000000  0.0000000  1.0000000 )


      isym =  2     180 deg rotation - cart. axis [0,0,1]        

 cryst.   s( 2) = (    -1          0          0      )    f =(  0.0000000 )
                  (     0         -1          0      )       (  0.5000000 )
                  (     0          0          1      )       (  0.5000000 )

 cart.    s( 2) = ( -1.0000000  0.0000000  0.0000000 )    f =(  0.0000000 )
                  (  0.0000000 -1.0000000  0.0000000 )       (  1.1138638 )
                  (  0.0000000  0.0000000  1.0000000 )       (  1.8777098 )


      isym =  3     180 deg rotation - cart. axis [0,1,0]        

 cryst.   s( 3) = (    -1          0          0      )    f =(  0.5000000 )
                  (     0          1          0      )       ( -0.5000000 )
                  (     0          0         -1      )       ( -0.5000000 )

 cart.    s( 3) = ( -1.0000000  0.0000000  0.0000000 )    f =(  0.5000000 )
                  (  0.0000000  1.0000000  0.0000000 )       ( -1.1138638 )
                  (  0.0000000  0.0000000 -1.0000000 )       ( -1.8777098 )


      isym =  4     180 deg rotation - cart. axis [1,0,0]        

 cryst.   s( 4) = (     1          0          0      )    f =( -0.5000000 )
                  (     0         -1          0      )       (  0.0000000 )
                  (     0          0         -1      )       (  0.0000000 )

 cart.    s( 4) = (  1.0000000  0.0000000  0.0000000 )    f =( -0.5000000 )
                  (  0.0000000 -1.0000000  0.0000000 )       (  0.0000000 )
                  (  0.0000000  0.0000000 -1.0000000 )       (  0.0000000 )


      isym =  5     inversion                                    

 cryst.   s( 5) = (    -1          0          0      )
                  (     0         -1          0      )
                  (     0          0         -1      )

 cart.    s( 5) = ( -1.0000000  0.0000000  0.0000000 )
                  (  0.0000000 -1.0000000  0.0000000 )
                  (  0.0000000  0.0000000 -1.0000000 )


      isym =  6     inv. 180 deg rotation - cart. axis [0,0,1]   

 cryst.   s( 6) = (     1          0          0      )    f =(  0.0000000 )
                  (     0          1          0      )       ( -0.5000000 )
                  (     0          0         -1      )       ( -0.5000000 )

 cart.    s( 6) = (  1.0000000  0.0000000  0.0000000 )    f =(  0.0000000 )
                  (  0.0000000  1.0000000  0.0000000 )       ( -1.1138638 )
                  (  0.0000000  0.0000000 -1.0000000 )       ( -1.8777098 )


      isym =  7     inv. 180 deg rotation - cart. axis [0,1,0]   

 cryst.   s( 7) = (     1          0          0      )    f =( -0.5000000 )
                  (     0         -1          0      )       (  0.5000000 )
                  (     0          0          1      )       (  0.5000000 )

 cart.    s( 7) = (  1.0000000  0.0000000  0.0000000 )    f =( -0.5000000 )
                  (  0.0000000 -1.0000000  0.0000000 )       (  1.1138638 )
                  (  0.0000000  0.0000000  1.0000000 )       (  1.8777098 )


      isym =  8     inv. 180 deg rotation - cart. axis [1,0,0]   

 cryst.   s( 8) = (    -1          0          0      )    f =(  0.5000000 )
                  (     0          1          0      )       (  0.0000000 )
                  (     0          0          1      )       (  0.0000000 )

 cart.    s( 8) = ( -1.0000000  0.0000000  0.0000000 )    f =(  0.5000000 )
                  (  0.0000000  1.0000000  0.0000000 )       (  0.0000000 )
                  (  0.0000000  0.0000000  1.0000000 )       (  0.0000000 )


     double point group D_2h (mmm) 
     there are 10 classes and  2 irreducible representations
     the character table:

       E     -E     C2    C2'  C2''  i     -i     s_v   s_v' s_v''
                   -C2   -C2'  -C2''             -s_v  -s_v' -s_v'
G_5+   2.00 -2.00  0.00  0.00  0.00  2.00 -2.00  0.00  0.00  0.00
G_5-   2.00 -2.00  0.00  0.00  0.00 -2.00  2.00  0.00  0.00  0.00

     the symmetry operations in each class and the name of the first element:

     E             1
          identity                                               
     -E           -1
          identity E                                             
      C2  -C2      2   -2
          180 deg rotation - cart. axis [0,0,1]                  
      C2' -C2'     4   -4
          180 deg rotation - cart. axis [1,0,0]                  
     C2'' -C2''    3   -3
          180 deg rotation - cart. axis [0,1,0]                  
     i             5
          inversion                                              
     -i           -5
          inversion E                                            
      s_v -s_v     6   -6
          inv. 180 deg rotation - cart. axis [0,0,1]             
      s_v'-s_v'    8   -8
          inv. 180 deg rotation - cart. axis [1,0,0]             
     s_v''-s_v'    7   -7
          inv. 180 deg rotation - cart. axis [0,1,0]             

   Cartesian axes

     site n.     atom                  positions (alat units)
         1           Cs  tau(   1) = (   0.2500000   0.1859640   2.5168147  )
         2           Cs  tau(   2) = (   0.7500000   2.0417636   1.2386050  )
         3           Cs  tau(   3) = (   0.2500000   1.2998278   3.1163149  )
         4           Cs  tau(   4) = (   0.7500000   0.9278998   0.6391048  )
         5           Sn  tau(   5) = (   0.2500000   0.7615710   1.6485466  )
         6           Sn  tau(   6) = (   0.7500000   1.4661567   2.1068731  )
         7           Sn  tau(   7) = (   0.2500000   1.8754348   0.2291632  )
         8           Sn  tau(   8) = (   0.7500000   0.3522928   3.5262565  )
         9           I   tau(   9) = (   0.7500000   0.0581437   0.4202578  )
        10           I   tau(  10) = (   0.2500000   2.1695839   3.3351619  )
        11           I   tau(  11) = (   0.7500000   1.1720075   1.4574521  )
        12           I   tau(  12) = (   0.2500000   1.0557201   2.2979676  )
        13           I   tau(  13) = (   0.7500000   0.6531118   2.9738192  )
        14           I   tau(  14) = (   0.2500000   1.5746158   0.7816005  )
        15           I   tau(  15) = (   0.7500000   1.7669756   2.6593103  )
        16           I   tau(  16) = (   0.2500000   0.4607520   1.0961094  )
        17           I   tau(  17) = (   0.7500000   0.3753632   1.8734812  )
        18           I   tau(  18) = (   0.2500000   1.8523644   1.8819384  )
        19           I   tau(  19) = (   0.7500000   1.4892270   0.0042286  )
        20           I   tau(  20) = (   0.2500000   0.7385006   3.7511911  )

   Crystallographic axes

     site n.     atom                  positions (cryst. coord.)
         1           Cs  tau(   1) = (  0.2500000  0.0834770  0.6701820  )
         2           Cs  tau(   2) = (  0.7500000  0.9165230  0.3298180  )
         3           Cs  tau(   3) = (  0.2500000  0.5834770  0.8298180  )
         4           Cs  tau(   4) = (  0.7500000  0.4165230  0.1701820  )
         5           Sn  tau(   5) = (  0.2500000  0.3418600  0.4389780  )
         6           Sn  tau(   6) = (  0.7500000  0.6581400  0.5610220  )
         7           Sn  tau(   7) = (  0.2500000  0.8418600  0.0610220  )
         8           Sn  tau(   8) = (  0.7500000  0.1581400  0.9389780  )
         9           I   tau(   9) = (  0.7500000  0.0261000  0.1119070  )
        10           I   tau(  10) = (  0.2500000  0.9739000  0.8880930  )
        11           I   tau(  11) = (  0.7500000  0.5261000  0.3880930  )
        12           I   tau(  12) = (  0.2500000  0.4739000  0.6119070  )
        13           I   tau(  13) = (  0.7500000  0.2931740  0.7918740  )
        14           I   tau(  14) = (  0.2500000  0.7068260  0.2081260  )
        15           I   tau(  15) = (  0.7500000  0.7931740  0.7081260  )
        16           I   tau(  16) = (  0.2500000  0.2068260  0.2918740  )
        17           I   tau(  17) = (  0.7500000  0.1684960  0.4988740  )
        18           I   tau(  18) = (  0.2500000  0.8315040  0.5011260  )
        19           I   tau(  19) = (  0.7500000  0.6684960  0.0011260  )
        20           I   tau(  20) = (  0.2500000  0.3315040  0.9988740  )

     number of k points=     1
                       cart. coord. in units 2pi/alat
        k(    1) = (   0.2500000   0.1122220   0.0665705), wk =   1.0000000

                       cryst. coord.
        k(    1) = (   0.2500000   0.2500000   0.2500000), wk =   1.0000000

     Dense  grid:  1824109 G-vectors     FFT dimensions: (  80, 180, 288)

     Smooth grid:   993219 G-vectors     FFT dimensions: (  64, 144, 240)

     Dynamical RAM for                 wfc:      27.77 MB

     Dynamical RAM for     wfc (w. buffer):      27.77 MB

     Dynamical RAM for           str. fact:       3.48 MB

     Dynamical RAM for           local pot:       0.00 MB

     Dynamical RAM for          nlocal pot:      62.81 MB

     Dynamical RAM for                qrad:      71.85 MB

     Dynamical RAM for          rho,v,vnew:      29.74 MB

     Dynamical RAM for               rhoin:       9.91 MB

     Dynamical RAM for            rho*nmix:      74.23 MB

     Dynamical RAM for           G-vectors:       4.67 MB

     Dynamical RAM for          h,s,v(r/c):       2.51 MB

     Dynamical RAM for          <psi|beta>:       4.28 MB

     Dynamical RAM for                 psi:     111.10 MB

     Dynamical RAM for                hpsi:     111.10 MB

     Dynamical RAM for                spsi:     111.10 MB

     Dynamical RAM for      wfcinit/wfcrot:      50.23 MB

     Dynamical RAM for           addusdens:    2383.40 MB

     Dynamical RAM for          addusforce:    2438.25 MB

     Dynamical RAM for         addusstress:    2404.28 MB

     Estimated static dynamical RAM per process >     299.64 MB

     Estimated max dynamical RAM per process >       2.67 GB

     Estimated total dynamical RAM >      64.17 GB

     Initial potential from superposition of free atoms

     starting charge  175.84163, renormalised to  176.00000
     Starting wfcs are  208 randomized atomic wfcs
     Checking if some PAW data can be deallocated... 
       PAW data deallocated on   16 nodes for type:  1
       PAW data deallocated on   20 nodes for type:  2
       PAW data deallocated on   12 nodes for type:  3

     total cpu time spent up to now is       45.1 secs

     Self-consistent Calculation

     iteration #  1     ecut=   110.00 Ry     beta= 0.35
     Davidson diagonalization with overlap
     ethr =  1.00E-02,  avg # of iterations =  1.0

     Threshold (ethr) on eigenvalues was too large:
     Diagonalizing with lowered threshold

     Davidson diagonalization with overlap
     ethr =  3.19E-04,  avg # of iterations = 13.0

     negative rho (up, down):  1.886E+03 0.000E+00

     total cpu time spent up to now is      230.0 secs

     total energy              =  -11172.15545625 Ry
     Harris-Foulkes estimate   =   -7900.75580477 Ry
     estimated scf accuracy    < 6200300.89145567 Ry

     iteration #  2     ecut=   110.00 Ry     beta= 0.35
     Davidson diagonalization with overlap
     c_bands:  1 eigenvalues not converged
     ethr =  1.00E-02,  avg # of iterations = 20.0

     negative rho (up, down):  2.225E+03 0.000E+00

     total cpu time spent up to now is      507.2 secs

     total energy              =  -73682.15590354 Ry
     Harris-Foulkes estimate   =  -64815.79468338 Ry
     estimated scf accuracy    <  186718.26926725 Ry

     iteration #  3     ecut=   110.00 Ry     beta= 0.35
     Davidson diagonalization with overlap
     ethr =  1.00E-02,  avg # of iterations =  8.0

     negative rho (up, down):  6.067E+03 0.000E+00

     total cpu time spent up to now is      648.8 secs

     total energy              = -198915.12315261 Ry
     Harris-Foulkes estimate   = -121138.45352974 Ry
     estimated scf accuracy    < 3443349.30258067 Ry

     iteration #  4     ecut=   110.00 Ry     beta= 0.35
     Davidson diagonalization with overlap
     ethr =  1.00E-02,  avg # of iterations = 22.0

     negative rho (up, down):  4.585E+03 0.000E+00

     total cpu time spent up to now is      854.2 secs

     total energy              = -190702.77776182 Ry
     Harris-Foulkes estimate   = -199554.08616232 Ry
     estimated scf accuracy    <   24400.11093093 Ry

     iteration #  5     ecut=   110.00 Ry     beta= 0.35
     Davidson diagonalization with overlap
     ethr =  1.00E-02,  avg # of iterations =  5.0

     negative rho (up, down):  4.249E+03 0.000E+00

     total cpu time spent up to now is      978.6 secs

     total energy              = -191134.23870829 Ry
     Harris-Foulkes estimate   = -190763.33604366 Ry
     estimated scf accuracy    <  579095.49863121 Ry

     iteration #  6     ecut=   110.00 Ry     beta= 0.35
     Davidson diagonalization with overlap
     ethr =  1.00E-02,  avg # of iterations =  8.0

     negative rho (up, down):  5.373E+03 0.000E+00

     total cpu time spent up to now is     1079.2 secs

     total energy              = -189493.57789831 Ry
     Harris-Foulkes estimate   = -191147.87060198 Ry
     estimated scf accuracy    <  841922.95356338 Ry

     iteration #  7     ecut=   110.00 Ry     beta= 0.35
     Davidson diagonalization with overlap
     ethr =  1.00E-02,  avg # of iterations =  9.0

     negative rho (up, down):  5.148E+03 0.000E+00

     total cpu time spent up to now is     1212.6 secs

     total energy              = -189834.43692522 Ry
     Harris-Foulkes estimate   = -189611.05591351 Ry
     estimated scf accuracy    <  153212.68443507 Ry

     iteration #  8     ecut=   110.00 Ry     beta= 0.35
     Davidson diagonalization with overlap
     ethr =  1.00E-02,  avg # of iterations =  2.0

     negative rho (up, down):  5.052E+03 0.000E+00

     total cpu time spent up to now is     1307.4 secs

     total energy              = -189920.24967903 Ry
     Harris-Foulkes estimate   = -189837.92382531 Ry
     estimated scf accuracy    <  246463.18873780 Ry

     iteration #  9     ecut=   110.00 Ry     beta= 0.35
     Davidson diagonalization with overlap
     ethr =  1.00E-02,  avg # of iterations =  2.0

     negative rho (up, down):  5.103E+03 0.000E+00

     total cpu time spent up to now is     1391.0 secs

     total energy              = -189853.43276697 Ry
     Harris-Foulkes estimate   = -189920.96762304 Ry
     estimated scf accuracy    <  293316.46551547 Ry

     iteration # 10     ecut=   110.00 Ry     beta= 0.35
     Davidson diagonalization with overlap
     ethr =  1.00E-02,  avg # of iterations =  1.0

     negative rho (up, down):  5.754E+03 0.000E+00

     total cpu time spent up to now is     1475.5 secs

     total energy              = -189251.60607311 Ry
     Harris-Foulkes estimate   = -189853.63681284 Ry
     estimated scf accuracy    <  267986.38468443 Ry

     iteration # 11     ecut=   110.00 Ry     beta= 0.35
     Davidson diagonalization with overlap
     ethr =  1.00E-02,  avg # of iterations =  4.0

     negative rho (up, down):  6.211E+03 0.000E+00

     total cpu time spent up to now is     1590.1 secs

     total energy              = -189141.67426247 Ry
     Harris-Foulkes estimate   = -189281.55146507 Ry
     estimated scf accuracy    <   45449.12006001 Ry

     iteration # 12     ecut=   110.00 Ry     beta= 0.35
     Davidson diagonalization with overlap
     ethr =  1.00E-02,  avg # of iterations =  4.0

     negative rho (up, down):  6.210E+03 0.000E+00

     total cpu time spent up to now is     1701.7 secs

     total energy              = -189155.82372732 Ry
     Harris-Foulkes estimate   = -189155.87926330 Ry
     estimated scf accuracy    <       5.07057630 Ry

     iteration # 13     ecut=   110.00 Ry     beta= 0.35
     Davidson diagonalization with overlap
     ethr =  2.88E-03,  avg # of iterations =  1.0

     negative rho (up, down):  6.211E+03 0.000E+00

     total cpu time spent up to now is     1783.9 secs

     total energy              = -189156.17859190 Ry
     Harris-Foulkes estimate   = -189155.93496390 Ry
     estimated scf accuracy    <       3.18400118 Ry

     iteration # 14     ecut=   110.00 Ry     beta= 0.35
     Davidson diagonalization with overlap
     ethr =  1.81E-03,  avg # of iterations =  1.0

     negative rho (up, down):  6.211E+03 0.000E+00

     total cpu time spent up to now is     1868.4 secs

     total energy              = -189156.14779168 Ry
     Harris-Foulkes estimate   = -189156.22174023 Ry
     estimated scf accuracy    <       3.66368111 Ry

     iteration # 15     ecut=   110.00 Ry     beta= 0.35
     Davidson diagonalization with overlap
     ethr =  1.81E-03,  avg # of iterations =  1.0

     negative rho (up, down):  6.210E+03 0.000E+00

     total cpu time spent up to now is     1956.3 secs

     total energy              = -189156.03808541 Ry
     Harris-Foulkes estimate   = -189156.17140967 Ry
     estimated scf accuracy    <       3.88157750 Ry

     iteration # 16     ecut=   110.00 Ry     beta= 0.35
     Davidson diagonalization with overlap
     ethr =  1.81E-03,  avg # of iterations =  1.0

     negative rho (up, down):  6.210E+03 0.000E+00

     total cpu time spent up to now is     2039.6 secs

     total energy              = -189156.07783187 Ry
     Harris-Foulkes estimate   = -189156.05836949 Ry
     estimated scf accuracy    <       3.33267380 Ry

     iteration # 17     ecut=   110.00 Ry     beta= 0.35
     Davidson diagonalization with overlap
     ethr =  1.81E-03,  avg # of iterations =  1.0

     negative rho (up, down):  6.210E+03 0.000E+00

     total cpu time spent up to now is     2121.0 secs

     total energy              = -189155.84094724 Ry
     Harris-Foulkes estimate   = -189156.10144529 Ry
     estimated scf accuracy    <       2.66626925 Ry

     iteration # 18     ecut=   110.00 Ry     beta= 0.35
     Davidson diagonalization with overlap
     ethr =  1.51E-03,  avg # of iterations =  2.0

     negative rho (up, down):  6.210E+03 0.000E+00

     total cpu time spent up to now is     2203.2 secs

     total energy              = -189156.02656524 Ry
     Harris-Foulkes estimate   = -189155.91092000 Ry
     estimated scf accuracy    <       5.77769006 Ry

     iteration # 19     ecut=   110.00 Ry     beta= 0.35
     Davidson diagonalization with overlap
     ethr =  1.51E-03,  avg # of iterations =  2.0

     negative rho (up, down):  6.209E+03 0.000E+00

     total cpu time spent up to now is     2282.6 secs

     total energy              = -189156.15692195 Ry
     Harris-Foulkes estimate   = -189156.08445269 Ry
     estimated scf accuracy    <       1.87426481 Ry

     iteration # 20     ecut=   110.00 Ry     beta= 0.35
     Davidson diagonalization with overlap
     ethr =  1.06E-03,  avg # of iterations =  2.0

     negative rho (up, down):  6.209E+03 0.000E+00

     total cpu time spent up to now is     2365.0 secs

     total energy              = -189156.19433227 Ry
     Harris-Foulkes estimate   = -189156.22819161 Ry
     estimated scf accuracy    <       0.38911652 Ry

     iteration # 21     ecut=   110.00 Ry     beta= 0.35
     Davidson diagonalization with overlap
     ethr =  2.21E-04,  avg # of iterations =  8.0

     negative rho (up, down):  6.209E+03 0.000E+00

     total cpu time spent up to now is     2484.7 secs

     total energy              = -189156.73423707 Ry
     Harris-Foulkes estimate   = -189156.81552746 Ry
     estimated scf accuracy    <       0.65220651 Ry

     iteration # 22     ecut=   110.00 Ry     beta= 0.35
     Davidson diagonalization with overlap
     ethr =  2.21E-04,  avg # of iterations =  2.0

     negative rho (up, down):  6.209E+03 0.000E+00

     total cpu time spent up to now is     2564.1 secs

     total energy              = -189156.76205743 Ry
     Harris-Foulkes estimate   = -189156.74249174 Ry
     estimated scf accuracy    <       1.10190045 Ry

     iteration # 23     ecut=   110.00 Ry     beta= 0.35
     Davidson diagonalization with overlap
     ethr =  2.21E-04,  avg # of iterations =  1.0

     negative rho (up, down):  6.209E+03 0.000E+00

     total cpu time spent up to now is     2631.9 secs

     total energy              = -189156.81066263 Ry
     Harris-Foulkes estimate   = -189156.76492430 Ry
     estimated scf accuracy    <       0.28496564 Ry

     iteration # 24     ecut=   110.00 Ry     beta= 0.35
     Davidson diagonalization with overlap
     ethr =  1.62E-04,  avg # of iterations =  5.0

     negative rho (up, down):  6.209E+03 0.000E+00

     total cpu time spent up to now is     2724.0 secs

     total energy              = -189156.95725616 Ry
     Harris-Foulkes estimate   = -189157.01461155 Ry
     estimated scf accuracy    <       4.50934671 Ry

     iteration # 25     ecut=   110.00 Ry     beta= 0.35
     Davidson diagonalization with overlap
     ethr =  1.62E-04,  avg # of iterations =  2.0

     negative rho (up, down):  6.209E+03 0.000E+00

     total cpu time spent up to now is     2792.8 secs

     total energy              = -189156.76681865 Ry
     Harris-Foulkes estimate   = -189156.96432823 Ry
     estimated scf accuracy    <       3.52804484 Ry

     iteration # 26     ecut=   110.00 Ry     beta= 0.35
     Davidson diagonalization with overlap
     ethr =  1.62E-04,  avg # of iterations =  5.0

     negative rho (up, down):  6.209E+03 0.000E+00

     total cpu time spent up to now is     2875.4 secs

     total energy              = -189156.92215613 Ry
     Harris-Foulkes estimate   = -189156.85049711 Ry
     estimated scf accuracy    <       0.24765484 Ry

     iteration # 27     ecut=   110.00 Ry     beta= 0.35
     Davidson diagonalization with overlap
     ethr =  1.41E-04,  avg # of iterations =  5.0

     negative rho (up, down):  6.209E+03 0.000E+00

     total cpu time spent up to now is     2961.9 secs

     total energy              = -189157.17724908 Ry
     Harris-Foulkes estimate   = -189157.15633144 Ry
     estimated scf accuracy    <       1.55227743 Ry

     iteration # 28     ecut=   110.00 Ry     beta= 0.35
     Davidson diagonalization with overlap
     ethr =  1.41E-04,  avg # of iterations =  1.0

     negative rho (up, down):  6.209E+03 0.000E+00

     total cpu time spent up to now is     3026.5 secs

     total energy              = -189156.80064513 Ry
     Harris-Foulkes estimate   = -189157.17895225 Ry
     estimated scf accuracy    <       1.35816525 Ry

     iteration # 29     ecut=   110.00 Ry     beta= 0.35
     Davidson diagonalization with overlap
     ethr =  1.41E-04,  avg # of iterations =  4.0

     negative rho (up, down):  6.210E+03 0.000E+00

     total cpu time spent up to now is     3105.7 secs

     total energy              = -189152.20888403 Ry
     Harris-Foulkes estimate   = -189156.91824069 Ry
     estimated scf accuracy    <       1.87820784 Ry

     iteration # 30     ecut=   110.00 Ry     beta= 0.35
     Davidson diagonalization with overlap
     ethr =  1.41E-04,  avg # of iterations =  5.0

     negative rho (up, down):  6.210E+03 0.000E+00

     total cpu time spent up to now is     3213.6 secs

     total energy              = -189157.37141026 Ry
     Harris-Foulkes estimate   = -189158.47106789 Ry
     estimated scf accuracy    <       0.74972865 Ry

     iteration # 31     ecut=   110.00 Ry     beta= 0.35
     Davidson diagonalization with overlap
     ethr =  1.41E-04,  avg # of iterations =  5.0

     negative rho (up, down):  6.210E+03 0.000E+00

     total cpu time spent up to now is     3316.0 secs

     total energy              = -189154.46597835 Ry
     Harris-Foulkes estimate   = -189159.09363954 Ry
     estimated scf accuracy    <       5.22259606 Ry

     iteration # 32     ecut=   110.00 Ry     beta= 0.35
     Davidson diagonalization with overlap
     ethr =  1.41E-04,  avg # of iterations =  5.0

     negative rho (up, down):  6.210E+03 0.000E+00

     total cpu time spent up to now is     3426.4 secs

     total energy              = -189146.95998866 Ry
     Harris-Foulkes estimate   = -189158.13755819 Ry
     estimated scf accuracy    <       2.89801969 Ry

     iteration # 33     ecut=   110.00 Ry     beta= 0.35
     Davidson diagonalization with overlap
     ethr =  1.41E-04,  avg # of iterations =  8.0

     negative rho (up, down):  6.210E+03 0.000E+00

     total cpu time spent up to now is     3535.2 secs

     total energy              = -189160.04418939 Ry
     Harris-Foulkes estimate   = -189159.97822430 Ry
     estimated scf accuracy    <       7.93713511 Ry

     iteration # 34     ecut=   110.00 Ry     beta= 0.35
     Davidson diagonalization with overlap
     ethr =  1.41E-04,  avg # of iterations =  6.0

     negative rho (up, down):  6.210E+03 0.000E+00

     total cpu time spent up to now is     3629.9 secs

     total energy              = -189154.45666652 Ry
     Harris-Foulkes estimate   = -189160.33843273 Ry
     estimated scf accuracy    <      13.12209595 Ry

     iteration # 35     ecut=   110.00 Ry     beta= 0.35
     Davidson diagonalization with overlap
     ethr =  1.41E-04,  avg # of iterations =  5.0

     negative rho (up, down):  6.210E+03 0.000E+00

     total cpu time spent up to now is     3731.9 secs

     total energy              = -189152.19090762 Ry
     Harris-Foulkes estimate   = -189159.11815713 Ry
     estimated scf accuracy    <       0.97202996 Ry

     iteration # 36     ecut=   110.00 Ry     beta= 0.35
     Davidson diagonalization with overlap
     ethr =  1.41E-04,  avg # of iterations =  6.0

     negative rho (up, down):  6.210E+03 0.000E+00

     total cpu time spent up to now is     3840.0 secs

     total energy              = -189160.69284239 Ry
     Harris-Foulkes estimate   = -189160.94949771 Ry
     estimated scf accuracy    <      15.68811634 Ry

     iteration # 37     ecut=   110.00 Ry     beta= 0.35
     Davidson diagonalization with overlap
     ethr =  1.41E-04,  avg # of iterations =  5.0

     negative rho (up, down):  6.210E+03 0.000E+00

     total cpu time spent up to now is     3938.0 secs

     total energy              = -189161.03007124 Ry
     Harris-Foulkes estimate   = -189162.15123992 Ry
     estimated scf accuracy    <      28.94812410 Ry

     iteration # 38     ecut=   110.00 Ry     beta= 0.35
     Davidson diagonalization with overlap
     ethr =  1.41E-04,  avg # of iterations =  5.0

     negative rho (up, down):  6.210E+03 0.000E+00

     total cpu time spent up to now is     4032.6 secs

     total energy              = -189160.38906123 Ry
     Harris-Foulkes estimate   = -189161.44804989 Ry
     estimated scf accuracy    <      20.10827053 Ry

     iteration # 39     ecut=   110.00 Ry     beta= 0.35
     Davidson diagonalization with overlap
     ethr =  1.41E-04,  avg # of iterations =  4.0

     negative rho (up, down):  6.210E+03 0.000E+00

     total cpu time spent up to now is     4125.9 secs

     total energy              = -189160.83133679 Ry
     Harris-Foulkes estimate   = -189160.83955929 Ry
     estimated scf accuracy    <      13.83333236 Ry

     iteration # 40     ecut=   110.00 Ry     beta= 0.35
     Davidson diagonalization with overlap
     ethr =  1.41E-04,  avg # of iterations =  1.0

     negative rho (up, down):  6.210E+03 0.000E+00

     total cpu time spent up to now is     4194.2 secs

     total energy              = -189159.76609083 Ry
     Harris-Foulkes estimate   = -189160.83214628 Ry
     estimated scf accuracy    <      12.84207583 Ry

     iteration # 41     ecut=   110.00 Ry     beta= 0.35
     Davidson diagonalization with overlap
     ethr =  1.41E-04,  avg # of iterations =  4.0

     negative rho (up, down):  6.210E+03 0.000E+00

     total cpu time spent up to now is     4288.5 secs

     total energy              = -189142.25067056 Ry
     Harris-Foulkes estimate   = -189160.28850407 Ry
     estimated scf accuracy    <      10.19513042 Ry

     iteration # 42     ecut=   110.00 Ry     beta= 0.35
     Davidson diagonalization with overlap
     ethr =  1.41E-04,  avg # of iterations = 10.0

     negative rho (up, down):  6.210E+03 0.000E+00

     total cpu time spent up to now is     4418.8 secs

     total energy              = -189155.90496330 Ry
     Harris-Foulkes estimate   = -189158.20109397 Ry
     estimated scf accuracy    <      11.98592525 Ry

     iteration # 43     ecut=   110.00 Ry     beta= 0.35
     Davidson diagonalization with overlap
     ethr =  1.41E-04,  avg # of iterations =  5.0

     negative rho (up, down):  6.210E+03 0.000E+00

     total cpu time spent up to now is     4545.4 secs

     total energy              = -189159.09187442 Ry
     Harris-Foulkes estimate   = -189159.07237341 Ry
     estimated scf accuracy    <       5.07871107 Ry

     iteration # 44     ecut=   110.00 Ry     beta= 0.35
     Davidson diagonalization with overlap
     ethr =  1.41E-04,  avg # of iterations =  1.0

     negative rho (up, down):  6.210E+03 0.000E+00

     total cpu time spent up to now is     4610.1 secs

     total energy              = -189158.81156681 Ry
     Harris-Foulkes estimate   = -189159.09413263 Ry
     estimated scf accuracy    <       4.77409265 Ry

     iteration # 45     ecut=   110.00 Ry     beta= 0.35
     Davidson diagonalization with overlap
     ethr =  1.41E-04,  avg # of iterations =  4.0

     negative rho (up, down):  6.210E+03 0.000E+00

     total cpu time spent up to now is     4702.5 secs

     total energy              = -189158.42088404 Ry
     Harris-Foulkes estimate   = -189158.92411186 Ry
     estimated scf accuracy    <       5.84689674 Ry

     iteration # 46     ecut=   110.00 Ry     beta= 0.35
     Davidson diagonalization with overlap
     ethr =  1.41E-04,  avg # of iterations =  4.0

     negative rho (up, down):  6.210E+03 0.000E+00

     total cpu time spent up to now is     4811.8 secs

     total energy              = -189159.39932812 Ry
     Harris-Foulkes estimate   = -189159.40244576 Ry
     estimated scf accuracy    <       5.50916908 Ry

     iteration # 47     ecut=   110.00 Ry     beta= 0.35
     Davidson diagonalization with overlap
     ethr =  1.41E-04,  avg # of iterations =  4.0

     negative rho (up, down):  6.210E+03 0.000E+00

     total cpu time spent up to now is     4914.7 secs

     total energy              = -189158.69854428 Ry
     Harris-Foulkes estimate   = -189159.66452837 Ry
     estimated scf accuracy    <       6.03083450 Ry

     iteration # 48     ecut=   110.00 Ry     beta= 0.35
     Davidson diagonalization with overlap
     ethr =  1.41E-04,  avg # of iterations =  5.0

     negative rho (up, down):  6.210E+03 0.000E+00

     total cpu time spent up to now is     5028.8 secs

     total energy              = -189160.44432846 Ry
     Harris-Foulkes estimate   = -189160.51918557 Ry
     estimated scf accuracy    <       8.98149324 Ry

     iteration # 49     ecut=   110.00 Ry     beta= 0.35
     Davidson diagonalization with overlap
     ethr =  1.41E-04,  avg # of iterations =  5.0

     negative rho (up, down):  6.210E+03 0.000E+00

     total cpu time spent up to now is     5140.8 secs

     total energy              = -189149.46850095 Ry
     Harris-Foulkes estimate   = -189161.29081188 Ry
     estimated scf accuracy    <      16.96059910 Ry

     iteration # 50     ecut=   110.00 Ry     beta= 0.35
     Davidson diagonalization with overlap
     ethr =  1.41E-04,  avg # of iterations =  6.0

     negative rho (up, down):  6.210E+03 0.000E+00

     total cpu time spent up to now is     5277.0 secs

     total energy              = -189128.41569729 Ry
     Harris-Foulkes estimate   = -189159.20991174 Ry
     estimated scf accuracy    <       5.13419946 Ry

     iteration # 51     ecut=   110.00 Ry     beta= 0.35
     Davidson diagonalization with overlap
     ethr =  1.41E-04,  avg # of iterations = 10.0

     negative rho (up, down):  6.210E+03 0.000E+00

     total cpu time spent up to now is     5431.5 secs

     total energy              = -189154.49232614 Ry
     Harris-Foulkes estimate   = -189156.16208834 Ry
     estimated scf accuracy    <      16.90852039 Ry

     iteration # 52     ecut=   110.00 Ry     beta= 0.35
     Davidson diagonalization with overlap
     ethr =  1.41E-04,  avg # of iterations =  5.0

     negative rho (up, down):  6.211E+03 0.000E+00

     total cpu time spent up to now is     5535.8 secs

     total energy              = -189145.58590034 Ry
     Harris-Foulkes estimate   = -189155.53245749 Ry
     estimated scf accuracy    <      13.47277892 Ry

     iteration # 53     ecut=   110.00 Ry     beta= 0.35
     Davidson diagonalization with overlap
     ethr =  1.41E-04,  avg # of iterations =  6.0

     negative rho (up, down):  6.210E+03 0.000E+00

     total cpu time spent up to now is     5658.4 secs

     total energy              = -189139.99790192 Ry
     Harris-Foulkes estimate   = -189154.53531544 Ry
     estimated scf accuracy    <      23.69355125 Ry

     iteration # 54     ecut=   110.00 Ry     beta= 0.35
     Davidson diagonalization with overlap
     ethr =  1.41E-04,  avg # of iterations =  8.0

     negative rho (up, down):  6.210E+03 0.000E+00

     total cpu time spent up to now is     5792.8 secs

     total energy              = -189156.26894164 Ry
     Harris-Foulkes estimate   = -189156.17599076 Ry
     estimated scf accuracy    <      12.01152738 Ry

     iteration # 55     ecut=   110.00 Ry     beta= 0.35
     Davidson diagonalization with overlap
     ethr =  1.41E-04,  avg # of iterations =  5.0

     negative rho (up, down):  6.210E+03 0.000E+00

     total cpu time spent up to now is     5878.2 secs

     total energy              = -189141.59214373 Ry
     Harris-Foulkes estimate   = -189156.38841914 Ry
     estimated scf accuracy    <      11.80425182 Ry

     iteration # 56     ecut=   110.00 Ry     beta= 0.35
     Davidson diagonalization with overlap
     ethr =  1.41E-04,  avg # of iterations =  9.0

     negative rho (up, down):  6.210E+03 0.000E+00

     total cpu time spent up to now is     6014.5 secs

     total energy              = -189154.54281800 Ry
     Harris-Foulkes estimate   = -189158.87577540 Ry
     estimated scf accuracy    <       5.88292819 Ry

     iteration # 57     ecut=   110.00 Ry     beta= 0.35
     Davidson diagonalization with overlap
     ethr =  1.41E-04,  avg # of iterations =  6.0

     negative rho (up, down):  6.210E+03 0.000E+00

     total cpu time spent up to now is     6135.8 secs

     total energy              = -189158.64992920 Ry
     Harris-Foulkes estimate   = -189160.11383022 Ry
     estimated scf accuracy    <      12.68599747 Ry

     iteration # 58     ecut=   110.00 Ry     beta= 0.35
     Davidson diagonalization with overlap
     ethr =  1.41E-04,  avg # of iterations =  4.0

     negative rho (up, down):  6.210E+03 0.000E+00

     total cpu time spent up to now is     6235.1 secs

     total energy              = -189159.62750411 Ry
     Harris-Foulkes estimate   = -189159.56144931 Ry
     estimated scf accuracy    <       9.15591146 Ry

     iteration # 59     ecut=   110.00 Ry     beta= 0.35
     Davidson diagonalization with overlap
