
     Program PWSCF v.6.7MaX starts on 15Jan2021 at 14:18:34 

     This program is part of the open-source Quantum ESPRESSO suite
     for quantum simulation of materials; please cite
         "P. Giannozzi et al., J. Phys.:Condens. Matter 21 395502 (2009);
         "P. Giannozzi et al., J. Phys.:Condens. Matter 29 465901 (2017);
          URL http://www.quantum-espresso.org", 
     in publications or presentations arising from this work. More details at
     http://www.quantum-espresso.org/quote

     Parallel version (MPI), running on    64 processors

     MPI processes distributed on     2 nodes
     R & G space division:  proc/nbgrp/npool/nimage =      64
     Waiting for input...
     Reading input from standard input

     Current dimensions of program PWSCF are:
     Max number of different atomic species (ntypx) = 10
     Max number of k-points (npk) =  40000
     Max angular momentum in pseudopotentials (lmaxx) =  3
     file Sn.pbe-dn-kjpaw_psl.1.0.0.UPF: wavefunction(s)  5S 5P 4D renormalized
     file I.pbe-n-kjpaw_psl.1.0.0.UPF: wavefunction(s)  5S renormalized

     Subspace diagonalization in iterative solution of the eigenvalue problem:
     a serial algorithm will be used

     Message from routine setup:
     using ibrav=0 with symmetry is DISCOURAGED, use correct ibrav instead

     Parallelization info
     --------------------
     sticks:   dense  smooth     PW     G-vecs:    dense   smooth      PW
     Min          39      39     11                 1499     1499     223
     Max          40      40     12                 1506     1506     227
     Sum        2545    2545    717                96177    96177   14363


     Title: 
     SnI4un                                                                     


     bravais-lattice index     =            0
     lattice parameter (alat)  =      12.6355  a.u.
     unit-cell volume          =    2017.3401 (a.u.)^3
     number of atoms/cell      =            5
     number of atomic types    =            2
     number of electrons       =        42.00
     number of Kohn-Sham states=           23
     kinetic-energy cutoff     =      50.0000  Ry
     charge density cutoff     =     200.0000  Ry
     scf convergence threshold =      1.0E-06
     mixing beta               =       0.7000
     number of iterations used =            8  plain     mixing
     Exchange-correlation= SLA  PW   PBX  PBC
                           (   1   4   3   4   0   0   0)

     celldm(1)=  12.635518  celldm(2)=   0.000000  celldm(3)=   0.000000
     celldm(4)=   0.000000  celldm(5)=   0.000000  celldm(6)=   0.000000

     crystal axes: (cart. coord. in units of alat)
               a(1) = (   1.000000   0.000000   0.000000 )  
               a(2) = (   0.000000   1.000000   0.000000 )  
               a(3) = (   0.000000   0.000000   1.000000 )  

     reciprocal axes: (cart. coord. in units 2 pi/alat)
               b(1) = (  1.000000  0.000000  0.000000 )  
               b(2) = (  0.000000  1.000000  0.000000 )  
               b(3) = (  0.000000  0.000000  1.000000 )  


     PseudoPot. # 1 for Sn read from file:
     ../../../pseudo/Sn.pbe-dn-kjpaw_psl.1.0.0.UPF
     MD5 check sum: 67f11dec737d427557dc41ea34975807
     Pseudo is Projector augmented-wave + core cor, Zval = 14.0
     Generated using &quot;atomic&quot; code by A. Dal Corso  v.6.3
     Shape of augmentation charge: PSQ
     Using radial grid of 1243 points,  6 beta functions with: 
                l(1) =   0
                l(2) =   0
                l(3) =   1
                l(4) =   1
                l(5) =   2
                l(6) =   2
     Q(r) pseudized with 0 coefficients 


     PseudoPot. # 2 for I  read from file:
     ../../../pseudo/I.pbe-n-kjpaw_psl.1.0.0.UPF
     MD5 check sum: cd3d296c3308a581e1559a0c8a554cb5
     Pseudo is Projector augmented-wave + core cor, Zval =  7.0
     Generated using &quot;atomic&quot; code by A. Dal Corso  v.6.3
     Shape of augmentation charge: PSQ
     Using radial grid of 1247 points,  6 beta functions with: 
                l(1) =   0
                l(2) =   0
                l(3) =   1
                l(4) =   1
                l(5) =   2
                l(6) =   2
     Q(r) pseudized with 0 coefficients 


     atomic species   valence    mass     pseudopotential
        Sn            14.00   118.70000     Sn( 1.00)
        I              7.00   126.90000     I ( 1.00)

     24 Sym. Ops. (no inversion) found


                                    s                        frac. trans.

      isym =  1     identity                                     

 cryst.   s( 1) = (     1          0          0      )
                  (     0          1          0      )
                  (     0          0          1      )

 cart.    s( 1) = (  1.0000000  0.0000000  0.0000000 )
                  (  0.0000000  1.0000000  0.0000000 )
                  (  0.0000000  0.0000000  1.0000000 )


      isym =  2     180 deg rotation - cart. axis [0,0,1]        

 cryst.   s( 2) = (    -1          0          0      )
                  (     0         -1          0      )
                  (     0          0          1      )

 cart.    s( 2) = ( -1.0000000  0.0000000  0.0000000 )
                  (  0.0000000 -1.0000000  0.0000000 )
                  (  0.0000000  0.0000000  1.0000000 )


      isym =  3     180 deg rotation - cart. axis [0,1,0]        

 cryst.   s( 3) = (    -1          0          0      )
                  (     0          1          0      )
                  (     0          0         -1      )

 cart.    s( 3) = ( -1.0000000  0.0000000  0.0000000 )
                  (  0.0000000  1.0000000  0.0000000 )
                  (  0.0000000  0.0000000 -1.0000000 )


      isym =  4     180 deg rotation - cart. axis [1,0,0]        

 cryst.   s( 4) = (     1          0          0      )
                  (     0         -1          0      )
                  (     0          0         -1      )

 cart.    s( 4) = (  1.0000000  0.0000000  0.0000000 )
                  (  0.0000000 -1.0000000  0.0000000 )
                  (  0.0000000  0.0000000 -1.0000000 )


      isym =  5     120 deg rotation - cart. axis [-1,-1,-1]     

 cryst.   s( 5) = (     0          0          1      )
                  (     1          0          0      )
                  (     0          1          0      )

 cart.    s( 5) = (  0.0000000  1.0000000  0.0000000 )
                  (  0.0000000  0.0000000  1.0000000 )
                  (  1.0000000  0.0000000  0.0000000 )


      isym =  6     120 deg rotation - cart. axis [-1,1,1]       

 cryst.   s( 6) = (     0          0         -1      )
                  (    -1          0          0      )
                  (     0          1          0      )

 cart.    s( 6) = (  0.0000000 -1.0000000  0.0000000 )
                  (  0.0000000  0.0000000  1.0000000 )
                  ( -1.0000000  0.0000000  0.0000000 )


      isym =  7     120 deg rotation - cart. axis [1,1,-1]       

 cryst.   s( 7) = (     0          0         -1      )
                  (     1          0          0      )
                  (     0         -1          0      )

 cart.    s( 7) = (  0.0000000  1.0000000  0.0000000 )
                  (  0.0000000  0.0000000 -1.0000000 )
                  ( -1.0000000  0.0000000  0.0000000 )


      isym =  8     120 deg rotation - cart. axis [1,-1,1]       

 cryst.   s( 8) = (     0          0          1      )
                  (    -1          0          0      )
                  (     0         -1          0      )

 cart.    s( 8) = (  0.0000000 -1.0000000  0.0000000 )
                  (  0.0000000  0.0000000 -1.0000000 )
                  (  1.0000000  0.0000000  0.0000000 )


      isym =  9     120 deg rotation - cart. axis [1,1,1]        

 cryst.   s( 9) = (     0          1          0      )
                  (     0          0          1      )
                  (     1          0          0      )

 cart.    s( 9) = (  0.0000000  0.0000000  1.0000000 )
                  (  1.0000000  0.0000000  0.0000000 )
                  (  0.0000000  1.0000000  0.0000000 )


      isym = 10     120 deg rotation - cart. axis [-1,1,-1]      

 cryst.   s(10) = (     0         -1          0      )
                  (     0          0         -1      )
                  (     1          0          0      )

 cart.    s(10) = (  0.0000000  0.0000000  1.0000000 )
                  ( -1.0000000  0.0000000  0.0000000 )
                  (  0.0000000 -1.0000000  0.0000000 )


      isym = 11     120 deg rotation - cart. axis [1,-1,-1]      

 cryst.   s(11) = (     0         -1          0      )
                  (     0          0          1      )
                  (    -1          0          0      )

 cart.    s(11) = (  0.0000000  0.0000000 -1.0000000 )
                  ( -1.0000000  0.0000000  0.0000000 )
                  (  0.0000000  1.0000000  0.0000000 )


      isym = 12     120 deg rotation - cart. axis [-1,-1,1]      

 cryst.   s(12) = (     0          1          0      )
                  (     0          0         -1      )
                  (    -1          0          0      )

 cart.    s(12) = (  0.0000000  0.0000000 -1.0000000 )
                  (  1.0000000  0.0000000  0.0000000 )
                  (  0.0000000 -1.0000000  0.0000000 )


      isym = 13     inv. 180 deg rotation - cart. axis [1,1,0]   

 cryst.   s(13) = (     0         -1          0      )
                  (    -1          0          0      )
                  (     0          0          1      )

 cart.    s(13) = (  0.0000000 -1.0000000  0.0000000 )
                  ( -1.0000000  0.0000000  0.0000000 )
                  (  0.0000000  0.0000000  1.0000000 )


      isym = 14     inv. 180 deg rotation - cart. axis [1,-1,0]  

 cryst.   s(14) = (     0          1          0      )
                  (     1          0          0      )
                  (     0          0          1      )

 cart.    s(14) = (  0.0000000  1.0000000  0.0000000 )
                  (  1.0000000  0.0000000  0.0000000 )
                  (  0.0000000  0.0000000  1.0000000 )


      isym = 15     inv.  90 deg rotation - cart. axis [0,0,-1]  

 cryst.   s(15) = (     0          1          0      )
                  (    -1          0          0      )
                  (     0          0         -1      )

 cart.    s(15) = (  0.0000000 -1.0000000  0.0000000 )
                  (  1.0000000  0.0000000  0.0000000 )
                  (  0.0000000  0.0000000 -1.0000000 )


      isym = 16     inv.  90 deg rotation - cart. axis [0,0,1]   

 cryst.   s(16) = (     0         -1          0      )
                  (     1          0          0      )
                  (     0          0         -1      )

 cart.    s(16) = (  0.0000000  1.0000000  0.0000000 )
                  ( -1.0000000  0.0000000  0.0000000 )
                  (  0.0000000  0.0000000 -1.0000000 )


      isym = 17     inv. 180 deg rotation - cart. axis [1,0,1]   

 cryst.   s(17) = (     0          0         -1      )
                  (     0          1          0      )
                  (    -1          0          0      )

 cart.    s(17) = (  0.0000000  0.0000000 -1.0000000 )
                  (  0.0000000  1.0000000  0.0000000 )
                  ( -1.0000000  0.0000000  0.0000000 )


      isym = 18     inv. 180 deg rotation - cart. axis [-1,0,1]  

 cryst.   s(18) = (     0          0          1      )
                  (     0          1          0      )
                  (     1          0          0      )

 cart.    s(18) = (  0.0000000  0.0000000  1.0000000 )
                  (  0.0000000  1.0000000  0.0000000 )
                  (  1.0000000  0.0000000  0.0000000 )


      isym = 19     inv.  90 deg rotation - cart. axis [0,1,0]   

 cryst.   s(19) = (     0          0          1      )
                  (     0         -1          0      )
                  (    -1          0          0      )

 cart.    s(19) = (  0.0000000  0.0000000 -1.0000000 )
                  (  0.0000000 -1.0000000  0.0000000 )
                  (  1.0000000  0.0000000  0.0000000 )


      isym = 20     inv.  90 deg rotation - cart. axis [0,-1,0]  

 cryst.   s(20) = (     0          0         -1      )
                  (     0         -1          0      )
                  (     1          0          0      )

 cart.    s(20) = (  0.0000000  0.0000000  1.0000000 )
                  (  0.0000000 -1.0000000  0.0000000 )
                  ( -1.0000000  0.0000000  0.0000000 )


      isym = 21     inv. 180 deg rotation - cart. axis [0,1,1]   

 cryst.   s(21) = (     1          0          0      )
                  (     0          0         -1      )
                  (     0         -1          0      )

 cart.    s(21) = (  1.0000000  0.0000000  0.0000000 )
                  (  0.0000000  0.0000000 -1.0000000 )
                  (  0.0000000 -1.0000000  0.0000000 )


      isym = 22     inv. 180 deg rotation - cart. axis [0,1,-1]  

 cryst.   s(22) = (     1          0          0      )
                  (     0          0          1      )
                  (     0          1          0      )

 cart.    s(22) = (  1.0000000  0.0000000  0.0000000 )
                  (  0.0000000  0.0000000  1.0000000 )
                  (  0.0000000  1.0000000  0.0000000 )


      isym = 23     inv.  90 deg rotation - cart. axis [-1,0,0]  

 cryst.   s(23) = (    -1          0          0      )
                  (     0          0          1      )
                  (     0         -1          0      )

 cart.    s(23) = ( -1.0000000  0.0000000  0.0000000 )
                  (  0.0000000  0.0000000 -1.0000000 )
                  (  0.0000000  1.0000000  0.0000000 )


      isym = 24     inv.  90 deg rotation - cart. axis [1,0,0]   

 cryst.   s(24) = (    -1          0          0      )
                  (     0          0         -1      )
                  (     0          1          0      )

 cart.    s(24) = ( -1.0000000  0.0000000  0.0000000 )
                  (  0.0000000  0.0000000  1.0000000 )
                  (  0.0000000 -1.0000000  0.0000000 )


   Cartesian axes

     site n.     atom                  positions (alat units)
         1           Sn  tau(   1) = (   0.0000000   0.0000000   0.0000000  )
         2           I   tau(   2) = (   0.2339030   0.7660970   0.7660970  )
         3           I   tau(   3) = (   0.7660970   0.2339030   0.7660970  )
         4           I   tau(   4) = (   0.7660970   0.7660970   0.2339030  )
         5           I   tau(   5) = (   0.2339030   0.2339030   0.2339030  )

   Crystallographic axes

     site n.     atom                  positions (cryst. coord.)
         1           Sn  tau(   1) = (  0.0000000  0.0000000  0.0000000  )
         2           I   tau(   2) = (  0.2339030  0.7660970  0.7660970  )
         3           I   tau(   3) = (  0.7660970  0.2339030  0.7660970  )
         4           I   tau(   4) = (  0.7660970  0.7660970  0.2339030  )
         5           I   tau(   5) = (  0.2339030  0.2339030  0.2339030  )

     number of k points=     4
                       cart. coord. in units 2pi/alat
        k(    1) = (   0.0000000   0.0000000   0.0000000), wk =   0.2500000
        k(    2) = (   0.0000000   0.0000000  -0.5000000), wk =   0.7500000
        k(    3) = (   0.0000000  -0.5000000  -0.5000000), wk =   0.7500000
        k(    4) = (  -0.5000000  -0.5000000  -0.5000000), wk =   0.2500000

                       cryst. coord.
        k(    1) = (   0.0000000   0.0000000   0.0000000), wk =   0.2500000
        k(    2) = (   0.0000000   0.0000000  -0.5000000), wk =   0.7500000
        k(    3) = (   0.0000000  -0.5000000  -0.5000000), wk =   0.7500000
        k(    4) = (  -0.5000000  -0.5000000  -0.5000000), wk =   0.2500000

     Dense  grid:    96177 G-vectors     FFT dimensions: (  60,  60,  60)

     Dynamical RAM for                 wfc:       0.07 MB

     Dynamical RAM for     wfc (w. buffer):       0.33 MB

     Dynamical RAM for           str. fact:       0.05 MB

     Dynamical RAM for           local pot:       0.00 MB

     Dynamical RAM for          nlocal pot:       0.26 MB

     Dynamical RAM for                qrad:       2.27 MB

     Dynamical RAM for          rho,v,vnew:       0.15 MB

     Dynamical RAM for               rhoin:       0.05 MB

     Dynamical RAM for            rho*nmix:       0.37 MB

     Dynamical RAM for           G-vectors:       0.10 MB

     Dynamical RAM for          h,s,v(r/c):       0.10 MB

     Dynamical RAM for          <psi|beta>:       0.03 MB

     Dynamical RAM for                 psi:       0.13 MB

     Dynamical RAM for                hpsi:       0.13 MB

     Dynamical RAM for                spsi:       0.13 MB

     Dynamical RAM for      wfcinit/wfcrot:       0.16 MB

     Dynamical RAM for           addusdens:       4.37 MB

     Dynamical RAM for          addusforce:       4.53 MB

     Dynamical RAM for         addusstress:       4.62 MB

     Estimated static dynamical RAM per process >       3.78 MB

     Estimated max dynamical RAM per process >       8.40 MB

     Estimated total dynamical RAM >     537.49 MB

     Check: negative core charge=   -0.000002

     Initial potential from superposition of free atoms

     starting charge   41.99831, renormalised to   42.00000
     Starting wfcs are   25 randomized atomic wfcs
     Checking if some PAW data can be deallocated... 
       PAW data deallocated on   51 nodes for type:  1
       PAW data deallocated on   13 nodes for type:  2

     total cpu time spent up to now is       12.4 secs

     Self-consistent Calculation

     iteration #  1     ecut=    50.00 Ry     beta= 0.70
     Davidson diagonalization with overlap
     ethr =  1.00E-02,  avg # of iterations =  2.0

     Threshold (ethr) on eigenvalues was too large:
     Diagonalizing with lowered threshold

     Davidson diagonalization with overlap
     ethr =  3.44E-04,  avg # of iterations =  3.0

     total cpu time spent up to now is       33.7 secs

     total energy              =   -1957.78512959 Ry
     estimated scf accuracy    <       0.12209842 Ry

     iteration #  2     ecut=    50.00 Ry     beta= 0.70
     Davidson diagonalization with overlap
     ethr =  2.91E-04,  avg # of iterations =  3.2

     total cpu time spent up to now is       34.4 secs

     total energy              =   -1957.80314825 Ry
     estimated scf accuracy    <       0.11253546 Ry

     iteration #  3     ecut=    50.00 Ry     beta= 0.70
     Davidson diagonalization with overlap
     ethr =  2.68E-04,  avg # of iterations =  2.2

     total cpu time spent up to now is       34.9 secs

     total energy              =   -1957.82944243 Ry
     estimated scf accuracy    <       0.00348512 Ry

     iteration #  4     ecut=    50.00 Ry     beta= 0.70
     Davidson diagonalization with overlap
     ethr =  8.30E-06,  avg # of iterations =  4.0

     total cpu time spent up to now is       35.4 secs

     total energy              =   -1957.83035574 Ry
     estimated scf accuracy    <       0.00025227 Ry

     iteration #  5     ecut=    50.00 Ry     beta= 0.70
     Davidson diagonalization with overlap
     ethr =  6.01E-07,  avg # of iterations =  3.0

     total cpu time spent up to now is       36.0 secs

     total energy              =   -1957.83041994 Ry
     estimated scf accuracy    <       0.00000311 Ry

     iteration #  6     ecut=    50.00 Ry     beta= 0.70
     Davidson diagonalization with overlap
     ethr =  7.40E-09,  avg # of iterations =  6.0

     total cpu time spent up to now is       36.6 secs

     End of self-consistent calculation

          k = 0.0000 0.0000 0.0000 ( 12053 PWs)   bands (ev):

   -21.3215 -21.3215 -21.3215 -21.2661 -21.2661 -11.8465 -11.1138 -11.1138
   -11.1138  -6.2852  -2.4198  -2.4198  -2.4198  -1.3464  -1.3464  -0.4645
    -0.4645  -0.4645  -0.2534  -0.2534  -0.2534   1.4122   4.1427

     occupation numbers 
     1.0000   1.0000   1.0000   1.0000   1.0000   1.0000   1.0000   1.0000
     1.0000   1.0000   1.0000   1.0000   1.0000   1.0000   1.0000   1.0000
     1.0000   1.0000   1.0000   1.0000   1.0000   0.0000   0.0000

          k = 0.0000 0.0000-0.5000 ( 12012 PWs)   bands (ev):

   -21.3215 -21.3215 -21.3215 -21.2661 -21.2660 -11.7912 -11.1888 -11.1121
   -11.1121  -6.2254  -2.5735  -2.4507  -2.4507  -1.1140  -0.9338  -0.8745
    -0.7769  -0.4818  -0.4818  -0.2841  -0.2841   1.9637   3.9966

     occupation numbers 
     1.0000   1.0000   1.0000   1.0000   1.0000   1.0000   1.0000   1.0000
     1.0000   1.0000   1.0000   1.0000   1.0000   1.0000   1.0000   1.0000
     1.0000   1.0000   1.0000   1.0000   1.0000   0.0000   0.0000

          k = 0.0000-0.5000-0.5000 ( 12032 PWs)   bands (ev):

   -21.3215 -21.3215 -21.3215 -21.2661 -21.2660 -11.7507 -11.1630 -11.1630
   -11.1346  -6.2201  -2.7073  -2.4637  -2.4637  -1.0501  -1.0501  -0.9058
    -0.6802  -0.4073  -0.4073  -0.3767  -0.1139   1.9458   4.1305

     occupation numbers 
     1.0000   1.0000   1.0000   1.0000   1.0000   1.0000   1.0000   1.0000
     1.0000   1.0000   1.0000   1.0000   1.0000   1.0000   1.0000   1.0000
     1.0000   1.0000   1.0000   1.0000   1.0000   0.0000   0.0000

          k =-0.5000-0.5000-0.5000 ( 11992 PWs)   bands (ev):

   -21.3215 -21.3215 -21.3215 -21.2660 -21.2660 -11.7253 -11.1608 -11.1608
   -11.1608  -6.2732  -2.6262  -2.6262  -2.6262  -0.9786  -0.9786  -0.9786
    -0.3253  -0.3253  -0.1618  -0.1618  -0.1618   1.3755   4.4157

     occupation numbers 
     1.0000   1.0000   1.0000   1.0000   1.0000   1.0000   1.0000   1.0000
     1.0000   1.0000   1.0000   1.0000   1.0000   1.0000   1.0000   1.0000
     1.0000   1.0000   1.0000   1.0000   1.0000   0.0000   0.0000

     highest occupied, lowest unoccupied level (ev):    -0.1139    1.3755

!    total energy              =   -1957.83042384 Ry

     total all-electron energy =    -69286.447985 Ry
     estimated scf accuracy    <       0.00000073 Ry

     The total energy is the sum of the following terms:
     one-electron contribution =    -155.26990699 Ry
     hartree contribution      =      94.73263366 Ry
     xc contribution           =    -110.98980263 Ry
     ewald contribution        =    -119.43299797 Ry
     one-center paw contrib.   =   -1666.87034991 Ry
      -> PAW hartree energy AE =     109.43372994 Ry
      -> PAW hartree energy PS =    -108.68787727 Ry
      -> PAW xc energy AE      =    -329.01905077 Ry
      -> PAW xc energy PS      =      47.32398149 Ry
      -> total E_H with PAW    =      95.47848633 Ry
      -> total E_XC with PAW   =    -392.68487191 Ry

     convergence has been achieved in   6 iterations

     Forces acting on atoms (cartesian axes, Ry/au):

     atom    1 type  1   force =     0.00000000    0.00000000    0.00000000
     atom    2 type  2   force =    -0.00069329    0.00069329    0.00069329
     atom    3 type  2   force =     0.00069329   -0.00069329    0.00069329
     atom    4 type  2   force =     0.00069329    0.00069329   -0.00069329
     atom    5 type  2   force =    -0.00069329   -0.00069329   -0.00069329
     The non-local contrib.  to forces
     atom    1 type  1   force =     0.00000000    0.00000000    0.00000000
     atom    2 type  2   force =    -0.09099468    0.09099468    0.09099468
     atom    3 type  2   force =     0.09099468   -0.09099468    0.09099468
     atom    4 type  2   force =     0.09099468    0.09099468   -0.09099468
     atom    5 type  2   force =    -0.09099468   -0.09099468   -0.09099468
     The ionic contribution  to forces
     atom    1 type  1   force =    -0.00000000   -0.00000000    0.00000000
     atom    2 type  2   force =     3.79412130   -3.79412130   -3.79412130
     atom    3 type  2   force =    -3.79412130    3.79412130   -3.79412130
     atom    4 type  2   force =    -3.79412130   -3.79412130    3.79412130
     atom    5 type  2   force =     3.79412130    3.79412130    3.79412130
     The local contribution  to forces
     atom    1 type  1   force =     0.00000000    0.00000000   -0.00000000
     atom    2 type  2   force =    -3.71554943    3.71554943    3.71554943
     atom    3 type  2   force =     3.71554943   -3.71554943    3.71554943
     atom    4 type  2   force =     3.71554943    3.71554943   -3.71554943
     atom    5 type  2   force =    -3.71554943   -3.71554943   -3.71554943
     The core correction contribution to forces
     atom    1 type  1   force =     0.00000000    0.00000000    0.00000000
     atom    2 type  2   force =     0.01142237   -0.01142237   -0.01142237
     atom    3 type  2   force =    -0.01142237    0.01142237   -0.01142237
     atom    4 type  2   force =    -0.01142237   -0.01142237    0.01142237
     atom    5 type  2   force =     0.01142237    0.01142237    0.01142237
     The Hubbard contrib.    to forces
     atom    1 type  1   force =     0.00000000    0.00000000    0.00000000
     atom    2 type  2   force =     0.00000000    0.00000000    0.00000000
     atom    3 type  2   force =     0.00000000    0.00000000    0.00000000
     atom    4 type  2   force =     0.00000000    0.00000000    0.00000000
     atom    5 type  2   force =     0.00000000    0.00000000    0.00000000
     The SCF correction term to forces
     atom    1 type  1   force =     0.00000000    0.00000000    0.00000000
     atom    2 type  2   force =     0.00030715   -0.00030715   -0.00030715
     atom    3 type  2   force =    -0.00030715    0.00030715   -0.00030715
     atom    4 type  2   force =    -0.00030715   -0.00030715    0.00030715
     atom    5 type  2   force =     0.00030715    0.00030715    0.00030715

     Total force =     0.002402     Total SCF correction =     0.001064
     SCF correction compared to forces is large: reduce conv_thr to get better values


     Computing stress (Cartesian axis) and pressure

          total   stress  (Ry/bohr**3)                   (kbar)     P=        2.31
   0.00001573   0.00000000   0.00000000            2.31        0.00        0.00
   0.00000000   0.00001573   0.00000000            0.00        2.31        0.00
   0.00000000   0.00000000   0.00001573            0.00        0.00        2.31

     kinetic stress (kbar)   4003.94      0.00      0.00
                                0.00   4003.94      0.00
                                0.00      0.00   4003.94

     local   stress (kbar)  -2877.54      0.00     -0.00
                                0.00  -2877.54     -0.00
                               -0.00     -0.00  -2877.54

     nonloc. stress (kbar)    794.79      0.00      0.00
                                0.00    794.79      0.00
                                0.00      0.00    794.79

     hartree stress (kbar)   2302.64     -0.00      0.00
                               -0.00   2302.64      0.00
                                0.00      0.00   2302.64

     exc-cor stress (kbar)   4100.32      0.00      0.00
                                0.00   4100.32     -0.00
                                0.00     -0.00   4100.32

     corecor stress (kbar)  -5418.80      0.00      0.00
                                0.00  -5418.80     -0.00
                                0.00     -0.00  -5418.80

     ewald   stress (kbar)  -2903.03     -0.00     -0.00
                               -0.00  -2903.03     -0.00
                               -0.00     -0.00  -2903.03

     hubbard stress (kbar)      0.00      0.00      0.00
                                0.00      0.00      0.00
                                0.00      0.00      0.00

     DFT-D   stress (kbar)      0.00      0.00      0.00
                                0.00      0.00      0.00
                                0.00      0.00      0.00

     XDM     stress (kbar)      0.00      0.00      0.00
                                0.00      0.00      0.00
                                0.00      0.00      0.00

     dft-nl  stress (kbar)      0.00      0.00      0.00
                                0.00      0.00      0.00
                                0.00      0.00      0.00

     TS-vdW  stress (kbar)      0.00      0.00      0.00
                                0.00      0.00      0.00
                                0.00      0.00      0.00



     Writing output data file ./out/SnI4un.save/

     init_run     :      1.39s CPU      1.59s WALL (       1 calls)
     electrons    :     23.82s CPU     24.44s WALL (       1 calls)
     forces       :      0.26s CPU      0.31s WALL (       1 calls)
     stress       :      0.80s CPU      1.03s WALL (       1 calls)

     Called by init_run:
     wfcinit      :      0.36s CPU      0.40s WALL (       1 calls)
     wfcinit:atom :      0.00s CPU      0.02s WALL (       4 calls)
     wfcinit:wfcr :      0.35s CPU      0.36s WALL (       4 calls)
     potinit      :      0.41s CPU      0.50s WALL (       1 calls)
     hinit0       :      0.24s CPU      0.25s WALL (       1 calls)

     Called by electrons:
     c_bands      :     16.14s CPU     16.24s WALL (       7 calls)
     sum_band     :      6.17s CPU      6.29s WALL (       7 calls)
     v_of_rho     :      0.38s CPU      0.41s WALL (       7 calls)
     v_h          :      0.09s CPU      0.09s WALL (       7 calls)
     v_xc         :      0.33s CPU      0.34s WALL (       9 calls)
     newd         :      0.27s CPU      0.31s WALL (       7 calls)
     PAW_pot      :      0.95s CPU      1.17s WALL (       7 calls)
     mix_rho      :      0.13s CPU      0.19s WALL (       7 calls)

     Called by c_bands:
     init_us_2    :      0.02s CPU      0.03s WALL (      68 calls)
     cegterg      :     15.86s CPU     15.92s WALL (      28 calls)

     Called by sum_band:
     sum_band:wei :      0.00s CPU      0.01s WALL (       7 calls)
     sum_band:loo :      5.10s CPU      5.16s WALL (       7 calls)
     sum_band:buf :      0.00s CPU      0.00s WALL (      28 calls)
     sum_band:ini :      0.01s CPU      0.01s WALL (      28 calls)
     sum_band:cal :      0.88s CPU      0.88s WALL (      28 calls)
     sum_band:bec :      0.00s CPU      0.01s WALL (      28 calls)
     addusdens    :      0.16s CPU      0.18s WALL (       7 calls)
     addusd:skk   :      0.00s CPU      0.00s WALL (      14 calls)
     addusd:dgemm :      0.06s CPU      0.06s WALL (      14 calls)
     addusd:qvan2 :      0.08s CPU      0.08s WALL (      14 calls)

     Called by *egterg:
     cdiaghg      :      0.14s CPU      0.14s WALL (     118 calls)
     cegterg:over :      1.47s CPU      1.48s WALL (      94 calls)
     cegterg:upda :      0.03s CPU      0.03s WALL (      94 calls)
     cegterg:last :      0.08s CPU      0.08s WALL (      63 calls)
     h_psi        :     13.39s CPU     13.44s WALL (     126 calls)
     s_psi        :      0.10s CPU      0.11s WALL (     126 calls)
     g_psi        :      0.00s CPU      0.00s WALL (      94 calls)

     Called by h_psi:
     h_psi:calbec :      1.85s CPU      1.86s WALL (     126 calls)
     vloc_psi     :     11.43s CPU     11.48s WALL (     126 calls)
     add_vuspsi   :      0.11s CPU      0.11s WALL (     126 calls)

     General routines
     calbec       :      3.06s CPU      3.07s WALL (     174 calls)
     fft          :      0.39s CPU      0.41s WALL (     103 calls)
     ffts         :      0.04s CPU      0.04s WALL (       7 calls)
     fftw         :     15.59s CPU     15.65s WALL (    4376 calls)

     Parallel routines
     fft_scatt_xy :      0.05s CPU      0.05s WALL (    4486 calls)
     fft_scatt_yz :     15.46s CPU     15.53s WALL (    4486 calls)

     PAW routines
     PAW_pot      :      0.95s CPU      1.17s WALL (       7 calls)
     PAW_symme    :      0.12s CPU      0.13s WALL (      14 calls)

     PWSCF        :     39.82s CPU     41.79s WALL


   This run was terminated on:  14:19:15  15Jan2021            

=------------------------------------------------------------------------------=
   JOB DONE.
=------------------------------------------------------------------------------=
