
     Program PWSCF v.6.7MaX starts on 14Jan2021 at 15: 4:21 

     This program is part of the open-source Quantum ESPRESSO suite
     for quantum simulation of materials; please cite
         "P. Giannozzi et al., J. Phys.:Condens. Matter 21 395502 (2009);
         "P. Giannozzi et al., J. Phys.:Condens. Matter 29 465901 (2017);
          URL http://www.quantum-espresso.org", 
     in publications or presentations arising from this work. More details at
     http://www.quantum-espresso.org/quote

     Parallel version (MPI), running on    19 processors

     MPI processes distributed on     1 nodes
     R & G space division:  proc/nbgrp/npool/nimage =      19
     Waiting for input...
     Reading input from standard input

     Current dimensions of program PWSCF are:
     Max number of different atomic species (ntypx) = 10
     Max number of k-points (npk) =  40000
     Max angular momentum in pseudopotentials (lmaxx) =  3
     file Sn.pbe-dn-kjpaw_psl.1.0.0.UPF: wavefunction(s)  5S 5P 4D renormalized
     file I.pbe-n-kjpaw_psl.1.0.0.UPF: wavefunction(s)  5S renormalized

     Subspace diagonalization in iterative solution of the eigenvalue problem:
     a serial algorithm will be used

     Message from routine setup:
     using ibrav=0 with symmetry is DISCOURAGED, use correct ibrav instead

     Parallelization info
     --------------------
     sticks:   dense  smooth     PW     G-vecs:    dense   smooth      PW
     Min         236     236     65                 7726     7726    1133
     Max         237     237     66                 7729     7729    1136
     Sum        4501    4501   1245               146829   146829   21557


     Title: 
     SnI2tetr                                                                   


     bravais-lattice index     =            0
     lattice parameter (alat)  =      14.2167  a.u.
     unit-cell volume          =    1855.5976 (a.u.)^3
     number of atoms/cell      =            6
     number of atomic types    =            2
     number of electrons       =        56.00
     number of Kohn-Sham states=           28
     kinetic-energy cutoff     =      70.0000  Ry
     charge density cutoff     =     280.0000  Ry
     scf convergence threshold =      1.0E-06
     mixing beta               =       0.7000
     number of iterations used =            8  plain     mixing
     Exchange-correlation= SLA  PW   PBX  PBC
                           (   1   4   3   4   0   0   0)

     celldm(1)=  14.216705  celldm(2)=   0.000000  celldm(3)=   0.000000
     celldm(4)=   0.000000  celldm(5)=   0.000000  celldm(6)=   0.000000

     crystal axes: (cart. coord. in units of alat)
               a(1) = (   1.000000   0.000000   0.000000 )  
               a(2) = (   0.000000   1.000000   0.000000 )  
               a(3) = (   0.000000   0.000000   0.645783 )  

     reciprocal axes: (cart. coord. in units 2 pi/alat)
               b(1) = (  1.000000  0.000000  0.000000 )  
               b(2) = (  0.000000  1.000000  0.000000 )  
               b(3) = (  0.000000  0.000000  1.548507 )  


     PseudoPot. # 1 for Sn read from file:
     ../../../pseudo/Sn.pbe-dn-kjpaw_psl.1.0.0.UPF
     MD5 check sum: 67f11dec737d427557dc41ea34975807
     Pseudo is Projector augmented-wave + core cor, Zval = 14.0
     Generated using &quot;atomic&quot; code by A. Dal Corso  v.6.3
     Shape of augmentation charge: PSQ
     Using radial grid of 1243 points,  6 beta functions with: 
                l(1) =   0
                l(2) =   0
                l(3) =   1
                l(4) =   1
                l(5) =   2
                l(6) =   2
     Q(r) pseudized with 0 coefficients 


     PseudoPot. # 2 for I  read from file:
     ../../../pseudo/I.pbe-n-kjpaw_psl.1.0.0.UPF
     MD5 check sum: cd3d296c3308a581e1559a0c8a554cb5
     Pseudo is Projector augmented-wave + core cor, Zval =  7.0
     Generated using &quot;atomic&quot; code by A. Dal Corso  v.6.3
     Shape of augmentation charge: PSQ
     Using radial grid of 1247 points,  6 beta functions with: 
                l(1) =   0
                l(2) =   0
                l(3) =   1
                l(4) =   1
                l(5) =   2
                l(6) =   2
     Q(r) pseudized with 0 coefficients 


     atomic species   valence    mass     pseudopotential
        Sn            14.00   118.70000     Sn( 1.00)
        I              7.00   126.90000     I ( 1.00)

     16 Sym. Ops., with inversion, found ( 8 have fractional translation)


                                    s                        frac. trans.

      isym =  1     identity                                     

 cryst.   s( 1) = (     1          0          0      )
                  (     0          1          0      )
                  (     0          0          1      )

 cart.    s( 1) = (  1.0000000  0.0000000  0.0000000 )
                  (  0.0000000  1.0000000  0.0000000 )
                  (  0.0000000  0.0000000  1.0000000 )


      isym =  2     180 deg rotation - cart. axis [0,0,1]        

 cryst.   s( 2) = (    -1          0          0      )
                  (     0         -1          0      )
                  (     0          0          1      )

 cart.    s( 2) = ( -1.0000000  0.0000000  0.0000000 )
                  (  0.0000000 -1.0000000  0.0000000 )
                  (  0.0000000  0.0000000  1.0000000 )


      isym =  3     180 deg rotation - cart. axis [0,1,0]        

 cryst.   s( 3) = (    -1          0          0      )    f =(  0.5000000 )
                  (     0          1          0      )       ( -0.5000000 )
                  (     0          0         -1      )       (  0.5000000 )

 cart.    s( 3) = ( -1.0000000  0.0000000  0.0000000 )    f =(  0.5000000 )
                  (  0.0000000  1.0000000  0.0000000 )       ( -0.5000000 )
                  (  0.0000000  0.0000000 -1.0000000 )       (  0.3228917 )


      isym =  4     180 deg rotation - cart. axis [1,0,0]        

 cryst.   s( 4) = (     1          0          0      )    f =( -0.5000000 )
                  (     0         -1          0      )       (  0.5000000 )
                  (     0          0         -1      )       (  0.5000000 )

 cart.    s( 4) = (  1.0000000  0.0000000  0.0000000 )    f =( -0.5000000 )
                  (  0.0000000 -1.0000000  0.0000000 )       (  0.5000000 )
                  (  0.0000000  0.0000000 -1.0000000 )       (  0.3228917 )


      isym =  5     180 deg rotation - cart. axis [1,1,0]        

 cryst.   s( 5) = (     0          1          0      )
                  (     1          0          0      )
                  (     0          0         -1      )

 cart.    s( 5) = (  0.0000000  1.0000000  0.0000000 )
                  (  1.0000000  0.0000000  0.0000000 )
                  (  0.0000000  0.0000000 -1.0000000 )


      isym =  6     180 deg rotation - cart. axis [1,-1,0]       

 cryst.   s( 6) = (     0         -1          0      )
                  (    -1          0          0      )
                  (     0          0         -1      )

 cart.    s( 6) = (  0.0000000 -1.0000000  0.0000000 )
                  ( -1.0000000  0.0000000  0.0000000 )
                  (  0.0000000  0.0000000 -1.0000000 )


      isym =  7      90 deg rotation - cart. axis [0,0,-1]       

 cryst.   s( 7) = (     0         -1          0      )    f =( -0.5000000 )
                  (     1          0          0      )       (  0.5000000 )
                  (     0          0          1      )       ( -0.5000000 )

 cart.    s( 7) = (  0.0000000  1.0000000  0.0000000 )    f =( -0.5000000 )
                  ( -1.0000000  0.0000000  0.0000000 )       (  0.5000000 )
                  (  0.0000000  0.0000000  1.0000000 )       ( -0.3228917 )


      isym =  8      90 deg rotation - cart. axis [0,0,1]        

 cryst.   s( 8) = (     0          1          0      )    f =(  0.5000000 )
                  (    -1          0          0      )       ( -0.5000000 )
                  (     0          0          1      )       ( -0.5000000 )

 cart.    s( 8) = (  0.0000000 -1.0000000  0.0000000 )    f =(  0.5000000 )
                  (  1.0000000  0.0000000  0.0000000 )       ( -0.5000000 )
                  (  0.0000000  0.0000000  1.0000000 )       ( -0.3228917 )


      isym =  9     inversion                                    

 cryst.   s( 9) = (    -1          0          0      )
                  (     0         -1          0      )
                  (     0          0         -1      )

 cart.    s( 9) = ( -1.0000000  0.0000000  0.0000000 )
                  (  0.0000000 -1.0000000  0.0000000 )
                  (  0.0000000  0.0000000 -1.0000000 )


      isym = 10     inv. 180 deg rotation - cart. axis [0,0,1]   

 cryst.   s(10) = (     1          0          0      )
                  (     0          1          0      )
                  (     0          0         -1      )

 cart.    s(10) = (  1.0000000  0.0000000  0.0000000 )
                  (  0.0000000  1.0000000  0.0000000 )
                  (  0.0000000  0.0000000 -1.0000000 )


      isym = 11     inv. 180 deg rotation - cart. axis [0,1,0]   

 cryst.   s(11) = (     1          0          0      )    f =( -0.5000000 )
                  (     0         -1          0      )       (  0.5000000 )
                  (     0          0          1      )       ( -0.5000000 )

 cart.    s(11) = (  1.0000000  0.0000000  0.0000000 )    f =( -0.5000000 )
                  (  0.0000000 -1.0000000  0.0000000 )       (  0.5000000 )
                  (  0.0000000  0.0000000  1.0000000 )       ( -0.3228917 )


      isym = 12     inv. 180 deg rotation - cart. axis [1,0,0]   

 cryst.   s(12) = (    -1          0          0      )    f =(  0.5000000 )
                  (     0          1          0      )       ( -0.5000000 )
                  (     0          0          1      )       ( -0.5000000 )

 cart.    s(12) = ( -1.0000000  0.0000000  0.0000000 )    f =(  0.5000000 )
                  (  0.0000000  1.0000000  0.0000000 )       ( -0.5000000 )
                  (  0.0000000  0.0000000  1.0000000 )       ( -0.3228917 )


      isym = 13     inv. 180 deg rotation - cart. axis [1,1,0]   

 cryst.   s(13) = (     0         -1          0      )
                  (    -1          0          0      )
                  (     0          0          1      )

 cart.    s(13) = (  0.0000000 -1.0000000  0.0000000 )
                  ( -1.0000000  0.0000000  0.0000000 )
                  (  0.0000000  0.0000000  1.0000000 )


      isym = 14     inv. 180 deg rotation - cart. axis [1,-1,0]  

 cryst.   s(14) = (     0          1          0      )
                  (     1          0          0      )
                  (     0          0          1      )

 cart.    s(14) = (  0.0000000  1.0000000  0.0000000 )
                  (  1.0000000  0.0000000  0.0000000 )
                  (  0.0000000  0.0000000  1.0000000 )


      isym = 15     inv.  90 deg rotation - cart. axis [0,0,-1]  

 cryst.   s(15) = (     0          1          0      )    f =(  0.5000000 )
                  (    -1          0          0      )       ( -0.5000000 )
                  (     0          0         -1      )       (  0.5000000 )

 cart.    s(15) = (  0.0000000 -1.0000000  0.0000000 )    f =(  0.5000000 )
                  (  1.0000000  0.0000000  0.0000000 )       ( -0.5000000 )
                  (  0.0000000  0.0000000 -1.0000000 )       (  0.3228917 )


      isym = 16     inv.  90 deg rotation - cart. axis [0,0,1]   

 cryst.   s(16) = (     0         -1          0      )    f =( -0.5000000 )
                  (     1          0          0      )       (  0.5000000 )
                  (     0          0         -1      )       (  0.5000000 )

 cart.    s(16) = (  0.0000000  1.0000000  0.0000000 )    f =( -0.5000000 )
                  ( -1.0000000  0.0000000  0.0000000 )       (  0.5000000 )
                  (  0.0000000  0.0000000 -1.0000000 )       (  0.3228917 )


   Cartesian axes

     site n.     atom                  positions (alat units)
         1           Sn  tau(   1) = (   0.0000000   0.0000000   0.0000000  )
         2           Sn  tau(   2) = (   0.5000000   0.5000000   0.3228917  )
         3           I   tau(   3) = (   0.2985210   0.2985210   0.0000000  )
         4           I   tau(   4) = (   0.7014790   0.7014790   0.0000000  )
         5           I   tau(   5) = (   0.7985210   0.2014790   0.3228917  )
         6           I   tau(   6) = (   0.2014790   0.7985210   0.3228917  )

   Crystallographic axes

     site n.     atom                  positions (cryst. coord.)
         1           Sn  tau(   1) = (  0.0000000  0.0000000  0.0000000  )
         2           Sn  tau(   2) = (  0.5000000  0.5000000  0.5000000  )
         3           I   tau(   3) = (  0.2985210  0.2985210  0.0000000  )
         4           I   tau(   4) = (  0.7014790  0.7014790  0.0000000  )
         5           I   tau(   5) = (  0.7985210  0.2014790  0.5000000  )
         6           I   tau(   6) = (  0.2014790  0.7985210  0.5000000  )

     number of k points=    18
                       cart. coord. in units 2pi/alat
        k(    1) = (   0.0000000   0.0000000   0.0000000), wk =   0.0312500
        k(    2) = (   0.0000000   0.0000000   0.3871267), wk =   0.0625000
        k(    3) = (   0.0000000   0.0000000  -0.7742534), wk =   0.0312500
        k(    4) = (   0.0000000   0.2500000   0.0000000), wk =   0.1250000
        k(    5) = (   0.0000000   0.2500000   0.3871267), wk =   0.2500000
        k(    6) = (   0.0000000   0.2500000  -0.7742534), wk =   0.1250000
        k(    7) = (   0.0000000  -0.5000000   0.0000000), wk =   0.0625000
        k(    8) = (   0.0000000  -0.5000000   0.3871267), wk =   0.1250000
        k(    9) = (   0.0000000  -0.5000000  -0.7742534), wk =   0.0625000
        k(   10) = (   0.2500000   0.2500000   0.0000000), wk =   0.1250000
        k(   11) = (   0.2500000   0.2500000   0.3871267), wk =   0.2500000
        k(   12) = (   0.2500000   0.2500000  -0.7742534), wk =   0.1250000
        k(   13) = (   0.2500000  -0.5000000   0.0000000), wk =   0.1250000
        k(   14) = (   0.2500000  -0.5000000   0.3871267), wk =   0.2500000
        k(   15) = (   0.2500000  -0.5000000  -0.7742534), wk =   0.1250000
        k(   16) = (  -0.5000000  -0.5000000   0.0000000), wk =   0.0312500
        k(   17) = (  -0.5000000  -0.5000000   0.3871267), wk =   0.0625000
        k(   18) = (  -0.5000000  -0.5000000  -0.7742534), wk =   0.0312500

                       cryst. coord.
        k(    1) = (   0.0000000   0.0000000   0.0000000), wk =   0.0312500
        k(    2) = (   0.0000000   0.0000000   0.2500000), wk =   0.0625000
        k(    3) = (   0.0000000   0.0000000  -0.5000000), wk =   0.0312500
        k(    4) = (   0.0000000   0.2500000   0.0000000), wk =   0.1250000
        k(    5) = (   0.0000000   0.2500000   0.2500000), wk =   0.2500000
        k(    6) = (   0.0000000   0.2500000  -0.5000000), wk =   0.1250000
        k(    7) = (   0.0000000  -0.5000000   0.0000000), wk =   0.0625000
        k(    8) = (   0.0000000  -0.5000000   0.2500000), wk =   0.1250000
        k(    9) = (   0.0000000  -0.5000000  -0.5000000), wk =   0.0625000
        k(   10) = (   0.2500000   0.2500000   0.0000000), wk =   0.1250000
        k(   11) = (   0.2500000   0.2500000   0.2500000), wk =   0.2500000
        k(   12) = (   0.2500000   0.2500000  -0.5000000), wk =   0.1250000
        k(   13) = (   0.2500000  -0.5000000   0.0000000), wk =   0.1250000
        k(   14) = (   0.2500000  -0.5000000   0.2500000), wk =   0.2500000
        k(   15) = (   0.2500000  -0.5000000  -0.5000000), wk =   0.1250000
        k(   16) = (  -0.5000000  -0.5000000   0.0000000), wk =   0.0312500
        k(   17) = (  -0.5000000  -0.5000000   0.2500000), wk =   0.0625000
        k(   18) = (  -0.5000000  -0.5000000  -0.5000000), wk =   0.0312500

     Dense  grid:   146829 G-vectors     FFT dimensions: (  80,  80,  50)

     Dynamical RAM for                 wfc:       0.41 MB

     Dynamical RAM for     wfc (w. buffer):       7.83 MB

     Dynamical RAM for           str. fact:       0.24 MB

     Dynamical RAM for           local pot:       0.00 MB

     Dynamical RAM for          nlocal pot:       1.59 MB

     Dynamical RAM for                qrad:       2.69 MB

     Dynamical RAM for          rho,v,vnew:       0.79 MB

     Dynamical RAM for               rhoin:       0.26 MB

     Dynamical RAM for            rho*nmix:       1.89 MB

     Dynamical RAM for           G-vectors:       0.50 MB

     Dynamical RAM for          h,s,v(r/c):       0.14 MB

     Dynamical RAM for          <psi|beta>:       0.05 MB

     Dynamical RAM for                 psi:       0.82 MB

     Dynamical RAM for                hpsi:       0.82 MB

     Dynamical RAM for                spsi:       0.82 MB

     Dynamical RAM for      wfcinit/wfcrot:       1.03 MB

     Dynamical RAM for           addusdens:      22.41 MB

     Dynamical RAM for          addusforce:      23.19 MB

     Dynamical RAM for         addusstress:      23.70 MB

     Estimated static dynamical RAM per process >      16.88 MB

     Estimated max dynamical RAM per process >      40.58 MB

     Estimated total dynamical RAM >     771.09 MB

     Initial potential from superposition of free atoms

     starting charge   55.99693, renormalised to   56.00000
     Starting wfcs are   34 randomized atomic wfcs
     Checking if some PAW data can be deallocated... 
       PAW data deallocated on   12 nodes for type:  1
       PAW data deallocated on    7 nodes for type:  2

     total cpu time spent up to now is        6.1 secs

     Self-consistent Calculation

     iteration #  1     ecut=    70.00 Ry     beta= 0.70
     Davidson diagonalization with overlap
     ethr =  1.00E-02,  avg # of iterations =  1.2

     Threshold (ethr) on eigenvalues was too large:
     Diagonalizing with lowered threshold

     Davidson diagonalization with overlap
     ethr =  2.44E-04,  avg # of iterations =  2.2

     total cpu time spent up to now is       17.1 secs

     total energy              =   -2399.93824972 Ry
     estimated scf accuracy    <       0.12337051 Ry

     iteration #  2     ecut=    70.00 Ry     beta= 0.70
     Davidson diagonalization with overlap
     ethr =  2.20E-04,  avg # of iterations =  3.9

     total cpu time spent up to now is       24.3 secs

     total energy              =   -2399.97886782 Ry
     estimated scf accuracy    <       0.05163526 Ry

     iteration #  3     ecut=    70.00 Ry     beta= 0.70
     Davidson diagonalization with overlap
     ethr =  9.22E-05,  avg # of iterations =  2.3

     total cpu time spent up to now is       30.2 secs

     total energy              =   -2399.98751975 Ry
     estimated scf accuracy    <       0.00116478 Ry

     iteration #  4     ecut=    70.00 Ry     beta= 0.70
     Davidson diagonalization with overlap
     ethr =  2.08E-06,  avg # of iterations =  5.8

     total cpu time spent up to now is       39.5 secs

     total energy              =   -2399.98855515 Ry
     estimated scf accuracy    <       0.00091964 Ry

     iteration #  5     ecut=    70.00 Ry     beta= 0.70
     Davidson diagonalization with overlap
     ethr =  1.64E-06,  avg # of iterations =  2.1

     total cpu time spent up to now is       45.3 secs

     total energy              =   -2399.98861438 Ry
     estimated scf accuracy    <       0.00007980 Ry

     iteration #  6     ecut=    70.00 Ry     beta= 0.70
     Davidson diagonalization with overlap
     ethr =  1.43E-07,  avg # of iterations =  4.9

     total cpu time spent up to now is       52.9 secs

     total energy              =   -2399.98866068 Ry
     estimated scf accuracy    <       0.00002154 Ry

     iteration #  7     ecut=    70.00 Ry     beta= 0.70
     Davidson diagonalization with overlap
     ethr =  3.85E-08,  avg # of iterations =  2.2

     total cpu time spent up to now is       58.7 secs

     total energy              =   -2399.98866162 Ry
     estimated scf accuracy    <       0.00000216 Ry

     iteration #  8     ecut=    70.00 Ry     beta= 0.70
     Davidson diagonalization with overlap
     ethr =  3.85E-09,  avg # of iterations =  5.1

     total cpu time spent up to now is       66.2 secs

     End of self-consistent calculation

          k = 0.0000 0.0000 0.0000 ( 18341 PWs)   bands (ev):

   -18.3836 -18.3813 -18.3768 -18.3768 -18.3752 -18.3750 -18.3750 -18.3739
   -18.3661 -18.3661  -9.3569  -8.8441  -8.8441  -8.7158  -4.1501  -2.2726
    -0.0906  -0.0906   0.2442   0.7201   1.1187   1.2590   1.4771   1.4771
     1.9921   1.9921   2.3376   2.7031

     occupation numbers 
     1.0000   1.0000   1.0000   1.0000   1.0000   1.0000   1.0000   1.0000
     1.0000   1.0000   1.0000   1.0000   1.0000   1.0000   1.0000   1.0000
     1.0000   1.0000   1.0000   1.0000   1.0000   1.0000   1.0000   1.0000
     1.0000   1.0000   1.0000   1.0000

          k = 0.0000 0.0000 0.3871 ( 18364 PWs)   bands (ev):

   -18.3831 -18.3815 -18.3785 -18.3785 -18.3751 -18.3750 -18.3730 -18.3723
   -18.3664 -18.3664  -9.2183  -8.7981  -8.7981  -8.7469  -4.0892  -2.8274
    -0.0718   0.0893   0.0893   0.4270   0.6852   0.6852   0.9413   1.8484
     1.8484   1.9516   2.0950   2.9414

     occupation numbers 
     1.0000   1.0000   1.0000   1.0000   1.0000   1.0000   1.0000   1.0000
     1.0000   1.0000   1.0000   1.0000   1.0000   1.0000   1.0000   1.0000
     1.0000   1.0000   1.0000   1.0000   1.0000   1.0000   1.0000   1.0000
     1.0000   1.0000   1.0000   1.0000

          k = 0.0000 0.0000-0.7743 ( 18328 PWs)   bands (ev):

   -18.3821 -18.3821 -18.3801 -18.3801 -18.3750 -18.3750 -18.3708 -18.3708
   -18.3667 -18.3667  -8.9282  -8.9282  -8.7508  -8.7508  -3.6959  -3.6959
    -0.0053  -0.0053   0.0520   0.0520   0.4604   0.4604   1.5042   1.5042
     1.5782   1.5782   2.3764   2.3764

     occupation numbers 
     1.0000   1.0000   1.0000   1.0000   1.0000   1.0000   1.0000   1.0000
     1.0000   1.0000   1.0000   1.0000   1.0000   1.0000   1.0000   1.0000
     1.0000   1.0000   1.0000   1.0000   1.0000   1.0000   1.0000   1.0000
     1.0000   1.0000   1.0000   1.0000

          k = 0.0000 0.2500 0.0000 ( 18346 PWs)   bands (ev):

   -18.3832 -18.3817 -18.3768 -18.3768 -18.3752 -18.3751 -18.3748 -18.3741
   -18.3661 -18.3661  -9.2979  -8.9508  -8.8173  -8.7124  -3.9427  -2.6852
     0.0244   0.2371   0.3418   0.8422   0.9872   1.0718   1.5122   1.5824
     1.8692   2.0036   2.2027   2.4626

     occupation numbers 
     1.0000   1.0000   1.0000   1.0000   1.0000   1.0000   1.0000   1.0000
     1.0000   1.0000   1.0000   1.0000   1.0000   1.0000   1.0000   1.0000
     1.0000   1.0000   1.0000   1.0000   1.0000   1.0000   1.0000   1.0000
     1.0000   1.0000   1.0000   1.0000

          k = 0.0000 0.2500 0.3871 ( 18334 PWs)   bands (ev):

   -18.3828 -18.3818 -18.3785 -18.3784 -18.3751 -18.3750 -18.3729 -18.3723
   -18.3664 -18.3664  -9.1695  -8.8900  -8.7826  -8.7296  -3.9286  -3.0486
    -0.3803  -0.2219   0.4616   0.5436   0.6938   1.1557   1.1687   1.7625
     1.8020   1.9197   2.0655   2.7995

     occupation numbers 
     1.0000   1.0000   1.0000   1.0000   1.0000   1.0000   1.0000   1.0000
     1.0000   1.0000   1.0000   1.0000   1.0000   1.0000   1.0000   1.0000
     1.0000   1.0000   1.0000   1.0000   1.0000   1.0000   1.0000   1.0000
     1.0000   1.0000   1.0000   1.0000

          k = 0.0000 0.2500-0.7743 ( 18318 PWs)   bands (ev):

   -18.3823 -18.3823 -18.3799 -18.3799 -18.3750 -18.3750 -18.3708 -18.3708
   -18.3667 -18.3667  -8.9168  -8.9168  -8.7626  -8.7626  -3.6850  -3.6850
    -0.4492  -0.4492   0.0750   0.0750   1.0013   1.0013   1.4759   1.4759
     1.6541   1.6541   2.5095   2.5095

     occupation numbers 
     1.0000   1.0000   1.0000   1.0000   1.0000   1.0000   1.0000   1.0000
     1.0000   1.0000   1.0000   1.0000   1.0000   1.0000   1.0000   1.0000
     1.0000   1.0000   1.0000   1.0000   1.0000   1.0000   1.0000   1.0000
     1.0000   1.0000   1.0000   1.0000

          k = 0.0000-0.5000 0.0000 ( 18326 PWs)   bands (ev):

   -18.3824 -18.3824 -18.3768 -18.3768 -18.3751 -18.3751 -18.3745 -18.3745
   -18.3660 -18.3660  -9.1414  -9.1414  -8.7565  -8.7565  -3.3912  -3.3912
     0.2820   0.2820   0.6137   0.6137   1.0927   1.0927   1.5812   1.5812
     1.8974   1.8974   2.0871   2.0871

     occupation numbers 
     1.0000   1.0000   1.0000   1.0000   1.0000   1.0000   1.0000   1.0000
     1.0000   1.0000   1.0000   1.0000   1.0000   1.0000   1.0000   1.0000
     1.0000   1.0000   1.0000   1.0000   1.0000   1.0000   1.0000   1.0000
     1.0000   1.0000   1.0000   1.0000

          k = 0.0000-0.5000 0.3871 ( 18354 PWs)   bands (ev):

   -18.3824 -18.3824 -18.3784 -18.3784 -18.3751 -18.3751 -18.3726 -18.3726
   -18.3664 -18.3664  -9.0420  -9.0420  -8.7489  -8.7489  -3.5167  -3.5167
    -0.4515  -0.4515   0.5261   0.5261   1.2940   1.2940   1.4297   1.4297
     1.8779   1.8779   2.3185   2.3185

     occupation numbers 
     1.0000   1.0000   1.0000   1.0000   1.0000   1.0000   1.0000   1.0000
     1.0000   1.0000   1.0000   1.0000   1.0000   1.0000   1.0000   1.0000
     1.0000   1.0000   1.0000   1.0000   1.0000   1.0000   1.0000   1.0000
     1.0000   1.0000   1.0000   1.0000

          k = 0.0000-0.5000-0.7743 ( 18356 PWs)   bands (ev):

   -18.3826 -18.3826 -18.3798 -18.3798 -18.3750 -18.3750 -18.3707 -18.3707
   -18.3667 -18.3667  -8.9033  -8.9033  -8.7764  -8.7764  -3.6737  -3.6737
    -0.6689  -0.6689   0.0745   0.0745   1.1323   1.1323   1.7058   1.7058
     1.7804   1.7804   2.6304   2.6304

     occupation numbers 
     1.0000   1.0000   1.0000   1.0000   1.0000   1.0000   1.0000   1.0000
     1.0000   1.0000   1.0000   1.0000   1.0000   1.0000   1.0000   1.0000
     1.0000   1.0000   1.0000   1.0000   1.0000   1.0000   1.0000   1.0000
     1.0000   1.0000   1.0000   1.0000

          k = 0.2500 0.2500 0.0000 ( 18373 PWs)   bands (ev):

   -18.3829 -18.3819 -18.3768 -18.3768 -18.3753 -18.3751 -18.3748 -18.3742
   -18.3661 -18.3661  -9.2440  -8.9670  -8.8516  -8.7326  -3.7738  -2.8907
    -0.0111   0.3638   0.4268   0.8961   0.9493   1.1218   1.4618   1.5936
     1.8580   1.9351   2.0448   2.3397

     occupation numbers 
     1.0000   1.0000   1.0000   1.0000   1.0000   1.0000   1.0000   1.0000
     1.0000   1.0000   1.0000   1.0000   1.0000   1.0000   1.0000   1.0000
     1.0000   1.0000   1.0000   1.0000   1.0000   1.0000   1.0000   1.0000
     1.0000   1.0000   1.0000   1.0000

          k = 0.2500 0.2500 0.3871 ( 18328 PWs)   bands (ev):

   -18.3827 -18.3820 -18.3785 -18.3784 -18.3751 -18.3750 -18.3728 -18.3723
   -18.3664 -18.3664  -9.1263  -8.9107  -8.8051  -8.7378  -3.8137  -3.2010
    -0.4130   0.1185   0.1628   0.4589   0.6421   1.3091   1.4254   1.6978
     1.8068   1.9293   2.0553   2.5751

     occupation numbers 
     1.0000   1.0000   1.0000   1.0000   1.0000   1.0000   1.0000   1.0000
     1.0000   1.0000   1.0000   1.0000   1.0000   1.0000   1.0000   1.0000
     1.0000   1.0000   1.0000   1.0000   1.0000   1.0000   1.0000   1.0000
     1.0000   1.0000   1.0000   1.0000

          k = 0.2500 0.2500-0.7743 ( 18384 PWs)   bands (ev):

   -18.3826 -18.3821 -18.3802 -18.3798 -18.3751 -18.3751 -18.3708 -18.3707
   -18.3668 -18.3667  -8.9197  -8.9037  -8.7760  -8.7572  -3.7325  -3.6735
    -0.6104  -0.2052  -0.0905   0.4175   0.4751   1.3475   1.4529   1.5966
     1.6526   1.7703   2.4351   2.4836

     occupation numbers 
     1.0000   1.0000   1.0000   1.0000   1.0000   1.0000   1.0000   1.0000
     1.0000   1.0000   1.0000   1.0000   1.0000   1.0000   1.0000   1.0000
     1.0000   1.0000   1.0000   1.0000   1.0000   1.0000   1.0000   1.0000
     1.0000   1.0000   1.0000   1.0000

          k = 0.2500-0.5000 0.0000 ( 18348 PWs)   bands (ev):

   -18.3824 -18.3824 -18.3768 -18.3768 -18.3751 -18.3751 -18.3745 -18.3745
   -18.3661 -18.3661  -9.1054  -9.1054  -8.8005  -8.8005  -3.3504  -3.3504
     0.1842   0.1842   0.6507   0.6507   1.1764   1.1764   1.5163   1.5163
     1.8290   1.8290   2.0613   2.0613

     occupation numbers 
     1.0000   1.0000   1.0000   1.0000   1.0000   1.0000   1.0000   1.0000
     1.0000   1.0000   1.0000   1.0000   1.0000   1.0000   1.0000   1.0000
     1.0000   1.0000   1.0000   1.0000   1.0000   1.0000   1.0000   1.0000
     1.0000   1.0000   1.0000   1.0000

          k = 0.2500-0.5000 0.3871 ( 18330 PWs)   bands (ev):

   -18.3823 -18.3823 -18.3784 -18.3784 -18.3751 -18.3751 -18.3726 -18.3726
   -18.3664 -18.3664  -9.0174  -9.0174  -8.7767  -8.7767  -3.5242  -3.5242
    -0.2362  -0.2362   0.4006   0.4006   1.0099   1.0099   1.5536   1.5536
     1.8848   1.8848   2.2751   2.2751

     occupation numbers 
     1.0000   1.0000   1.0000   1.0000   1.0000   1.0000   1.0000   1.0000
     1.0000   1.0000   1.0000   1.0000   1.0000   1.0000   1.0000   1.0000
     1.0000   1.0000   1.0000   1.0000   1.0000   1.0000   1.0000   1.0000
     1.0000   1.0000   1.0000   1.0000

          k = 0.2500-0.5000-0.7743 ( 18372 PWs)   bands (ev):

   -18.3824 -18.3824 -18.3800 -18.3800 -18.3751 -18.3751 -18.3708 -18.3708
   -18.3668 -18.3668  -8.9074  -8.9074  -8.7698  -8.7698  -3.7218  -3.7218
    -0.3915  -0.3915  -0.0346  -0.0346   1.2107   1.2107   1.5231   1.5231
     1.7989   1.7989   2.2776   2.2776

     occupation numbers 
     1.0000   1.0000   1.0000   1.0000   1.0000   1.0000   1.0000   1.0000
     1.0000   1.0000   1.0000   1.0000   1.0000   1.0000   1.0000   1.0000
     1.0000   1.0000   1.0000   1.0000   1.0000   1.0000   1.0000   1.0000
     1.0000   1.0000   1.0000   1.0000

          k =-0.5000-0.5000 0.0000 ( 18396 PWs)   bands (ev):

   -18.3824 -18.3824 -18.3768 -18.3768 -18.3752 -18.3752 -18.3745 -18.3745
   -18.3661 -18.3661  -9.0547  -9.0547  -8.8591  -8.8591  -3.3085  -3.3085
     0.0903   0.0903   0.6933   0.6933   1.2976   1.2976   1.4467   1.4467
     1.6928   1.6928   2.0631   2.0631

     occupation numbers 
     1.0000   1.0000   1.0000   1.0000   1.0000   1.0000   1.0000   1.0000
     1.0000   1.0000   1.0000   1.0000   1.0000   1.0000   1.0000   1.0000
     1.0000   1.0000   1.0000   1.0000   1.0000   1.0000   1.0000   1.0000
     1.0000   1.0000   1.0000   1.0000

          k =-0.5000-0.5000 0.3871 ( 18372 PWs)   bands (ev):

   -18.3823 -18.3823 -18.3785 -18.3785 -18.3751 -18.3751 -18.3726 -18.3726
   -18.3664 -18.3664  -8.9852  -8.9852  -8.8120  -8.8120  -3.5313  -3.5313
     0.2432   0.2432   0.3393   0.3393   0.3867   0.3867   1.7504   1.7504
     1.8444   1.8444   2.2436   2.2436

     occupation numbers 
     1.0000   1.0000   1.0000   1.0000   1.0000   1.0000   1.0000   1.0000
     1.0000   1.0000   1.0000   1.0000   1.0000   1.0000   1.0000   1.0000
     1.0000   1.0000   1.0000   1.0000   1.0000   1.0000   1.0000   1.0000
     1.0000   1.0000   1.0000   1.0000

          k =-0.5000-0.5000-0.7743 ( 18400 PWs)   bands (ev):

   -18.3821 -18.3821 -18.3802 -18.3802 -18.3751 -18.3751 -18.3708 -18.3708
   -18.3668 -18.3668  -8.9113  -8.9113  -8.7635  -8.7635  -3.7671  -3.7671
    -0.2089  -0.2089   0.3559   0.3559   0.4918   0.4918   1.8106   1.8106
     1.8147   1.8147   1.9881   1.9881

     occupation numbers 
     1.0000   1.0000   1.0000   1.0000   1.0000   1.0000   1.0000   1.0000
     1.0000   1.0000   1.0000   1.0000   1.0000   1.0000   1.0000   1.0000
     1.0000   1.0000   1.0000   1.0000   1.0000   1.0000   1.0000   1.0000
     1.0000   1.0000   1.0000   1.0000

     highest occupied level (ev):     2.9414

!    total energy              =   -2399.98866272 Ry

     total all-electron energy =    -81641.234010 Ry
     estimated scf accuracy    <       0.00000055 Ry

     The total energy is the sum of the following terms:
     one-electron contribution =    -202.52869747 Ry
     hartree contribution      =     129.42555263 Ry
     xc contribution           =    -159.00445546 Ry
     ewald contribution        =    -220.09145386 Ry
     one-center paw contrib.   =   -1947.78960857 Ry
      -> PAW hartree energy AE =     108.34486340 Ry
      -> PAW hartree energy PS =    -107.57817741 Ry
      -> PAW xc energy AE      =    -328.95869064 Ry
      -> PAW xc energy PS      =      47.25739498 Ry
      -> total E_H with PAW    =     130.19223861 Ry
      -> total E_XC with PAW   =    -440.70575112 Ry

     convergence has been achieved in   8 iterations

     Forces acting on atoms (cartesian axes, Ry/au):

     atom    1 type  1   force =     0.00000000    0.00000000    0.00000000
     atom    2 type  1   force =     0.00000000    0.00000000   -0.00000000
     atom    3 type  2   force =     0.00323174    0.00323174    0.00000000
     atom    4 type  2   force =    -0.00323174   -0.00323174    0.00000000
     atom    5 type  2   force =     0.00323174   -0.00323174   -0.00000000
     atom    6 type  2   force =    -0.00323174    0.00323174   -0.00000000
     The non-local contrib.  to forces
     atom    1 type  1   force =     0.00000000    0.00000000    0.00000000
     atom    2 type  1   force =     0.00000000    0.00000000   -0.00000000
     atom    3 type  2   force =     0.01246002    0.01246002    0.00000000
     atom    4 type  2   force =    -0.01246002   -0.01246002    0.00000000
     atom    5 type  2   force =     0.01246002   -0.01246002   -0.00000000
     atom    6 type  2   force =    -0.01246002    0.01246002   -0.00000000
     The ionic contribution  to forces
     atom    1 type  1   force =    -0.00000000   -0.00000000    0.00000000
     atom    2 type  1   force =    -0.00000000   -0.00000000    0.00000000
     atom    3 type  2   force =    -0.62953558   -0.62953558    0.00000000
     atom    4 type  2   force =     0.62953558    0.62953558   -0.00000000
     atom    5 type  2   force =    -0.62953558    0.62953558    0.00000000
     atom    6 type  2   force =     0.62953558   -0.62953558    0.00000000
     The local contribution  to forces
     atom    1 type  1   force =     0.00000000    0.00000000    0.00000000
     atom    2 type  1   force =     0.00000000    0.00000000    0.00000000
     atom    3 type  2   force =     0.62190551    0.62190551    0.00000000
     atom    4 type  2   force =    -0.62190551   -0.62190551    0.00000000
     atom    5 type  2   force =     0.62190551   -0.62190551    0.00000000
     atom    6 type  2   force =    -0.62190551    0.62190551    0.00000000
     The core correction contribution to forces
     atom    1 type  1   force =     0.00000000    0.00000000   -0.00000000
     atom    2 type  1   force =     0.00000000    0.00000000   -0.00000000
     atom    3 type  2   force =    -0.00164850   -0.00164850   -0.00000000
     atom    4 type  2   force =     0.00164850    0.00164850    0.00000000
     atom    5 type  2   force =    -0.00164850    0.00164850   -0.00000000
     atom    6 type  2   force =     0.00164850   -0.00164850   -0.00000000
     The Hubbard contrib.    to forces
     atom    1 type  1   force =     0.00000000    0.00000000    0.00000000
     atom    2 type  1   force =     0.00000000    0.00000000    0.00000000
     atom    3 type  2   force =     0.00000000    0.00000000    0.00000000
     atom    4 type  2   force =     0.00000000    0.00000000    0.00000000
     atom    5 type  2   force =     0.00000000    0.00000000    0.00000000
     atom    6 type  2   force =     0.00000000    0.00000000    0.00000000
     The SCF correction term to forces
     atom    1 type  1   force =     0.00000000    0.00000000    0.00000000
     atom    2 type  1   force =    -0.00000000   -0.00000000   -0.00000000
     atom    3 type  2   force =     0.00005029    0.00005029    0.00000000
     atom    4 type  2   force =    -0.00005029   -0.00005029    0.00000000
     atom    5 type  2   force =     0.00005029   -0.00005029    0.00000000
     atom    6 type  2   force =    -0.00005029    0.00005029    0.00000000

     Total force =     0.009141     Total SCF correction =     0.000142


     Computing stress (Cartesian axis) and pressure

          total   stress  (Ry/bohr**3)                   (kbar)     P=       -3.61
  -0.00000773   0.00000000   0.00000000           -1.14        0.00        0.00
   0.00000000  -0.00000773   0.00000000            0.00       -1.14        0.00
   0.00000000   0.00000000  -0.00005826            0.00        0.00       -8.57

     kinetic stress (kbar)   7274.97      0.00      0.00
                                0.00   7274.97      0.00
                                0.00      0.00   7242.76

     local   stress (kbar)  -1578.95     -0.00     -0.00
                               -0.00  -1578.95     -0.00
                               -0.00     -0.00  -5432.63

     nonloc. stress (kbar)    115.58      0.00      0.00
                                0.00    115.58      0.00
                                0.00      0.00    111.84

     hartree stress (kbar)   2867.79      0.00      0.00
                                0.00   2867.79      0.00
                                0.00      0.00   4524.80

     exc-cor stress (kbar)   6126.93      0.00      0.00
                                0.00   6126.93      0.00
                                0.00      0.00   6127.78

     corecor stress (kbar)  -8250.49     -0.00     -0.00
                               -0.00  -8250.49     -0.00
                               -0.00     -0.00  -8249.00

     ewald   stress (kbar)  -6556.96     -0.00     -0.00
                               -0.00  -6556.96     -0.00
                               -0.00     -0.00  -4334.13

     hubbard stress (kbar)      0.00      0.00      0.00
                                0.00      0.00      0.00
                                0.00      0.00      0.00

     DFT-D   stress (kbar)      0.00      0.00      0.00
                                0.00      0.00      0.00
                                0.00      0.00      0.00

     XDM     stress (kbar)      0.00      0.00      0.00
                                0.00      0.00      0.00
                                0.00      0.00      0.00

     dft-nl  stress (kbar)      0.00      0.00      0.00
                                0.00      0.00      0.00
                                0.00      0.00      0.00

     TS-vdW  stress (kbar)      0.00      0.00      0.00
                                0.00      0.00      0.00
                                0.00      0.00      0.00



     Writing output data file ./out/SnI2tetr.save/

     init_run     :      3.59s CPU      4.03s WALL (       1 calls)
     electrons    :     58.15s CPU     60.21s WALL (       1 calls)
     forces       :      1.67s CPU      4.47s WALL (       1 calls)
     stress       :      3.61s CPU      3.63s WALL (       1 calls)

     Called by init_run:
     wfcinit      :      2.08s CPU      2.11s WALL (       1 calls)
     wfcinit:atom :      0.02s CPU      0.02s WALL (      18 calls)
     wfcinit:wfcr :      1.94s CPU      1.97s WALL (      18 calls)
     potinit      :      0.48s CPU      0.67s WALL (       1 calls)
     hinit0       :      0.66s CPU      0.73s WALL (       1 calls)

     Called by electrons:
     c_bands      :     48.08s CPU     49.30s WALL (       9 calls)
     sum_band     :      7.42s CPU      7.51s WALL (       9 calls)
     v_of_rho     :      0.31s CPU      0.38s WALL (       9 calls)
     v_h          :      0.04s CPU      0.08s WALL (       9 calls)
     v_xc         :      0.33s CPU      0.34s WALL (      11 calls)
     newd         :      1.18s CPU      1.20s WALL (       9 calls)
     PAW_pot      :      1.42s CPU      1.53s WALL (       9 calls)
     mix_rho      :      0.06s CPU      0.34s WALL (       9 calls)

     Called by c_bands:
     init_us_2    :      0.61s CPU      0.65s WALL (     378 calls)
     cegterg      :     46.35s CPU     46.76s WALL (     162 calls)

     Called by sum_band:
     sum_band:wei :      0.00s CPU      0.00s WALL (       9 calls)
     sum_band:loo :      6.22s CPU      6.29s WALL (       9 calls)
     sum_band:buf :      0.06s CPU      0.06s WALL (     162 calls)
     sum_band:ini :      0.24s CPU      0.25s WALL (     162 calls)
     sum_band:cal :      1.72s CPU      1.73s WALL (     162 calls)
     sum_band:bec :      0.02s CPU      0.02s WALL (     162 calls)
     addusdens    :      1.09s CPU      1.10s WALL (       9 calls)
     addusd:skk   :      0.00s CPU      0.00s WALL (      18 calls)
     addusd:dgemm :      0.37s CPU      0.38s WALL (      18 calls)
     addusd:qvan2 :      0.61s CPU      0.61s WALL (      18 calls)

     Called by *egterg:
     cdiaghg      :      1.14s CPU      1.14s WALL (     675 calls)
     cegterg:over :      2.84s CPU      2.85s WALL (     531 calls)
     cegterg:upda :      1.50s CPU      1.51s WALL (     531 calls)
     cegterg:last :      3.80s CPU      3.81s WALL (     382 calls)
     h_psi        :     32.93s CPU     33.31s WALL (     711 calls)
     s_psi        :      4.52s CPU      4.53s WALL (     711 calls)
     g_psi        :      0.09s CPU      0.09s WALL (     531 calls)

     Called by h_psi:
     h_psi:calbec :      5.42s CPU      5.44s WALL (     711 calls)
     vloc_psi     :     22.97s CPU     23.31s WALL (     711 calls)
     add_vuspsi   :      4.43s CPU      4.45s WALL (     711 calls)

     General routines
     calbec       :      8.02s CPU      8.05s WALL (     963 calls)
     fft          :      0.36s CPU      0.36s WALL (     125 calls)
     ffts         :      0.01s CPU      0.01s WALL (       9 calls)
     fftw         :     25.43s CPU     25.80s WALL (   31356 calls)

     Parallel routines
     fft_scatt_xy :      1.77s CPU      1.80s WALL (   31490 calls)
     fft_scatt_yz :      5.46s CPU      5.54s WALL (   31490 calls)

     PAW routines
     PAW_pot      :      1.42s CPU      1.53s WALL (       9 calls)
     PAW_symme    :      0.02s CPU      0.02s WALL (      18 calls)

     PWSCF        :   1m 7.96s CPU   1m17.31s WALL


   This run was terminated on:  15: 5:38  14Jan2021            

=------------------------------------------------------------------------------=
   JOB DONE.
=------------------------------------------------------------------------------=
