
     Program PWSCF v.6.3 starts on 17Feb2021 at 21:17:58 

     This program is part of the open-source Quantum ESPRESSO suite
     for quantum simulation of materials; please cite
         "P. Giannozzi et al., J. Phys.:Condens. Matter 21 395502 (2009);
         "P. Giannozzi et al., J. Phys.:Condens. Matter 29 465901 (2017);
          URL http://www.quantum-espresso.org", 
     in publications or presentations arising from this work. More details at
     http://www.quantum-espresso.org/quote

     Parallel version (MPI & OpenMP), running on      32 processor cores
     Number of MPI processes:                32
     Threads/MPI process:                     1

     MPI processes distributed on     1 nodes
     R & G space division:  proc/nbgrp/npool/nimage =      32
     Waiting for input...
     Reading input from standard input

     Current dimensions of program PWSCF are:
     Max number of different atomic species (ntypx) = 10
     Max number of k-points (npk) =  40000
     Max angular momentum in pseudopotentials (lmaxx) =  3
               file Sn.rel-pbe-dn-rrkjus_psl.1.0.0.UPF: wavefunction(s)  5S 4D 4D renormalized
               file Cs.rel-pbe-spn-rrkjus_psl.1.0.0.UPF: wavefunction(s)  5S 6S renormalized

     Subspace diagonalization in iterative solution of the eigenvalue problem:
     one sub-group per band group will be used
     scalapack distributed-memory algorithm (size of sub-group:  4*  4 procs)

 
     Parallelization info
     --------------------
     sticks:   dense  smooth     PW     G-vecs:    dense   smooth      PW
     Min         208     208     56                19702    19702    2792
     Max         209     209     57                19713    19713    2797
     Sum        6673    6673   1813               630597   630597   89389
 

     Title: 
     perovskite                                                                 


     bravais-lattice index     =            0
     lattice parameter (alat)  =      17.4003  a.u.
     unit-cell volume          =    6523.1036 (a.u.)^3
     number of atoms/cell      =           20
     number of atomic types    =            3
     number of electrons       =       176.00
     number of Kohn-Sham states=          176
     kinetic-energy cutoff     =      80.0000  Ry
     charge density cutoff     =     320.0000  Ry
     convergence threshold     =      1.0E-07
     mixing beta               =       0.6000
     number of iterations used =            8  plain     mixing
     Exchange-correlation      = PBE ( 1  4  3  4 0 0)
     nstep                     =           50

     Non magnetic calculation with spin-orbit


     celldm(1)=  17.400300  celldm(2)=   0.000000  celldm(3)=   0.000000
     celldm(4)=   0.000000  celldm(5)=   0.000000  celldm(6)=   0.000000

     crystal axes: (cart. coord. in units of alat)
               a(1) = (   1.000000   0.000000   0.000000 )  
               a(2) = (  -0.499997   0.866025   0.000000 )  
               a(3) = (   0.000000   0.000000   1.429728 )  

     reciprocal axes: (cart. coord. in units 2 pi/alat)
               b(1) = (  1.000000  0.577347  0.000000 )  
               b(2) = (  0.000000  1.154701  0.000000 )  
               b(3) = (  0.000000  0.000000  0.699434 )  


     PseudoPot. # 1 for Sn read from file:
     ./Sn.rel-pbe-dn-rrkjus_psl.1.0.0.UPF
     MD5 check sum: e9415cc9ba1036dfb73502962f03961a
     Pseudo is Ultrasoft + core correction, Zval = 14.0
     Generated using "atomic" code by A. Dal Corso v.6.3
     Using radial grid of 1243 points, 10 beta functions with: 
                l(1) =   0
                l(2) =   0
                l(3) =   1
                l(4) =   1
                l(5) =   1
                l(6) =   1
                l(7) =   2
                l(8) =   2
                l(9) =   2
               l(10) =   2
     Q(r) pseudized with 0 coefficients 


     PseudoPot. # 2 for I  read from file:
     ./I.rel-pbe-n-rrkjus_psl.0.2.2.UPF
     MD5 check sum: b9024a078df971004264c9bcc9ff756e
     Pseudo is Ultrasoft + core correction, Zval =  7.0
     Generated using "atomic" code by A. Dal Corso v.5.0.2 svn rev. 9415
     Using radial grid of 1247 points,  6 beta functions with: 
                l(1) =   0
                l(2) =   0
                l(3) =   1
                l(4) =   1
                l(5) =   1
                l(6) =   1
     Q(r) pseudized with 0 coefficients 


     PseudoPot. # 3 for Cs read from file:
     ./Cs.rel-pbe-spn-rrkjus_psl.1.0.0.UPF
     MD5 check sum: 92f45d5fced885c1284380ec35df8368
     Pseudo is Ultrasoft + core correction, Zval =  9.0
     Generated using "atomic" code by A. Dal Corso v.6.4.1
     Using radial grid of 1251 points, 15 beta functions with: 
                l(1) =   0
                l(2) =   0
                l(3) =   0
                l(4) =   1
                l(5) =   1
                l(6) =   1
                l(7) =   1
                l(8) =   2
                l(9) =   2
               l(10) =   2
               l(11) =   2
               l(12) =   3
               l(13) =   3
               l(14) =   3
               l(15) =   3
     Q(r) pseudized with 0 coefficients 


     atomic species   valence    mass     pseudopotential
        Sn            14.00   118.70000     Sn( 1.00)
        I              7.00   126.90000     I ( 1.00)
        Cs             9.00   132.90000     Cs( 1.00)

      2 Sym. Ops. (no inversion) found


                                    s                        frac. trans.

      isym =  1     identity                                     

 cryst.   s( 1) = (     1          0          0      )
                  (     0          1          0      )
                  (     0          0          1      )

 cart.    s( 1) = (  1.0000000 -0.0000000  0.0000000 )
                  (  0.0000000  1.0000000  0.0000000 )
                  (  0.0000000  0.0000000  1.0000000 )


      isym =  2     inv. 180 deg rotation - cart. axis [0,0,1]   

 cryst.   s( 2) = (     1          0          0      )
                  (     0          1          0      )
                  (     0          0         -1      )

 cart.    s( 2) = (  1.0000000 -0.0000000  0.0000000 )
                  (  0.0000000  1.0000000  0.0000000 )
                  (  0.0000000  0.0000000 -1.0000000 )


   Cartesian axes

     site n.     atom                  positions (alat units)
         1           Cs  tau(   1) = (   0.2032075   0.4600292   0.0000000  )
         2           Cs  tau(   2) = (   0.0000027   0.8119922   0.0000000  )
         3           Cs  tau(   3) = (  -0.2032045   0.4600292   0.0000000  )
         4           Cs  tau(   4) = (   0.0000014   0.5773505   0.0000000  )
         5           Sn  tau(   5) = (   0.4020741   0.3452133   0.0000000  )
         6           Sn  tau(   6) = (   0.5000006   0.1755988   0.0000000  )
         7           Sn  tau(   7) = (   0.5979281   0.3452133   0.0000000  )
         8           Sn  tau(   8) = (   0.5000015   0.2886748   0.7148641  )
         9           I   tau(   9) = (  -0.3877448   0.8012163   1.2207663  )
        10           I   tau(  10) = (  -0.0000001   0.1296189   1.2207663  )
        11           I   tau(  11) = (   0.3877492   0.8012163   1.2207663  )
        12           I   tau(  12) = (  -0.0000001   0.1296189   0.2089619  )
        13           I   tau(  13) = (   0.3877492   0.8012163   0.2089619  )
        14           I   tau(  14) = (  -0.3877448   0.8012163   0.2089619  )
        15           I   tau(  15) = (   0.3299176   0.0390153   0.7148641  )
        16           I   tau(  16) = (   0.8012544   0.2662084   0.7148641  )
        17           I   tau(  17) = (   0.3688324   0.5608007   0.7148641  )
        18           I   tau(  18) = (   0.1987484   0.2662084   0.7148641  )
        19           I   tau(  19) = (   0.6700836   0.0390153   0.7148641  )
        20           I   tau(  20) = (   0.6311724   0.5608007   0.7148641  )

   Crystallographic axes

     site n.     atom                  positions (cryst. coord.)
         1           Cs  tau(   1) = (  0.4688040  0.5311960  0.0000000  )
         2           Cs  tau(   2) = (  0.4688040  0.9376080  0.0000000  )
         3           Cs  tau(   3) = (  0.0623920  0.5311960  0.0000000  )
         4           Cs  tau(   4) = (  0.3333330  0.6666670  0.0000000  )
         5           Sn  tau(   5) = (  0.6013820  0.3986180  0.0000000  )
         6           Sn  tau(   6) = (  0.6013820  0.2027640  0.0000000  )
         7           Sn  tau(   7) = (  0.7972360  0.3986180  0.0000000  )
         8           Sn  tau(   8) = (  0.6666670  0.3333330  0.5000000  )
         9           I   tau(   9) = (  0.0748350  0.9251650  0.8538450  )
        10           I   tau(  10) = (  0.0748350  0.1496710  0.8538450  )
        11           I   tau(  11) = (  0.8503290  0.9251650  0.8538450  )
        12           I   tau(  12) = (  0.0748350  0.1496710  0.1461550  )
        13           I   tau(  13) = (  0.8503290  0.9251650  0.1461550  )
        14           I   tau(  14) = (  0.0748350  0.9251650  0.1461550  )
        15           I   tau(  15) = (  0.3524430  0.0450510  0.5000000  )
        16           I   tau(  16) = (  0.9549490  0.3073910  0.5000000  )
        17           I   tau(  17) = (  0.6926090  0.6475570  0.5000000  )
        18           I   tau(  18) = (  0.3524430  0.3073910  0.5000000  )
        19           I   tau(  19) = (  0.6926090  0.0450510  0.5000000  )
        20           I   tau(  20) = (  0.9549490  0.6475570  0.5000000  )

     number of k points=    20
                       cart. coord. in units 2pi/alat
        k(    1) = (   0.0000000   0.0000000   0.0000000), wk =   0.0312500
        k(    2) = (   0.0000000   0.0000000  -0.3497168), wk =   0.0312500
        k(    3) = (   0.0000000   0.2886752   0.0000000), wk =   0.0625000
        k(    4) = (   0.0000000   0.2886752  -0.3497168), wk =   0.0625000
        k(    5) = (   0.0000000  -0.5773503   0.0000000), wk =   0.0312500
        k(    6) = (   0.0000000  -0.5773503  -0.3497168), wk =   0.0312500
        k(    7) = (   0.2500000   0.1443368   0.0000000), wk =   0.0625000
        k(    8) = (   0.2500000   0.1443368  -0.3497168), wk =   0.0625000
        k(    9) = (   0.2500000   0.4330119   0.0000000), wk =   0.0625000
        k(   10) = (   0.2500000   0.4330119  -0.3497168), wk =   0.0625000
        k(   11) = (   0.2500000  -0.4330136   0.0000000), wk =   0.0625000
        k(   12) = (   0.2500000  -0.4330136  -0.3497168), wk =   0.0625000
        k(   13) = (   0.2500000  -0.1443384   0.0000000), wk =   0.0625000
        k(   14) = (   0.2500000  -0.1443384  -0.3497168), wk =   0.0625000
        k(   15) = (  -0.5000000  -0.2886735   0.0000000), wk =   0.0312500
        k(   16) = (  -0.5000000  -0.2886735  -0.3497168), wk =   0.0312500
        k(   17) = (  -0.5000000   0.0000017   0.0000000), wk =   0.0625000
        k(   18) = (  -0.5000000   0.0000017  -0.3497168), wk =   0.0625000
        k(   19) = (  -0.5000000  -0.8660239   0.0000000), wk =   0.0312500
        k(   20) = (  -0.5000000  -0.8660239  -0.3497168), wk =   0.0312500

                       cryst. coord.
        k(    1) = (   0.0000000   0.0000000   0.0000000), wk =   0.0312500
        k(    2) = (   0.0000000   0.0000000  -0.5000000), wk =   0.0312500
        k(    3) = (   0.0000000   0.2500000   0.0000000), wk =   0.0625000
        k(    4) = (   0.0000000   0.2500000  -0.5000000), wk =   0.0625000
        k(    5) = (   0.0000000  -0.5000000   0.0000000), wk =   0.0312500
        k(    6) = (   0.0000000  -0.5000000  -0.5000000), wk =   0.0312500
        k(    7) = (   0.2500000  -0.0000000   0.0000000), wk =   0.0625000
        k(    8) = (   0.2500000  -0.0000000  -0.5000000), wk =   0.0625000
        k(    9) = (   0.2500000   0.2500000   0.0000000), wk =   0.0625000
        k(   10) = (   0.2500000   0.2500000  -0.5000000), wk =   0.0625000
        k(   11) = (   0.2500000  -0.5000000   0.0000000), wk =   0.0625000
        k(   12) = (   0.2500000  -0.5000000  -0.5000000), wk =   0.0625000
        k(   13) = (   0.2500000  -0.2500000   0.0000000), wk =   0.0625000
        k(   14) = (   0.2500000  -0.2500000  -0.5000000), wk =   0.0625000
        k(   15) = (  -0.5000000   0.0000000   0.0000000), wk =   0.0312500
        k(   16) = (  -0.5000000   0.0000000  -0.5000000), wk =   0.0312500
        k(   17) = (  -0.5000000   0.2500000   0.0000000), wk =   0.0625000
        k(   18) = (  -0.5000000   0.2500000  -0.5000000), wk =   0.0625000
        k(   19) = (  -0.5000000  -0.5000000   0.0000000), wk =   0.0312500
        k(   20) = (  -0.5000000  -0.5000000  -0.5000000), wk =   0.0312500

     Dense  grid:   630597 G-vectors     FFT dimensions: ( 100, 100, 144)

     Dynamical RAM for                 wfc:      13.23 MB

     Dynamical RAM for     wfc (w. buffer):     277.81 MB

     Dynamical RAM for           str. fact:       0.90 MB

     Dynamical RAM for           local pot:       0.00 MB

     Dynamical RAM for          nlocal pot:      20.90 MB

     Dynamical RAM for                qrad:     190.63 MB

     Dynamical RAM for          rho,v,vnew:       8.19 MB

     Dynamical RAM for               rhoin:       2.73 MB

     Dynamical RAM for            rho*nmix:      19.24 MB

     Dynamical RAM for           G-vectors:       1.28 MB

     Dynamical RAM for          h,s,v(r/c):       1.42 MB

     Dynamical RAM for          <psi|beta>:       2.99 MB

     Dynamical RAM for                 psi:      52.92 MB

     Dynamical RAM for                hpsi:      52.92 MB

     Dynamical RAM for                spsi:      52.92 MB

     Dynamical RAM for      wfcinit/wfcrot:      24.44 MB

     Dynamical RAM for           addusdens:     617.85 MB

     Dynamical RAM for          addusforce:     632.76 MB

     Dynamical RAM for         addusstress:     623.27 MB

     Estimated static dynamical RAM per process >     525.92 MB

     Estimated max dynamical RAM per process >       1.13 GB

     Estimated total dynamical RAM >      36.21 GB

     Initial potential from superposition of free atoms

     starting charge  175.83607, renormalised to  176.00000
     Starting wfcs are  208 randomized atomic wfcs

     total cpu time spent up to now is       35.4 secs

     Self-consistent Calculation

     iteration #  1     ecut=    80.00 Ry     beta= 0.60
     Davidson diagonalization with overlap
     ethr =  1.00E-02,  avg # of iterations =  7.5

     total cpu time spent up to now is      143.7 secs

     total energy              =   -1560.04921179 Ry
     Harris-Foulkes estimate   =   -1564.20249128 Ry
     estimated scf accuracy    <       5.31573147 Ry

     iteration #  2     ecut=    80.00 Ry     beta= 0.60
     Davidson diagonalization with overlap
     c_bands:  1 eigenvalues not converged
     c_bands:  1 eigenvalues not converged
     ethr =  3.02E-03,  avg # of iterations = 12.9

     total cpu time spent up to now is      287.5 secs

     total energy              =   -1517.38973178 Ry
     Harris-Foulkes estimate   =   -1573.57304638 Ry
     estimated scf accuracy    < 2129153.53246587 Ry

     iteration #  3     ecut=    80.00 Ry     beta= 0.60
     Davidson diagonalization with overlap
     c_bands:  2 eigenvalues not converged
     c_bands:  4 eigenvalues not converged
     c_bands:  1 eigenvalues not converged
     c_bands:  1 eigenvalues not converged
     c_bands:  1 eigenvalues not converged
     c_bands:  3 eigenvalues not converged
     c_bands:  1 eigenvalues not converged
     c_bands:  1 eigenvalues not converged
     c_bands:  1 eigenvalues not converged
     c_bands:  1 eigenvalues not converged
     c_bands:  1 eigenvalues not converged
     ethr =  3.02E-03,  avg # of iterations = 19.4

     negative rho (up, down):  1.856E-01 0.000E+00

     total cpu time spent up to now is      392.2 secs

     total energy              =   -1558.75225809 Ry
     Harris-Foulkes estimate   =   -1569.41023994 Ry
     estimated scf accuracy    <      46.71596379 Ry

     iteration #  4     ecut=    80.00 Ry     beta= 0.60
     Davidson diagonalization with overlap
     ethr =  3.02E-03,  avg # of iterations =  9.2

     total cpu time spent up to now is      524.3 secs

     total energy              =   -1461.84839142 Ry
     Harris-Foulkes estimate   =   -2169.66492175 Ry
     estimated scf accuracy    < 5572210.52071849 Ry

     iteration #  5     ecut=    80.00 Ry     beta= 0.60
     Davidson diagonalization with overlap
     c_bands:  4 eigenvalues not converged
     c_bands:  2 eigenvalues not converged
     c_bands:  3 eigenvalues not converged
     c_bands:  4 eigenvalues not converged
     c_bands:  5 eigenvalues not converged
     c_bands:  1 eigenvalues not converged
     c_bands:  2 eigenvalues not converged
     c_bands:  3 eigenvalues not converged
     ethr =  3.02E-03,  avg # of iterations = 17.1

     total cpu time spent up to now is      624.6 secs

     total energy              =   -1563.19899287 Ry
     Harris-Foulkes estimate   =   -1563.68547229 Ry
     estimated scf accuracy    <       2.97474038 Ry

     iteration #  6     ecut=    80.00 Ry     beta= 0.60
     Davidson diagonalization with overlap
     ethr =  1.69E-03,  avg # of iterations =  8.0

     total cpu time spent up to now is      733.2 secs

     total energy              =   -1462.42453138 Ry
     Harris-Foulkes estimate   =   -1673.93503135 Ry
     estimated scf accuracy    < 5398650.47865017 Ry

     iteration #  7     ecut=    80.00 Ry     beta= 0.60
     Davidson diagonalization with overlap
     c_bands:  5 eigenvalues not converged
     c_bands:  4 eigenvalues not converged
     c_bands:  5 eigenvalues not converged
     c_bands:  3 eigenvalues not converged
     c_bands:  4 eigenvalues not converged
     c_bands:  5 eigenvalues not converged
     c_bands:  4 eigenvalues not converged
     c_bands:  3 eigenvalues not converged
     c_bands:  2 eigenvalues not converged
     c_bands:  4 eigenvalues not converged
     ethr =  1.69E-03,  avg # of iterations = 19.2

     total cpu time spent up to now is      844.4 secs

     total energy              =   -1563.32976398 Ry
     Harris-Foulkes estimate   =   -1563.37309014 Ry
     estimated scf accuracy    <       0.20718553 Ry

     iteration #  8     ecut=    80.00 Ry     beta= 0.60
     Davidson diagonalization with overlap
     c_bands:  1 eigenvalues not converged
     c_bands:  1 eigenvalues not converged
     c_bands:  2 eigenvalues not converged
     c_bands:  4 eigenvalues not converged
     c_bands:  1 eigenvalues not converged
     c_bands:  1 eigenvalues not converged
     c_bands:  2 eigenvalues not converged
     c_bands:  1 eigenvalues not converged
     c_bands:  1 eigenvalues not converged
     ethr =  1.18E-04,  avg # of iterations = 14.9

     total cpu time spent up to now is      982.8 secs

     total energy              =   -1538.54049212 Ry
     Harris-Foulkes estimate   =   -1567.46943144 Ry
     estimated scf accuracy    < 1182649.48326144 Ry

     iteration #  9     ecut=    80.00 Ry     beta= 0.60
     Davidson diagonalization with overlap
     c_bands:  2 eigenvalues not converged
     c_bands:  2 eigenvalues not converged
     c_bands:  2 eigenvalues not converged
     c_bands:  2 eigenvalues not converged
     c_bands:  2 eigenvalues not converged
     c_bands:  2 eigenvalues not converged
     c_bands:  2 eigenvalues not converged
     c_bands:  2 eigenvalues not converged
     c_bands:  2 eigenvalues not converged
     c_bands:  2 eigenvalues not converged
     c_bands:  2 eigenvalues not converged
     c_bands:  2 eigenvalues not converged
     c_bands:  2 eigenvalues not converged
     c_bands:  2 eigenvalues not converged
     c_bands:  2 eigenvalues not converged
     c_bands:  3 eigenvalues not converged
     c_bands:  2 eigenvalues not converged
     c_bands:  2 eigenvalues not converged
     c_bands:  2 eigenvalues not converged
     c_bands:  2 eigenvalues not converged
     ethr =  1.18E-04,  avg # of iterations = 20.0

     total cpu time spent up to now is     1085.0 secs

     total energy              =   -1563.50606173 Ry
     Harris-Foulkes estimate   =   -1563.56806871 Ry
     estimated scf accuracy    <       2.63658609 Ry

     iteration # 10     ecut=    80.00 Ry     beta= 0.60
     Davidson diagonalization with overlap
     c_bands:  1 eigenvalues not converged
     c_bands:  1 eigenvalues not converged
     c_bands:  1 eigenvalues not converged
     c_bands:  1 eigenvalues not converged
     c_bands:  2 eigenvalues not converged
     c_bands:  1 eigenvalues not converged
     c_bands:  1 eigenvalues not converged
     c_bands:  1 eigenvalues not converged
     c_bands:  1 eigenvalues not converged
     c_bands:  1 eigenvalues not converged
     c_bands:  1 eigenvalues not converged
     c_bands:  2 eigenvalues not converged
     c_bands:  1 eigenvalues not converged
     ethr =  1.18E-04,  avg # of iterations = 19.6

     total cpu time spent up to now is     1201.1 secs

     total energy              =   -1563.50926686 Ry
     Harris-Foulkes estimate   =   -1563.62016437 Ry
     estimated scf accuracy    <      17.00822229 Ry

     iteration # 11     ecut=    80.00 Ry     beta= 0.60
     Davidson diagonalization with overlap
     ethr =  1.18E-04,  avg # of iterations =  6.9

     total cpu time spent up to now is     1287.3 secs

     WARNING: integrated charge=   175.99915648, expected=   176.00000000

     total energy              =   -1563.52216473 Ry
     Harris-Foulkes estimate   =   -1563.56832292 Ry
     estimated scf accuracy    <       1.62775668 Ry

     iteration # 12     ecut=    80.00 Ry     beta= 0.60
     Davidson diagonalization with overlap
     ethr =  1.18E-04,  avg # of iterations =  7.4

     total cpu time spent up to now is     1417.4 secs

     WARNING: integrated charge=   175.99793027, expected=   176.00000000

     total energy              =   -1503.60348550 Ry
     Harris-Foulkes estimate   =   -1584.26837946 Ry
     estimated scf accuracy    < 2932007.00644955 Ry

     iteration # 13     ecut=    80.00 Ry     beta= 0.60
     Davidson diagonalization with overlap
     ethr =  1.18E-04,  avg # of iterations = 12.1

     total cpu time spent up to now is     1557.3 secs

     WARNING: integrated charge=   175.99590015, expected=   176.00000000

     total energy              =   -1545.77565639 Ry
     Harris-Foulkes estimate   =   -1565.08977230 Ry
     estimated scf accuracy    <  892907.71160105 Ry

     iteration # 14     ecut=    80.00 Ry     beta= 0.60
     Davidson diagonalization with overlap
     ethr =  1.18E-04,  avg # of iterations = 12.4

     total cpu time spent up to now is     1695.7 secs

     WARNING: integrated charge=   175.99479992, expected=   176.00000000

     total energy              =   -1509.90103682 Ry
     Harris-Foulkes estimate   =   -1588.29657381 Ry
     estimated scf accuracy    < 2902608.77605444 Ry

     iteration # 15     ecut=    80.00 Ry     beta= 0.60
     Davidson diagonalization with overlap
     c_bands:  3 eigenvalues not converged
     c_bands:  2 eigenvalues not converged
     c_bands:  1 eigenvalues not converged
     c_bands:  2 eigenvalues not converged
     c_bands:  1 eigenvalues not converged
     c_bands:  1 eigenvalues not converged
     ethr =  1.18E-04,  avg # of iterations = 18.6

     total cpu time spent up to now is     1802.4 secs

     WARNING: integrated charge=   175.99800270, expected=   176.00000000

     total energy              =   -1563.48229237 Ry
     Harris-Foulkes estimate   =   -1563.52107362 Ry
     estimated scf accuracy    <       0.92082799 Ry

     iteration # 16     ecut=    80.00 Ry     beta= 0.60
     Davidson diagonalization with overlap
     ethr =  1.18E-04,  avg # of iterations =  8.1

     negative rho (up, down):  2.495E-02 0.000E+00

     total cpu time spent up to now is     1931.4 secs

     WARNING: integrated charge=   176.00227569, expected=   176.00000000

     total energy              =   -1510.57899558 Ry
     Harris-Foulkes estimate   =   -1617.95429828 Ry
     estimated scf accuracy    < 3298878.43603838 Ry

     iteration # 17     ecut=    80.00 Ry     beta= 0.60
     Davidson diagonalization with overlap
     ethr =  1.18E-04,  avg # of iterations = 10.1

     total cpu time spent up to now is     2061.5 secs

     WARNING: integrated charge=   176.00181926, expected=   176.00000000

     total energy              =   -1476.56578972 Ry
     Harris-Foulkes estimate   =   -1843.63524540 Ry
     estimated scf accuracy    < 3936328.61217074 Ry

     iteration # 18     ecut=    80.00 Ry     beta= 0.60
     Davidson diagonalization with overlap
     c_bands:  3 eigenvalues not converged
     c_bands:  2 eigenvalues not converged
     c_bands:  1 eigenvalues not converged
     c_bands:  1 eigenvalues not converged
     c_bands:  2 eigenvalues not converged
     c_bands:  3 eigenvalues not converged
     c_bands:  1 eigenvalues not converged
     c_bands:  1 eigenvalues not converged
     c_bands:  3 eigenvalues not converged
     c_bands:  3 eigenvalues not converged
     c_bands:  2 eigenvalues not converged
     c_bands:  1 eigenvalues not converged
     c_bands:  4 eigenvalues not converged
     ethr =  1.18E-04,  avg # of iterations = 18.4

     total cpu time spent up to now is     2213.1 secs

     WARNING: integrated charge=   175.99716414, expected=   176.00000000

     total energy              =   -1531.61609440 Ry
     Harris-Foulkes estimate   =   -1573.47740634 Ry
     estimated scf accuracy    < 1468937.03455636 Ry

     iteration # 19     ecut=    80.00 Ry     beta= 0.60
     Davidson diagonalization with overlap
     c_bands:  2 eigenvalues not converged
     c_bands:  2 eigenvalues not converged
     c_bands:  1 eigenvalues not converged
     c_bands:  3 eigenvalues not converged
     c_bands:  2 eigenvalues not converged
     c_bands:  1 eigenvalues not converged
     c_bands:  2 eigenvalues not converged
     c_bands:  1 eigenvalues not converged
     c_bands:  1 eigenvalues not converged
     c_bands:  2 eigenvalues not converged
     c_bands:  1 eigenvalues not converged
     c_bands:  2 eigenvalues not converged
     c_bands:  2 eigenvalues not converged
     c_bands:  2 eigenvalues not converged
     c_bands:  1 eigenvalues not converged
     ethr =  1.18E-04,  avg # of iterations = 19.5

     negative rho (up, down):  8.186E-02 0.000E+00

     total cpu time spent up to now is     2325.5 secs

     WARNING: integrated charge=   175.99671654, expected=   176.00000000

     total energy              =   -1563.24322158 Ry
     Harris-Foulkes estimate   =   -1563.98799787 Ry
     estimated scf accuracy    <       5.24972858 Ry

     iteration # 20     ecut=    80.00 Ry     beta= 0.60
     Davidson diagonalization with overlap
     ethr =  1.18E-04,  avg # of iterations = 15.5

     total cpu time spent up to now is     2467.2 secs

     WARNING: integrated charge=   175.99808698, expected=   176.00000000

     total energy              =   -1512.00203557 Ry
     Harris-Foulkes estimate   =   -1914.84525733 Ry
     estimated scf accuracy    < 2001924.06198016 Ry

     iteration # 21     ecut=    80.00 Ry     beta= 0.60
     Davidson diagonalization with overlap
     c_bands:  5 eigenvalues not converged
     c_bands:  4 eigenvalues not converged
     c_bands:  2 eigenvalues not converged
     c_bands:  5 eigenvalues not converged
     c_bands:  5 eigenvalues not converged
     c_bands:  5 eigenvalues not converged
     ethr =  1.18E-04,  avg # of iterations = 22.1

     negative rho (up, down):  3.330E-02 0.000E+00

     total cpu time spent up to now is     2610.4 secs

     WARNING: integrated charge=   175.99850702, expected=   176.00000000

     total energy              =   -1563.41424366 Ry
     Harris-Foulkes estimate   =   -1563.52309534 Ry
     estimated scf accuracy    <       0.59190408 Ry

     iteration # 22     ecut=    80.00 Ry     beta= 0.60
     Davidson diagonalization with overlap
     c_bands:  1 eigenvalues not converged
     c_bands:  1 eigenvalues not converged
     c_bands:  2 eigenvalues not converged
     c_bands:  2 eigenvalues not converged
     c_bands:  2 eigenvalues not converged
     c_bands:  2 eigenvalues not converged
     c_bands:  2 eigenvalues not converged
     c_bands:  2 eigenvalues not converged
     c_bands:  2 eigenvalues not converged
     c_bands:  2 eigenvalues not converged
     c_bands:  2 eigenvalues not converged
     c_bands:  2 eigenvalues not converged
     c_bands:  2 eigenvalues not converged
     c_bands:  2 eigenvalues not converged
     c_bands:  1 eigenvalues not converged
     c_bands:  2 eigenvalues not converged
     c_bands:  2 eigenvalues not converged
     c_bands:  2 eigenvalues not converged
     c_bands:  2 eigenvalues not converged
     c_bands:  2 eigenvalues not converged
     ethr =  1.18E-04,  avg # of iterations = 20.0

     negative rho (up, down):  2.116E-04 0.000E+00

     total cpu time spent up to now is     2758.6 secs

     WARNING: integrated charge=   175.99847080, expected=   176.00000000

     total energy              =   -1495.91847923 Ry
     Harris-Foulkes estimate   =   -1802.52611157 Ry
     estimated scf accuracy    < 2976064.34583982 Ry

     iteration # 23     ecut=    80.00 Ry     beta= 0.60
     Davidson diagonalization with overlap
     ethr =  1.18E-04,  avg # of iterations = 10.0

     negative rho (up, down):  5.187E-03 0.000E+00

     total cpu time spent up to now is     2872.5 secs

     WARNING: integrated charge=   175.99840535, expected=   176.00000000

     total energy              =   -1462.11736437 Ry
     Harris-Foulkes estimate   =   -1690.59277159 Ry
     estimated scf accuracy    < 5216310.87825207 Ry

     iteration # 24     ecut=    80.00 Ry     beta= 0.60
     Davidson diagonalization with overlap
     ethr =  1.18E-04,  avg # of iterations = 15.9

     total cpu time spent up to now is     3011.9 secs

     WARNING: integrated charge=   175.99921327, expected=   176.00000000

     total energy              =   -1474.18091312 Ry
     Harris-Foulkes estimate   =   -1728.82205630 Ry
     estimated scf accuracy    < 4845585.95367231 Ry

     iteration # 25     ecut=    80.00 Ry     beta= 0.60
     Davidson diagonalization with overlap
     ethr =  1.18E-04,  avg # of iterations =  8.2

     total cpu time spent up to now is     3141.4 secs

     WARNING: integrated charge=   175.99921381, expected=   176.00000000

     total energy              =   -1502.49353752 Ry
     Harris-Foulkes estimate   =   -1589.95915839 Ry
     estimated scf accuracy    < 2934455.47161537 Ry

     iteration # 26     ecut=    80.00 Ry     beta= 0.60
     Davidson diagonalization with overlap
     c_bands:  1 eigenvalues not converged
     c_bands:  2 eigenvalues not converged
     ethr =  1.18E-04,  avg # of iterations = 15.1

     negative rho (up, down):  2.423E-02 0.000E+00

     total cpu time spent up to now is     3285.1 secs

     WARNING: integrated charge=   175.99921262, expected=   176.00000000

     total energy              =   -1507.63308901 Ry
     Harris-Foulkes estimate   =   -1592.38118140 Ry
     estimated scf accuracy    < 3079216.16358703 Ry

     iteration # 27     ecut=    80.00 Ry     beta= 0.60
     Davidson diagonalization with overlap
     ethr =  1.18E-04,  avg # of iterations = 10.8

     total cpu time spent up to now is     3401.8 secs

     WARNING: integrated charge=   175.99921372, expected=   176.00000000

     total energy              =   -1440.43196856 Ry
     Harris-Foulkes estimate   =   -1888.94318758 Ry
     estimated scf accuracy    < 5734667.61344157 Ry

     iteration # 28     ecut=    80.00 Ry     beta= 0.60
     Davidson diagonalization with overlap
     c_bands:  2 eigenvalues not converged
     c_bands:  2 eigenvalues not converged
     c_bands:  2 eigenvalues not converged
     c_bands:  2 eigenvalues not converged
     c_bands:  1 eigenvalues not converged
     c_bands:  2 eigenvalues not converged
     c_bands:  1 eigenvalues not converged
     c_bands:  2 eigenvalues not converged
     c_bands:  2 eigenvalues not converged
     c_bands:  1 eigenvalues not converged
     c_bands:  1 eigenvalues not converged
     c_bands:  1 eigenvalues not converged
     c_bands:  2 eigenvalues not converged
     c_bands:  3 eigenvalues not converged
     ethr =  1.18E-04,  avg # of iterations = 19.9

     total cpu time spent up to now is     3552.8 secs

     WARNING: integrated charge=   175.99923480, expected=   176.00000000

     total energy              =   -1524.96350693 Ry
     Harris-Foulkes estimate   =   -1618.01564972 Ry
     estimated scf accuracy    < 1871617.86797990 Ry

     iteration # 29     ecut=    80.00 Ry     beta= 0.60
     Davidson diagonalization with overlap
     c_bands:  2 eigenvalues not converged
     c_bands:  2 eigenvalues not converged
     c_bands:  2 eigenvalues not converged
     c_bands:  2 eigenvalues not converged
     c_bands:  1 eigenvalues not converged
     c_bands:  2 eigenvalues not converged
     c_bands:  1 eigenvalues not converged
     c_bands:  1 eigenvalues not converged
     c_bands:  1 eigenvalues not converged
     c_bands:  1 eigenvalues not converged
     c_bands:  2 eigenvalues not converged
     c_bands:  2 eigenvalues not converged
     c_bands:  1 eigenvalues not converged
     c_bands:  2 eigenvalues not converged
     c_bands:  2 eigenvalues not converged
     c_bands:  2 eigenvalues not converged
     ethr =  1.18E-04,  avg # of iterations = 19.6

     negative rho (up, down):  4.747E-02 0.000E+00

     total cpu time spent up to now is     3658.6 secs

     WARNING: integrated charge=   175.99936186, expected=   176.00000000

     total energy              =   -1563.32013971 Ry
     Harris-Foulkes estimate   =   -1563.80005113 Ry
     estimated scf accuracy    <       1.82353794 Ry

     iteration # 30     ecut=    80.00 Ry     beta= 0.60
     Davidson diagonalization with overlap
     c_bands:  2 eigenvalues not converged
     ethr =  1.18E-04,  avg # of iterations = 13.8

     total cpu time spent up to now is     3791.6 secs

     WARNING: integrated charge=   175.99969387, expected=   176.00000000

     total energy              =   -1512.35331145 Ry
     Harris-Foulkes estimate   =   -1832.20733455 Ry
     estimated scf accuracy    < 1994765.20217256 Ry

     iteration # 31     ecut=    80.00 Ry     beta= 0.60
     Davidson diagonalization with overlap
     c_bands:  2 eigenvalues not converged
     c_bands:  3 eigenvalues not converged
     c_bands:  1 eigenvalues not converged
     c_bands:  4 eigenvalues not converged
     c_bands:  4 eigenvalues not converged
     c_bands:  4 eigenvalues not converged
     ethr =  1.18E-04,  avg # of iterations = 16.0

     negative rho (up, down):  2.325E-03 0.000E+00

     total cpu time spent up to now is     3936.2 secs

     WARNING: integrated charge=   175.99971734, expected=   176.00000000

     total energy              =   -1559.24351481 Ry
     Harris-Foulkes estimate   =   -1566.55356845 Ry
     estimated scf accuracy    <      51.57484190 Ry

     iteration # 32     ecut=    80.00 Ry     beta= 0.60
     Davidson diagonalization with overlap
     c_bands:  1 eigenvalues not converged
     ethr =  1.18E-04,  avg # of iterations = 16.9

     total cpu time spent up to now is     4120.9 secs

     WARNING: integrated charge=   175.99971746, expected=   176.00000000

     total energy              =   -1460.06958965 Ry
     Harris-Foulkes estimate   =   -1759.97583525 Ry
     estimated scf accuracy    < 4939510.51286620 Ry

     iteration # 33     ecut=    80.00 Ry     beta= 0.60
     Davidson diagonalization with overlap
     c_bands:  2 eigenvalues not converged
     c_bands:  2 eigenvalues not converged
     c_bands:  1 eigenvalues not converged
     c_bands:  2 eigenvalues not converged
     c_bands:  2 eigenvalues not converged
     c_bands:  2 eigenvalues not converged
     c_bands:  1 eigenvalues not converged
     c_bands:  2 eigenvalues not converged
     c_bands:  2 eigenvalues not converged
     ethr =  1.18E-04,  avg # of iterations = 18.6

     total cpu time spent up to now is     4282.3 secs

     WARNING: integrated charge=   175.99971746, expected=   176.00000000

     total energy              =   -1525.01376225 Ry
     Harris-Foulkes estimate   =   -1569.69264157 Ry
     estimated scf accuracy    < 1834111.97456560 Ry

     iteration # 34     ecut=    80.00 Ry     beta= 0.60
     Davidson diagonalization with overlap
     ethr =  1.18E-04,  avg # of iterations =  8.7

     total cpu time spent up to now is     4395.8 secs

     WARNING: integrated charge=   175.99971752, expected=   176.00000000

     total energy              =   -1467.92021154 Ry
     Harris-Foulkes estimate   =   -1674.79847747 Ry
     estimated scf accuracy    < 5381092.78828599 Ry

     iteration # 35     ecut=    80.00 Ry     beta= 0.60
     Davidson diagonalization with overlap
     c_bands:  3 eigenvalues not converged
     c_bands:  4 eigenvalues not converged
     c_bands:  3 eigenvalues not converged
     c_bands:  4 eigenvalues not converged
     c_bands:  3 eigenvalues not converged
     c_bands:  4 eigenvalues not converged
     c_bands:  2 eigenvalues not converged
     c_bands:  4 eigenvalues not converged
     c_bands:  2 eigenvalues not converged
     c_bands:  2 eigenvalues not converged
     c_bands:  2 eigenvalues not converged
     c_bands:  2 eigenvalues not converged
     c_bands:  3 eigenvalues not converged
     c_bands:  3 eigenvalues not converged
     c_bands:  4 eigenvalues not converged
     c_bands:  4 eigenvalues not converged
     c_bands:  2 eigenvalues not converged
     c_bands:  2 eigenvalues not converged
     c_bands:  5 eigenvalues not converged
     c_bands:  2 eigenvalues not converged
     ethr =  1.18E-04,  avg # of iterations = 21.0

     total cpu time spent up to now is     4532.1 secs

     WARNING: integrated charge=   175.99971774, expected=   176.00000000

     total energy              =   -1562.36264335 Ry
     Harris-Foulkes estimate   =   -1564.15847068 Ry
     estimated scf accuracy    <    3489.34241050 Ry

     iteration # 36     ecut=    80.00 Ry     beta= 0.60
     Davidson diagonalization with overlap
     ethr =  1.18E-04,  avg # of iterations =  8.2

     negative rho (up, down):  1.273E-02 0.000E+00

     total cpu time spent up to now is     4647.8 secs

     WARNING: integrated charge=   175.99971665, expected=   176.00000000

     total energy              =   -1505.88063309 Ry
     Harris-Foulkes estimate   =   -1594.68442229 Ry
     estimated scf accuracy    < 3149935.37753707 Ry

     iteration # 37     ecut=    80.00 Ry     beta= 0.60
     Davidson diagonalization with overlap
     ethr =  1.18E-04,  avg # of iterations = 11.0

     total cpu time spent up to now is     4766.3 secs

     WARNING: integrated charge=   175.99971701, expected=   176.00000000

     total energy              =   -1396.67717744 Ry
     Harris-Foulkes estimate   =   -1969.85551169 Ry
     estimated scf accuracy    < 7715182.58919544 Ry

     iteration # 38     ecut=    80.00 Ry     beta= 0.60
     Davidson diagonalization with overlap
     c_bands:  2 eigenvalues not converged
     c_bands:  2 eigenvalues not converged
     c_bands:  2 eigenvalues not converged
     c_bands:  2 eigenvalues not converged
     c_bands:  4 eigenvalues not converged
     c_bands:  2 eigenvalues not converged
     c_bands:  2 eigenvalues not converged
     c_bands:  1 eigenvalues not converged
     c_bands:  3 eigenvalues not converged
     c_bands:  1 eigenvalues not converged
     c_bands:  2 eigenvalues not converged
     c_bands:  2 eigenvalues not converged
     c_bands:  2 eigenvalues not converged
     c_bands:  5 eigenvalues not converged
     c_bands:  1 eigenvalues not converged
     c_bands:  1 eigenvalues not converged
     c_bands:  5 eigenvalues not converged
     ethr =  1.18E-04,  avg # of iterations = 19.9

     negative rho (up, down):  3.880E-01 0.000E+00

     total cpu time spent up to now is     4922.2 secs

     WARNING: integrated charge=   175.99987765, expected=   176.00000000

     total energy              =   -1513.76421009 Ry
     Harris-Foulkes estimate   =   -1612.86348497 Ry
     estimated scf accuracy    < 1853006.05563108 Ry

     iteration # 39     ecut=    80.00 Ry     beta= 0.60
     Davidson diagonalization with overlap
     c_bands:  2 eigenvalues not converged
     c_bands:  2 eigenvalues not converged
     c_bands:  2 eigenvalues not converged
     c_bands:  1 eigenvalues not converged
     ethr =  1.18E-04,  avg # of iterations = 29.2

     negative rho (up, down):  1.706E+00 0.000E+00

     total cpu time spent up to now is     5285.5 secs

     WARNING: integrated charge=   175.99988036, expected=   176.00000000

     total energy              =   -1122.44778438 Ry
     Harris-Foulkes estimate   =   -3054.92856758 Ry
     estimated scf accuracy    < 7875262.52358652 Ry

     iteration # 40     ecut=    80.00 Ry     beta= 0.60
     Davidson diagonalization with overlap
     c_bands:  2 eigenvalues not converged
     c_bands:  2 eigenvalues not converged
     c_bands:  2 eigenvalues not converged
     c_bands:  2 eigenvalues not converged
     c_bands:  2 eigenvalues not converged
     c_bands:  2 eigenvalues not converged
     c_bands:  2 eigenvalues not converged
     c_bands:  2 eigenvalues not converged
     c_bands:  2 eigenvalues not converged
     c_bands:  2 eigenvalues not converged
     c_bands:  2 eigenvalues not converged
     c_bands:  2 eigenvalues not converged
     c_bands:  2 eigenvalues not converged
     c_bands:  2 eigenvalues not converged
     c_bands:  2 eigenvalues not converged
     c_bands:  2 eigenvalues not converged
     c_bands:  2 eigenvalues not converged
     c_bands:  2 eigenvalues not converged
     c_bands:  2 eigenvalues not converged
     c_bands:  2 eigenvalues not converged
     ethr =  1.18E-04,  avg # of iterations = 20.0

     negative rho (up, down):  1.940E+00 0.000E+00

     total cpu time spent up to now is     5522.0 secs

     WARNING: integrated charge=   175.99988856, expected=   176.00000000

     total energy              =   -1156.41363545 Ry
     Harris-Foulkes estimate   =   -5856.07782183 Ry
     estimated scf accuracy    < 7806001.91581810 Ry

     iteration # 41     ecut=    80.00 Ry     beta= 0.60
     Davidson diagonalization with overlap
     c_bands:  1 eigenvalues not converged
     c_bands:  4 eigenvalues not converged
     c_bands:  4 eigenvalues not converged
     c_bands:  3 eigenvalues not converged
     c_bands:  4 eigenvalues not converged
     c_bands:  4 eigenvalues not converged
     c_bands:  1 eigenvalues not converged
     ethr =  1.18E-04,  avg # of iterations = 28.9

     negative rho (up, down):  8.045E-01 0.000E+00

     total cpu time spent up to now is     5879.0 secs

     WARNING: integrated charge=   175.99988894, expected=   176.00000000

     total energy              =   -1392.68099939 Ry
     Harris-Foulkes estimate   =   -1934.22568327 Ry
     estimated scf accuracy    < 4064943.76899766 Ry

     iteration # 42     ecut=    80.00 Ry     beta= 0.60
     Davidson diagonalization with overlap
     c_bands:  3 eigenvalues not converged
     ethr =  1.18E-04,  avg # of iterations = 11.6

     negative rho (up, down):  1.025E+00 0.000E+00

     total cpu time spent up to now is     6013.1 secs

     WARNING: integrated charge=   175.99988898, expected=   176.00000000

     total energy              =   -1432.48597082 Ry
     Harris-Foulkes estimate   =   -2023.73169507 Ry
     estimated scf accuracy    < 6047541.07312636 Ry

     iteration # 43     ecut=    80.00 Ry     beta= 0.60
     Davidson diagonalization with overlap
     ethr =  1.18E-04,  avg # of iterations = 11.9

     negative rho (up, down):  1.676E+01 0.000E+00

     total cpu time spent up to now is     6151.9 secs

     WARNING: integrated charge=   175.99988117, expected=   176.00000000

     total energy              =    -508.23341190 Ry
     Harris-Foulkes estimate   =   -3087.77944552 Ry
     estimated scf accuracy    < 7033145.44286117 Ry

     iteration # 44     ecut=    80.00 Ry     beta= 0.60
     Davidson diagonalization with overlap
     c_bands:  5 eigenvalues not converged
     c_bands:  4 eigenvalues not converged
     ethr =  1.18E-04,  avg # of iterations = 21.7

     negative rho (up, down):  2.551E+02 0.000E+00

     total cpu time spent up to now is     6488.1 secs

     WARNING: integrated charge=   175.99978128, expected=   176.00000000

     total energy              =   46777.26527359 Ry
     Harris-Foulkes estimate   =  -22969.91154781 Ry
     estimated scf accuracy    < 7933296.21599617 Ry

     iteration # 45     ecut=    80.00 Ry     beta= 0.60
     Davidson diagonalization with overlap
     c_bands:  1 eigenvalues not converged
     c_bands:  1 eigenvalues not converged
     ethr =  1.18E-04,  avg # of iterations = 71.4

     negative rho (up, down):  1.392E+02 0.000E+00

     total cpu time spent up to now is     7329.5 secs

     total energy              =  -32884.85803004 Ry
     Harris-Foulkes estimate   = -124268.21269479 Ry
     estimated scf accuracy    < 5512702.29749836 Ry

     iteration # 46     ecut=    80.00 Ry     beta= 0.60
     Davidson diagonalization with overlap
     c_bands:  1 eigenvalues not converged
     c_bands:  1 eigenvalues not converged
     c_bands:  1 eigenvalues not converged
     c_bands:  1 eigenvalues not converged
     c_bands:  1 eigenvalues not converged
     c_bands:  3 eigenvalues not converged
     c_bands:  1 eigenvalues not converged
     c_bands:  1 eigenvalues not converged
     c_bands:  1 eigenvalues not converged
     c_bands:  2 eigenvalues not converged
     c_bands:  5 eigenvalues not converged
     c_bands:  1 eigenvalues not converged
     c_bands:  1 eigenvalues not converged
     c_bands:  1 eigenvalues not converged
     c_bands:  1 eigenvalues not converged
     c_bands:  3 eigenvalues not converged
     ethr =  1.18E-04,  avg # of iterations = 93.5

     negative rho (up, down):  1.010E+02 0.000E+00

     total cpu time spent up to now is     8555.7 secs

     WARNING: integrated charge=   175.99993795, expected=   176.00000000

     total energy              =  -46238.07776259 Ry
     Harris-Foulkes estimate   = -261298.86382521 Ry
     estimated scf accuracy    < 8487720.91904705 Ry

     iteration # 47     ecut=    80.00 Ry     beta= 0.60
     Davidson diagonalization with overlap
     c_bands:  1 eigenvalues not converged
     ethr =  1.18E-04,  avg # of iterations = 37.5

     negative rho (up, down):  3.088E+02 0.000E+00

     total cpu time spent up to now is     9153.7 secs

     WARNING: integrated charge=   175.99993290, expected=   176.00000000

     total energy              =  208496.68501434 Ry
     Harris-Foulkes estimate   =  -53337.33814886 Ry
     estimated scf accuracy    < 7025552.79139706 Ry

     iteration # 48     ecut=    80.00 Ry     beta= 0.60
     Davidson diagonalization with overlap
     c_bands: 44 eigenvalues not converged
     c_bands: 44 eigenvalues not converged
     c_bands: 43 eigenvalues not converged
     c_bands: 44 eigenvalues not converged

 %%%%%%%%%%%%%%%%%%%%%%%%%%%%%%%%%%%%%%%%%%%%%%%%%%%%%%%%%%%%%%%%%%%%%%%%%%%%%%
     Error in routine c_bands (1):
     too many bands are not converged
 %%%%%%%%%%%%%%%%%%%%%%%%%%%%%%%%%%%%%%%%%%%%%%%%%%%%%%%%%%%%%%%%%%%%%%%%%%%%%%

     stopping ...

 %%%%%%%%%%%%%%%%%%%%%%%%%%%%%%%%%%%%%%%%%%%%%%%%%%%%%%%%%%%%%%%%%%%%%%%%%%%%%%
     Error in routine c_bands (1):
     too many bands are not converged
 %%%%%%%%%%%%%%%%%%%%%%%%%%%%%%%%%%%%%%%%%%%%%%%%%%%%%%%%%%%%%%%%%%%%%%%%%%%%%%

     stopping ...

 %%%%%%%%%%%%%%%%%%%%%%%%%%%%%%%%%%%%%%%%%%%%%%%%%%%%%%%%%%%%%%%%%%%%%%%%%%%%%%
     Error in routine c_bands (1):
     too many bands are not converged
 %%%%%%%%%%%%%%%%%%%%%%%%%%%%%%%%%%%%%%%%%%%%%%%%%%%%%%%%%%%%%%%%%%%%%%%%%%%%%%

     stopping ...

 %%%%%%%%%%%%%%%%%%%%%%%%%%%%%%%%%%%%%%%%%%%%%%%%%%%%%%%%%%%%%%%%%%%%%%%%%%%%%%
     Error in routine c_bands (1):
     too many bands are not converged
 %%%%%%%%%%%%%%%%%%%%%%%%%%%%%%%%%%%%%%%%%%%%%%%%%%%%%%%%%%%%%%%%%%%%%%%%%%%%%%

     stopping ...

 %%%%%%%%%%%%%%%%%%%%%%%%%%%%%%%%%%%%%%%%%%%%%%%%%%%%%%%%%%%%%%%%%%%%%%%%%%%%%%
     Error in routine c_bands (1):
     too many bands are not converged
 %%%%%%%%%%%%%%%%%%%%%%%%%%%%%%%%%%%%%%%%%%%%%%%%%%%%%%%%%%%%%%%%%%%%%%%%%%%%%%

     stopping ...

 %%%%%%%%%%%%%%%%%%%%%%%%%%%%%%%%%%%%%%%%%%%%%%%%%%%%%%%%%%%%%%%%%%%%%%%%%%%%%%
     Error in routine c_bands (1):
     too many bands are not converged
 %%%%%%%%%%%%%%%%%%%%%%%%%%%%%%%%%%%%%%%%%%%%%%%%%%%%%%%%%%%%%%%%%%%%%%%%%%%%%%

     stopping ...

 %%%%%%%%%%%%%%%%%%%%%%%%%%%%%%%%%%%%%%%%%%%%%%%%%%%%%%%%%%%%%%%%%%%%%%%%%%%%%%
     Error in routine c_bands (1):
     too many bands are not converged
 %%%%%%%%%%%%%%%%%%%%%%%%%%%%%%%%%%%%%%%%%%%%%%%%%%%%%%%%%%%%%%%%%%%%%%%%%%%%%%

     stopping ...

 %%%%%%%%%%%%%%%%%%%%%%%%%%%%%%%%%%%%%%%%%%%%%%%%%%%%%%%%%%%%%%%%%%%%%%%%%%%%%%
     Error in routine c_bands (1):
     too many bands are not converged
 %%%%%%%%%%%%%%%%%%%%%%%%%%%%%%%%%%%%%%%%%%%%%%%%%%%%%%%%%%%%%%%%%%%%%%%%%%%%%%

     stopping ...

 %%%%%%%%%%%%%%%%%%%%%%%%%%%%%%%%%%%%%%%%%%%%%%%%%%%%%%%%%%%%%%%%%%%%%%%%%%%%%%
     Error in routine c_bands (1):
     too many bands are not converged
 %%%%%%%%%%%%%%%%%%%%%%%%%%%%%%%%%%%%%%%%%%%%%%%%%%%%%%%%%%%%%%%%%%%%%%%%%%%%%%

     stopping ...

 %%%%%%%%%%%%%%%%%%%%%%%%%%%%%%%%%%%%%%%%%%%%%%%%%%%%%%%%%%%%%%%%%%%%%%%%%%%%%%
     Error in routine c_bands (1):
     too many bands are not converged
 %%%%%%%%%%%%%%%%%%%%%%%%%%%%%%%%%%%%%%%%%%%%%%%%%%%%%%%%%%%%%%%%%%%%%%%%%%%%%%

     stopping ...

 %%%%%%%%%%%%%%%%%%%%%%%%%%%%%%%%%%%%%%%%%%%%%%%%%%%%%%%%%%%%%%%%%%%%%%%%%%%%%%
     Error in routine c_bands (1):
     too many bands are not converged
 %%%%%%%%%%%%%%%%%%%%%%%%%%%%%%%%%%%%%%%%%%%%%%%%%%%%%%%%%%%%%%%%%%%%%%%%%%%%%%

     stopping ...

 %%%%%%%%%%%%%%%%%%%%%%%%%%%%%%%%%%%%%%%%%%%%%%%%%%%%%%%%%%%%%%%%%%%%%%%%%%%%%%
     Error in routine c_bands (1):
     too many bands are not converged
 %%%%%%%%%%%%%%%%%%%%%%%%%%%%%%%%%%%%%%%%%%%%%%%%%%%%%%%%%%%%%%%%%%%%%%%%%%%%%%

     stopping ...

 %%%%%%%%%%%%%%%%%%%%%%%%%%%%%%%%%%%%%%%%%%%%%%%%%%%%%%%%%%%%%%%%%%%%%%%%%%%%%%
     Error in routine c_bands (1):
     too many bands are not converged
 %%%%%%%%%%%%%%%%%%%%%%%%%%%%%%%%%%%%%%%%%%%%%%%%%%%%%%%%%%%%%%%%%%%%%%%%%%%%%%

     stopping ...

 %%%%%%%%%%%%%%%%%%%%%%%%%%%%%%%%%%%%%%%%%%%%%%%%%%%%%%%%%%%%%%%%%%%%%%%%%%%%%%
     Error in routine c_bands (1):
     too many bands are not converged
 %%%%%%%%%%%%%%%%%%%%%%%%%%%%%%%%%%%%%%%%%%%%%%%%%%%%%%%%%%%%%%%%%%%%%%%%%%%%%%

     stopping ...

 %%%%%%%%%%%%%%%%%%%%%%%%%%%%%%%%%%%%%%%%%%%%%%%%%%%%%%%%%%%%%%%%%%%%%%%%%%%%%%
     Error in routine c_bands (1):
     too many bands are not converged
 %%%%%%%%%%%%%%%%%%%%%%%%%%%%%%%%%%%%%%%%%%%%%%%%%%%%%%%%%%%%%%%%%%%%%%%%%%%%%%

     stopping ...

 %%%%%%%%%%%%%%%%%%%%%%%%%%%%%%%%%%%%%%%%%%%%%%%%%%%%%%%%%%%%%%%%%%%%%%%%%%%%%%
     Error in routine c_bands (1):
     too many bands are not converged
 %%%%%%%%%%%%%%%%%%%%%%%%%%%%%%%%%%%%%%%%%%%%%%%%%%%%%%%%%%%%%%%%%%%%%%%%%%%%%%

     stopping ...

 %%%%%%%%%%%%%%%%%%%%%%%%%%%%%%%%%%%%%%%%%%%%%%%%%%%%%%%%%%%%%%%%%%%%%%%%%%%%%%
     Error in routine c_bands (1):
     too many bands are not converged
 %%%%%%%%%%%%%%%%%%%%%%%%%%%%%%%%%%%%%%%%%%%%%%%%%%%%%%%%%%%%%%%%%%%%%%%%%%%%%%

     stopping ...

 %%%%%%%%%%%%%%%%%%%%%%%%%%%%%%%%%%%%%%%%%%%%%%%%%%%%%%%%%%%%%%%%%%%%%%%%%%%%%%
     Error in routine c_bands (1):
     too many bands are not converged
 %%%%%%%%%%%%%%%%%%%%%%%%%%%%%%%%%%%%%%%%%%%%%%%%%%%%%%%%%%%%%%%%%%%%%%%%%%%%%%

     stopping ...

 %%%%%%%%%%%%%%%%%%%%%%%%%%%%%%%%%%%%%%%%%%%%%%%%%%%%%%%%%%%%%%%%%%%%%%%%%%%%%%
     Error in routine c_bands (1):
     too many bands are not converged
 %%%%%%%%%%%%%%%%%%%%%%%%%%%%%%%%%%%%%%%%%%%%%%%%%%%%%%%%%%%%%%%%%%%%%%%%%%%%%%

     stopping ...

 %%%%%%%%%%%%%%%%%%%%%%%%%%%%%%%%%%%%%%%%%%%%%%%%%%%%%%%%%%%%%%%%%%%%%%%%%%%%%%
     Error in routine c_bands (1):
     too many bands are not converged
 %%%%%%%%%%%%%%%%%%%%%%%%%%%%%%%%%%%%%%%%%%%%%%%%%%%%%%%%%%%%%%%%%%%%%%%%%%%%%%

     stopping ...

 %%%%%%%%%%%%%%%%%%%%%%%%%%%%%%%%%%%%%%%%%%%%%%%%%%%%%%%%%%%%%%%%%%%%%%%%%%%%%%
     Error in routine c_bands (1):
     too many bands are not converged
 %%%%%%%%%%%%%%%%%%%%%%%%%%%%%%%%%%%%%%%%%%%%%%%%%%%%%%%%%%%%%%%%%%%%%%%%%%%%%%

     stopping ...

 %%%%%%%%%%%%%%%%%%%%%%%%%%%%%%%%%%%%%%%%%%%%%%%%%%%%%%%%%%%%%%%%%%%%%%%%%%%%%%
     Error in routine c_bands (1):
     too many bands are not converged
 %%%%%%%%%%%%%%%%%%%%%%%%%%%%%%%%%%%%%%%%%%%%%%%%%%%%%%%%%%%%%%%%%%%%%%%%%%%%%%

     stopping ...

 %%%%%%%%%%%%%%%%%%%%%%%%%%%%%%%%%%%%%%%%%%%%%%%%%%%%%%%%%%%%%%%%%%%%%%%%%%%%%%
     Error in routine c_bands (1):
     too many bands are not converged
 %%%%%%%%%%%%%%%%%%%%%%%%%%%%%%%%%%%%%%%%%%%%%%%%%%%%%%%%%%%%%%%%%%%%%%%%%%%%%%

     stopping ...

 %%%%%%%%%%%%%%%%%%%%%%%%%%%%%%%%%%%%%%%%%%%%%%%%%%%%%%%%%%%%%%%%%%%%%%%%%%%%%%
     Error in routine c_bands (1):
     too many bands are not converged
 %%%%%%%%%%%%%%%%%%%%%%%%%%%%%%%%%%%%%%%%%%%%%%%%%%%%%%%%%%%%%%%%%%%%%%%%%%%%%%

     stopping ...

 %%%%%%%%%%%%%%%%%%%%%%%%%%%%%%%%%%%%%%%%%%%%%%%%%%%%%%%%%%%%%%%%%%%%%%%%%%%%%%
     Error in routine c_bands (1):
     too many bands are not converged
 %%%%%%%%%%%%%%%%%%%%%%%%%%%%%%%%%%%%%%%%%%%%%%%%%%%%%%%%%%%%%%%%%%%%%%%%%%%%%%

     stopping ...

 %%%%%%%%%%%%%%%%%%%%%%%%%%%%%%%%%%%%%%%%%%%%%%%%%%%%%%%%%%%%%%%%%%%%%%%%%%%%%%
     Error in routine c_bands (1):
     too many bands are not converged
 %%%%%%%%%%%%%%%%%%%%%%%%%%%%%%%%%%%%%%%%%%%%%%%%%%%%%%%%%%%%%%%%%%%%%%%%%%%%%%

     stopping ...

 %%%%%%%%%%%%%%%%%%%%%%%%%%%%%%%%%%%%%%%%%%%%%%%%%%%%%%%%%%%%%%%%%%%%%%%%%%%%%%
     Error in routine c_bands (1):
     too many bands are not converged
 %%%%%%%%%%%%%%%%%%%%%%%%%%%%%%%%%%%%%%%%%%%%%%%%%%%%%%%%%%%%%%%%%%%%%%%%%%%%%%

     stopping ...

 %%%%%%%%%%%%%%%%%%%%%%%%%%%%%%%%%%%%%%%%%%%%%%%%%%%%%%%%%%%%%%%%%%%%%%%%%%%%%%
     Error in routine c_bands (1):
     too many bands are not converged
 %%%%%%%%%%%%%%%%%%%%%%%%%%%%%%%%%%%%%%%%%%%%%%%%%%%%%%%%%%%%%%%%%%%%%%%%%%%%%%

     stopping ...

 %%%%%%%%%%%%%%%%%%%%%%%%%%%%%%%%%%%%%%%%%%%%%%%%%%%%%%%%%%%%%%%%%%%%%%%%%%%%%%
     Error in routine c_bands (1):
     too many bands are not converged
 %%%%%%%%%%%%%%%%%%%%%%%%%%%%%%%%%%%%%%%%%%%%%%%%%%%%%%%%%%%%%%%%%%%%%%%%%%%%%%

     stopping ...

 %%%%%%%%%%%%%%%%%%%%%%%%%%%%%%%%%%%%%%%%%%%%%%%%%%%%%%%%%%%%%%%%%%%%%%%%%%%%%%
     Error in routine c_bands (1):
     too many bands are not converged
 %%%%%%%%%%%%%%%%%%%%%%%%%%%%%%%%%%%%%%%%%%%%%%%%%%%%%%%%%%%%%%%%%%%%%%%%%%%%%%

     stopping ...

 %%%%%%%%%%%%%%%%%%%%%%%%%%%%%%%%%%%%%%%%%%%%%%%%%%%%%%%%%%%%%%%%%%%%%%%%%%%%%%
     Error in routine c_bands (1):
     too many bands are not converged
 %%%%%%%%%%%%%%%%%%%%%%%%%%%%%%%%%%%%%%%%%%%%%%%%%%%%%%%%%%%%%%%%%%%%%%%%%%%%%%

     stopping ...

 %%%%%%%%%%%%%%%%%%%%%%%%%%%%%%%%%%%%%%%%%%%%%%%%%%%%%%%%%%%%%%%%%%%%%%%%%%%%%%
     Error in routine c_bands (1):
     too many bands are not converged
 %%%%%%%%%%%%%%%%%%%%%%%%%%%%%%%%%%%%%%%%%%%%%%%%%%%%%%%%%%%%%%%%%%%%%%%%%%%%%%

     stopping ...
