
     Program PWSCF v.6.7MaX starts on  1Mar2021 at 19:34:23 

     This program is part of the open-source Quantum ESPRESSO suite
     for quantum simulation of materials; please cite
         "P. Giannozzi et al., J. Phys.:Condens. Matter 21 395502 (2009);
         "P. Giannozzi et al., J. Phys.:Condens. Matter 29 465901 (2017);
          URL http://www.quantum-espresso.org", 
     in publications or presentations arising from this work. More details at
     http://www.quantum-espresso.org/quote

     Parallel version (MPI & OpenMP), running on      32 processor cores
     Number of MPI processes:                32
     Threads/MPI process:                     1

     MPI processes distributed on     1 nodes
     R & G space division:  proc/nbgrp/npool/nimage =      32
     Waiting for input...
     Reading input from standard input
Warning: card  &CELL ignored
Warning: card     CELL_DYNAMICS = 'BFGS', ignored
Warning: card / ignored

     Current dimensions of program PWSCF are:
     Max number of different atomic species (ntypx) = 10
     Max number of k-points (npk) =  40000
     Max angular momentum in pseudopotentials (lmaxx) =  3
     file Sn.rel-pbe-dn-rrkjus_psl.1.0.0.UPF: wavefunction(s)  5S 4D 4D renormalized
     file I.rel-pbe-n-rrkjus_psl.1.0.0.UPF: wavefunction(s)  5S renormalized
     file Cs.rel-pbe-spn-rrkjus_psl.1.0.0.UPF: wavefunction(s)  5S 6S renormalized

     Subspace diagonalization in iterative solution of the eigenvalue problem:
     one sub-group per band group will be used
     scalapack distributed-memory algorithm (size of sub-group:  5*  5 procs)

     Found symmetry operation: I + ( -0.5000 -0.5000 -0.5000)
     This is a supercell, fractional translations are disabled
     Message from routine setup:
     using ibrav=0 with symmetry is DISCOURAGED, use correct ibrav instead
 
     Parallelization info
     --------------------
     sticks:   dense  smooth     PW     G-vecs:    dense   smooth      PW
     Min         579     464    122                58542    41900    5645
     Max         581     465    124                58547    41903    5648
     Sum       18545   14849   3909              1873423  1340815  180705
 

     Title: 
     perovskite                                                                 


     bravais-lattice index     =            0
     lattice parameter (alat)  =      24.1452  a.u.
     unit-cell volume          =   13868.2990 (a.u.)^3
     number of atoms/cell      =           20
     number of atomic types    =            3
     number of electrons       =       176.00
     number of Kohn-Sham states=          200
     kinetic-energy cutoff     =      80.0000  Ry
     charge density cutoff     =     400.0000  Ry
     scf convergence threshold =      1.0E-06
     mixing beta               =       0.5000
     number of iterations used =            8  plain     mixing
     energy convergence thresh.=      1.0E-04
     force convergence thresh. =      1.0E-02
     Exchange-correlation= PBE
                           (   1   4   3   4   0   0   0)
     nstep                     =           50

     Non magnetic calculation with spin-orbit


     celldm(1)=  24.145200  celldm(2)=   0.000000  celldm(3)=   0.000000
     celldm(4)=   0.000000  celldm(5)=   0.000000  celldm(6)=   0.000000

     crystal axes: (cart. coord. in units of alat)
               a(1) = (   1.000000   0.000000   0.000000 )  
               a(2) = (   0.000000   1.000000   0.000000 )  
               a(3) = (   0.000000   0.000000   0.985214 )  

     reciprocal axes: (cart. coord. in units 2 pi/alat)
               b(1) = (  1.000000  0.000000  0.000000 )  
               b(2) = (  0.000000  1.000000  0.000000 )  
               b(3) = (  0.000000  0.000000  1.015007 )  


     PseudoPot. # 1 for Sn read from file:
     ./Sn.rel-pbe-dn-rrkjus_psl.1.0.0.UPF
     MD5 check sum: e9415cc9ba1036dfb73502962f03961a
     Pseudo is Ultrasoft + core correction, Zval = 14.0
     Generated using &quot;atomic&quot; code by A. Dal Corso  v.6.3
     Using radial grid of 1243 points, 10 beta functions with: 
                l(1) =   0
                l(2) =   0
                l(3) =   1
                l(4) =   1
                l(5) =   1
                l(6) =   1
                l(7) =   2
                l(8) =   2
                l(9) =   2
               l(10) =   2
     Q(r) pseudized with 0 coefficients 


     PseudoPot. # 2 for I  read from file:
     ./I.rel-pbe-n-rrkjus_psl.1.0.0.UPF
     MD5 check sum: 6d021d2aa93960f239bd8adb25ac3fd1
     Pseudo is Ultrasoft + core correction, Zval =  7.0
     Generated using &quot;atomic&quot; code by A. Dal Corso  v.6.3
     Using radial grid of 1247 points, 10 beta functions with: 
                l(1) =   0
                l(2) =   0
                l(3) =   1
                l(4) =   1
                l(5) =   1
                l(6) =   1
                l(7) =   2
                l(8) =   2
                l(9) =   2
               l(10) =   2
     Q(r) pseudized with 0 coefficients 


     PseudoPot. # 3 for Cs read from file:
     ./Cs.rel-pbe-spn-rrkjus_psl.1.0.0.UPF
     MD5 check sum: 92f45d5fced885c1284380ec35df8368
     Pseudo is Ultrasoft + core correction, Zval =  9.0
     Generated using &quot;atomic&quot; code by A. Dal Corso  v.6.4.1
     Using radial grid of 1251 points, 15 beta functions with: 
                l(1) =   0
                l(2) =   0
                l(3) =   0
                l(4) =   1
                l(5) =   1
                l(6) =   1
                l(7) =   1
                l(8) =   2
                l(9) =   2
               l(10) =   2
               l(11) =   2
               l(12) =   3
               l(13) =   3
               l(14) =   3
               l(15) =   3
     Q(r) pseudized with 0 coefficients 


     atomic species   valence    mass     pseudopotential
        Sn            14.00   118.70000     Sn( 1.00)
        I              7.00   126.90000     I ( 1.00)
        Cs             9.00   132.90000     Cs( 1.00)

      8 Sym. Ops., with inversion, found


                                    s                        frac. trans.

      isym =  1     identity                                     

 cryst.   s( 1) = (     1          0          0      )
                  (     0          1          0      )
                  (     0          0          1      )

 cart.    s( 1) = (  1.0000000  0.0000000  0.0000000 )
                  (  0.0000000  1.0000000  0.0000000 )
                  (  0.0000000  0.0000000  1.0000000 )


      isym =  2     180 deg rotation - cart. axis [0,0,1]        

 cryst.   s( 2) = (    -1          0          0      )
                  (     0         -1          0      )
                  (     0          0          1      )

 cart.    s( 2) = ( -1.0000000  0.0000000  0.0000000 )
                  (  0.0000000 -1.0000000  0.0000000 )
                  (  0.0000000  0.0000000  1.0000000 )


      isym =  3      90 deg rotation - cart. axis [0,0,-1]       

 cryst.   s( 3) = (     0         -1          0      )
                  (     1          0          0      )
                  (     0          0          1      )

 cart.    s( 3) = (  0.0000000  1.0000000  0.0000000 )
                  ( -1.0000000  0.0000000  0.0000000 )
                  (  0.0000000  0.0000000  1.0000000 )


      isym =  4      90 deg rotation - cart. axis [0,0,1]        

 cryst.   s( 4) = (     0          1          0      )
                  (    -1          0          0      )
                  (     0          0          1      )

 cart.    s( 4) = (  0.0000000 -1.0000000  0.0000000 )
                  (  1.0000000  0.0000000  0.0000000 )
                  (  0.0000000  0.0000000  1.0000000 )


      isym =  5     inversion                                    

 cryst.   s( 5) = (    -1          0          0      )
                  (     0         -1          0      )
                  (     0          0         -1      )

 cart.    s( 5) = ( -1.0000000  0.0000000  0.0000000 )
                  (  0.0000000 -1.0000000  0.0000000 )
                  (  0.0000000  0.0000000 -1.0000000 )


      isym =  6     inv. 180 deg rotation - cart. axis [0,0,1]   

 cryst.   s( 6) = (     1          0          0      )
                  (     0          1          0      )
                  (     0          0         -1      )

 cart.    s( 6) = (  1.0000000  0.0000000  0.0000000 )
                  (  0.0000000  1.0000000  0.0000000 )
                  (  0.0000000  0.0000000 -1.0000000 )


      isym =  7     inv.  90 deg rotation - cart. axis [0,0,-1]  

 cryst.   s( 7) = (     0          1          0      )
                  (    -1          0          0      )
                  (     0          0         -1      )

 cart.    s( 7) = (  0.0000000 -1.0000000  0.0000000 )
                  (  1.0000000  0.0000000  0.0000000 )
                  (  0.0000000  0.0000000 -1.0000000 )


      isym =  8     inv.  90 deg rotation - cart. axis [0,0,1]   

 cryst.   s( 8) = (     0         -1          0      )
                  (     1          0          0      )
                  (     0          0         -1      )

 cart.    s( 8) = (  0.0000000  1.0000000  0.0000000 )
                  ( -1.0000000  0.0000000  0.0000000 )
                  (  0.0000000  0.0000000 -1.0000000 )


   Cartesian axes

     site n.     atom                  positions (alat units)
         1           Cs  tau(   1) = (   0.0000000   0.0000000   0.8523691  )
         2           Cs  tau(   2) = (   0.5000000   0.5000000   0.3597619  )
         3           Cs  tau(   3) = (   1.0000000   0.0000000   0.1328453  )
         4           Cs  tau(   4) = (   0.5000000   0.5000000   0.6254526  )
         5           Sn  tau(   5) = (   0.0000000   0.0000000   0.6359234  )
         6           Sn  tau(   6) = (   0.5000000   0.5000000   0.1433162  )
         7           Sn  tau(   7) = (   0.0000000   1.0000000   0.3492910  )
         8           Sn  tau(   8) = (   0.5000000   0.5000000   0.8418983  )
         9           I   tau(   9) = (   0.0855860   0.4191140   0.4926072  )
        10           I   tau(  10) = (   0.5855860   0.9191140   0.0000000  )
        11           I   tau(  11) = (   0.4144140   0.0808860   0.9852145  )
        12           I   tau(  12) = (   0.9144140   0.5808860   0.4926072  )
        13           I   tau(  13) = (   0.0808860   0.5855860   0.9852145  )
        14           I   tau(  14) = (   0.5808860   0.0855860   0.4926072  )
        15           I   tau(  15) = (   0.4191140   0.9144140   0.4926072  )
        16           I   tau(  16) = (   0.9191140   0.4144140   0.0000000  )
        17           I   tau(  17) = (   0.0000000   0.5000000   0.0000000  )
        18           I   tau(  18) = (   0.5000000   0.0000000   0.4926072  )
        19           I   tau(  19) = (   0.5000000   0.0000000   0.9852145  )
        20           I   tau(  20) = (   0.0000000   0.5000000   0.4926072  )

   Crystallographic axes

     site n.     atom                  positions (cryst. coord.)
         1           Cs  tau(   1) = (  0.0000000  0.0000000  0.8651610  )
         2           Cs  tau(   2) = (  0.5000000  0.5000000  0.3651610  )
         3           Cs  tau(   3) = (  1.0000000  0.0000000  0.1348390  )
         4           Cs  tau(   4) = (  0.5000000  0.5000000  0.6348390  )
         5           Sn  tau(   5) = (  0.0000000  0.0000000  0.6454670  )
         6           Sn  tau(   6) = (  0.5000000  0.5000000  0.1454670  )
         7           Sn  tau(   7) = (  0.0000000  1.0000000  0.3545330  )
         8           Sn  tau(   8) = (  0.5000000  0.5000000  0.8545330  )
         9           I   tau(   9) = (  0.0855860  0.4191140  0.5000000  )
        10           I   tau(  10) = (  0.5855860  0.9191140  0.0000000  )
        11           I   tau(  11) = (  0.4144140  0.0808860  1.0000000  )
        12           I   tau(  12) = (  0.9144140  0.5808860  0.5000000  )
        13           I   tau(  13) = (  0.0808860  0.5855860  1.0000000  )
        14           I   tau(  14) = (  0.5808860  0.0855860  0.5000000  )
        15           I   tau(  15) = (  0.4191140  0.9144140  0.5000000  )
        16           I   tau(  16) = (  0.9191140  0.4144140  0.0000000  )
        17           I   tau(  17) = (  0.0000000  0.5000000  0.0000000  )
        18           I   tau(  18) = (  0.5000000  0.0000000  0.5000000  )
        19           I   tau(  19) = (  0.5000000  0.0000000  1.0000000  )
        20           I   tau(  20) = (  0.0000000  0.5000000  0.5000000  )

     number of k points=     6  Marzari-Vanderbilt smearing, width (Ry)=  0.0200
                       cart. coord. in units 2pi/alat
        k(    1) = (   0.0000000   0.0000000   0.0000000), wk =   0.1250000
        k(    2) = (   0.0000000   0.0000000  -0.5075037), wk =   0.1250000
        k(    3) = (   0.0000000  -0.5000000   0.0000000), wk =   0.2500000
        k(    4) = (   0.0000000  -0.5000000  -0.5075037), wk =   0.2500000
        k(    5) = (  -0.5000000  -0.5000000   0.0000000), wk =   0.1250000
        k(    6) = (  -0.5000000  -0.5000000  -0.5075037), wk =   0.1250000

                       cryst. coord.
        k(    1) = (   0.0000000   0.0000000   0.0000000), wk =   0.1250000
        k(    2) = (   0.0000000   0.0000000  -0.5000000), wk =   0.1250000
        k(    3) = (   0.0000000  -0.5000000   0.0000000), wk =   0.2500000
        k(    4) = (   0.0000000  -0.5000000  -0.5000000), wk =   0.2500000
        k(    5) = (  -0.5000000  -0.5000000   0.0000000), wk =   0.1250000
        k(    6) = (  -0.5000000  -0.5000000  -0.5000000), wk =   0.1250000

     Dense  grid:  1873423 G-vectors     FFT dimensions: ( 160, 160, 160)

     Smooth grid:  1340815 G-vectors     FFT dimensions: ( 144, 144, 135)

     Dynamical RAM for                 wfc:      31.96 MB

     Dynamical RAM for     wfc (w. buffer):     223.71 MB

     Dynamical RAM for           str. fact:       2.68 MB

     Dynamical RAM for           local pot:       0.00 MB

     Dynamical RAM for          nlocal pot:      63.60 MB

     Dynamical RAM for                qrad:      38.53 MB

     Dynamical RAM for          rho,v,vnew:      22.44 MB

     Dynamical RAM for               rhoin:       7.48 MB

     Dynamical RAM for            rho*nmix:      57.17 MB

     Dynamical RAM for           G-vectors:       3.67 MB

     Dynamical RAM for          h,s,v(r/c):       0.29 MB

     Dynamical RAM for          <psi|beta>:       4.86 MB

     Dynamical RAM for                 psi:      63.92 MB

     Dynamical RAM for                hpsi:      63.92 MB

     Dynamical RAM for                spsi:      63.92 MB

     Dynamical RAM for      wfcinit/wfcrot:      50.85 MB

     Dynamical RAM for           addusdens:    1835.85 MB

     Dynamical RAM for          addusforce:    1856.50 MB

     Dynamical RAM for         addusstress:    1851.93 MB

     Estimated static dynamical RAM per process >     430.66 MB

     Estimated max dynamical RAM per process >       2.23 GB

     Estimated total dynamical RAM >      71.47 GB

     Initial potential from superposition of free atoms

     starting charge  175.83606, renormalised to  176.00000
     Starting wfcs are  208 randomized atomic wfcs

     total cpu time spent up to now is       30.2 secs

     Self-consistent Calculation

     iteration #  1     ecut=    80.00 Ry     beta= 0.50
     Davidson diagonalization with overlap
     ethr =  1.00E-02,  avg # of iterations = 12.3

     negative rho (up, down):  9.744E-05 0.000E+00

     total cpu time spent up to now is      128.7 secs

     total energy              =   -1230.25718132 Ry
     estimated scf accuracy    <       9.89369644 Ry

     iteration #  2     ecut=    80.00 Ry     beta= 0.50
     Davidson diagonalization with overlap
     ethr =  5.62E-03,  avg # of iterations = 15.2

     negative rho (up, down):  1.957E+00 0.000E+00

     total cpu time spent up to now is      264.3 secs

     total energy              =   -1117.28658277 Ry
     estimated scf accuracy    < 7624379.09313080 Ry

     iteration #  3     ecut=    80.00 Ry     beta= 0.50
     Davidson diagonalization with overlap
     ethr =  5.62E-03,  avg # of iterations =  7.3

     negative rho (up, down):  4.018E-01 0.000E+00

     total cpu time spent up to now is      343.8 secs

     total energy              =   -1232.83891372 Ry
     estimated scf accuracy    <      34.25311274 Ry

     iteration #  4     ecut=    80.00 Ry     beta= 0.50
     Davidson diagonalization with overlap
     ethr =  5.62E-03,  avg # of iterations =  2.8

     negative rho (up, down):  6.249E-02 0.000E+00

     total cpu time spent up to now is      419.7 secs

     total energy              =   -1235.37357444 Ry
     estimated scf accuracy    <       7.36180154 Ry

     iteration #  5     ecut=    80.00 Ry     beta= 0.50
     Davidson diagonalization with overlap
     ethr =  4.18E-03,  avg # of iterations =  3.2

     negative rho (up, down):  2.700E-03 0.000E+00

     total cpu time spent up to now is      492.3 secs

     total energy              =   -1234.33681279 Ry
     estimated scf accuracy    <       6.82315417 Ry

     iteration #  6     ecut=    80.00 Ry     beta= 0.50
     Davidson diagonalization with overlap
     ethr =  3.88E-03,  avg # of iterations =  7.7

     negative rho (up, down):  1.402E-06 0.000E+00

     total cpu time spent up to now is      571.6 secs

     total energy              =   -1234.26924889 Ry
     estimated scf accuracy    <       2.37637968 Ry

     iteration #  7     ecut=    80.00 Ry     beta= 0.50
     Davidson diagonalization with overlap
     ethr =  1.35E-03,  avg # of iterations = 15.8

     total cpu time spent up to now is      694.8 secs

     total energy              =   -1236.57787713 Ry
     estimated scf accuracy    <       7.68178733 Ry

     iteration #  8     ecut=    80.00 Ry     beta= 0.50
     Davidson diagonalization with overlap
     ethr =  1.35E-03,  avg # of iterations =  1.3

     total cpu time spent up to now is      763.8 secs

     total energy              =   -1236.43620114 Ry
     estimated scf accuracy    <       6.86858406 Ry

     iteration #  9     ecut=    80.00 Ry     beta= 0.50
     Davidson diagonalization with overlap
     ethr =  1.35E-03,  avg # of iterations =  1.0

     total cpu time spent up to now is      831.5 secs

     total energy              =   -1236.31166033 Ry
     estimated scf accuracy    <       4.68565368 Ry

     iteration # 10     ecut=    80.00 Ry     beta= 0.50
     Davidson diagonalization with overlap
     ethr =  1.35E-03,  avg # of iterations =  1.0

     total cpu time spent up to now is      899.2 secs

     total energy              =   -1236.37249901 Ry
     estimated scf accuracy    <       2.71550486 Ry

     iteration # 11     ecut=    80.00 Ry     beta= 0.50
     Davidson diagonalization with overlap
     ethr =  1.35E-03,  avg # of iterations =  1.0

     total cpu time spent up to now is      966.9 secs

     total energy              =   -1235.94949347 Ry
     estimated scf accuracy    <       3.13503646 Ry

     iteration # 12     ecut=    80.00 Ry     beta= 0.50
     Davidson diagonalization with overlap
     ethr =  1.35E-03,  avg # of iterations = 10.7

     negative rho (up, down):  7.034E-01 0.000E+00

     total cpu time spent up to now is     1067.9 secs

     total energy              =   -1164.72060127 Ry
     estimated scf accuracy    < 3534836.26610558 Ry

     iteration # 13     ecut=    80.00 Ry     beta= 0.50
     Davidson diagonalization with overlap
     ethr =  1.35E-03,  avg # of iterations = 10.5

     negative rho (up, down):  1.469E-01 0.000E+00

     total cpu time spent up to now is     1150.8 secs

     total energy              =   -1235.82932230 Ry
     estimated scf accuracy    <       0.66844433 Ry

     iteration # 14     ecut=    80.00 Ry     beta= 0.50
     Davidson diagonalization with overlap
     ethr =  3.80E-04,  avg # of iterations = 10.7

     negative rho (up, down):  7.611E-03 0.000E+00

     total cpu time spent up to now is     1237.7 secs

     WARNING: integrated charge=   176.00209671, expected=   176.00000000

     total energy              =   -1235.72895163 Ry
     estimated scf accuracy    <       1.04043565 Ry

     iteration # 15     ecut=    80.00 Ry     beta= 0.50
     Davidson diagonalization with overlap
     ethr =  3.80E-04,  avg # of iterations = 17.2

     negative rho (up, down):  6.698E-01 0.000E+00

     total cpu time spent up to now is     1366.4 secs

     WARNING: integrated charge=   176.00395395, expected=   176.00000000

     total energy              =   -1123.91111239 Ry
     estimated scf accuracy    < 3346013.96472551 Ry

     iteration # 16     ecut=    80.00 Ry     beta= 0.50
     Davidson diagonalization with overlap

 %%%%%%%%%%%%%%%%%%%%%%%%%%%%%%%%%%%%%%%%%%%%%%%%%%%%%%%%%%%%%%%%%%%%%%%%%%%%%%
     Error in routine  cdiaghg (214):
      problems computing cholesky
 %%%%%%%%%%%%%%%%%%%%%%%%%%%%%%%%%%%%%%%%%%%%%%%%%%%%%%%%%%%%%%%%%%%%%%%%%%%%%%

     stopping ...

 %%%%%%%%%%%%%%%%%%%%%%%%%%%%%%%%%%%%%%%%%%%%%%%%%%%%%%%%%%%%%%%%%%%%%%%%%%%%%%
     Error in routine  cdiaghg (214):
      problems computing cholesky
 %%%%%%%%%%%%%%%%%%%%%%%%%%%%%%%%%%%%%%%%%%%%%%%%%%%%%%%%%%%%%%%%%%%%%%%%%%%%%%

     stopping ...

 %%%%%%%%%%%%%%%%%%%%%%%%%%%%%%%%%%%%%%%%%%%%%%%%%%%%%%%%%%%%%%%%%%%%%%%%%%%%%%
     Error in routine  cdiaghg (214):
      problems computing cholesky
 %%%%%%%%%%%%%%%%%%%%%%%%%%%%%%%%%%%%%%%%%%%%%%%%%%%%%%%%%%%%%%%%%%%%%%%%%%%%%%

     stopping ...

 %%%%%%%%%%%%%%%%%%%%%%%%%%%%%%%%%%%%%%%%%%%%%%%%%%%%%%%%%%%%%%%%%%%%%%%%%%%%%%
     Error in routine  cdiaghg (214):
      problems computing cholesky
 %%%%%%%%%%%%%%%%%%%%%%%%%%%%%%%%%%%%%%%%%%%%%%%%%%%%%%%%%%%%%%%%%%%%%%%%%%%%%%

     stopping ...
