
     Program PWSCF v.6.0 (svn rev. 13079) starts on 31Jan2021 at 16: 8:37 

     This program is part of the open-source Quantum ESPRESSO suite
     for quantum simulation of materials; please cite
         "P. Giannozzi et al., J. Phys.:Condens. Matter 21 395502 (2009);
          URL http://www.quantum-espresso.org", 
     in publications or presentations arising from this work. More details at
     http://www.quantum-espresso.org/quote

     Parallel version (MPI & OpenMP), running on      96 processor cores
     Number of MPI processes:                48
     Threads/MPI process:                     2
     R & G space division:  proc/nbgrp/npool/nimage =      48
     Waiting for input...
     Reading input from standard input

     Current dimensions of program PWSCF are:
     Max number of different atomic species (ntypx) = 10
     Max number of k-points (npk) =  40000
     Max angular momentum in pseudopotentials (lmaxx) =  3
               file Cs.rel-pbesol-spn-rrkjus_psl.1.0.0.UPF: wavefunction(s)  5S 6S renormalized
               file Sn.rel-pbesol-dn-rrkjus_psl.1.0.0.UPF: wavefunction(s)  5S 4D 4D renormalized
               file I.rel-pbesol-n-rrkjus_psl.1.0.0.UPF: wavefunction(s)  5S renormalized

     Subspace diagonalization in iterative solution of the eigenvalue problem:
     a serial algorithm will be used


     Parallelization info
     --------------------
     sticks:   dense  smooth     PW     G-vecs:    dense   smooth      PW
     Min          91      73     19                 6587     4713     629
     Max          92      74     20                 6590     4720     634
     Sum        4405    3529    925               316255   226393   30329


     Title: 
     CsSnI3                                                                     


     bravais-lattice index     =            8
     lattice parameter (alat)  =      16.5033  a.u.
     unit-cell volume          =    6621.2472 (a.u.)^3
     number of atoms/cell      =           20
     number of atomic types    =            3
     number of electrons       =       176.00
     number of Kohn-Sham states=          176
     kinetic-energy cutoff     =      40.0000  Ry
     charge density cutoff     =     200.0000  Ry
     convergence threshold     =      1.0E-06
     mixing beta               =       0.3500
     number of iterations used =            8  plain     mixing
     Exchange-correlation      = PBESOL ( 1  4 10  8 0 0)
     Non magnetic calculation with spin-orbit


     celldm(1)=  16.503301  celldm(2)=   1.015921  celldm(3)=   1.449998
     celldm(4)=   0.000000  celldm(5)=   0.000000  celldm(6)=   0.000000

     crystal axes: (cart. coord. in units of alat)
               a(1) = (   1.000000   0.000000   0.000000 )  
               a(2) = (   0.000000   1.015921   0.000000 )  
               a(3) = (   0.000000   0.000000   1.449998 )  

     reciprocal axes: (cart. coord. in units 2 pi/alat)
               b(1) = (  1.000000  0.000000  0.000000 )  
               b(2) = (  0.000000  0.984329  0.000000 )  
               b(3) = (  0.000000  0.000000  0.689656 )  


     PseudoPot. # 1 for Cs read from file:
     /scratch/cmalosso/degironcoli/pseudo/pseudo-usp/Cs.rel-pbesol-spn-rrkjus_psl.1.0.0.UPF
     MD5 check sum: 846889b67fb1b19751b5b37931589d70
     Pseudo is Ultrasoft + core correction, Zval =  9.0
     Generated using "atomic" code by A. Dal Corso  v.6.4.1
     Using radial grid of 1251 points, 15 beta functions with: 
                l(1) =   0
                l(2) =   0
                l(3) =   0
                l(4) =   1
                l(5) =   1
                l(6) =   1
                l(7) =   1
                l(8) =   2
                l(9) =   2
               l(10) =   2
               l(11) =   2
               l(12) =   3
               l(13) =   3
               l(14) =   3
               l(15) =   3
     Q(r) pseudized with 0 coefficients 


     PseudoPot. # 2 for Sn read from file:
     /scratch/cmalosso/degironcoli/pseudo/pseudo-usp/Sn.rel-pbesol-dn-rrkjus_psl.1.0.0.UPF
     MD5 check sum: c1cf6ea56b96a3656bdf0d1db379e093
     Pseudo is Ultrasoft + core correction, Zval = 14.0
     Generated using "atomic" code by A. Dal Corso  v.6.3
     Using radial grid of 1243 points, 10 beta functions with: 
                l(1) =   0
                l(2) =   0
                l(3) =   1
                l(4) =   1
                l(5) =   1
                l(6) =   1
                l(7) =   2
                l(8) =   2
                l(9) =   2
               l(10) =   2
     Q(r) pseudized with 0 coefficients 


     PseudoPot. # 3 for  I read from file:
     /scratch/cmalosso/degironcoli/pseudo/pseudo-usp/I.rel-pbesol-n-rrkjus_psl.1.0.0.UPF
     MD5 check sum: 0f96c6bfb1b448f280658f96eb466b08
     Pseudo is Ultrasoft + core correction, Zval =  7.0
     Generated using "atomic" code by A. Dal Corso  v.6.3
     Using radial grid of 1247 points, 10 beta functions with: 
                l(1) =   0
                l(2) =   0
                l(3) =   1
                l(4) =   1
                l(5) =   1
                l(6) =   1
                l(7) =   2
                l(8) =   2
                l(9) =   2
               l(10) =   2
     Q(r) pseudized with 0 coefficients 


     atomic species   valence    mass     pseudopotential
        Cs             9.00   132.90000     Cs( 1.00)
        Sn            14.00   118.70000     Sn( 1.00)
        I              7.00   126.90000      I( 1.00)

      4 Sym. Ops., with inversion, found ( 2 have fractional translation)
          (note:  4 additional sym.ops. were found but ignored
           their fractional translations are incommensurate with FFT grid)

                                    s                        frac. trans.

      isym =  1     identity                                     

 cryst.   s( 1) = (     1          0          0      )
                  (     0          1          0      )
                  (     0          0          1      )

 cart.    s( 1) = (  1.0000000  0.0000000  0.0000000 )
                  (  0.0000000  1.0000000  0.0000000 )
                  (  0.0000000  0.0000000  1.0000000 )


      isym =  2     180 deg rotation - cart. axis [0,0,1]        

 cryst.   s( 2) = (    -1          0          0      )    f =(  0.0000000 )
                  (     0         -1          0      )       (  0.0000000 )
                  (     0          0          1      )       ( -0.5000000 )

 cart.    s( 2) = ( -1.0000000  0.0000000  0.0000000 )    f =(  0.0000000 )
                  (  0.0000000 -1.0000000  0.0000000 )       (  0.0000000 )
                  (  0.0000000  0.0000000  1.0000000 )       ( -0.7249991 )


      isym =  3     inversion                                    

 cryst.   s( 3) = (    -1          0          0      )
                  (     0         -1          0      )
                  (     0          0         -1      )

 cart.    s( 3) = ( -1.0000000  0.0000000  0.0000000 )
                  (  0.0000000 -1.0000000  0.0000000 )
                  (  0.0000000  0.0000000 -1.0000000 )


      isym =  4     inv. 180 deg rotation - cart. axis [0,0,1]   

 cryst.   s( 4) = (     1          0          0      )    f =(  0.0000000 )
                  (     0          1          0      )       (  0.0000000 )
                  (     0          0         -1      )       ( -0.5000000 )

 cart.    s( 4) = (  1.0000000  0.0000000  0.0000000 )    f =(  0.0000000 )
                  (  0.0000000  1.0000000  0.0000000 )       (  0.0000000 )
                  (  0.0000000  0.0000000 -1.0000000 )       ( -0.7249991 )


     double point group C_2h (2/m) 
     there are  8 classes and  4 irreducible representations
     the character table:

       E     -E    C2    -C2   i     -i    s_h   -s_h 
                                                      
G_3+   1.00 -1.00  0.00  0.00  1.00 -1.00  0.00  0.00
G_4+   1.00 -1.00  0.00  0.00  1.00 -1.00  0.00  0.00
G_3-   1.00 -1.00  0.00  0.00 -1.00  1.00  0.00  0.00
G_4-   1.00 -1.00  0.00  0.00 -1.00  1.00  0.00  0.00

     imaginary part

       E     -E    C2    -C2   i     -i    s_h   -s_h 
                                                      
G_3+   0.00  0.00  1.00 -1.00  0.00  0.00  1.00 -1.00
G_4+   0.00  0.00 -1.00  1.00  0.00  0.00 -1.00  1.00
G_3-   0.00  0.00  1.00 -1.00  0.00  0.00 -1.00  1.00
G_4-   0.00  0.00 -1.00  1.00  0.00  0.00  1.00 -1.00

     the symmetry operations in each class and the name of the first element:

     E             1
          identity                                               
     -E           -1
          identity E                                             
     C2            2
          180 deg rotation - cart. axis [0,0,1]                  
     -C2          -2
          180 deg rotation - cart. axis [0,0,1] E                
     i             3
          inversion                                              
     -i           -3
          inversion E                                            
     s_h           4
          inv. 180 deg rotation - cart. axis [0,0,1]             
     -s_h         -4
          inv. 180 deg rotation - cart. axis [0,0,1] E           

   Cartesian axes

     site n.     atom                  positions (alat units)
         1           Cs  tau(   1) = (   0.0046830   0.0237045   1.0874986  )
         2           Cs  tau(   2) = (   0.5046830   0.4842559   1.0874986  )
         3           Cs  tau(   3) = (   0.9953170   0.9922163   0.3624995  )
         4           Cs  tau(   4) = (   0.4953170   0.5316649   0.3624995  )
         5           Sn  tau(   5) = (   0.5000000   0.0000000   0.0000000  )
         6           Sn  tau(   6) = (   0.0000000   0.5079604   0.7249991  )
         7           Sn  tau(   7) = (   0.0000000   0.5079604   0.0000000  )
         8           Sn  tau(   8) = (   0.5000000   0.0000000   0.7249991  )
         9           I   tau(   9) = (   0.7030980   0.7148750   1.4390304  )
        10           I   tau(  10) = (   0.2969020   0.3010458   0.7140313  )
        11           I   tau(  11) = (   0.7030980   0.7148750   0.7359669  )
        12           I   tau(  12) = (   0.2969020   0.3010458   0.0109678  )
        13           I   tau(  13) = (   0.5026480   0.9956207   0.3624995  )
        14           I   tau(  14) = (   0.2030980   0.8090062   0.7359669  )
        15           I   tau(  15) = (   0.9973520   0.4876603   1.0874986  )
        16           I   tau(  16) = (   0.7969020   0.2069146   0.7140313  )
        17           I   tau(  17) = (   0.7969020   0.2069146   0.0109678  )
        18           I   tau(  18) = (   0.4973520   0.0203001   1.0874986  )
        19           I   tau(  19) = (   0.0026480   0.5282605   0.3624995  )
        20           I   tau(  20) = (   0.2030980   0.8090062   1.4390304  )

   Crystallographic axes

     site n.     atom                  positions (cryst. coord.)
         1           Cs  tau(   1) = (  0.0046830  0.0233330  0.7500000  )
         2           Cs  tau(   2) = (  0.5046830  0.4766670  0.7500000  )
         3           Cs  tau(   3) = (  0.9953170  0.9766670  0.2500000  )
         4           Cs  tau(   4) = (  0.4953170  0.5233330  0.2500000  )
         5           Sn  tau(   5) = (  0.5000000  0.0000000  0.0000000  )
         6           Sn  tau(   6) = (  0.0000000  0.5000000  0.5000000  )
         7           Sn  tau(   7) = (  0.0000000  0.5000000  0.0000000  )
         8           Sn  tau(   8) = (  0.5000000  0.0000000  0.5000000  )
         9           I   tau(   9) = (  0.7030980  0.7036720  0.9924360  )
        10           I   tau(  10) = (  0.2969020  0.2963280  0.4924360  )
        11           I   tau(  11) = (  0.7030980  0.7036720  0.5075640  )
        12           I   tau(  12) = (  0.2969020  0.2963280  0.0075640  )
        13           I   tau(  13) = (  0.5026480  0.9800180  0.2500000  )
        14           I   tau(  14) = (  0.2030980  0.7963280  0.5075640  )
        15           I   tau(  15) = (  0.9973520  0.4800180  0.7500000  )
        16           I   tau(  16) = (  0.7969020  0.2036720  0.4924360  )
        17           I   tau(  17) = (  0.7969020  0.2036720  0.0075640  )
        18           I   tau(  18) = (  0.4973520  0.0199820  0.7500000  )
        19           I   tau(  19) = (  0.0026480  0.5199820  0.2500000  )
        20           I   tau(  20) = (  0.2030980  0.7963280  0.9924360  )

     number of k points=     2
                       cart. coord. in units 2pi/alat
        k(    1) = (   0.2500000   0.2460822   0.1724140), wk =   0.5000000
        k(    2) = (  -0.2500000   0.2460822  -0.1724140), wk =   0.5000000

                       cryst. coord.
        k(    1) = (   0.2500000   0.2500000   0.2500000), wk =   0.5000000
        k(    2) = (  -0.2500000   0.2500000  -0.2500000), wk =   0.5000000

     Dense  grid:   316255 G-vectors     FFT dimensions: (  75,  75, 108)

     Smooth grid:   226393 G-vectors     FFT dimensions: (  72,  72, 100)

     Estimated max dynamical RAM per process >      73.30Mb

     Estimated total allocated dynamical RAM >    3518.56Mb

     Check: negative/imaginary core charge=   -0.000002    0.000000

     Initial potential from superposition of free atoms

     starting charge  175.84164, renormalised to  176.00000
     Starting wfc are  208 randomized atomic wfcs

     total cpu time spent up to now is       12.0 secs

     per-process dynamical memory:   200.1 Mb

     Self-consistent Calculation

     iteration #  1     ecut=    40.00 Ry     beta=0.35
     Davidson diagonalization with overlap
     ethr =  1.00E-02,  avg # of iterations =  2.0

     Threshold (ethr) on eigenvalues was too large:
     Diagonalizing with lowered threshold

     Davidson diagonalization with overlap
     ethr =  2.51E-04,  avg # of iterations =  3.0

     total cpu time spent up to now is       29.3 secs

     total energy              =   -1267.99404199 Ry
     Harris-Foulkes estimate   =   -1268.14616506 Ry
     estimated scf accuracy    <       0.34330571 Ry

     iteration #  2     ecut=    40.00 Ry     beta=0.35
     Davidson diagonalization with overlap
     ethr =  1.95E-04,  avg # of iterations =  2.0

     total cpu time spent up to now is       37.9 secs

     total energy              =   -1268.03190257 Ry
     Harris-Foulkes estimate   =   -1268.03807429 Ry
     estimated scf accuracy    <       0.03093203 Ry

     iteration #  3     ecut=    40.00 Ry     beta=0.35
     Davidson diagonalization with overlap
     ethr =  1.76E-05,  avg # of iterations =  4.0

     total cpu time spent up to now is       47.3 secs

     total energy              =   -1268.03758936 Ry
     Harris-Foulkes estimate   =   -1268.03656540 Ry
     estimated scf accuracy    <       0.00534654 Ry

     iteration #  4     ecut=    40.00 Ry     beta=0.35
     Davidson diagonalization with overlap
     ethr =  3.04E-06,  avg # of iterations =  4.0

     total cpu time spent up to now is       57.0 secs

     total energy              =   -1268.03866881 Ry
     Harris-Foulkes estimate   =   -1268.03852469 Ry
     estimated scf accuracy    <       0.00042293 Ry

     iteration #  5     ecut=    40.00 Ry     beta=0.35
     Davidson diagonalization with overlap
     ethr =  2.40E-07,  avg # of iterations =  3.0

     total cpu time spent up to now is       66.4 secs

     total energy              =   -1268.03876613 Ry
     Harris-Foulkes estimate   =   -1268.03875600 Ry
     estimated scf accuracy    <       0.00006168 Ry

     iteration #  6     ecut=    40.00 Ry     beta=0.35
     Davidson diagonalization with overlap
     ethr =  3.50E-08,  avg # of iterations =  4.0

     total cpu time spent up to now is       76.8 secs

     total energy              =   -1268.03878515 Ry
     Harris-Foulkes estimate   =   -1268.03878172 Ry
     estimated scf accuracy    <       0.00000464 Ry

     iteration #  7     ecut=    40.00 Ry     beta=0.35
     Davidson diagonalization with overlap
     ethr =  2.64E-09,  avg # of iterations =  3.5

     total cpu time spent up to now is       87.2 secs

     End of self-consistent calculation

          k = 0.2500 0.2461 0.1724 ( 28301 PWs)   bands (ev):

   -18.7998 -18.7998 -18.7996 -18.7996 -18.7995 -18.7995 -18.7992 -18.7992
   -18.7942 -18.7942 -18.7940 -18.7940 -18.7936 -18.7936 -18.7929 -18.7929
   -18.2047 -18.2047 -18.2045 -18.2045 -18.2041 -18.2041 -18.2039 -18.2039
   -17.7623 -17.7623 -17.7622 -17.7622 -17.7618 -17.7618 -17.7614 -17.7614
   -17.7559 -17.7559 -17.7556 -17.7556 -17.7552 -17.7552 -17.7545 -17.7545
   -17.7497 -17.7497 -17.7496 -17.7496 -17.7495 -17.7495 -17.7491 -17.7491
    -9.1681  -9.1681  -9.0500  -9.0500  -9.0108  -9.0108  -8.9155  -8.9155
    -8.8280  -8.8280  -8.8162  -8.8162  -8.8112  -8.8112  -8.7824  -8.7824
    -8.7246  -8.7246  -8.7119  -8.7119  -8.6883  -8.6883  -8.6611  -8.6611
    -6.1465  -6.1465  -6.1431  -6.1431  -6.1408  -6.1408  -6.1379  -6.1379
    -4.5335  -4.5335  -4.5248  -4.5248  -4.5175  -4.5175  -4.5154  -4.5154
    -4.5131  -4.5131  -4.5081  -4.5081  -4.5036  -4.5036  -4.5011  -4.5011
    -4.1129  -4.1129  -3.7050  -3.7050  -3.5500  -3.5500  -3.1074  -3.1074
    -0.6519  -0.6519  -0.5532  -0.5532  -0.4371  -0.4371  -0.3906  -0.3906
     0.0614   0.0614   0.1151   0.1151   0.1420   0.1420   0.1952   0.1952
     0.3439   0.3439   0.5623   0.5623   0.5977   0.5977   0.8169   0.8169
     0.9370   0.9370   0.9707   0.9707   0.9846   0.9846   1.0432   1.0432
     1.2215   1.2215   1.2415   1.2415   1.2757   1.2757   1.2977   1.2977
     1.3710   1.3710   1.3999   1.3999   1.4741   1.4741   1.5211   1.5211
     1.7384   1.7384   1.7725   1.7725   1.8333   1.8333   1.8690   1.8690
     1.9181   1.9181   2.0080   2.0080   2.0333   2.0333   2.1041   2.1041
     2.1343   2.1343   2.3395   2.3395   2.4633   2.4633   2.7506   2.7506

     occupation numbers 
     1.0000   1.0000   1.0000   1.0000   1.0000   1.0000   1.0000   1.0000
     1.0000   1.0000   1.0000   1.0000   1.0000   1.0000   1.0000   1.0000
     1.0000   1.0000   1.0000   1.0000   1.0000   1.0000   1.0000   1.0000
     1.0000   1.0000   1.0000   1.0000   1.0000   1.0000   1.0000   1.0000
     1.0000   1.0000   1.0000   1.0000   1.0000   1.0000   1.0000   1.0000
     1.0000   1.0000   1.0000   1.0000   1.0000   1.0000   1.0000   1.0000
     1.0000   1.0000   1.0000   1.0000   1.0000   1.0000   1.0000   1.0000
     1.0000   1.0000   1.0000   1.0000   1.0000   1.0000   1.0000   1.0000
     1.0000   1.0000   1.0000   1.0000   1.0000   1.0000   1.0000   1.0000
     1.0000   1.0000   1.0000   1.0000   1.0000   1.0000   1.0000   1.0000
     1.0000   1.0000   1.0000   1.0000   1.0000   1.0000   1.0000   1.0000
     1.0000   1.0000   1.0000   1.0000   1.0000   1.0000   1.0000   1.0000
     1.0000   1.0000   1.0000   1.0000   1.0000   1.0000   1.0000   1.0000
     1.0000   1.0000   1.0000   1.0000   1.0000   1.0000   1.0000   1.0000
     1.0000   1.0000   1.0000   1.0000   1.0000   1.0000   1.0000   1.0000
     1.0000   1.0000   1.0000   1.0000   1.0000   1.0000   1.0000   1.0000
     1.0000   1.0000   1.0000   1.0000   1.0000   1.0000   1.0000   1.0000
     1.0000   1.0000   1.0000   1.0000   1.0000   1.0000   1.0000   1.0000
     1.0000   1.0000   1.0000   1.0000   1.0000   1.0000   1.0000   1.0000
     1.0000   1.0000   1.0000   1.0000   1.0000   1.0000   1.0000   1.0000
     1.0000   1.0000   1.0000   1.0000   1.0000   1.0000   1.0000   1.0000
     1.0000   1.0000   1.0000   1.0000   1.0000   1.0000   1.0000   1.0000

          k =-0.2500 0.2461-0.1724 ( 28301 PWs)   bands (ev):

   -18.7998 -18.7998 -18.7996 -18.7996 -18.7995 -18.7995 -18.7992 -18.7992
   -18.7942 -18.7942 -18.7940 -18.7940 -18.7936 -18.7936 -18.7929 -18.7929
   -18.2047 -18.2047 -18.2045 -18.2045 -18.2041 -18.2041 -18.2039 -18.2039
   -17.7623 -17.7623 -17.7622 -17.7622 -17.7618 -17.7618 -17.7614 -17.7614
   -17.7559 -17.7559 -17.7556 -17.7556 -17.7552 -17.7552 -17.7545 -17.7545
   -17.7497 -17.7497 -17.7496 -17.7496 -17.7495 -17.7495 -17.7491 -17.7491
    -9.1681  -9.1681  -9.0500  -9.0500  -9.0108  -9.0108  -8.9155  -8.9155
    -8.8279  -8.8279  -8.8161  -8.8161  -8.8111  -8.8111  -8.7824  -8.7824
    -8.7246  -8.7246  -8.7120  -8.7120  -8.6883  -8.6883  -8.6610  -8.6610
    -6.1465  -6.1465  -6.1431  -6.1431  -6.1408  -6.1408  -6.1379  -6.1379
    -4.5335  -4.5335  -4.5248  -4.5248  -4.5175  -4.5175  -4.5154  -4.5154
    -4.5131  -4.5131  -4.5081  -4.5081  -4.5036  -4.5036  -4.5011  -4.5011
    -4.1129  -4.1129  -3.7050  -3.7050  -3.5500  -3.5500  -3.1074  -3.1074
    -0.6519  -0.6519  -0.5532  -0.5532  -0.4371  -0.4371  -0.3906  -0.3906
     0.0614   0.0614   0.1151   0.1151   0.1420   0.1420   0.1952   0.1952
     0.3439   0.3439   0.5623   0.5623   0.5977   0.5977   0.8169   0.8169
     0.9371   0.9371   0.9707   0.9707   0.9845   0.9845   1.0433   1.0433
     1.2215   1.2215   1.2415   1.2415   1.2757   1.2757   1.2977   1.2977
     1.3710   1.3710   1.3999   1.3999   1.4741   1.4741   1.5210   1.5210
     1.7384   1.7384   1.7725   1.7725   1.8333   1.8333   1.8690   1.8690
     1.9181   1.9181   2.0080   2.0080   2.0332   2.0332   2.1041   2.1041
     2.1343   2.1343   2.3395   2.3395   2.4634   2.4634   2.7506   2.7506

     occupation numbers 
     1.0000   1.0000   1.0000   1.0000   1.0000   1.0000   1.0000   1.0000
     1.0000   1.0000   1.0000   1.0000   1.0000   1.0000   1.0000   1.0000
     1.0000   1.0000   1.0000   1.0000   1.0000   1.0000   1.0000   1.0000
     1.0000   1.0000   1.0000   1.0000   1.0000   1.0000   1.0000   1.0000
     1.0000   1.0000   1.0000   1.0000   1.0000   1.0000   1.0000   1.0000
     1.0000   1.0000   1.0000   1.0000   1.0000   1.0000   1.0000   1.0000
     1.0000   1.0000   1.0000   1.0000   1.0000   1.0000   1.0000   1.0000
     1.0000   1.0000   1.0000   1.0000   1.0000   1.0000   1.0000   1.0000
     1.0000   1.0000   1.0000   1.0000   1.0000   1.0000   1.0000   1.0000
     1.0000   1.0000   1.0000   1.0000   1.0000   1.0000   1.0000   1.0000
     1.0000   1.0000   1.0000   1.0000   1.0000   1.0000   1.0000   1.0000
     1.0000   1.0000   1.0000   1.0000   1.0000   1.0000   1.0000   1.0000
     1.0000   1.0000   1.0000   1.0000   1.0000   1.0000   1.0000   1.0000
     1.0000   1.0000   1.0000   1.0000   1.0000   1.0000   1.0000   1.0000
     1.0000   1.0000   1.0000   1.0000   1.0000   1.0000   1.0000   1.0000
     1.0000   1.0000   1.0000   1.0000   1.0000   1.0000   1.0000   1.0000
     1.0000   1.0000   1.0000   1.0000   1.0000   1.0000   1.0000   1.0000
     1.0000   1.0000   1.0000   1.0000   1.0000   1.0000   1.0000   1.0000
     1.0000   1.0000   1.0000   1.0000   1.0000   1.0000   1.0000   1.0000
     1.0000   1.0000   1.0000   1.0000   1.0000   1.0000   1.0000   1.0000
     1.0000   1.0000   1.0000   1.0000   1.0000   1.0000   1.0000   1.0000
     1.0000   1.0000   1.0000   1.0000   1.0000   1.0000   1.0000   1.0000

     highest occupied level (ev):     2.7506

!    total energy              =   -1268.03878733 Ry
     Harris-Foulkes estimate   =   -1268.03878649 Ry
     estimated scf accuracy    <       0.00000050 Ry

     The total energy is the sum of the following terms:

     one-electron contribution =    -489.43095943 Ry
     hartree contribution      =     314.81503128 Ry
     xc contribution           =    -462.79066938 Ry
     ewald contribution        =    -630.63218981 Ry

     convergence has been achieved in   7 iterations

     Forces acting on atoms (Ry/au):

     atom    1 type  1   force =     0.00023267   -0.00019197    0.00000000
     atom    2 type  1   force =     0.00023469    0.00020504   -0.00000000
     atom    3 type  1   force =    -0.00023267    0.00019197    0.00000000
     atom    4 type  1   force =    -0.00023469   -0.00020504   -0.00000000
     atom    5 type  2   force =     0.00000000    0.00000000    0.00000000
     atom    6 type  2   force =     0.00000000    0.00000000    0.00000000
     atom    7 type  2   force =     0.00000000    0.00000000   -0.00000000
     atom    8 type  2   force =     0.00000000    0.00000000    0.00000000
     atom    9 type  3   force =    -0.00051543    0.00019835    0.00008597
     atom   10 type  3   force =     0.00051543   -0.00019835    0.00008597
     atom   11 type  3   force =    -0.00051543    0.00019835   -0.00008597
     atom   12 type  3   force =     0.00051543   -0.00019835   -0.00008597
     atom   13 type  3   force =    -0.00055798    0.00057002    0.00000000
     atom   14 type  3   force =    -0.00051706   -0.00019906   -0.00008692
     atom   15 type  3   force =     0.00055813    0.00056847   -0.00000000
     atom   16 type  3   force =     0.00051706    0.00019906    0.00008692
     atom   17 type  3   force =     0.00051706    0.00019906   -0.00008692
     atom   18 type  3   force =     0.00055798   -0.00057002    0.00000000
     atom   19 type  3   force =    -0.00055813   -0.00056847    0.00000000
     atom   20 type  3   force =    -0.00051706   -0.00019906    0.00008692
     The non-local contrib.  to forces
     atom    1 type  1   force =    -0.00089596   -0.00468850    0.00000000
     atom    2 type  1   force =    -0.00090268    0.00467848    0.00000000
     atom    3 type  1   force =     0.00089596    0.00468850    0.00000000
     atom    4 type  1   force =     0.00090268   -0.00467848    0.00000000
     atom    5 type  2   force =     0.00000000    0.00000000    0.00000000
     atom    6 type  2   force =     0.00000000    0.00000000    0.00000000
     atom    7 type  2   force =     0.00000000    0.00000000   -0.00000000
     atom    8 type  2   force =     0.00000000    0.00000000    0.00000000
     atom    9 type  3   force =     0.01048342    0.00985439    0.00483895
     atom   10 type  3   force =    -0.01048342   -0.00985439    0.00483895
     atom   11 type  3   force =     0.01048342    0.00985439   -0.00483895
     atom   12 type  3   force =    -0.01048342   -0.00985439   -0.00483895
     atom   13 type  3   force =    -0.00117708   -0.00426295    0.00000000
     atom   14 type  3   force =     0.01048749   -0.00985235   -0.00483941
     atom   15 type  3   force =     0.00117514   -0.00426404    0.00000000
     atom   16 type  3   force =    -0.01048749    0.00985235    0.00483941
     atom   17 type  3   force =    -0.01048749    0.00985235   -0.00483941
     atom   18 type  3   force =     0.00117708    0.00426295    0.00000000
     atom   19 type  3   force =    -0.00117514    0.00426404    0.00000000
     atom   20 type  3   force =     0.01048749   -0.00985235    0.00483941
     The ionic contribution  to forces
     atom    1 type  1   force =    -0.15384217   -0.81101301   -0.00000000
     atom    2 type  1   force =    -0.15384217    0.81101301    0.00000000
     atom    3 type  1   force =     0.15384217    0.81101301    0.00000000
     atom    4 type  1   force =     0.15384217   -0.81101301    0.00000000
     atom    5 type  2   force =     0.00000000   -0.00000000   -0.00000000
     atom    6 type  2   force =    -0.00000000   -0.00000000    0.00000000
     atom    7 type  2   force =    -0.00000000    0.00000000   -0.00000000
     atom    8 type  2   force =    -0.00000000   -0.00000000    0.00000000
     atom    9 type  3   force =    -0.70474196   -0.63043970   -0.48733617
     atom   10 type  3   force =     0.70474196    0.63043970   -0.48733617
     atom   11 type  3   force =    -0.70474196   -0.63043970    0.48733617
     atom   12 type  3   force =     0.70474196    0.63043970    0.48733617
     atom   13 type  3   force =    -0.06288103    0.21897472    0.00000000
     atom   14 type  3   force =    -0.70474196    0.63043970    0.48733617
     atom   15 type  3   force =     0.06288103    0.21897472   -0.00000000
     atom   16 type  3   force =     0.70474196   -0.63043970   -0.48733617
     atom   17 type  3   force =     0.70474196   -0.63043970    0.48733617
     atom   18 type  3   force =     0.06288103   -0.21897472   -0.00000000
     atom   19 type  3   force =    -0.06288103   -0.21897472    0.00000000
     atom   20 type  3   force =    -0.70474196    0.63043970   -0.48733617
     The local contribution  to forces
     atom    1 type  1   force =     0.15499024    0.81549454   -0.00000000
     atom    2 type  1   force =     0.15500204   -0.81545287   -0.00000000
     atom    3 type  1   force =    -0.15499024   -0.81549454   -0.00000000
     atom    4 type  1   force =    -0.15500204    0.81545287   -0.00000000
     atom    5 type  2   force =     0.00000000   -0.00000000   -0.00000000
     atom    6 type  2   force =    -0.00000000   -0.00000000   -0.00000000
     atom    7 type  2   force =    -0.00000000   -0.00000000   -0.00000000
     atom    8 type  2   force =    -0.00000000   -0.00000000   -0.00000000
     atom    9 type  3   force =     0.69510958    0.62213832    0.48306107
     atom   10 type  3   force =    -0.69510958   -0.62213832    0.48306107
     atom   11 type  3   force =     0.69510958    0.62213832   -0.48306107
     atom   12 type  3   force =    -0.69510958   -0.62213832   -0.48306107
     atom   13 type  3   force =     0.06333348   -0.21432485   -0.00000000
     atom   14 type  3   force =     0.69509345   -0.62215922   -0.48306543
     atom   15 type  3   force =    -0.06333307   -0.21432745    0.00000000
     atom   16 type  3   force =    -0.69509345    0.62215922    0.48306543
     atom   17 type  3   force =    -0.69509345    0.62215922   -0.48306543
     atom   18 type  3   force =    -0.06333348    0.21432485    0.00000000
     atom   19 type  3   force =     0.06333307    0.21432745   -0.00000000
     atom   20 type  3   force =     0.69509345   -0.62215922    0.48306543
     The core correction contribution to forces
     atom    1 type  1   force =    -0.00000380    0.00010923    0.00000000
     atom    2 type  1   force =    -0.00000171   -0.00010445   -0.00000000
     atom    3 type  1   force =     0.00000380   -0.00010923   -0.00000000
     atom    4 type  1   force =     0.00000171    0.00010445   -0.00000000
     atom    5 type  2   force =    -0.00000000   -0.00000000   -0.00000000
     atom    6 type  2   force =     0.00000000   -0.00000000   -0.00000000
     atom    7 type  2   force =     0.00000000   -0.00000000   -0.00000000
     atom    8 type  2   force =     0.00000000   -0.00000000   -0.00000000
     atom    9 type  3   force =    -0.00134145   -0.00135708   -0.00049011
     atom   10 type  3   force =     0.00134145    0.00135708   -0.00049011
     atom   11 type  3   force =    -0.00134145   -0.00135708    0.00049011
     atom   12 type  3   force =     0.00134145    0.00135708    0.00049011
     atom   13 type  3   force =     0.00017183    0.00020986    0.00000000
     atom   14 type  3   force =    -0.00134259    0.00135634    0.00049002
     atom   15 type  3   force =    -0.00017113    0.00020986    0.00000000
     atom   16 type  3   force =     0.00134259   -0.00135634   -0.00049002
     atom   17 type  3   force =     0.00134259   -0.00135634    0.00049002
     atom   18 type  3   force =    -0.00017183   -0.00020986    0.00000000
     atom   19 type  3   force =     0.00017113   -0.00020986   -0.00000000
     atom   20 type  3   force =    -0.00134259    0.00135634   -0.00049002
     The Hubbard contrib.    to forces
     atom    1 type  1   force =     0.00000000    0.00000000    0.00000000
     atom    2 type  1   force =     0.00000000    0.00000000    0.00000000
     atom    3 type  1   force =     0.00000000    0.00000000    0.00000000
     atom    4 type  1   force =     0.00000000    0.00000000    0.00000000
     atom    5 type  2   force =     0.00000000    0.00000000    0.00000000
     atom    6 type  2   force =     0.00000000    0.00000000    0.00000000
     atom    7 type  2   force =     0.00000000    0.00000000    0.00000000
     atom    8 type  2   force =     0.00000000    0.00000000    0.00000000
     atom    9 type  3   force =     0.00000000    0.00000000    0.00000000
     atom   10 type  3   force =     0.00000000    0.00000000    0.00000000
     atom   11 type  3   force =     0.00000000    0.00000000    0.00000000
     atom   12 type  3   force =     0.00000000    0.00000000    0.00000000
     atom   13 type  3   force =     0.00000000    0.00000000    0.00000000
     atom   14 type  3   force =     0.00000000    0.00000000    0.00000000
     atom   15 type  3   force =     0.00000000    0.00000000    0.00000000
     atom   16 type  3   force =     0.00000000    0.00000000    0.00000000
     atom   17 type  3   force =     0.00000000    0.00000000    0.00000000
     atom   18 type  3   force =     0.00000000    0.00000000    0.00000000
     atom   19 type  3   force =     0.00000000    0.00000000    0.00000000
     atom   20 type  3   force =     0.00000000    0.00000000    0.00000000
     The SCF correction term to forces
     atom    1 type  1   force =    -0.00001564   -0.00009423    0.00000000
     atom    2 type  1   force =    -0.00002079    0.00007088    0.00000000
     atom    3 type  1   force =     0.00001564    0.00009423   -0.00000000
     atom    4 type  1   force =     0.00002079   -0.00007088    0.00000000
     atom    5 type  2   force =     0.00000000   -0.00000000    0.00000000
     atom    6 type  2   force =    -0.00000000   -0.00000000   -0.00000000
     atom    7 type  2   force =     0.00000000    0.00000000    0.00000000
     atom    8 type  2   force =     0.00000000   -0.00000000    0.00000000
     atom    9 type  3   force =    -0.00002503    0.00000242    0.00001224
     atom   10 type  3   force =     0.00002503   -0.00000242    0.00001224
     atom   11 type  3   force =    -0.00002503    0.00000242   -0.00001224
     atom   12 type  3   force =     0.00002503   -0.00000242   -0.00001224
     atom   13 type  3   force =    -0.00000518   -0.00002677   -0.00000000
     atom   14 type  3   force =    -0.00001345    0.00001648   -0.00000826
     atom   15 type  3   force =     0.00000616   -0.00002462   -0.00000000
     atom   16 type  3   force =     0.00001345   -0.00001648    0.00000826
     atom   17 type  3   force =     0.00001345   -0.00001648   -0.00000826
     atom   18 type  3   force =     0.00000518    0.00002677   -0.00000000
     atom   19 type  3   force =    -0.00000616    0.00002462   -0.00000000
     atom   20 type  3   force =    -0.00001345    0.00001648    0.00000826

     Total force =     0.002329     Total SCF correction =     0.000193


     entering subroutine stress ...

     Message from routine stres:
     noncollinear stress + GGA not implemented

     Writing output data file CsSnI3.save

     init_run     :      9.50s CPU      7.87s WALL (       1 calls)
     electrons    :    114.61s CPU     75.32s WALL (       1 calls)
     forces       :     14.65s CPU     13.75s WALL (       1 calls)

     Called by init_run:
     wfcinit      :      3.34s CPU      2.63s WALL (       1 calls)
     wfcinit:atom :      0.02s CPU      0.10s WALL (       2 calls)
     wfcinit:wfcr :      3.26s CPU      2.37s WALL (       2 calls)
     potinit      :      0.57s CPU      0.59s WALL (       1 calls)

     Called by electrons:
     c_bands      :     69.18s CPU     41.98s WALL (       8 calls)
     sum_band     :     23.59s CPU     15.70s WALL (       8 calls)
     v_of_rho     :      0.51s CPU      0.39s WALL (       8 calls)
     v_h          :      0.06s CPU      0.04s WALL (       8 calls)
     v_xc         :      0.54s CPU      0.36s WALL (       9 calls)
     newd         :     23.44s CPU     18.60s WALL (       8 calls)
     mix_rho      :      0.36s CPU      0.37s WALL (       8 calls)

     Called by c_bands:
     init_us_2    :      0.32s CPU      0.23s WALL (      36 calls)
     cegterg      :     67.19s CPU     40.04s WALL (      16 calls)

     Called by sum_band:
     sum_band:bec :      2.24s CPU      1.48s WALL (      16 calls)
     addusdens    :     12.31s CPU      9.09s WALL (       8 calls)

     Called by *egterg:
     h_psi        :     44.03s CPU     24.11s WALL (      69 calls)
     s_psi        :      6.67s CPU      4.85s WALL (      69 calls)
     g_psi        :      0.11s CPU      0.07s WALL (      51 calls)
     cdiaghg      :      8.12s CPU      5.02s WALL (      65 calls)
     cegterg:over :      4.84s CPU      3.37s WALL (      51 calls)
     cegterg:upda :      2.02s CPU      1.09s WALL (      51 calls)
     cegterg:last :      0.85s CPU      0.47s WALL (      16 calls)

     Called by h_psi:
     h_psi:pot    :     43.73s CPU     23.89s WALL (      69 calls)
     h_psi:calbec :      5.36s CPU      3.11s WALL (      69 calls)
     vloc_psi     :     32.73s CPU     17.12s WALL (      69 calls)
     add_vuspsi   :      5.64s CPU      3.61s WALL (      69 calls)

     General routines
     calbec       :      8.02s CPU      4.69s WALL (      93 calls)
     fft          :      2.20s CPU      1.70s WALL (     253 calls)
     ffts         :      0.53s CPU      0.41s WALL (      64 calls)
     fftw         :     35.08s CPU     18.33s WALL (   37392 calls)
     interpolate  :      0.90s CPU      0.64s WALL (      64 calls)

     Parallel routines
     fft_scatter  :     26.55s CPU     14.59s WALL (   37709 calls)

     PWSCF        :  2m22.50s CPU     1m43.60s WALL


   This run was terminated on:  16:10:21  31Jan2021            

=------------------------------------------------------------------------------=
   JOB DONE.
=------------------------------------------------------------------------------=
