
     Program PWSCF v.6.7MaX starts on 15Jan2021 at 11:37:51 

     This program is part of the open-source Quantum ESPRESSO suite
     for quantum simulation of materials; please cite
         "P. Giannozzi et al., J. Phys.:Condens. Matter 21 395502 (2009);
         "P. Giannozzi et al., J. Phys.:Condens. Matter 29 465901 (2017);
          URL http://www.quantum-espresso.org", 
     in publications or presentations arising from this work. More details at
     http://www.quantum-espresso.org/quote

     Parallel version (MPI), running on    32 processors

     MPI processes distributed on     1 nodes
     R & G space division:  proc/nbgrp/npool/nimage =      32
     Waiting for input...
     Reading input from standard input

     Current dimensions of program PWSCF are:
     Max number of different atomic species (ntypx) = 10
     Max number of k-points (npk) =  40000
     Max angular momentum in pseudopotentials (lmaxx) =  3
     file Sn.pbe-dn-kjpaw_psl.1.0.0.UPF: wavefunction(s)  5S 5P 4D renormalized
     file I.pbe-n-kjpaw_psl.1.0.0.UPF: wavefunction(s)  5S renormalized
     file Cs.pbe-spn-kjpaw_psl.1.0.0.UPF: wavefunction(s)  5S 6S renormalized

     Subspace diagonalization in iterative solution of the eigenvalue problem:
     a serial algorithm will be used

     Message from routine setup:
     using ibrav=0 with symmetry is DISCOURAGED, use correct ibrav instead

     Parallelization info
     --------------------
     sticks:   dense  smooth     PW     G-vecs:    dense   smooth      PW
     Min          73      73     20                 6799     6799    1010
     Max          74      74     21                 6814     6814    1025
     Sum        2361    2361    665               217771   217771   32573


     Title: 
     CsSnI3                                                                     


     bravais-lattice index     =            0
     lattice parameter (alat)  =       9.1317  a.u.
     unit-cell volume          =    6370.5385 (a.u.)^3
     number of atoms/cell      =           20
     number of atomic types    =            3
     number of electrons       =       176.00
     number of Kohn-Sham states=           89
     kinetic-energy cutoff     =      40.0000  Ry
     charge density cutoff     =     160.0000  Ry
     scf convergence threshold =      1.0E-06
     mixing beta               =       0.7000
     number of iterations used =            8  plain     mixing
     Exchange-correlation= SLA  PW   PBX  PBC
                           (   1   4   3   4   0   0   0)

     celldm(1)=   9.131705  celldm(2)=   0.000000  celldm(3)=   0.000000
     celldm(4)=   0.000000  celldm(5)=   0.000000  celldm(6)=   0.000000

     crystal axes: (cart. coord. in units of alat)
               a(1) = (   1.000000   0.000000   0.000000 )  
               a(2) = (   0.000000   2.227728   0.000000 )  
               a(3) = (   0.000000   0.000000   3.755420 )  

     reciprocal axes: (cart. coord. in units 2 pi/alat)
               b(1) = (  1.000000  0.000000  0.000000 )  
               b(2) = (  0.000000  0.448888  0.000000 )  
               b(3) = (  0.000000  0.000000  0.266282 )  


     PseudoPot. # 1 for Sn read from file:
     ../../../pseudo/Sn.pbe-dn-kjpaw_psl.1.0.0.UPF
     MD5 check sum: 67f11dec737d427557dc41ea34975807
     Pseudo is Projector augmented-wave + core cor, Zval = 14.0
     Generated using &quot;atomic&quot; code by A. Dal Corso  v.6.3
     Shape of augmentation charge: PSQ
     Using radial grid of 1243 points,  6 beta functions with: 
                l(1) =   0
                l(2) =   0
                l(3) =   1
                l(4) =   1
                l(5) =   2
                l(6) =   2
     Q(r) pseudized with 0 coefficients 


     PseudoPot. # 2 for I  read from file:
     ../../../pseudo/I.pbe-n-kjpaw_psl.1.0.0.UPF
     MD5 check sum: cd3d296c3308a581e1559a0c8a554cb5
     Pseudo is Projector augmented-wave + core cor, Zval =  7.0
     Generated using &quot;atomic&quot; code by A. Dal Corso  v.6.3
     Shape of augmentation charge: PSQ
     Using radial grid of 1247 points,  6 beta functions with: 
                l(1) =   0
                l(2) =   0
                l(3) =   1
                l(4) =   1
                l(5) =   2
                l(6) =   2
     Q(r) pseudized with 0 coefficients 


     PseudoPot. # 3 for Cs read from file:
     ../../../pseudo/Cs.pbe-spn-kjpaw_psl.1.0.0.UPF
     MD5 check sum: b82c75cc2e1f4ff73b6412cffeb9c584
     Pseudo is Projector augmented-wave + core cor, Zval =  9.0
     Generated using &quot;atomic&quot; code by A. Dal Corso  v.6.4.1
     Shape of augmentation charge: PSQ
     Using radial grid of 1251 points,  9 beta functions with: 
                l(1) =   0
                l(2) =   0
                l(3) =   0
                l(4) =   1
                l(5) =   1
                l(6) =   2
                l(7) =   2
                l(8) =   3
                l(9) =   3
     Q(r) pseudized with 0 coefficients 


     atomic species   valence    mass     pseudopotential
        Sn            14.00   118.70000     Sn( 1.00)
        I              7.00   126.90000     I ( 1.00)
        Cs             9.00   132.90000     Cs( 1.00)

      8 Sym. Ops., with inversion, found ( 6 have fractional translation)


                                    s                        frac. trans.

      isym =  1     identity                                     

 cryst.   s( 1) = (     1          0          0      )
                  (     0          1          0      )
                  (     0          0          1      )

 cart.    s( 1) = (  1.0000000  0.0000000  0.0000000 )
                  (  0.0000000  1.0000000  0.0000000 )
                  (  0.0000000  0.0000000  1.0000000 )


      isym =  2     180 deg rotation - cart. axis [0,0,1]        

 cryst.   s( 2) = (    -1          0          0      )    f =(  0.0000000 )
                  (     0         -1          0      )       (  0.5000000 )
                  (     0          0          1      )       (  0.5000000 )

 cart.    s( 2) = ( -1.0000000  0.0000000  0.0000000 )    f =(  0.0000000 )
                  (  0.0000000 -1.0000000  0.0000000 )       (  1.1138638 )
                  (  0.0000000  0.0000000  1.0000000 )       (  1.8777098 )


      isym =  3     180 deg rotation - cart. axis [0,1,0]        

 cryst.   s( 3) = (    -1          0          0      )    f =(  0.5000000 )
                  (     0          1          0      )       ( -0.5000000 )
                  (     0          0         -1      )       ( -0.5000000 )

 cart.    s( 3) = ( -1.0000000  0.0000000  0.0000000 )    f =(  0.5000000 )
                  (  0.0000000  1.0000000  0.0000000 )       ( -1.1138638 )
                  (  0.0000000  0.0000000 -1.0000000 )       ( -1.8777098 )


      isym =  4     180 deg rotation - cart. axis [1,0,0]        

 cryst.   s( 4) = (     1          0          0      )    f =( -0.5000000 )
                  (     0         -1          0      )       (  0.0000000 )
                  (     0          0         -1      )       (  0.0000000 )

 cart.    s( 4) = (  1.0000000  0.0000000  0.0000000 )    f =( -0.5000000 )
                  (  0.0000000 -1.0000000  0.0000000 )       (  0.0000000 )
                  (  0.0000000  0.0000000 -1.0000000 )       (  0.0000000 )


      isym =  5     inversion                                    

 cryst.   s( 5) = (    -1          0          0      )
                  (     0         -1          0      )
                  (     0          0         -1      )

 cart.    s( 5) = ( -1.0000000  0.0000000  0.0000000 )
                  (  0.0000000 -1.0000000  0.0000000 )
                  (  0.0000000  0.0000000 -1.0000000 )


      isym =  6     inv. 180 deg rotation - cart. axis [0,0,1]   

 cryst.   s( 6) = (     1          0          0      )    f =(  0.0000000 )
                  (     0          1          0      )       ( -0.5000000 )
                  (     0          0         -1      )       ( -0.5000000 )

 cart.    s( 6) = (  1.0000000  0.0000000  0.0000000 )    f =(  0.0000000 )
                  (  0.0000000  1.0000000  0.0000000 )       ( -1.1138638 )
                  (  0.0000000  0.0000000 -1.0000000 )       ( -1.8777098 )


      isym =  7     inv. 180 deg rotation - cart. axis [0,1,0]   

 cryst.   s( 7) = (     1          0          0      )    f =( -0.5000000 )
                  (     0         -1          0      )       (  0.5000000 )
                  (     0          0          1      )       (  0.5000000 )

 cart.    s( 7) = (  1.0000000  0.0000000  0.0000000 )    f =( -0.5000000 )
                  (  0.0000000 -1.0000000  0.0000000 )       (  1.1138638 )
                  (  0.0000000  0.0000000  1.0000000 )       (  1.8777098 )


      isym =  8     inv. 180 deg rotation - cart. axis [1,0,0]   

 cryst.   s( 8) = (    -1          0          0      )    f =(  0.5000000 )
                  (     0          1          0      )       (  0.0000000 )
                  (     0          0          1      )       (  0.0000000 )

 cart.    s( 8) = ( -1.0000000  0.0000000  0.0000000 )    f =(  0.5000000 )
                  (  0.0000000  1.0000000  0.0000000 )       (  0.0000000 )
                  (  0.0000000  0.0000000  1.0000000 )       (  0.0000000 )


   Cartesian axes

     site n.     atom                  positions (alat units)
         1           Cs  tau(   1) = (   0.2500000   0.1859640   2.5168147  )
         2           Cs  tau(   2) = (   0.7500000   2.0417636   1.2386050  )
         3           Cs  tau(   3) = (   0.2500000   1.2998278   3.1163149  )
         4           Cs  tau(   4) = (   0.7500000   0.9278998   0.6391048  )
         5           Sn  tau(   5) = (   0.2500000   0.7615710   1.6485466  )
         6           Sn  tau(   6) = (   0.7500000   1.4661567   2.1068731  )
         7           Sn  tau(   7) = (   0.2500000   1.8754348   0.2291632  )
         8           Sn  tau(   8) = (   0.7500000   0.3522928   3.5262565  )
         9           I   tau(   9) = (   0.7500000   0.0581437   0.4202578  )
        10           I   tau(  10) = (   0.2500000   2.1695839   3.3351619  )
        11           I   tau(  11) = (   0.7500000   1.1720075   1.4574521  )
        12           I   tau(  12) = (   0.2500000   1.0557201   2.2979676  )
        13           I   tau(  13) = (   0.7500000   0.6531118   2.9738192  )
        14           I   tau(  14) = (   0.2500000   1.5746158   0.7816005  )
        15           I   tau(  15) = (   0.7500000   1.7669756   2.6593103  )
        16           I   tau(  16) = (   0.2500000   0.4607520   1.0961094  )
        17           I   tau(  17) = (   0.7500000   0.3753632   1.8734812  )
        18           I   tau(  18) = (   0.2500000   1.8523644   1.8819384  )
        19           I   tau(  19) = (   0.7500000   1.4892270   0.0042286  )
        20           I   tau(  20) = (   0.2500000   0.7385006   3.7511911  )

   Crystallographic axes

     site n.     atom                  positions (cryst. coord.)
         1           Cs  tau(   1) = (  0.2500000  0.0834770  0.6701820  )
         2           Cs  tau(   2) = (  0.7500000  0.9165230  0.3298180  )
         3           Cs  tau(   3) = (  0.2500000  0.5834770  0.8298180  )
         4           Cs  tau(   4) = (  0.7500000  0.4165230  0.1701820  )
         5           Sn  tau(   5) = (  0.2500000  0.3418600  0.4389780  )
         6           Sn  tau(   6) = (  0.7500000  0.6581400  0.5610220  )
         7           Sn  tau(   7) = (  0.2500000  0.8418600  0.0610220  )
         8           Sn  tau(   8) = (  0.7500000  0.1581400  0.9389780  )
         9           I   tau(   9) = (  0.7500000  0.0261000  0.1119070  )
        10           I   tau(  10) = (  0.2500000  0.9739000  0.8880930  )
        11           I   tau(  11) = (  0.7500000  0.5261000  0.3880930  )
        12           I   tau(  12) = (  0.2500000  0.4739000  0.6119070  )
        13           I   tau(  13) = (  0.7500000  0.2931740  0.7918740  )
        14           I   tau(  14) = (  0.2500000  0.7068260  0.2081260  )
        15           I   tau(  15) = (  0.7500000  0.7931740  0.7081260  )
        16           I   tau(  16) = (  0.2500000  0.2068260  0.2918740  )
        17           I   tau(  17) = (  0.7500000  0.1684960  0.4988740  )
        18           I   tau(  18) = (  0.2500000  0.8315040  0.5011260  )
        19           I   tau(  19) = (  0.7500000  0.6684960  0.0011260  )
        20           I   tau(  20) = (  0.2500000  0.3315040  0.9988740  )

     number of k points=     8
                       cart. coord. in units 2pi/alat
        k(    1) = (   0.0000000   0.0000000   0.0000000), wk =   0.2500000
        k(    2) = (   0.0000000   0.0000000  -0.1331409), wk =   0.2500000
        k(    3) = (   0.0000000  -0.2244440   0.0000000), wk =   0.2500000
        k(    4) = (   0.0000000  -0.2244440  -0.1331409), wk =   0.2500000
        k(    5) = (  -0.5000000   0.0000000   0.0000000), wk =   0.2500000
        k(    6) = (  -0.5000000   0.0000000  -0.1331409), wk =   0.2500000
        k(    7) = (  -0.5000000  -0.2244440   0.0000000), wk =   0.2500000
        k(    8) = (  -0.5000000  -0.2244440  -0.1331409), wk =   0.2500000

                       cryst. coord.
        k(    1) = (   0.0000000   0.0000000   0.0000000), wk =   0.2500000
        k(    2) = (   0.0000000   0.0000000  -0.5000000), wk =   0.2500000
        k(    3) = (   0.0000000  -0.5000000   0.0000000), wk =   0.2500000
        k(    4) = (   0.0000000  -0.5000000  -0.5000000), wk =   0.2500000
        k(    5) = (  -0.5000000   0.0000000   0.0000000), wk =   0.2500000
        k(    6) = (  -0.5000000   0.0000000  -0.5000000), wk =   0.2500000
        k(    7) = (  -0.5000000  -0.5000000   0.0000000), wk =   0.2500000
        k(    8) = (  -0.5000000  -0.5000000  -0.5000000), wk =   0.2500000

     Dense  grid:   217771 G-vectors     FFT dimensions: (  40,  90, 144)

     Dynamical RAM for                 wfc:       1.15 MB

     Dynamical RAM for     wfc (w. buffer):      10.39 MB

     Dynamical RAM for           str. fact:       0.31 MB

     Dynamical RAM for           local pot:       0.00 MB

     Dynamical RAM for          nlocal pot:       5.45 MB

     Dynamical RAM for                qrad:       9.14 MB

     Dynamical RAM for          rho,v,vnew:       0.72 MB

     Dynamical RAM for               rhoin:       0.24 MB

     Dynamical RAM for            rho*nmix:       1.66 MB

     Dynamical RAM for           G-vectors:       0.44 MB

     Dynamical RAM for          h,s,v(r/c):       1.45 MB

     Dynamical RAM for          <psi|beta>:       0.57 MB

     Dynamical RAM for                 psi:       2.31 MB

     Dynamical RAM for                hpsi:       2.31 MB

     Dynamical RAM for                spsi:       2.31 MB

     Dynamical RAM for      wfcinit/wfcrot:       2.95 MB

     Dynamical RAM for           addusdens:      62.25 MB

     Dynamical RAM for          addusforce:      64.74 MB

     Dynamical RAM for         addusstress:      63.80 MB

     Estimated static dynamical RAM per process >      29.46 MB

     Estimated max dynamical RAM per process >      94.19 MB

     Estimated total dynamical RAM >       2.94 GB

     Initial potential from superposition of free atoms

     starting charge  175.83511, renormalised to  176.00000
     Starting wfcs are  104 randomized atomic wfcs
     Checking if some PAW data can be deallocated... 
       PAW data deallocated on   24 nodes for type:  1
       PAW data deallocated on   16 nodes for type:  2
       PAW data deallocated on   24 nodes for type:  3

     total cpu time spent up to now is       81.0 secs

     Self-consistent Calculation

     iteration #  1     ecut=    40.00 Ry     beta= 0.70
     Davidson diagonalization with overlap
     ethr =  1.00E-02,  avg # of iterations =  2.0

     Threshold (ethr) on eigenvalues was too large:
     Diagonalizing with lowered threshold

     Davidson diagonalization with overlap
     ethr =  3.15E-04,  avg # of iterations =  4.0

     total cpu time spent up to now is      406.2 secs

     total energy              =   -7979.33395913 Ry
     estimated scf accuracy    <       0.45321979 Ry

     iteration #  2     ecut=    40.00 Ry     beta= 0.70
     Davidson diagonalization with overlap
     ethr =  2.58E-04,  avg # of iterations =  4.2

     total cpu time spent up to now is      608.0 secs

     total energy              =   -7979.43356073 Ry
     estimated scf accuracy    <       0.55870584 Ry

     iteration #  3     ecut=    40.00 Ry     beta= 0.70
     Davidson diagonalization with overlap
     ethr =  2.58E-04,  avg # of iterations =  4.2

     total cpu time spent up to now is      779.8 secs

     total energy              =   -7979.54003145 Ry
     estimated scf accuracy    <       0.01436405 Ry

     iteration #  4     ecut=    40.00 Ry     beta= 0.70
     Davidson diagonalization with overlap
     ethr =  8.16E-06,  avg # of iterations =  8.8

     total cpu time spent up to now is     1044.6 secs

     total energy              =   -7979.55260318 Ry
     estimated scf accuracy    <       0.00452945 Ry

     iteration #  5     ecut=    40.00 Ry     beta= 0.70
     Davidson diagonalization with overlap
     ethr =  2.57E-06,  avg # of iterations =  5.1

     total cpu time spent up to now is     1212.7 secs

     total energy              =   -7979.55306524 Ry
     estimated scf accuracy    <       0.00078886 Ry

     iteration #  6     ecut=    40.00 Ry     beta= 0.70
     Davidson diagonalization with overlap
     ethr =  4.48E-07,  avg # of iterations =  5.0

     total cpu time spent up to now is     1430.4 secs

     total energy              =   -7979.55340798 Ry
     estimated scf accuracy    <       0.00013628 Ry

     iteration #  7     ecut=    40.00 Ry     beta= 0.70
     Davidson diagonalization with overlap
     ethr =  7.74E-08,  avg # of iterations =  4.0

     total cpu time spent up to now is     1601.8 secs

     total energy              =   -7979.55343942 Ry
     estimated scf accuracy    <       0.00001175 Ry

     iteration #  8     ecut=    40.00 Ry     beta= 0.70
     Davidson diagonalization with overlap
     ethr =  6.67E-09,  avg # of iterations =  6.0

     total cpu time spent up to now is     1869.8 secs

     total energy              =   -7979.55343885 Ry
     estimated scf accuracy    <       0.00002136 Ry

     iteration #  9     ecut=    40.00 Ry     beta= 0.70
     Davidson diagonalization with overlap
     ethr =  6.67E-09,  avg # of iterations =  5.0

     total cpu time spent up to now is     2077.4 secs

     total energy              =   -7979.55344539 Ry
     estimated scf accuracy    <       0.00000396 Ry

     iteration # 10     ecut=    40.00 Ry     beta= 0.70
     Davidson diagonalization with overlap
     ethr =  2.25E-09,  avg # of iterations =  2.0

     total cpu time spent up to now is     2225.7 secs

     total energy              =   -7979.55344481 Ry
     estimated scf accuracy    <       0.00000175 Ry

     iteration # 11     ecut=    40.00 Ry     beta= 0.70
     Davidson diagonalization with overlap
     ethr =  9.93E-10,  avg # of iterations =  5.5

     total cpu time spent up to now is     2415.4 secs

     End of self-consistent calculation

          k = 0.0000 0.0000 0.0000 ( 27247 PWs)   bands (ev):

   -17.8680 -17.8679 -17.8672 -17.8670 -17.8610 -17.8603 -17.8600 -17.8593
   -17.8574 -17.8568 -17.8564 -17.8560 -17.8439 -17.8434 -17.8422 -17.8415
   -17.8363 -17.8361 -17.8357 -17.8353 -17.7873 -17.7871 -17.7864 -17.7862
    -8.7984  -8.7741  -8.5921  -8.5302  -8.4429  -8.4331  -8.4131  -8.4027
    -8.2761  -8.2527  -8.2349  -8.1920  -4.6163  -4.6153  -4.6128  -4.6061
    -4.5975  -4.5707  -4.5542  -4.5525  -4.5460  -4.5444  -4.5424  -4.5396
    -2.8839  -2.8590  -2.8209  -2.7402   0.1266   0.3282   0.7562   0.8924
     0.9070   0.9886   1.1148   1.1260   1.2160   1.2820   1.3268   1.3351
     1.3363   1.5576   1.6363   1.7337   1.7828   1.7994   1.8160   1.8221
     1.8269   1.8411   1.9818   2.0661   2.0717   2.1761   2.2088   2.2249
     2.2373   2.2392   2.3161   2.3193   2.3843   2.4814   2.6292   2.9276
     5.3046

     occupation numbers 
     1.0000   1.0000   1.0000   1.0000   1.0000   1.0000   1.0000   1.0000
     1.0000   1.0000   1.0000   1.0000   1.0000   1.0000   1.0000   1.0000
     1.0000   1.0000   1.0000   1.0000   1.0000   1.0000   1.0000   1.0000
     1.0000   1.0000   1.0000   1.0000   1.0000   1.0000   1.0000   1.0000
     1.0000   1.0000   1.0000   1.0000   1.0000   1.0000   1.0000   1.0000
     1.0000   1.0000   1.0000   1.0000   1.0000   1.0000   1.0000   1.0000
     1.0000   1.0000   1.0000   1.0000   1.0000   1.0000   1.0000   1.0000
     1.0000   1.0000   1.0000   1.0000   1.0000   1.0000   1.0000   1.0000
     1.0000   1.0000   1.0000   1.0000   1.0000   1.0000   1.0000   1.0000
     1.0000   1.0000   1.0000   1.0000   1.0000   1.0000   1.0000   1.0000
     1.0000   1.0000   1.0000   1.0000   1.0000   1.0000   1.0000   1.0000
     0.0000

          k = 0.0000 0.0000-0.1331 ( 27266 PWs)   bands (ev):

   -17.8678 -17.8678 -17.8672 -17.8672 -17.8608 -17.8608 -17.8601 -17.8601
   -17.8567 -17.8567 -17.8563 -17.8563 -17.8443 -17.8443 -17.8423 -17.8423
   -17.8369 -17.8369 -17.8358 -17.8358 -17.7872 -17.7872 -17.7863 -17.7863
    -8.7875  -8.7875  -8.5616  -8.5616  -8.4381  -8.4381  -8.4064  -8.4064
    -8.2693  -8.2693  -8.2083  -8.2083  -4.6216  -4.6216  -4.6049  -4.6049
    -4.5837  -4.5837  -4.5534  -4.5534  -4.5451  -4.5451  -4.5402  -4.5402
    -2.8764  -2.8764  -2.7758  -2.7758   0.2163   0.2163   0.8455   0.8455
     0.8993   0.8993   1.1456   1.1456   1.2863   1.2863   1.3083   1.3083
     1.5250   1.5250   1.5840   1.5840   1.7987   1.7987   1.8223   1.8223
     1.8314   1.8314   1.9873   1.9873   2.1223   2.1223   2.2192   2.2192
     2.2282   2.2282   2.3565   2.3565   2.4613   2.4613   2.7679   2.7679
     5.3324

     occupation numbers 
     1.0000   1.0000   1.0000   1.0000   1.0000   1.0000   1.0000   1.0000
     1.0000   1.0000   1.0000   1.0000   1.0000   1.0000   1.0000   1.0000
     1.0000   1.0000   1.0000   1.0000   1.0000   1.0000   1.0000   1.0000
     1.0000   1.0000   1.0000   1.0000   1.0000   1.0000   1.0000   1.0000
     1.0000   1.0000   1.0000   1.0000   1.0000   1.0000   1.0000   1.0000
     1.0000   1.0000   1.0000   1.0000   1.0000   1.0000   1.0000   1.0000
     1.0000   1.0000   1.0000   1.0000   1.0000   1.0000   1.0000   1.0000
     1.0000   1.0000   1.0000   1.0000   1.0000   1.0000   1.0000   1.0000
     1.0000   1.0000   1.0000   1.0000   1.0000   1.0000   1.0000   1.0000
     1.0000   1.0000   1.0000   1.0000   1.0000   1.0000   1.0000   1.0000
     1.0000   1.0000   1.0000   1.0000   1.0000   1.0000   1.0000   1.0000
     0.0000

          k = 0.0000-0.2244 0.0000 ( 27176 PWs)   bands (ev):

   -17.8676 -17.8676 -17.8664 -17.8664 -17.8591 -17.8591 -17.8584 -17.8584
   -17.8560 -17.8560 -17.8550 -17.8550 -17.8439 -17.8439 -17.8418 -17.8418
   -17.8362 -17.8362 -17.8347 -17.8347 -17.7869 -17.7869 -17.7866 -17.7866
    -8.7645  -8.7645  -8.6049  -8.6049  -8.4840  -8.4840  -8.3416  -8.3416
    -8.2516  -8.2516  -8.2219  -8.2219  -4.6233  -4.6233  -4.6028  -4.6028
    -4.5764  -4.5764  -4.5589  -4.5589  -4.5501  -4.5501  -4.5484  -4.5484
    -2.8939  -2.8939  -2.7474  -2.7474   0.2559   0.2559   0.8199   0.8199
     0.9524   0.9524   1.1890   1.1890   1.2029   1.2029   1.3178   1.3178
     1.4172   1.4172   1.5600   1.5600   1.7473   1.7473   1.7847   1.7847
     1.9714   1.9714   2.0131   2.0131   2.0720   2.0720   2.2367   2.2367
     2.2644   2.2644   2.3139   2.3139   2.3989   2.3989   2.9416   2.9416
     5.1380

     occupation numbers 
     1.0000   1.0000   1.0000   1.0000   1.0000   1.0000   1.0000   1.0000
     1.0000   1.0000   1.0000   1.0000   1.0000   1.0000   1.0000   1.0000
     1.0000   1.0000   1.0000   1.0000   1.0000   1.0000   1.0000   1.0000
     1.0000   1.0000   1.0000   1.0000   1.0000   1.0000   1.0000   1.0000
     1.0000   1.0000   1.0000   1.0000   1.0000   1.0000   1.0000   1.0000
     1.0000   1.0000   1.0000   1.0000   1.0000   1.0000   1.0000   1.0000
     1.0000   1.0000   1.0000   1.0000   1.0000   1.0000   1.0000   1.0000
     1.0000   1.0000   1.0000   1.0000   1.0000   1.0000   1.0000   1.0000
     1.0000   1.0000   1.0000   1.0000   1.0000   1.0000   1.0000   1.0000
     1.0000   1.0000   1.0000   1.0000   1.0000   1.0000   1.0000   1.0000
     1.0000   1.0000   1.0000   1.0000   1.0000   1.0000   1.0000   1.0000
     0.0000

          k = 0.0000-0.2244-0.1331 ( 27176 PWs)   bands (ev):

   -17.8671 -17.8671 -17.8666 -17.8666 -17.8592 -17.8592 -17.8589 -17.8589
   -17.8560 -17.8560 -17.8544 -17.8544 -17.8438 -17.8438 -17.8416 -17.8416
   -17.8361 -17.8361 -17.8352 -17.8352 -17.7869 -17.7869 -17.7866 -17.7866
    -8.7646  -8.7646  -8.6052  -8.6052  -8.4819  -8.4819  -8.3473  -8.3473
    -8.2366  -8.2366  -8.2330  -8.2330  -4.6203  -4.6203  -4.6098  -4.6098
    -4.5717  -4.5717  -4.5596  -4.5596  -4.5501  -4.5501  -4.5484  -4.5484
    -2.8925  -2.8925  -2.7489  -2.7489   0.2615   0.2615   0.8097   0.8097
     0.9523   0.9523   1.2030   1.2030   1.2142   1.2142   1.3169   1.3169
     1.3606   1.3606   1.5696   1.5696   1.7486   1.7486   1.8269   1.8269
     1.9671   1.9671   1.9992   1.9992   2.0857   2.0857   2.2226   2.2226
     2.2887   2.2887   2.2925   2.2925   2.4130   2.4130   2.9249   2.9249
     5.1367

     occupation numbers 
     1.0000   1.0000   1.0000   1.0000   1.0000   1.0000   1.0000   1.0000
     1.0000   1.0000   1.0000   1.0000   1.0000   1.0000   1.0000   1.0000
     1.0000   1.0000   1.0000   1.0000   1.0000   1.0000   1.0000   1.0000
     1.0000   1.0000   1.0000   1.0000   1.0000   1.0000   1.0000   1.0000
     1.0000   1.0000   1.0000   1.0000   1.0000   1.0000   1.0000   1.0000
     1.0000   1.0000   1.0000   1.0000   1.0000   1.0000   1.0000   1.0000
     1.0000   1.0000   1.0000   1.0000   1.0000   1.0000   1.0000   1.0000
     1.0000   1.0000   1.0000   1.0000   1.0000   1.0000   1.0000   1.0000
     1.0000   1.0000   1.0000   1.0000   1.0000   1.0000   1.0000   1.0000
     1.0000   1.0000   1.0000   1.0000   1.0000   1.0000   1.0000   1.0000
     1.0000   1.0000   1.0000   1.0000   1.0000   1.0000   1.0000   1.0000
     0.0000

          k =-0.5000 0.0000 0.0000 ( 27230 PWs)   bands (ev):

   -17.8678 -17.8678 -17.8671 -17.8671 -17.8628 -17.8628 -17.8625 -17.8625
   -17.8566 -17.8566 -17.8553 -17.8553 -17.8418 -17.8418 -17.8417 -17.8417
   -17.8366 -17.8366 -17.8364 -17.8364 -17.7757 -17.7757 -17.7752 -17.7752
    -8.4800  -8.4800  -8.4776  -8.4776  -8.3046  -8.3046  -8.2952  -8.2952
    -8.2836  -8.2836  -8.2639  -8.2639  -4.7918  -4.7918  -4.7241  -4.7241
    -4.6087  -4.6087  -4.5995  -4.5995  -4.5853  -4.5853  -4.5566  -4.5566
    -3.2000  -3.2000  -3.1632  -3.1632   0.0806   0.0806   0.0821   0.0821
     0.5688   0.5688   0.6269   0.6269   0.8942   0.8942   0.9139   0.9139
     1.2472   1.2472   1.6386   1.6386   1.6800   1.6800   1.7865   1.7865
     1.7972   1.7972   1.8580   1.8580   1.9098   1.9098   1.9355   1.9355
     2.0661   2.0661   2.1038   2.1038   2.5368   2.5368   2.9164   2.9164
     6.1112

     occupation numbers 
     1.0000   1.0000   1.0000   1.0000   1.0000   1.0000   1.0000   1.0000
     1.0000   1.0000   1.0000   1.0000   1.0000   1.0000   1.0000   1.0000
     1.0000   1.0000   1.0000   1.0000   1.0000   1.0000   1.0000   1.0000
     1.0000   1.0000   1.0000   1.0000   1.0000   1.0000   1.0000   1.0000
     1.0000   1.0000   1.0000   1.0000   1.0000   1.0000   1.0000   1.0000
     1.0000   1.0000   1.0000   1.0000   1.0000   1.0000   1.0000   1.0000
     1.0000   1.0000   1.0000   1.0000   1.0000   1.0000   1.0000   1.0000
     1.0000   1.0000   1.0000   1.0000   1.0000   1.0000   1.0000   1.0000
     1.0000   1.0000   1.0000   1.0000   1.0000   1.0000   1.0000   1.0000
     1.0000   1.0000   1.0000   1.0000   1.0000   1.0000   1.0000   1.0000
     1.0000   1.0000   1.0000   1.0000   1.0000   1.0000   1.0000   1.0000
     0.0000

          k =-0.5000 0.0000-0.1331 ( 27216 PWs)   bands (ev):

   -17.8678 -17.8678 -17.8668 -17.8668 -17.8627 -17.8627 -17.8623 -17.8623
   -17.8563 -17.8563 -17.8556 -17.8556 -17.8417 -17.8417 -17.8412 -17.8412
   -17.8372 -17.8372 -17.8358 -17.8358 -17.7757 -17.7757 -17.7752 -17.7752
    -8.4805  -8.4805  -8.4770  -8.4770  -8.3040  -8.3040  -8.2961  -8.2961
    -8.2833  -8.2833  -8.2640  -8.2640  -4.7917  -4.7917  -4.7242  -4.7242
    -4.6089  -4.6089  -4.5995  -4.5995  -4.5850  -4.5850  -4.5568  -4.5568
    -3.1935  -3.1935  -3.1698  -3.1698   0.0678   0.0678   0.1003   0.1003
     0.5868   0.5868   0.6344   0.6344   0.8427   0.8427   0.8807   0.8807
     1.3356   1.3356   1.6074   1.6074   1.6906   1.6906   1.8025   1.8025
     1.8047   1.8047   1.8308   1.8308   1.8387   1.8387   1.9657   1.9657
     2.0603   2.0603   2.1343   2.1343   2.5962   2.5962   2.8577   2.8577
     6.1078

     occupation numbers 
     1.0000   1.0000   1.0000   1.0000   1.0000   1.0000   1.0000   1.0000
     1.0000   1.0000   1.0000   1.0000   1.0000   1.0000   1.0000   1.0000
     1.0000   1.0000   1.0000   1.0000   1.0000   1.0000   1.0000   1.0000
     1.0000   1.0000   1.0000   1.0000   1.0000   1.0000   1.0000   1.0000
     1.0000   1.0000   1.0000   1.0000   1.0000   1.0000   1.0000   1.0000
     1.0000   1.0000   1.0000   1.0000   1.0000   1.0000   1.0000   1.0000
     1.0000   1.0000   1.0000   1.0000   1.0000   1.0000   1.0000   1.0000
     1.0000   1.0000   1.0000   1.0000   1.0000   1.0000   1.0000   1.0000
     1.0000   1.0000   1.0000   1.0000   1.0000   1.0000   1.0000   1.0000
     1.0000   1.0000   1.0000   1.0000   1.0000   1.0000   1.0000   1.0000
     1.0000   1.0000   1.0000   1.0000   1.0000   1.0000   1.0000   1.0000
     0.0000

          k =-0.5000-0.2244 0.0000 ( 27204 PWs)   bands (ev):

   -17.8671 -17.8671 -17.8671 -17.8671 -17.8622 -17.8622 -17.8622 -17.8622
   -17.8555 -17.8555 -17.8555 -17.8555 -17.8416 -17.8416 -17.8416 -17.8416
   -17.8363 -17.8363 -17.8363 -17.8363 -17.7754 -17.7754 -17.7754 -17.7754
    -8.4788  -8.4788  -8.4788  -8.4788  -8.3009  -8.3009  -8.3009  -8.3009
    -8.2728  -8.2728  -8.2728  -8.2728  -4.7580  -4.7580  -4.7580  -4.7580
    -4.6020  -4.6020  -4.6020  -4.6020  -4.5729  -4.5729  -4.5729  -4.5729
    -3.1822  -3.1822  -3.1822  -3.1822   0.2264   0.2264   0.2264   0.2264
     0.4414   0.4414   0.4414   0.4414   0.8463   0.8463   0.8463   0.8463
     1.4609   1.4609   1.4609   1.4609   1.6425   1.6425   1.6425   1.6425
     1.8020   1.8020   1.8020   1.8020   1.9286   1.9286   1.9286   1.9286
     2.1566   2.1566   2.1566   2.1566   2.8786   2.8786   2.8786   2.8786
     6.1306

     occupation numbers 
     1.0000   1.0000   1.0000   1.0000   1.0000   1.0000   1.0000   1.0000
     1.0000   1.0000   1.0000   1.0000   1.0000   1.0000   1.0000   1.0000
     1.0000   1.0000   1.0000   1.0000   1.0000   1.0000   1.0000   1.0000
     1.0000   1.0000   1.0000   1.0000   1.0000   1.0000   1.0000   1.0000
     1.0000   1.0000   1.0000   1.0000   1.0000   1.0000   1.0000   1.0000
     1.0000   1.0000   1.0000   1.0000   1.0000   1.0000   1.0000   1.0000
     1.0000   1.0000   1.0000   1.0000   1.0000   1.0000   1.0000   1.0000
     1.0000   1.0000   1.0000   1.0000   1.0000   1.0000   1.0000   1.0000
     1.0000   1.0000   1.0000   1.0000   1.0000   1.0000   1.0000   1.0000
     1.0000   1.0000   1.0000   1.0000   1.0000   1.0000   1.0000   1.0000
     1.0000   1.0000   1.0000   1.0000   1.0000   1.0000   1.0000   1.0000
     0.0000

          k =-0.5000-0.2244-0.1331 ( 27256 PWs)   bands (ev):

   -17.8673 -17.8673 -17.8673 -17.8673 -17.8631 -17.8631 -17.8631 -17.8631
   -17.8560 -17.8560 -17.8560 -17.8560 -17.8419 -17.8419 -17.8419 -17.8419
   -17.8371 -17.8371 -17.8371 -17.8371 -17.7754 -17.7754 -17.7754 -17.7754
    -8.4788  -8.4788  -8.4788  -8.4788  -8.3009  -8.3009  -8.3009  -8.3009
    -8.2729  -8.2729  -8.2729  -8.2729  -4.7580  -4.7580  -4.7580  -4.7580
    -4.6020  -4.6020  -4.6020  -4.6020  -4.5730  -4.5730  -4.5730  -4.5730
    -3.1822  -3.1822  -3.1822  -3.1822   0.2200   0.2200   0.2200   0.2200
     0.4446   0.4446   0.4446   0.4446   0.8719   0.8719   0.8719   0.8719
     1.3762   1.3762   1.3762   1.3762   1.7137   1.7137   1.7137   1.7137
     1.8043   1.8043   1.8043   1.8043   1.9491   1.9491   1.9491   1.9491
     2.1178   2.1178   2.1178   2.1178   2.8876   2.8876   2.8876   2.8876
     6.1211

     occupation numbers 
     1.0000   1.0000   1.0000   1.0000   1.0000   1.0000   1.0000   1.0000
     1.0000   1.0000   1.0000   1.0000   1.0000   1.0000   1.0000   1.0000
     1.0000   1.0000   1.0000   1.0000   1.0000   1.0000   1.0000   1.0000
     1.0000   1.0000   1.0000   1.0000   1.0000   1.0000   1.0000   1.0000
     1.0000   1.0000   1.0000   1.0000   1.0000   1.0000   1.0000   1.0000
     1.0000   1.0000   1.0000   1.0000   1.0000   1.0000   1.0000   1.0000
     1.0000   1.0000   1.0000   1.0000   1.0000   1.0000   1.0000   1.0000
     1.0000   1.0000   1.0000   1.0000   1.0000   1.0000   1.0000   1.0000
     1.0000   1.0000   1.0000   1.0000   1.0000   1.0000   1.0000   1.0000
     1.0000   1.0000   1.0000   1.0000   1.0000   1.0000   1.0000   1.0000
     1.0000   1.0000   1.0000   1.0000   1.0000   1.0000   1.0000   1.0000
     0.0000

     highest occupied, lowest unoccupied level (ev):     2.9416    5.1367

!    total energy              =   -7979.55344532 Ry

     total all-electron energy =   -282510.708158 Ry
     estimated scf accuracy    <       0.00000011 Ry

     The total energy is the sum of the following terms:
     one-electron contribution =    -463.55927406 Ry
     hartree contribution      =     316.55977790 Ry
     xc contribution           =    -465.88856441 Ry
     ewald contribution        =    -633.56960439 Ry
     one-center paw contrib.   =   -6733.09578036 Ry
      -> PAW hartree energy AE =      25.66458247 Ry
      -> PAW hartree energy PS =     -25.55520528 Ry
      -> PAW xc energy AE      =    -383.53379143 Ry
      -> PAW xc energy PS      =      20.51884146 Ry
      -> total E_H with PAW    =     316.66915509 Ry
      -> total E_XC with PAW   =    -828.90351439 Ry

     convergence has been achieved in  11 iterations

     Forces acting on atoms (cartesian axes, Ry/au):

     atom    1 type  3   force =    -0.00000000   -0.00064188    0.00068062
     atom    2 type  3   force =     0.00000000    0.00064188   -0.00068062
     atom    3 type  3   force =     0.00000000   -0.00064188   -0.00068062
     atom    4 type  3   force =     0.00000000    0.00064188    0.00068062
     atom    5 type  1   force =     0.00000000   -0.00064359   -0.00024561
     atom    6 type  1   force =     0.00000000    0.00064359    0.00024561
     atom    7 type  1   force =     0.00000000   -0.00064359    0.00024561
     atom    8 type  1   force =     0.00000000    0.00064359   -0.00024561
     atom    9 type  2   force =     0.00000000   -0.00345744   -0.00181048
     atom   10 type  2   force =     0.00000000    0.00345744    0.00181048
     atom   11 type  2   force =     0.00000000   -0.00345744    0.00181048
     atom   12 type  2   force =     0.00000000    0.00345744   -0.00181048
     atom   13 type  2   force =     0.00000000   -0.00059046    0.00039014
     atom   14 type  2   force =     0.00000000    0.00059046   -0.00039014
     atom   15 type  2   force =     0.00000000   -0.00059046   -0.00039014
     atom   16 type  2   force =     0.00000000    0.00059046    0.00039014
     atom   17 type  2   force =     0.00000000    0.00316979   -0.00179500
     atom   18 type  2   force =     0.00000000   -0.00316979    0.00179500
     atom   19 type  2   force =     0.00000000    0.00316979    0.00179500
     atom   20 type  2   force =     0.00000000   -0.00316979   -0.00179500
     The non-local contrib.  to forces
     atom    1 type  3   force =     0.00000000    0.00205344   -0.00119367
     atom    2 type  3   force =     0.00000000   -0.00205344    0.00119367
     atom    3 type  3   force =     0.00000000    0.00205344    0.00119367
     atom    4 type  3   force =     0.00000000   -0.00205344   -0.00119367
     atom    5 type  1   force =    -0.00000000   -0.08823630   -0.13103481
     atom    6 type  1   force =     0.00000000    0.08823630    0.13103481
     atom    7 type  1   force =     0.00000000   -0.08823630    0.13103481
     atom    8 type  1   force =     0.00000000    0.08823630   -0.13103481
     atom    9 type  2   force =     0.00000000   -0.04827769   -0.04698001
     atom   10 type  2   force =     0.00000000    0.04827769    0.04698001
     atom   11 type  2   force =     0.00000000   -0.04827769    0.04698001
     atom   12 type  2   force =     0.00000000    0.04827769   -0.04698001
     atom   13 type  2   force =     0.00000000   -0.03304820    0.05614534
     atom   14 type  2   force =     0.00000000    0.03304820   -0.05614534
     atom   15 type  2   force =    -0.00000000   -0.03304820   -0.05614534
     atom   16 type  2   force =    -0.00000000    0.03304820    0.05614534
     atom   17 type  2   force =     0.00000000    0.05603171   -0.01696317
     atom   18 type  2   force =     0.00000000   -0.05603171    0.01696317
     atom   19 type  2   force =     0.00000000    0.05603171    0.01696317
     atom   20 type  2   force =     0.00000000   -0.05603171   -0.01696317
     The ionic contribution  to forces
     atom    1 type  3   force =    -0.00000000    0.02273773    0.42856976
     atom    2 type  3   force =    -0.00000000   -0.02273773   -0.42856976
     atom    3 type  3   force =    -0.00000000    0.02273773   -0.42856976
     atom    4 type  3   force =    -0.00000000   -0.02273773    0.42856976
     atom    5 type  1   force =     0.00000000   -2.44382135   -1.60292983
     atom    6 type  1   force =     0.00000000    2.44382135    1.60292983
     atom    7 type  1   force =    -0.00000000   -2.44382135    1.60292983
     atom    8 type  1   force =     0.00000000    2.44382135   -1.60292983
     atom    9 type  2   force =    -0.00000000    3.00608891    5.13288893
     atom   10 type  2   force =     0.00000000   -3.00608891   -5.13288893
     atom   11 type  2   force =    -0.00000000    3.00608891   -5.13288893
     atom   12 type  2   force =    -0.00000000   -3.00608891    5.13288893
     atom   13 type  2   force =     0.00000000    2.02422849   -3.75281499
     atom   14 type  2   force =     0.00000000   -2.02422849    3.75281499
     atom   15 type  2   force =    -0.00000000    2.02422849    3.75281499
     atom   16 type  2   force =     0.00000000   -2.02422849   -3.75281499
     atom   17 type  2   force =     0.00000000   -4.20564473    2.10270404
     atom   18 type  2   force =     0.00000000    4.20564473   -2.10270404
     atom   19 type  2   force =     0.00000000   -4.20564473   -2.10270404
     atom   20 type  2   force =     0.00000000    4.20564473    2.10270404
     The local contribution  to forces
     atom    1 type  3   force =     0.00000000   -0.02532160   -0.42688304
     atom    2 type  3   force =    -0.00000000    0.02532160    0.42688304
     atom    3 type  3   force =     0.00000000   -0.02532160    0.42688304
     atom    4 type  3   force =    -0.00000000    0.02532160   -0.42688304
     atom    5 type  1   force =    -0.00000000    2.53098355    1.73382441
     atom    6 type  1   force =    -0.00000000   -2.53098355   -1.73382441
     atom    7 type  1   force =    -0.00000000    2.53098355   -1.73382441
     atom    8 type  1   force =    -0.00000000   -2.53098355    1.73382441
     atom    9 type  2   force =    -0.00000000   -2.96759765   -5.09420746
     atom   10 type  2   force =     0.00000000    2.96759765    5.09420746
     atom   11 type  2   force =    -0.00000000   -2.96759765    5.09420746
     atom   12 type  2   force =     0.00000000    2.96759765   -5.09420746
     atom   13 type  2   force =    -0.00000000   -1.99606609    3.70454164
     atom   14 type  2   force =     0.00000000    1.99606609   -3.70454164
     atom   15 type  2   force =    -0.00000000   -1.99606609   -3.70454164
     atom   16 type  2   force =     0.00000000    1.99606609    3.70454164
     atom   17 type  2   force =    -0.00000000    4.16027745   -2.09001617
     atom   18 type  2   force =    -0.00000000   -4.16027745    2.09001617
     atom   19 type  2   force =     0.00000000    4.16027745    2.09001617
     atom   20 type  2   force =     0.00000000   -4.16027745   -2.09001617
     The core correction contribution to forces
     atom    1 type  3   force =     0.00000000   -0.00015857    0.00006238
     atom    2 type  3   force =    -0.00000000    0.00015857   -0.00006238
     atom    3 type  3   force =     0.00000000   -0.00015857   -0.00006238
     atom    4 type  3   force =    -0.00000000    0.00015857    0.00006238
     atom    5 type  1   force =    -0.00000000    0.00023541    0.00010460
     atom    6 type  1   force =    -0.00000000   -0.00023541   -0.00010460
     atom    7 type  1   force =     0.00000000    0.00023541   -0.00010460
     atom    8 type  1   force =    -0.00000000   -0.00023541    0.00010460
     atom    9 type  2   force =    -0.00000000    0.00640273    0.00648844
     atom   10 type  2   force =     0.00000000   -0.00640273   -0.00648844
     atom   11 type  2   force =    -0.00000000    0.00640273   -0.00648844
     atom   12 type  2   force =     0.00000000   -0.00640273    0.00648844
     atom   13 type  2   force =    -0.00000000    0.00436491   -0.00748456
     atom   14 type  2   force =     0.00000000   -0.00436491    0.00748456
     atom   15 type  2   force =     0.00000000    0.00436491    0.00748456
     atom   16 type  2   force =    -0.00000000   -0.00436491   -0.00748456
     atom   17 type  2   force =     0.00000000   -0.00769302    0.00253603
     atom   18 type  2   force =    -0.00000000    0.00769302   -0.00253603
     atom   19 type  2   force =     0.00000000   -0.00769302   -0.00253603
     atom   20 type  2   force =    -0.00000000    0.00769302    0.00253603
     The Hubbard contrib.    to forces
     atom    1 type  3   force =     0.00000000    0.00000000    0.00000000
     atom    2 type  3   force =     0.00000000    0.00000000    0.00000000
     atom    3 type  3   force =     0.00000000    0.00000000    0.00000000
     atom    4 type  3   force =     0.00000000    0.00000000    0.00000000
     atom    5 type  1   force =     0.00000000    0.00000000    0.00000000
     atom    6 type  1   force =     0.00000000    0.00000000    0.00000000
     atom    7 type  1   force =     0.00000000    0.00000000    0.00000000
     atom    8 type  1   force =     0.00000000    0.00000000    0.00000000
     atom    9 type  2   force =     0.00000000    0.00000000    0.00000000
     atom   10 type  2   force =     0.00000000    0.00000000    0.00000000
     atom   11 type  2   force =     0.00000000    0.00000000    0.00000000
     atom   12 type  2   force =     0.00000000    0.00000000    0.00000000
     atom   13 type  2   force =     0.00000000    0.00000000    0.00000000
     atom   14 type  2   force =     0.00000000    0.00000000    0.00000000
     atom   15 type  2   force =     0.00000000    0.00000000    0.00000000
     atom   16 type  2   force =     0.00000000    0.00000000    0.00000000
     atom   17 type  2   force =     0.00000000    0.00000000    0.00000000
     atom   18 type  2   force =     0.00000000    0.00000000    0.00000000
     atom   19 type  2   force =     0.00000000    0.00000000    0.00000000
     atom   20 type  2   force =     0.00000000    0.00000000    0.00000000
     The SCF correction term to forces
     atom    1 type  3   force =    -0.00000000    0.00004711    0.00012518
     atom    2 type  3   force =    -0.00000000   -0.00004711   -0.00012518
     atom    3 type  3   force =     0.00000000    0.00004711   -0.00012518
     atom    4 type  3   force =     0.00000000   -0.00004711    0.00012518
     atom    5 type  1   force =     0.00000000    0.00019510   -0.00020998
     atom    6 type  1   force =    -0.00000000   -0.00019510    0.00020998
     atom    7 type  1   force =    -0.00000000    0.00019510    0.00020998
     atom    8 type  1   force =    -0.00000000   -0.00019510   -0.00020998
     atom    9 type  2   force =    -0.00000000   -0.00007375   -0.00000039
     atom   10 type  2   force =     0.00000000    0.00007375    0.00000039
     atom   11 type  2   force =    -0.00000000   -0.00007375    0.00000039
     atom   12 type  2   force =     0.00000000    0.00007375   -0.00000039
     atom   13 type  2   force =     0.00000000   -0.00006955    0.00000269
     atom   14 type  2   force =     0.00000000    0.00006955   -0.00000269
     atom   15 type  2   force =    -0.00000000   -0.00006955   -0.00000269
     atom   16 type  2   force =    -0.00000000    0.00006955    0.00000269
     atom   17 type  2   force =     0.00000000    0.00019838   -0.00005573
     atom   18 type  2   force =    -0.00000000   -0.00019838    0.00005573
     atom   19 type  2   force =     0.00000000    0.00019838    0.00005573
     atom   20 type  2   force =    -0.00000000   -0.00019838   -0.00005573

     Total force =     0.011019     Total SCF correction =     0.000782


     Computing stress (Cartesian axis) and pressure

          total   stress  (Ry/bohr**3)                   (kbar)     P=      -20.75
  -0.00011309   0.00000000   0.00000000          -16.64        0.00        0.00
   0.00000000  -0.00016056   0.00000000            0.00      -23.62        0.00
   0.00000000   0.00000000  -0.00014956            0.00        0.00      -22.00

     kinetic stress (kbar)   5541.29      0.00      0.00
                                0.00   5542.15      0.00
                                0.00      0.00   5538.08

     local   stress (kbar)  -4525.88      0.00      0.00
                                0.00  -1884.09      0.00
                                0.00      0.00   -992.20

     nonloc. stress (kbar)   1114.99      0.00      0.00
                                0.00   1110.28      0.00
                                0.00      0.00   1113.69

     hartree stress (kbar)   3404.46     -0.00     -0.00
                               -0.00   2187.25     -0.00
                               -0.00     -0.00   1718.11

     exc-cor stress (kbar)   5446.53     -0.00     -0.00
                               -0.00   5446.11     -0.00
                               -0.00     -0.00   5446.57

     corecor stress (kbar)  -7213.22     -0.00     -0.00
                               -0.00  -7213.16     -0.00
                               -0.00     -0.00  -7213.16

     ewald   stress (kbar)  -3784.80      0.00     -0.00
                                0.00  -5212.16      0.00
                               -0.00      0.00  -5633.09

     hubbard stress (kbar)      0.00      0.00      0.00
                                0.00      0.00      0.00
                                0.00      0.00      0.00

     DFT-D   stress (kbar)      0.00      0.00      0.00
                                0.00      0.00      0.00
                                0.00      0.00      0.00

     XDM     stress (kbar)      0.00      0.00      0.00
                                0.00      0.00      0.00
                                0.00      0.00      0.00

     dft-nl  stress (kbar)      0.00      0.00      0.00
                                0.00      0.00      0.00
                                0.00      0.00      0.00

     TS-vdW  stress (kbar)      0.00      0.00      0.00
                                0.00      0.00      0.00
                                0.00      0.00      0.00



     Writing output data file ./out/CsSnI3.save/

     init_run     :     68.84s CPU     75.98s WALL (       1 calls)
     electrons    :   2290.63s CPU   2334.76s WALL (       1 calls)
     forces       :     58.78s CPU     59.78s WALL (       1 calls)
     stress       :     90.69s CPU     92.29s WALL (       1 calls)

     Called by init_run:
     wfcinit      :     54.58s CPU     55.53s WALL (       1 calls)
     wfcinit:atom :      0.09s CPU      0.11s WALL (       8 calls)
     wfcinit:wfcr :     53.64s CPU     54.55s WALL (       8 calls)
     potinit      :      6.28s CPU      6.54s WALL (       1 calls)
     hinit0       :      4.42s CPU      4.52s WALL (       1 calls)

     Called by electrons:
     c_bands      :   2008.79s CPU   2044.18s WALL (      12 calls)
     sum_band     :    208.56s CPU    214.59s WALL (      12 calls)
     v_of_rho     :      2.19s CPU      2.29s WALL (      12 calls)
     v_h          :      0.17s CPU      0.20s WALL (      12 calls)
     v_xc         :      2.35s CPU      2.42s WALL (      14 calls)
     newd         :     32.80s CPU     34.76s WALL (      12 calls)
     PAW_pot      :     43.81s CPU     44.52s WALL (      12 calls)
     mix_rho      :      0.66s CPU      0.75s WALL (      12 calls)

     Called by c_bands:
     init_us_2    :      7.26s CPU      7.48s WALL (     216 calls)
     cegterg      :   1985.36s CPU   2019.90s WALL (      96 calls)

     Called by sum_band:
     sum_band:wei :      0.00s CPU      0.00s WALL (      12 calls)
     sum_band:loo :    182.14s CPU    185.92s WALL (      12 calls)
     sum_band:buf :      0.70s CPU      0.82s WALL (      96 calls)
     sum_band:ini :      3.24s CPU      3.31s WALL (      96 calls)
     sum_band:cal :    135.84s CPU    138.21s WALL (      96 calls)
     sum_band:bec :      1.30s CPU      1.32s WALL (      96 calls)
     addusdens    :     24.38s CPU     26.55s WALL (      12 calls)
     addusd:skk   :      0.10s CPU      0.11s WALL (      36 calls)
     addusd:dgemm :      9.46s CPU     11.30s WALL (      36 calls)
     addusd:qvan2 :     13.27s CPU     13.53s WALL (      36 calls)

     Called by *egterg:
     cdiaghg      :     97.85s CPU     98.99s WALL (     535 calls)
     cegterg:over :     99.12s CPU    100.47s WALL (     447 calls)
     cegterg:upda :     60.64s CPU     61.61s WALL (     447 calls)
     cegterg:last :    275.86s CPU    280.60s WALL (     246 calls)
     h_psi        :   1054.40s CPU   1074.30s WALL (     551 calls)
     s_psi        :    402.49s CPU    409.09s WALL (     551 calls)
     g_psi        :      0.72s CPU      0.75s WALL (     447 calls)

     Called by h_psi:
     h_psi:calbec :    410.43s CPU    417.36s WALL (     551 calls)
     vloc_psi     :    235.09s CPU    241.19s WALL (     551 calls)
     add_vuspsi   :    407.30s CPU    414.13s WALL (     551 calls)

     General routines
     calbec       :    602.39s CPU    612.56s WALL (     687 calls)
     fft          :      1.61s CPU      1.66s WALL (     158 calls)
     ffts         :      0.11s CPU      0.11s WALL (      12 calls)
     fftw         :    258.63s CPU    265.29s WALL (   60018 calls)

     Parallel routines
     fft_scatt_xy :     18.13s CPU     18.68s WALL (   60188 calls)
     fft_scatt_yz :     47.31s CPU     48.81s WALL (   60188 calls)

     PAW routines
     PAW_pot      :     43.81s CPU     44.52s WALL (      12 calls)
     PAW_symme    :      0.21s CPU      0.21s WALL (      24 calls)

     PWSCF        :  41m57.08s CPU  42m55.10s WALL


   This run was terminated on:  12:20:46  15Jan2021            

=------------------------------------------------------------------------------=
   JOB DONE.
=------------------------------------------------------------------------------=
