
     Program PWSCF v.6.6 starts on 31Jan2021 at 11:40:47 

     This program is part of the open-source Quantum ESPRESSO suite
     for quantum simulation of materials; please cite
         "P. Giannozzi et al., J. Phys.:Condens. Matter 21 395502 (2009);
         "P. Giannozzi et al., J. Phys.:Condens. Matter 29 465901 (2017);
          URL http://www.quantum-espresso.org", 
     in publications or presentations arising from this work. More details at
     http://www.quantum-espresso.org/quote

     Parallel version (MPI), running on    32 processors

     MPI processes distributed on     1 nodes
     R & G space division:  proc/nbgrp/npool/nimage =      32
     Fft bands division:     nmany     =       1
     Waiting for input...
     Reading input from standard input

     Current dimensions of program PWSCF are:
     Max number of different atomic species (ntypx) = 10
     Max number of k-points (npk) =  40000
     Max angular momentum in pseudopotentials (lmaxx) =  3
     file Sn.rel-pbe-dn-rrkjus_psl.1.0.0.UPF: wavefunction(s)  5S 4D 4D renormalized

     Subspace diagonalization in iterative solution of the eigenvalue problem:
     a serial algorithm will be used

 
     Parallelization info
     --------------------
     sticks:   dense  smooth     PW     G-vecs:    dense   smooth      PW
     Min          62      62     17                 1280     1280     190
     Max          63      63     18                 1283     1283     192
     Sum        1993    1993    561                40999    40999    6113
 

     Title: 
     SnI2                                                                       


     bravais-lattice index     =            6
     lattice parameter (alat)  =      14.4199  a.u.
     unit-cell volume          =    1845.1511 (a.u.)^3
     number of atoms/cell      =            6
     number of atomic types    =            2
     number of electrons       =        56.00
     number of Kohn-Sham states=           57
     kinetic-energy cutoff     =      30.0000  Ry
     charge density cutoff     =     120.0000  Ry
     convergence threshold     =      1.0E-06
     mixing beta               =       0.6000
     number of iterations used =            8  plain     mixing
     Exchange-correlation= PBE
                           (   1   4   3   4   0   0   0)
     Non magnetic calculation with spin-orbit


     celldm(1)=  14.419944  celldm(2)=   1.000000  celldm(3)=   0.615377
     celldm(4)=   0.000000  celldm(5)=   0.000000  celldm(6)=   0.000000

     crystal axes: (cart. coord. in units of alat)
               a(1) = (   1.000000   0.000000   0.000000 )  
               a(2) = (   0.000000   1.000000   0.000000 )  
               a(3) = (   0.000000   0.000000   0.615377 )  

     reciprocal axes: (cart. coord. in units 2 pi/alat)
               b(1) = (  1.000000  0.000000  0.000000 )  
               b(2) = (  0.000000  1.000000  0.000000 )  
               b(3) = (  0.000000  0.000000  1.625020 )  


     PseudoPot. # 1 for Sn read from file:
     /scratch/afiorent/degironcoli/pseudo/pseudo-usp/Sn.rel-pbe-dn-rrkjus_psl.1.0.0.UPF
     MD5 check sum: e9415cc9ba1036dfb73502962f03961a
     Pseudo is Ultrasoft + core correction, Zval = 14.0
     Generated using "atomic" code by A. Dal Corso v.6.3
     Using radial grid of 1243 points, 10 beta functions with: 
                l(1) =   0
                l(2) =   0
                l(3) =   1
                l(4) =   1
                l(5) =   1
                l(6) =   1
                l(7) =   2
                l(8) =   2
                l(9) =   2
               l(10) =   2
     Q(r) pseudized with 0 coefficients 


     PseudoPot. # 2 for I  read from file:
     /scratch/afiorent/degironcoli/pseudo/pseudo-usp/I.rel-pbe-n-rrkjus_psl.0.2.2.UPF
     MD5 check sum: b9024a078df971004264c9bcc9ff756e
     Pseudo is Ultrasoft + core correction, Zval =  7.0
     Generated using "atomic" code by A. Dal Corso v.5.0.2 svn rev. 9415
     Using radial grid of 1247 points,  6 beta functions with: 
                l(1) =   0
                l(2) =   0
                l(3) =   1
                l(4) =   1
                l(5) =   1
                l(6) =   1
     Q(r) pseudized with 0 coefficients 


     atomic species   valence    mass     pseudopotential
        Sn            14.00   118.70000     Sn( 1.00)
        I              7.00   126.90000     I ( 1.00)

     16 Sym. Ops., with inversion, found ( 8 have fractional translation)


                                    s                        frac. trans.

      isym =  1     identity                                     

 cryst.   s( 1) = (     1          0          0      )
                  (     0          1          0      )
                  (     0          0          1      )

 cart.    s( 1) = (  1.0000000  0.0000000  0.0000000 )
                  (  0.0000000  1.0000000  0.0000000 )
                  (  0.0000000  0.0000000  1.0000000 )


      isym =  2     180 deg rotation - cart. axis [0,0,1]        

 cryst.   s( 2) = (    -1          0          0      )
                  (     0         -1          0      )
                  (     0          0          1      )

 cart.    s( 2) = ( -1.0000000  0.0000000  0.0000000 )
                  (  0.0000000 -1.0000000  0.0000000 )
                  (  0.0000000  0.0000000  1.0000000 )


      isym =  3     180 deg rotation - cart. axis [0,1,0]        

 cryst.   s( 3) = (    -1          0          0      )    f =(  0.5000000 )
                  (     0          1          0      )       ( -0.5000000 )
                  (     0          0         -1      )       (  0.5000000 )

 cart.    s( 3) = ( -1.0000000  0.0000000  0.0000000 )    f =(  0.5000000 )
                  (  0.0000000  1.0000000  0.0000000 )       ( -0.5000000 )
                  (  0.0000000  0.0000000 -1.0000000 )       (  0.3076884 )


      isym =  4     180 deg rotation - cart. axis [1,0,0]        

 cryst.   s( 4) = (     1          0          0      )    f =( -0.5000000 )
                  (     0         -1          0      )       (  0.5000000 )
                  (     0          0         -1      )       (  0.5000000 )

 cart.    s( 4) = (  1.0000000  0.0000000  0.0000000 )    f =( -0.5000000 )
                  (  0.0000000 -1.0000000  0.0000000 )       (  0.5000000 )
                  (  0.0000000  0.0000000 -1.0000000 )       (  0.3076884 )


      isym =  5     180 deg rotation - cart. axis [1,1,0]        

 cryst.   s( 5) = (     0          1          0      )
                  (     1          0          0      )
                  (     0          0         -1      )

 cart.    s( 5) = (  0.0000000  1.0000000  0.0000000 )
                  (  1.0000000  0.0000000  0.0000000 )
                  (  0.0000000  0.0000000 -1.0000000 )


      isym =  6     180 deg rotation - cart. axis [1,-1,0]       

 cryst.   s( 6) = (     0         -1          0      )
                  (    -1          0          0      )
                  (     0          0         -1      )

 cart.    s( 6) = (  0.0000000 -1.0000000  0.0000000 )
                  ( -1.0000000  0.0000000  0.0000000 )
                  (  0.0000000  0.0000000 -1.0000000 )


      isym =  7      90 deg rotation - cart. axis [0,0,-1]       

 cryst.   s( 7) = (     0         -1          0      )    f =( -0.5000000 )
                  (     1          0          0      )       (  0.5000000 )
                  (     0          0          1      )       ( -0.5000000 )

 cart.    s( 7) = (  0.0000000  1.0000000  0.0000000 )    f =( -0.5000000 )
                  ( -1.0000000  0.0000000  0.0000000 )       (  0.5000000 )
                  (  0.0000000  0.0000000  1.0000000 )       ( -0.3076884 )


      isym =  8      90 deg rotation - cart. axis [0,0,1]        

 cryst.   s( 8) = (     0          1          0      )    f =(  0.5000000 )
                  (    -1          0          0      )       ( -0.5000000 )
                  (     0          0          1      )       ( -0.5000000 )

 cart.    s( 8) = (  0.0000000 -1.0000000  0.0000000 )    f =(  0.5000000 )
                  (  1.0000000  0.0000000  0.0000000 )       ( -0.5000000 )
                  (  0.0000000  0.0000000  1.0000000 )       ( -0.3076884 )


      isym =  9     inversion                                    

 cryst.   s( 9) = (    -1          0          0      )
                  (     0         -1          0      )
                  (     0          0         -1      )

 cart.    s( 9) = ( -1.0000000  0.0000000  0.0000000 )
                  (  0.0000000 -1.0000000  0.0000000 )
                  (  0.0000000  0.0000000 -1.0000000 )


      isym = 10     inv. 180 deg rotation - cart. axis [0,0,1]   

 cryst.   s(10) = (     1          0          0      )
                  (     0          1          0      )
                  (     0          0         -1      )

 cart.    s(10) = (  1.0000000  0.0000000  0.0000000 )
                  (  0.0000000  1.0000000  0.0000000 )
                  (  0.0000000  0.0000000 -1.0000000 )


      isym = 11     inv. 180 deg rotation - cart. axis [0,1,0]   

 cryst.   s(11) = (     1          0          0      )    f =( -0.5000000 )
                  (     0         -1          0      )       (  0.5000000 )
                  (     0          0          1      )       ( -0.5000000 )

 cart.    s(11) = (  1.0000000  0.0000000  0.0000000 )    f =( -0.5000000 )
                  (  0.0000000 -1.0000000  0.0000000 )       (  0.5000000 )
                  (  0.0000000  0.0000000  1.0000000 )       ( -0.3076884 )


      isym = 12     inv. 180 deg rotation - cart. axis [1,0,0]   

 cryst.   s(12) = (    -1          0          0      )    f =(  0.5000000 )
                  (     0          1          0      )       ( -0.5000000 )
                  (     0          0          1      )       ( -0.5000000 )

 cart.    s(12) = ( -1.0000000  0.0000000  0.0000000 )    f =(  0.5000000 )
                  (  0.0000000  1.0000000  0.0000000 )       ( -0.5000000 )
                  (  0.0000000  0.0000000  1.0000000 )       ( -0.3076884 )


      isym = 13     inv. 180 deg rotation - cart. axis [1,1,0]   

 cryst.   s(13) = (     0         -1          0      )
                  (    -1          0          0      )
                  (     0          0          1      )

 cart.    s(13) = (  0.0000000 -1.0000000  0.0000000 )
                  ( -1.0000000  0.0000000  0.0000000 )
                  (  0.0000000  0.0000000  1.0000000 )


      isym = 14     inv. 180 deg rotation - cart. axis [1,-1,0]  

 cryst.   s(14) = (     0          1          0      )
                  (     1          0          0      )
                  (     0          0          1      )

 cart.    s(14) = (  0.0000000  1.0000000  0.0000000 )
                  (  1.0000000  0.0000000  0.0000000 )
                  (  0.0000000  0.0000000  1.0000000 )


      isym = 15     inv.  90 deg rotation - cart. axis [0,0,-1]  

 cryst.   s(15) = (     0          1          0      )    f =(  0.5000000 )
                  (    -1          0          0      )       ( -0.5000000 )
                  (     0          0         -1      )       (  0.5000000 )

 cart.    s(15) = (  0.0000000 -1.0000000  0.0000000 )    f =(  0.5000000 )
                  (  1.0000000  0.0000000  0.0000000 )       ( -0.5000000 )
                  (  0.0000000  0.0000000 -1.0000000 )       (  0.3076884 )


      isym = 16     inv.  90 deg rotation - cart. axis [0,0,1]   

 cryst.   s(16) = (     0         -1          0      )    f =( -0.5000000 )
                  (     1          0          0      )       (  0.5000000 )
                  (     0          0         -1      )       (  0.5000000 )

 cart.    s(16) = (  0.0000000  1.0000000  0.0000000 )    f =( -0.5000000 )
                  ( -1.0000000  0.0000000  0.0000000 )       (  0.5000000 )
                  (  0.0000000  0.0000000 -1.0000000 )       (  0.3076884 )


     double point group D_4h(4/mmm)
     there are 14 classes and  4 irreducible representations
     the character table:

       E     -E    2C4   -2C4   C2    2C2' 2C2'' i     -i    2S4   -2S4   s_h 
                               -C2   -2C2' -2C2'                         -s_h 
G_6+   2.00 -2.00  1.41 -1.41  0.00  0.00  0.00  2.00 -2.00  1.41 -1.41  0.00
G_7+   2.00 -2.00 -1.41  1.41  0.00  0.00  0.00  2.00 -2.00 -1.41  1.41  0.00
G_6-   2.00 -2.00  1.41 -1.41  0.00  0.00  0.00 -2.00  2.00 -1.41  1.41  0.00
G_7-   2.00 -2.00 -1.41  1.41  0.00  0.00  0.00 -2.00  2.00  1.41 -1.41  0.00

        2s_v  2s_d
       -2s_v -2s_d
G_6+   0.00  0.00
G_7+   0.00  0.00
G_6-   0.00  0.00
G_7-   0.00  0.00

     the symmetry operations in each class and the name of the first element:

     E             1
          identity                                               
     -E           -1
          identity E                                             
     2C4           7    8
           90 deg rotation - cart. axis [0,0,-1]                 
     -2C4         -7   -8
           90 deg rotation - cart. axis [0,0,-1] E               
      C2  -C2      2   -2
          180 deg rotation - cart. axis [0,0,1]                  
      2C2'-2C2'    3   -3    4   -4
          180 deg rotation - cart. axis [0,1,0]                  
     2C2''-2C2'    5   -5   -6    6
          180 deg rotation - cart. axis [1,1,0]                  
     i             9
          inversion                                              
     -i           -9
          inversion E                                            
     2S4          15   16
          inv.  90 deg rotation - cart. axis [0,0,-1]            
     -2S4        -15  -16
          inv.  90 deg rotation - cart. axis [0,0,-1] E          
      s_h -s_h    10  -10
          inv. 180 deg rotation - cart. axis [0,0,1]             
      2s_v-2s_v   11  -11   12  -12
          inv. 180 deg rotation - cart. axis [0,1,0]             
      2s_d-2s_d   13  -13  -14   14
          inv. 180 deg rotation - cart. axis [1,1,0]             

   Cartesian axes

     site n.     atom                  positions (alat units)
         1           Sn  tau(   1) = (   0.0000000   0.0000000   0.0000000  )
         2           Sn  tau(   2) = (   0.5000000   0.5000000   0.3076884  )
         3           I   tau(   3) = (   0.2985210   0.2985210   0.0000000  )
         4           I   tau(   4) = (   0.7014790   0.7014790   0.0000000  )
         5           I   tau(   5) = (   0.7985210   0.2014790   0.3076884  )
         6           I   tau(   6) = (   0.2014790   0.7985210   0.3076884  )

   Crystallographic axes

     site n.     atom                  positions (cryst. coord.)
         1           Sn  tau(   1) = (  0.0000000  0.0000000  0.0000000  )
         2           Sn  tau(   2) = (  0.5000000  0.5000000  0.5000000  )
         3           I   tau(   3) = (  0.2985210  0.2985210  0.0000000  )
         4           I   tau(   4) = (  0.7014790  0.7014790  0.0000000  )
         5           I   tau(   5) = (  0.7985210  0.2014790  0.5000000  )
         6           I   tau(   6) = (  0.2014790  0.7985210  0.5000000  )

     number of k points=     6
                       cart. coord. in units 2pi/alat
        k(    1) = (   0.1250000   0.1250000   0.2031276), wk =   0.1250000
        k(    2) = (   0.1250000   0.1250000   0.6093827), wk =   0.1250000
        k(    3) = (   0.1250000   0.3750000   0.2031276), wk =   0.2500000
        k(    4) = (   0.1250000   0.3750000   0.6093827), wk =   0.2500000
        k(    5) = (   0.3750000   0.3750000   0.2031276), wk =   0.1250000
        k(    6) = (   0.3750000   0.3750000   0.6093827), wk =   0.1250000

                       cryst. coord.
        k(    1) = (   0.1250000   0.1250000   0.1250000), wk =   0.1250000
        k(    2) = (   0.1250000   0.1250000   0.3750000), wk =   0.1250000
        k(    3) = (   0.1250000   0.3750000   0.1250000), wk =   0.2500000
        k(    4) = (   0.1250000   0.3750000   0.3750000), wk =   0.2500000
        k(    5) = (   0.3750000   0.3750000   0.1250000), wk =   0.1250000
        k(    6) = (   0.3750000   0.3750000   0.3750000), wk =   0.1250000

     Dense  grid:    40999 G-vectors     FFT dimensions: (  54,  54,  32)

     Dynamical RAM for                 wfc:       0.28 MB

     Dynamical RAM for     wfc (w. buffer):       1.95 MB

     Dynamical RAM for           str. fact:       0.04 MB

     Dynamical RAM for           local pot:       0.00 MB

     Dynamical RAM for          nlocal pot:       0.30 MB

     Dynamical RAM for                qrad:       4.61 MB

     Dynamical RAM for          rho,v,vnew:       0.50 MB

     Dynamical RAM for               rhoin:       0.17 MB

     Dynamical RAM for            rho*nmix:       1.25 MB

     Dynamical RAM for           G-vectors:       0.08 MB

     Dynamical RAM for          h,s,v(r/c):       0.59 MB

     Dynamical RAM for          <psi|beta>:       0.22 MB

     Dynamical RAM for                 psi:       0.56 MB

     Dynamical RAM for                hpsi:       0.56 MB

     Dynamical RAM for                spsi:       0.56 MB

     Dynamical RAM for      wfcinit/wfcrot:       0.60 MB

     Dynamical RAM for           addusdens:      12.01 MB

     Dynamical RAM for          addusforce:      12.19 MB

     Dynamical RAM for         addusstress:      12.28 MB

     Estimated static dynamical RAM per process >       9.14 MB

     Estimated max dynamical RAM per process >      21.43 MB

     Estimated total dynamical RAM >     685.67 MB

     Check: negative core charge=   -0.000015

     Initial potential from superposition of free atoms

     starting charge   55.99750, renormalised to   56.00000
     Starting wfcs are   68 randomized atomic wfcs

     total cpu time spent up to now is       33.3 secs

     Self-consistent Calculation

     iteration #  1     ecut=    30.00 Ry     beta= 0.60
     Davidson diagonalization with overlap
     ethr =  1.00E-02,  avg # of iterations =  2.0

     Threshold (ethr) on eigenvalues was too large:
     Diagonalizing with lowered threshold

     Davidson diagonalization with overlap
     ethr =  4.04E-04,  avg # of iterations =  2.2

     total cpu time spent up to now is       44.8 secs

     total energy              =    -560.29523290 Ry
     estimated scf accuracy    <       0.22663641 Ry

     iteration #  2     ecut=    30.00 Ry     beta= 0.60
     Davidson diagonalization with overlap
     ethr =  4.05E-04,  avg # of iterations =  3.0

     total cpu time spent up to now is       46.9 secs

     total energy              =    -560.36952553 Ry
     estimated scf accuracy    <       0.04181293 Ry

     iteration #  3     ecut=    30.00 Ry     beta= 0.60
     Davidson diagonalization with overlap
     ethr =  7.47E-05,  avg # of iterations =  2.0

     total cpu time spent up to now is       49.6 secs

     total energy              =    -560.37491817 Ry
     estimated scf accuracy    <       0.00280313 Ry

     iteration #  4     ecut=    30.00 Ry     beta= 0.60
     Davidson diagonalization with overlap
     ethr =  5.01E-06,  avg # of iterations =  6.5

     total cpu time spent up to now is       52.5 secs

     total energy              =    -560.37622432 Ry
     estimated scf accuracy    <       0.00279021 Ry

     iteration #  5     ecut=    30.00 Ry     beta= 0.60
     Davidson diagonalization with overlap
     ethr =  4.98E-06,  avg # of iterations =  2.0

     total cpu time spent up to now is       54.4 secs

     total energy              =    -560.37637242 Ry
     estimated scf accuracy    <       0.00029786 Ry

     iteration #  6     ecut=    30.00 Ry     beta= 0.60
     Davidson diagonalization with overlap
     ethr =  5.32E-07,  avg # of iterations =  4.5

     total cpu time spent up to now is       56.8 secs

     total energy              =    -560.37646959 Ry
     estimated scf accuracy    <       0.00000319 Ry

     iteration #  7     ecut=    30.00 Ry     beta= 0.60
     Davidson diagonalization with overlap
     ethr =  5.70E-09,  avg # of iterations =  5.2

     total cpu time spent up to now is       59.3 secs

     total energy              =    -560.37647061 Ry
     estimated scf accuracy    <       0.00000361 Ry

     iteration #  8     ecut=    30.00 Ry     beta= 0.60
     Davidson diagonalization with overlap
     ethr =  5.70E-09,  avg # of iterations =  2.3

     total cpu time spent up to now is       61.5 secs

     End of self-consistent calculation

          k = 0.1250 0.1250 0.2031 (  5128 PWs)   bands (ev):

   -18.5887 -18.5887 -18.5719 -18.5719 -18.5600 -18.5600 -18.5466 -18.5466
   -17.5439 -17.5439 -17.5402 -17.5402 -17.5256 -17.5256 -17.5175 -17.5175
   -17.5090 -17.5090 -17.4839 -17.4839  -9.2607  -9.2607  -8.8481  -8.8481
    -8.8048  -8.8048  -8.6895  -8.6895  -4.0121  -4.0121  -2.5924  -2.5924
    -0.3021  -0.3021   0.0245   0.0245   0.3172   0.3172   0.5149   0.5149
     0.8848   0.8848   1.1807   1.1807   1.3077   1.3077   1.5457   1.5457
     2.0720   2.0720   2.2162   2.2162   2.3094   2.3094   2.9822   2.9822
     4.7684

     occupation numbers 
     1.0000   1.0000   1.0000   1.0000   1.0000   1.0000   1.0000   1.0000
     1.0000   1.0000   1.0000   1.0000   1.0000   1.0000   1.0000   1.0000
     1.0000   1.0000   1.0000   1.0000   1.0000   1.0000   1.0000   1.0000
     1.0000   1.0000   1.0000   1.0000   1.0000   1.0000   1.0000   1.0000
     1.0000   1.0000   1.0000   1.0000   1.0000   1.0000   1.0000   1.0000
     1.0000   1.0000   1.0000   1.0000   1.0000   1.0000   1.0000   1.0000
     1.0000   1.0000   1.0000   1.0000   1.0000   1.0000   1.0000   1.0000
     0.0000

          k = 0.1250 0.1250 0.6094 (  5121 PWs)   bands (ev):

   -18.5654 -18.5654 -18.5643 -18.5643 -18.5462 -18.5462 -18.5355 -18.5355
   -17.5367 -17.5367 -17.5299 -17.5299 -17.5026 -17.5026 -17.4983 -17.4983
   -17.4895 -17.4895 -17.4779 -17.4779  -9.0056  -9.0056  -8.7855  -8.7855
    -8.7173  -8.7173  -8.7081  -8.7081  -3.8820  -3.8820  -3.3113  -3.3113
    -0.5258  -0.5258  -0.2158  -0.2158   0.0222   0.0222   0.1502   0.1502
     0.4571   0.4571   0.8582   0.8582   1.3694   1.3694   1.4487   1.4487
     1.8429   1.8429   1.9247   1.9247   2.3066   2.3066   2.8363   2.8363
     4.9529

     occupation numbers 
     1.0000   1.0000   1.0000   1.0000   1.0000   1.0000   1.0000   1.0000
     1.0000   1.0000   1.0000   1.0000   1.0000   1.0000   1.0000   1.0000
     1.0000   1.0000   1.0000   1.0000   1.0000   1.0000   1.0000   1.0000
     1.0000   1.0000   1.0000   1.0000   1.0000   1.0000   1.0000   1.0000
     1.0000   1.0000   1.0000   1.0000   1.0000   1.0000   1.0000   1.0000
     1.0000   1.0000   1.0000   1.0000   1.0000   1.0000   1.0000   1.0000
     1.0000   1.0000   1.0000   1.0000   1.0000   1.0000   1.0000   1.0000
     0.0000

          k = 0.1250 0.3750 0.2031 (  5125 PWs)   bands (ev):

   -18.5821 -18.5821 -18.5658 -18.5658 -18.5628 -18.5628 -18.5387 -18.5387
   -17.5439 -17.5439 -17.5340 -17.5340 -17.5247 -17.5247 -17.5069 -17.5069
   -17.5009 -17.5009 -17.4829 -17.4829  -9.1574  -9.1574  -8.9907  -8.9907
    -8.7665  -8.7665  -8.7091  -8.7091  -3.6643  -3.6643  -3.1002  -3.1002
    -0.1958  -0.1958  -0.0284  -0.0284   0.5173   0.5173   0.7440   0.7440
     0.9581   0.9581   1.1787   1.1788   1.4092   1.4092   1.5014   1.5014
     1.9482   1.9482   2.1060   2.1060   2.2585   2.2585   2.5844   2.5844
     5.0167

     occupation numbers 
     1.0000   1.0000   1.0000   1.0000   1.0000   1.0000   1.0000   1.0000
     1.0000   1.0000   1.0000   1.0000   1.0000   1.0000   1.0000   1.0000
     1.0000   1.0000   1.0000   1.0000   1.0000   1.0000   1.0000   1.0000
     1.0000   1.0000   1.0000   1.0000   1.0000   1.0000   1.0000   1.0000
     1.0000   1.0000   1.0000   1.0000   1.0000   1.0000   1.0000   1.0000
     1.0000   1.0000   1.0000   1.0000   1.0000   1.0000   1.0000   1.0000
     1.0000   1.0000   1.0000   1.0000   1.0000   1.0000   1.0000   1.0000
     0.0000

          k = 0.1250 0.3750 0.6094 (  5114 PWs)   bands (ev):

   -18.5706 -18.5706 -18.5457 -18.5457 -18.5437 -18.5437 -18.5218 -18.5218
   -17.5365 -17.5365 -17.5103 -17.5103 -17.5045 -17.5045 -17.4897 -17.4897
   -17.4813 -17.4813 -17.4731 -17.4731  -8.9454  -8.9454  -8.8551  -8.8551
    -8.7137  -8.7137  -8.7067  -8.7067  -3.7242  -3.7242  -3.4847  -3.4847
    -0.6822  -0.6822  -0.4897  -0.4897  -0.0308  -0.0308   0.1788   0.1788
     0.7965   0.7965   1.1671   1.1671   1.5074   1.5074   1.6327   1.6327
     1.8379   1.8379   1.9566   1.9566   2.3648   2.3648   2.7473   2.7473
     4.4452

     occupation numbers 
     1.0000   1.0000   1.0000   1.0000   1.0000   1.0000   1.0000   1.0000
     1.0000   1.0000   1.0000   1.0000   1.0000   1.0000   1.0000   1.0000
     1.0000   1.0000   1.0000   1.0000   1.0000   1.0000   1.0000   1.0000
     1.0000   1.0000   1.0000   1.0000   1.0000   1.0000   1.0000   1.0000
     1.0000   1.0000   1.0000   1.0000   1.0000   1.0000   1.0000   1.0000
     1.0000   1.0000   1.0000   1.0000   1.0000   1.0000   1.0000   1.0000
     1.0000   1.0000   1.0000   1.0000   1.0000   1.0000   1.0000   1.0000
     0.0000

          k = 0.3750 0.3750 0.2031 (  5119 PWs)   bands (ev):

   -18.5832 -18.5832 -18.5570 -18.5570 -18.5398 -18.5398 -18.5371 -18.5371
   -17.5460 -17.5460 -17.5198 -17.5198 -17.5086 -17.5086 -17.5051 -17.5051
   -17.4871 -17.4871 -17.4813 -17.4813  -9.0775  -9.0775  -8.9869  -8.9869
    -8.8139  -8.8139  -8.7646  -8.7646  -3.4747  -3.4747  -3.2370  -3.2370
    -0.1035  -0.1035  -0.0394  -0.0394   0.4691   0.4691   0.7433   0.7433
     0.8104   0.8104   1.0212   1.0212   1.4769   1.4769   1.5498   1.5498
     1.9573   1.9573   2.0397   2.0397   2.3371   2.3371   2.5291   2.5291
     5.2534

     occupation numbers 
     1.0000   1.0000   1.0000   1.0000   1.0000   1.0000   1.0000   1.0000
     1.0000   1.0000   1.0000   1.0000   1.0000   1.0000   1.0000   1.0000
     1.0000   1.0000   1.0000   1.0000   1.0000   1.0000   1.0000   1.0000
     1.0000   1.0000   1.0000   1.0000   1.0000   1.0000   1.0000   1.0000
     1.0000   1.0000   1.0000   1.0000   1.0000   1.0000   1.0000   1.0000
     1.0000   1.0000   1.0000   1.0000   1.0000   1.0000   1.0000   1.0000
     1.0000   1.0000   1.0000   1.0000   1.0000   1.0000   1.0000   1.0000
     0.0000

          k = 0.3750 0.3750 0.6094 (  5104 PWs)   bands (ev):

   -18.5537 -18.5537 -18.5455 -18.5455 -18.5272 -18.5272 -18.5199 -18.5199
   -17.5147 -17.5147 -17.5083 -17.5083 -17.4966 -17.4966 -17.4880 -17.4880
   -17.4726 -17.4726 -17.4640 -17.4640  -8.9093  -8.9093  -8.8686  -8.8686
    -8.7251  -8.7251  -8.7176  -8.7176  -3.6911  -3.6911  -3.5929  -3.5929
    -0.4294  -0.4294  -0.2491  -0.2491  -0.0717  -0.0717   0.2281   0.2281
     0.4624   0.4624   0.9642   0.9642   1.5897   1.5897   1.7014   1.7014
     1.8603   1.8603   1.9377   1.9377   2.2499   2.2499   2.4614   2.4614
     5.1055

     occupation numbers 
     1.0000   1.0000   1.0000   1.0000   1.0000   1.0000   1.0000   1.0000
     1.0000   1.0000   1.0000   1.0000   1.0000   1.0000   1.0000   1.0000
     1.0000   1.0000   1.0000   1.0000   1.0000   1.0000   1.0000   1.0000
     1.0000   1.0000   1.0000   1.0000   1.0000   1.0000   1.0000   1.0000
     1.0000   1.0000   1.0000   1.0000   1.0000   1.0000   1.0000   1.0000
     1.0000   1.0000   1.0000   1.0000   1.0000   1.0000   1.0000   1.0000
     1.0000   1.0000   1.0000   1.0000   1.0000   1.0000   1.0000   1.0000
     0.0000

     highest occupied, lowest unoccupied level (ev):     2.9822    4.4452

!    total energy              =    -560.37647130 Ry
     estimated scf accuracy    <       0.00000002 Ry

     The total energy is the sum of the following terms:
     one-electron contribution =    -207.92316945 Ry
     hartree contribution      =     129.35731532 Ry
     xc contribution           =    -262.26786879 Ry
     ewald contribution        =    -219.54274839 Ry

     convergence has been achieved in   8 iterations

     Forces acting on atoms (cartesian axes, Ry/au):

     atom    1 type  1   force =     0.00000000    0.00000000    0.00000000
     atom    2 type  1   force =     0.00000000    0.00000000   -0.00000000
     atom    3 type  2   force =     0.00024043    0.00024043    0.00000000
     atom    4 type  2   force =    -0.00024043   -0.00024043    0.00000000
     atom    5 type  2   force =     0.00024043   -0.00024043   -0.00000000
     atom    6 type  2   force =    -0.00024043    0.00024043   -0.00000000
     The non-local contrib.  to forces
     atom    1 type  1   force =     0.00000000    0.00000000    0.00000000
     atom    2 type  1   force =     0.00000000    0.00000000    0.00000000
     atom    3 type  2   force =     0.01449312    0.01449312    0.00000000
     atom    4 type  2   force =    -0.01449312   -0.01449312    0.00000000
     atom    5 type  2   force =     0.01449312   -0.01449312    0.00000000
     atom    6 type  2   force =    -0.01449312    0.01449312    0.00000000
     The ionic contribution  to forces
     atom    1 type  1   force =    -0.00000000   -0.00000000    0.00000000
     atom    2 type  1   force =     0.00000000    0.00000000   -0.00000000
     atom    3 type  2   force =    -0.90990984   -0.90990984    0.00000000
     atom    4 type  2   force =     0.90990984    0.90990984    0.00000000
     atom    5 type  2   force =    -0.90990984    0.90990984   -0.00000000
     atom    6 type  2   force =     0.90990984   -0.90990984   -0.00000000
     The local contribution  to forces
     atom    1 type  1   force =     0.00000000    0.00000000    0.00000000
     atom    2 type  1   force =     0.00000000    0.00000000    0.00000000
     atom    3 type  2   force =     0.89728607    0.89728607   -0.00000000
     atom    4 type  2   force =    -0.89728607   -0.89728607   -0.00000000
     atom    5 type  2   force =     0.89728607   -0.89728607    0.00000000
     atom    6 type  2   force =    -0.89728607    0.89728607    0.00000000
     The core correction contribution to forces
     atom    1 type  1   force =     0.00000000    0.00000000    0.00000000
     atom    2 type  1   force =     0.00000000    0.00000000    0.00000000
     atom    3 type  2   force =    -0.00161210   -0.00161210    0.00000000
     atom    4 type  2   force =     0.00161210    0.00161210   -0.00000000
     atom    5 type  2   force =    -0.00161210    0.00161210    0.00000000
     atom    6 type  2   force =     0.00161210   -0.00161210    0.00000000
     The Hubbard contrib.    to forces
     atom    1 type  1   force =     0.00000000    0.00000000    0.00000000
     atom    2 type  1   force =     0.00000000    0.00000000    0.00000000
     atom    3 type  2   force =     0.00000000    0.00000000    0.00000000
     atom    4 type  2   force =     0.00000000    0.00000000    0.00000000
     atom    5 type  2   force =     0.00000000    0.00000000    0.00000000
     atom    6 type  2   force =     0.00000000    0.00000000    0.00000000
     The SCF correction term to forces
     atom    1 type  1   force =     0.00000000   -0.00000000   -0.00000000
     atom    2 type  1   force =    -0.00000000    0.00000000   -0.00000000
     atom    3 type  2   force =    -0.00001682   -0.00001682   -0.00000000
     atom    4 type  2   force =     0.00001682    0.00001682   -0.00000000
     atom    5 type  2   force =    -0.00001682    0.00001682   -0.00000000
     atom    6 type  2   force =     0.00001682   -0.00001682   -0.00000000

     Total force =     0.000680     Total SCF correction =     0.000048


     Computing stress (Cartesian axis) and pressure

          total   stress  (Ry/bohr**3)                   (kbar)     P=     -599.59
  -0.00407941   0.00000000   0.00000000         -600.10        0.00        0.00
   0.00000000  -0.00407941   0.00000000            0.00     -600.10        0.00
   0.00000000   0.00000000  -0.00406900            0.00        0.00     -598.57

     kinetic stress (kbar)   7532.93      0.00      0.00
                                0.00   7532.93      0.00
                                0.00      0.00   7507.89

     local   stress (kbar)    733.40     -0.00      0.00
                               -0.00    733.40     -0.00
                                0.00     -0.00  -3679.57

     nonloc. stress (kbar)  -2789.55      0.00      0.00
                                0.00  -2789.55      0.00
                                0.00      0.00  -2781.55

     hartree stress (kbar)   2807.70     -0.00     -0.00
                               -0.00   2807.70     -0.00
                               -0.00     -0.00   4697.64

     exc-cor stress (kbar)  14199.56     -0.00      0.00
                               -0.00  14199.56     -0.00
                                0.00     -0.00  14200.46

     corecor stress (kbar) -16403.38     -0.00     -0.00
                               -0.00 -16403.38     -0.00
                               -0.00     -0.00 -16401.87

     ewald   stress (kbar)  -6680.77     -0.00     -0.00
                               -0.00  -6680.77      0.00
                               -0.00      0.00  -4141.56

     hubbard stress (kbar)      0.00      0.00      0.00
                                0.00      0.00      0.00
                                0.00      0.00      0.00

     DFT-D   stress (kbar)      0.00      0.00      0.00
                                0.00      0.00      0.00
                                0.00      0.00      0.00

     XDM     stress (kbar)      0.00      0.00      0.00
                                0.00      0.00      0.00
                                0.00      0.00      0.00

     dft-nl  stress (kbar)      0.00      0.00      0.00
                                0.00      0.00      0.00
                                0.00      0.00      0.00

     TS-vdW  stress (kbar)      0.00      0.00      0.00
                                0.00      0.00      0.00
                                0.00      0.00      0.00



     Writing output data file ./out/SnI2.save/
 
     init_run     :      2.03s CPU     13.82s WALL (       1 calls)
     electrons    :     14.66s CPU     28.87s WALL (       1 calls)
     forces       :      0.56s CPU      0.56s WALL (       1 calls)
     stress       :      1.04s CPU      3.56s WALL (       1 calls)

     Called by init_run:
     wfcinit      :      1.32s CPU      4.61s WALL (       1 calls)
     wfcinit:atom :      0.00s CPU      0.24s WALL (       6 calls)
     wfcinit:wfcr :      1.30s CPU      3.23s WALL (       6 calls)
     potinit      :      0.16s CPU      3.04s WALL (       1 calls)
     hinit0       :      0.27s CPU      2.91s WALL (       1 calls)

     Called by electrons:
     c_bands      :     10.24s CPU     17.08s WALL (       9 calls)
     sum_band     :      2.27s CPU      4.50s WALL (       9 calls)
     v_of_rho     :      0.16s CPU      1.81s WALL (       9 calls)
     v_h          :      0.03s CPU      0.26s WALL (       9 calls)
     v_xc         :      0.16s CPU      1.16s WALL (      11 calls)
     newd         :      0.93s CPU      1.06s WALL (       9 calls)
     mix_rho      :      0.06s CPU      0.62s WALL (       9 calls)

     Called by c_bands:
     init_us_2    :      0.08s CPU      0.28s WALL (     126 calls)
     cegterg      :      9.38s CPU      9.96s WALL (      54 calls)

     Called by sum_band:
     sum_band:wei :      0.00s CPU      0.24s WALL (       9 calls)
     sum_band:loo :      1.74s CPU      2.72s WALL (       9 calls)
     sum_band:buf :      0.03s CPU      0.04s WALL (      54 calls)
     sum_band:ini :      0.04s CPU      0.04s WALL (      54 calls)
     sum_band:cal :      0.15s CPU      0.19s WALL (      54 calls)
     sum_band:bec :      0.29s CPU      0.73s WALL (      54 calls)
     addusdens    :      0.40s CPU      0.44s WALL (       9 calls)
     addusd:skk   :      0.00s CPU      0.00s WALL (      18 calls)
     addusd:dgemm :      0.23s CPU      0.25s WALL (      18 calls)
     addusd:qvan2 :      0.17s CPU      0.17s WALL (      18 calls)

     Called by *egterg:
     cdiaghg      :      1.07s CPU      1.09s WALL (     226 calls)
     cegterg:over :      0.45s CPU      0.46s WALL (     178 calls)
     cegterg:upda :      0.18s CPU      0.19s WALL (     178 calls)
     cegterg:last :      0.39s CPU      0.39s WALL (     130 calls)
     h_psi        :      7.61s CPU      8.73s WALL (     238 calls)
     s_psi        :      0.59s CPU      1.12s WALL (     238 calls)
     g_psi        :      0.02s CPU      0.02s WALL (     178 calls)

     Called by h_psi:
     h_psi:calbec :      0.47s CPU      0.78s WALL (     238 calls)
     vloc_psi     :      6.47s CPU      6.94s WALL (     238 calls)
     add_vuspsi   :      0.62s CPU      0.77s WALL (     238 calls)

     General routines
     calbec       :      0.75s CPU      0.77s WALL (     322 calls)
     fft          :      0.15s CPU      0.30s WALL (     152 calls)
     ffts         :      0.01s CPU      0.01s WALL (      36 calls)
     fftw         :      7.23s CPU      7.69s WALL (   42224 calls)
 
     Parallel routines
     fft_scatt_xy :      0.38s CPU      0.39s WALL (   42412 calls)
     fft_scatt_yz :      4.38s CPU      4.69s WALL (   42412 calls)
 
     PWSCF        :     24.52s CPU   1m14.70s WALL

 
   This run was terminated on:  11:42: 1  31Jan2021            

=------------------------------------------------------------------------------=
   JOB DONE.
=------------------------------------------------------------------------------=
