
     Program PWSCF v.6.7MaX starts on 15Jan2021 at 12:24:56 

     This program is part of the open-source Quantum ESPRESSO suite
     for quantum simulation of materials; please cite
         "P. Giannozzi et al., J. Phys.:Condens. Matter 21 395502 (2009);
         "P. Giannozzi et al., J. Phys.:Condens. Matter 29 465901 (2017);
          URL http://www.quantum-espresso.org", 
     in publications or presentations arising from this work. More details at
     http://www.quantum-espresso.org/quote

     Parallel version (MPI), running on    32 processors

     MPI processes distributed on     1 nodes
     R & G space division:  proc/nbgrp/npool/nimage =      32
     Waiting for input...
     Reading input from standard input

     Current dimensions of program PWSCF are:
     Max number of different atomic species (ntypx) = 10
     Max number of k-points (npk) =  40000
     Max angular momentum in pseudopotentials (lmaxx) =  3
     file Sn.pbe-dn-kjpaw_psl.1.0.0.UPF: wavefunction(s)  5S 5P 4D renormalized
     file I.pbe-n-kjpaw_psl.1.0.0.UPF: wavefunction(s)  5S renormalized

     Subspace diagonalization in iterative solution of the eigenvalue problem:
     a serial algorithm will be used

     Message from routine setup:
     using ibrav=0 with symmetry is DISCOURAGED, use correct ibrav instead

     Parallelization info
     --------------------
     sticks:   dense  smooth     PW     G-vecs:    dense   smooth      PW
     Min         144     144     39                 4560     4560     656
     Max         145     145     41                 4563     4563     658
     Sum        4637    4637   1281               145963   145963   21033


     Title: 
     SnI2tetr                                                                   


     bravais-lattice index     =            0
     lattice parameter (alat)  =      14.4199  a.u.
     unit-cell volume          =    1845.1511 (a.u.)^3
     number of atoms/cell      =            6
     number of atomic types    =            2
     number of electrons       =        56.00
     number of Kohn-Sham states=           28
     kinetic-energy cutoff     =      70.0000  Ry
     charge density cutoff     =     280.0000  Ry
     scf convergence threshold =      1.0E-06
     mixing beta               =       0.7000
     number of iterations used =            8  plain     mixing
     Exchange-correlation= SLA  PW   PBX  PBC
                           (   1   4   3   4   0   0   0)

     celldm(1)=  14.419944  celldm(2)=   0.000000  celldm(3)=   0.000000
     celldm(4)=   0.000000  celldm(5)=   0.000000  celldm(6)=   0.000000

     crystal axes: (cart. coord. in units of alat)
               a(1) = (   1.000000   0.000000   0.000000 )  
               a(2) = (   0.000000   1.000000   0.000000 )  
               a(3) = (   0.000000   0.000000   0.615377 )  

     reciprocal axes: (cart. coord. in units 2 pi/alat)
               b(1) = (  1.000000  0.000000  0.000000 )  
               b(2) = (  0.000000  1.000000  0.000000 )  
               b(3) = (  0.000000  0.000000  1.625020 )  


     PseudoPot. # 1 for Sn read from file:
     ../../../pseudo/Sn.pbe-dn-kjpaw_psl.1.0.0.UPF
     MD5 check sum: 67f11dec737d427557dc41ea34975807
     Pseudo is Projector augmented-wave + core cor, Zval = 14.0
     Generated using &quot;atomic&quot; code by A. Dal Corso  v.6.3
     Shape of augmentation charge: PSQ
     Using radial grid of 1243 points,  6 beta functions with: 
                l(1) =   0
                l(2) =   0
                l(3) =   1
                l(4) =   1
                l(5) =   2
                l(6) =   2
     Q(r) pseudized with 0 coefficients 


     PseudoPot. # 2 for I  read from file:
     ../../../pseudo/I.pbe-n-kjpaw_psl.1.0.0.UPF
     MD5 check sum: cd3d296c3308a581e1559a0c8a554cb5
     Pseudo is Projector augmented-wave + core cor, Zval =  7.0
     Generated using &quot;atomic&quot; code by A. Dal Corso  v.6.3
     Shape of augmentation charge: PSQ
     Using radial grid of 1247 points,  6 beta functions with: 
                l(1) =   0
                l(2) =   0
                l(3) =   1
                l(4) =   1
                l(5) =   2
                l(6) =   2
     Q(r) pseudized with 0 coefficients 


     atomic species   valence    mass     pseudopotential
        Sn            14.00   118.70000     Sn( 1.00)
        I              7.00   126.90000     I ( 1.00)

     16 Sym. Ops., with inversion, found ( 8 have fractional translation)


                                    s                        frac. trans.

      isym =  1     identity                                     

 cryst.   s( 1) = (     1          0          0      )
                  (     0          1          0      )
                  (     0          0          1      )

 cart.    s( 1) = (  1.0000000  0.0000000  0.0000000 )
                  (  0.0000000  1.0000000  0.0000000 )
                  (  0.0000000  0.0000000  1.0000000 )


      isym =  2     180 deg rotation - cart. axis [0,0,1]        

 cryst.   s( 2) = (    -1          0          0      )
                  (     0         -1          0      )
                  (     0          0          1      )

 cart.    s( 2) = ( -1.0000000  0.0000000  0.0000000 )
                  (  0.0000000 -1.0000000  0.0000000 )
                  (  0.0000000  0.0000000  1.0000000 )


      isym =  3     180 deg rotation - cart. axis [0,1,0]        

 cryst.   s( 3) = (    -1          0          0      )    f =(  0.5000000 )
                  (     0          1          0      )       ( -0.5000000 )
                  (     0          0         -1      )       (  0.5000000 )

 cart.    s( 3) = ( -1.0000000  0.0000000  0.0000000 )    f =(  0.5000000 )
                  (  0.0000000  1.0000000  0.0000000 )       ( -0.5000000 )
                  (  0.0000000  0.0000000 -1.0000000 )       (  0.3076884 )


      isym =  4     180 deg rotation - cart. axis [1,0,0]        

 cryst.   s( 4) = (     1          0          0      )    f =( -0.5000000 )
                  (     0         -1          0      )       (  0.5000000 )
                  (     0          0         -1      )       (  0.5000000 )

 cart.    s( 4) = (  1.0000000  0.0000000  0.0000000 )    f =( -0.5000000 )
                  (  0.0000000 -1.0000000  0.0000000 )       (  0.5000000 )
                  (  0.0000000  0.0000000 -1.0000000 )       (  0.3076884 )


      isym =  5     180 deg rotation - cart. axis [1,1,0]        

 cryst.   s( 5) = (     0          1          0      )
                  (     1          0          0      )
                  (     0          0         -1      )

 cart.    s( 5) = (  0.0000000  1.0000000  0.0000000 )
                  (  1.0000000  0.0000000  0.0000000 )
                  (  0.0000000  0.0000000 -1.0000000 )


      isym =  6     180 deg rotation - cart. axis [1,-1,0]       

 cryst.   s( 6) = (     0         -1          0      )
                  (    -1          0          0      )
                  (     0          0         -1      )

 cart.    s( 6) = (  0.0000000 -1.0000000  0.0000000 )
                  ( -1.0000000  0.0000000  0.0000000 )
                  (  0.0000000  0.0000000 -1.0000000 )


      isym =  7      90 deg rotation - cart. axis [0,0,-1]       

 cryst.   s( 7) = (     0         -1          0      )    f =( -0.5000000 )
                  (     1          0          0      )       (  0.5000000 )
                  (     0          0          1      )       ( -0.5000000 )

 cart.    s( 7) = (  0.0000000  1.0000000  0.0000000 )    f =( -0.5000000 )
                  ( -1.0000000  0.0000000  0.0000000 )       (  0.5000000 )
                  (  0.0000000  0.0000000  1.0000000 )       ( -0.3076884 )


      isym =  8      90 deg rotation - cart. axis [0,0,1]        

 cryst.   s( 8) = (     0          1          0      )    f =(  0.5000000 )
                  (    -1          0          0      )       ( -0.5000000 )
                  (     0          0          1      )       ( -0.5000000 )

 cart.    s( 8) = (  0.0000000 -1.0000000  0.0000000 )    f =(  0.5000000 )
                  (  1.0000000  0.0000000  0.0000000 )       ( -0.5000000 )
                  (  0.0000000  0.0000000  1.0000000 )       ( -0.3076884 )


      isym =  9     inversion                                    

 cryst.   s( 9) = (    -1          0          0      )
                  (     0         -1          0      )
                  (     0          0         -1      )

 cart.    s( 9) = ( -1.0000000  0.0000000  0.0000000 )
                  (  0.0000000 -1.0000000  0.0000000 )
                  (  0.0000000  0.0000000 -1.0000000 )


      isym = 10     inv. 180 deg rotation - cart. axis [0,0,1]   

 cryst.   s(10) = (     1          0          0      )
                  (     0          1          0      )
                  (     0          0         -1      )

 cart.    s(10) = (  1.0000000  0.0000000  0.0000000 )
                  (  0.0000000  1.0000000  0.0000000 )
                  (  0.0000000  0.0000000 -1.0000000 )


      isym = 11     inv. 180 deg rotation - cart. axis [0,1,0]   

 cryst.   s(11) = (     1          0          0      )    f =( -0.5000000 )
                  (     0         -1          0      )       (  0.5000000 )
                  (     0          0          1      )       ( -0.5000000 )

 cart.    s(11) = (  1.0000000  0.0000000  0.0000000 )    f =( -0.5000000 )
                  (  0.0000000 -1.0000000  0.0000000 )       (  0.5000000 )
                  (  0.0000000  0.0000000  1.0000000 )       ( -0.3076884 )


      isym = 12     inv. 180 deg rotation - cart. axis [1,0,0]   

 cryst.   s(12) = (    -1          0          0      )    f =(  0.5000000 )
                  (     0          1          0      )       ( -0.5000000 )
                  (     0          0          1      )       ( -0.5000000 )

 cart.    s(12) = ( -1.0000000  0.0000000  0.0000000 )    f =(  0.5000000 )
                  (  0.0000000  1.0000000  0.0000000 )       ( -0.5000000 )
                  (  0.0000000  0.0000000  1.0000000 )       ( -0.3076884 )


      isym = 13     inv. 180 deg rotation - cart. axis [1,1,0]   

 cryst.   s(13) = (     0         -1          0      )
                  (    -1          0          0      )
                  (     0          0          1      )

 cart.    s(13) = (  0.0000000 -1.0000000  0.0000000 )
                  ( -1.0000000  0.0000000  0.0000000 )
                  (  0.0000000  0.0000000  1.0000000 )


      isym = 14     inv. 180 deg rotation - cart. axis [1,-1,0]  

 cryst.   s(14) = (     0          1          0      )
                  (     1          0          0      )
                  (     0          0          1      )

 cart.    s(14) = (  0.0000000  1.0000000  0.0000000 )
                  (  1.0000000  0.0000000  0.0000000 )
                  (  0.0000000  0.0000000  1.0000000 )


      isym = 15     inv.  90 deg rotation - cart. axis [0,0,-1]  

 cryst.   s(15) = (     0          1          0      )    f =(  0.5000000 )
                  (    -1          0          0      )       ( -0.5000000 )
                  (     0          0         -1      )       (  0.5000000 )

 cart.    s(15) = (  0.0000000 -1.0000000  0.0000000 )    f =(  0.5000000 )
                  (  1.0000000  0.0000000  0.0000000 )       ( -0.5000000 )
                  (  0.0000000  0.0000000 -1.0000000 )       (  0.3076884 )


      isym = 16     inv.  90 deg rotation - cart. axis [0,0,1]   

 cryst.   s(16) = (     0         -1          0      )    f =( -0.5000000 )
                  (     1          0          0      )       (  0.5000000 )
                  (     0          0         -1      )       (  0.5000000 )

 cart.    s(16) = (  0.0000000  1.0000000  0.0000000 )    f =( -0.5000000 )
                  ( -1.0000000  0.0000000  0.0000000 )       (  0.5000000 )
                  (  0.0000000  0.0000000 -1.0000000 )       (  0.3076884 )


   Cartesian axes

     site n.     atom                  positions (alat units)
         1           Sn  tau(   1) = (   0.0000000   0.0000000   0.0000000  )
         2           Sn  tau(   2) = (   0.5000000   0.5000000   0.3076884  )
         3           I   tau(   3) = (   0.2985210   0.2985210   0.0000000  )
         4           I   tau(   4) = (   0.7014790   0.7014790   0.0000000  )
         5           I   tau(   5) = (   0.7985210   0.2014790   0.3076884  )
         6           I   tau(   6) = (   0.2014790   0.7985210   0.3076884  )

   Crystallographic axes

     site n.     atom                  positions (cryst. coord.)
         1           Sn  tau(   1) = (  0.0000000  0.0000000  0.0000000  )
         2           Sn  tau(   2) = (  0.5000000  0.5000000  0.5000000  )
         3           I   tau(   3) = (  0.2985210  0.2985210  0.0000000  )
         4           I   tau(   4) = (  0.7014790  0.7014790  0.0000000  )
         5           I   tau(   5) = (  0.7985210  0.2014790  0.5000000  )
         6           I   tau(   6) = (  0.2014790  0.7985210  0.5000000  )

     number of k points=    40
                       cart. coord. in units 2pi/alat
        k(    1) = (   0.0000000   0.0000000   0.0000000), wk =   0.0058309
        k(    2) = (   0.0000000   0.0000000   0.2321458), wk =   0.0116618
        k(    3) = (   0.0000000   0.0000000   0.4642916), wk =   0.0116618
        k(    4) = (   0.0000000   0.0000000   0.6964373), wk =   0.0116618
        k(    5) = (   0.0000000   0.1428571   0.0000000), wk =   0.0233236
        k(    6) = (   0.0000000   0.1428571   0.2321458), wk =   0.0466472
        k(    7) = (   0.0000000   0.1428571   0.4642916), wk =   0.0466472
        k(    8) = (   0.0000000   0.1428571   0.6964373), wk =   0.0466472
        k(    9) = (   0.0000000   0.2857143   0.0000000), wk =   0.0233236
        k(   10) = (   0.0000000   0.2857143   0.2321458), wk =   0.0466472
        k(   11) = (   0.0000000   0.2857143   0.4642916), wk =   0.0466472
        k(   12) = (   0.0000000   0.2857143   0.6964373), wk =   0.0466472
        k(   13) = (   0.0000000   0.4285714   0.0000000), wk =   0.0233236
        k(   14) = (   0.0000000   0.4285714   0.2321458), wk =   0.0466472
        k(   15) = (   0.0000000   0.4285714   0.4642916), wk =   0.0466472
        k(   16) = (   0.0000000   0.4285714   0.6964373), wk =   0.0466472
        k(   17) = (   0.1428571   0.1428571   0.0000000), wk =   0.0233236
        k(   18) = (   0.1428571   0.1428571   0.2321458), wk =   0.0466472
        k(   19) = (   0.1428571   0.1428571   0.4642916), wk =   0.0466472
        k(   20) = (   0.1428571   0.1428571   0.6964373), wk =   0.0466472
        k(   21) = (   0.1428571   0.2857143   0.0000000), wk =   0.0466472
        k(   22) = (   0.1428571   0.2857143   0.2321458), wk =   0.0932945
        k(   23) = (   0.1428571   0.2857143   0.4642916), wk =   0.0932945
        k(   24) = (   0.1428571   0.2857143   0.6964373), wk =   0.0932945
        k(   25) = (   0.1428571   0.4285714   0.0000000), wk =   0.0466472
        k(   26) = (   0.1428571   0.4285714   0.2321458), wk =   0.0932945
        k(   27) = (   0.1428571   0.4285714   0.4642916), wk =   0.0932945
        k(   28) = (   0.1428571   0.4285714   0.6964373), wk =   0.0932945
        k(   29) = (   0.2857143   0.2857143   0.0000000), wk =   0.0233236
        k(   30) = (   0.2857143   0.2857143   0.2321458), wk =   0.0466472
        k(   31) = (   0.2857143   0.2857143   0.4642916), wk =   0.0466472
        k(   32) = (   0.2857143   0.2857143   0.6964373), wk =   0.0466472
        k(   33) = (   0.2857143   0.4285714   0.0000000), wk =   0.0466472
        k(   34) = (   0.2857143   0.4285714   0.2321458), wk =   0.0932945
        k(   35) = (   0.2857143   0.4285714   0.4642916), wk =   0.0932945
        k(   36) = (   0.2857143   0.4285714   0.6964373), wk =   0.0932945
        k(   37) = (   0.4285714   0.4285714   0.0000000), wk =   0.0233236
        k(   38) = (   0.4285714   0.4285714   0.2321458), wk =   0.0466472
        k(   39) = (   0.4285714   0.4285714   0.4642916), wk =   0.0466472
        k(   40) = (   0.4285714   0.4285714   0.6964373), wk =   0.0466472

                       cryst. coord.
        k(    1) = (   0.0000000   0.0000000   0.0000000), wk =   0.0058309
        k(    2) = (   0.0000000   0.0000000   0.1428571), wk =   0.0116618
        k(    3) = (   0.0000000   0.0000000   0.2857143), wk =   0.0116618
        k(    4) = (   0.0000000   0.0000000   0.4285714), wk =   0.0116618
        k(    5) = (   0.0000000   0.1428571   0.0000000), wk =   0.0233236
        k(    6) = (   0.0000000   0.1428571   0.1428571), wk =   0.0466472
        k(    7) = (   0.0000000   0.1428571   0.2857143), wk =   0.0466472
        k(    8) = (   0.0000000   0.1428571   0.4285714), wk =   0.0466472
        k(    9) = (   0.0000000   0.2857143   0.0000000), wk =   0.0233236
        k(   10) = (   0.0000000   0.2857143   0.1428571), wk =   0.0466472
        k(   11) = (   0.0000000   0.2857143   0.2857143), wk =   0.0466472
        k(   12) = (   0.0000000   0.2857143   0.4285714), wk =   0.0466472
        k(   13) = (   0.0000000   0.4285714   0.0000000), wk =   0.0233236
        k(   14) = (   0.0000000   0.4285714   0.1428571), wk =   0.0466472
        k(   15) = (   0.0000000   0.4285714   0.2857143), wk =   0.0466472
        k(   16) = (   0.0000000   0.4285714   0.4285714), wk =   0.0466472
        k(   17) = (   0.1428571   0.1428571   0.0000000), wk =   0.0233236
        k(   18) = (   0.1428571   0.1428571   0.1428571), wk =   0.0466472
        k(   19) = (   0.1428571   0.1428571   0.2857143), wk =   0.0466472
        k(   20) = (   0.1428571   0.1428571   0.4285714), wk =   0.0466472
        k(   21) = (   0.1428571   0.2857143   0.0000000), wk =   0.0466472
        k(   22) = (   0.1428571   0.2857143   0.1428571), wk =   0.0932945
        k(   23) = (   0.1428571   0.2857143   0.2857143), wk =   0.0932945
        k(   24) = (   0.1428571   0.2857143   0.4285714), wk =   0.0932945
        k(   25) = (   0.1428571   0.4285714   0.0000000), wk =   0.0466472
        k(   26) = (   0.1428571   0.4285714   0.1428571), wk =   0.0932945
        k(   27) = (   0.1428571   0.4285714   0.2857143), wk =   0.0932945
        k(   28) = (   0.1428571   0.4285714   0.4285714), wk =   0.0932945
        k(   29) = (   0.2857143   0.2857143   0.0000000), wk =   0.0233236
        k(   30) = (   0.2857143   0.2857143   0.1428571), wk =   0.0466472
        k(   31) = (   0.2857143   0.2857143   0.2857143), wk =   0.0466472
        k(   32) = (   0.2857143   0.2857143   0.4285714), wk =   0.0466472
        k(   33) = (   0.2857143   0.4285714   0.0000000), wk =   0.0466472
        k(   34) = (   0.2857143   0.4285714   0.1428571), wk =   0.0932945
        k(   35) = (   0.2857143   0.4285714   0.2857143), wk =   0.0932945
        k(   36) = (   0.2857143   0.4285714   0.4285714), wk =   0.0932945
        k(   37) = (   0.4285714   0.4285714   0.0000000), wk =   0.0233236
        k(   38) = (   0.4285714   0.4285714   0.1428571), wk =   0.0466472
        k(   39) = (   0.4285714   0.4285714   0.2857143), wk =   0.0466472
        k(   40) = (   0.4285714   0.4285714   0.4285714), wk =   0.0466472

     Dense  grid:   145963 G-vectors     FFT dimensions: (  80,  80,  48)

     Dynamical RAM for                 wfc:       0.24 MB

     Dynamical RAM for     wfc (w. buffer):       9.98 MB

     Dynamical RAM for           str. fact:       0.14 MB

     Dynamical RAM for           local pot:       0.00 MB

     Dynamical RAM for          nlocal pot:       0.94 MB

     Dynamical RAM for                qrad:       2.69 MB

     Dynamical RAM for          rho,v,vnew:       0.50 MB

     Dynamical RAM for               rhoin:       0.17 MB

     Dynamical RAM for            rho*nmix:       1.11 MB

     Dynamical RAM for           G-vectors:       0.30 MB

     Dynamical RAM for          h,s,v(r/c):       0.14 MB

     Dynamical RAM for          <psi|beta>:       0.05 MB

     Dynamical RAM for                 psi:       0.49 MB

     Dynamical RAM for                hpsi:       0.49 MB

     Dynamical RAM for                spsi:       0.49 MB

     Dynamical RAM for      wfcinit/wfcrot:       0.62 MB

     Dynamical RAM for           addusdens:      13.23 MB

     Dynamical RAM for          addusforce:      13.70 MB

     Dynamical RAM for         addusstress:      13.99 MB

     Estimated static dynamical RAM per process >      16.53 MB

     Estimated max dynamical RAM per process >      30.52 MB

     Estimated total dynamical RAM >     976.68 MB

     Initial potential from superposition of free atoms

     starting charge   55.99693, renormalised to   56.00000
     Starting wfcs are   34 randomized atomic wfcs
     Checking if some PAW data can be deallocated... 
       PAW data deallocated on   20 nodes for type:  1
       PAW data deallocated on   12 nodes for type:  2

     total cpu time spent up to now is        4.9 secs

     Self-consistent Calculation

     iteration #  1     ecut=    70.00 Ry     beta= 0.70
     Davidson diagonalization with overlap
     ethr =  1.00E-02,  avg # of iterations =  1.1

     Threshold (ethr) on eigenvalues was too large:
     Diagonalizing with lowered threshold

     Davidson diagonalization with overlap
     ethr =  2.36E-04,  avg # of iterations =  2.4

     total cpu time spent up to now is       20.0 secs

     total energy              =   -2399.94196677 Ry
     estimated scf accuracy    <       0.11837746 Ry

     iteration #  2     ecut=    70.00 Ry     beta= 0.70
     Davidson diagonalization with overlap
     ethr =  2.11E-04,  avg # of iterations =  3.9

     total cpu time spent up to now is       29.8 secs

     total energy              =   -2399.98092946 Ry
     estimated scf accuracy    <       0.05006730 Ry

     iteration #  3     ecut=    70.00 Ry     beta= 0.70
     Davidson diagonalization with overlap
     ethr =  8.94E-05,  avg # of iterations =  2.3

     total cpu time spent up to now is       38.2 secs

     total energy              =   -2399.98937069 Ry
     estimated scf accuracy    <       0.00112666 Ry

     iteration #  4     ecut=    70.00 Ry     beta= 0.70
     Davidson diagonalization with overlap
     ethr =  2.01E-06,  avg # of iterations =  5.9

     total cpu time spent up to now is       52.0 secs

     total energy              =   -2399.99036515 Ry
     estimated scf accuracy    <       0.00084276 Ry

     iteration #  5     ecut=    70.00 Ry     beta= 0.70
     Davidson diagonalization with overlap
     ethr =  1.50E-06,  avg # of iterations =  2.0

     total cpu time spent up to now is       60.3 secs

     total energy              =   -2399.99042120 Ry
     estimated scf accuracy    <       0.00007157 Ry

     iteration #  6     ecut=    70.00 Ry     beta= 0.70
     Davidson diagonalization with overlap
     ethr =  1.28E-07,  avg # of iterations =  5.1

     total cpu time spent up to now is       71.5 secs

     total energy              =   -2399.99046310 Ry
     estimated scf accuracy    <       0.00002164 Ry

     iteration #  7     ecut=    70.00 Ry     beta= 0.70
     Davidson diagonalization with overlap
     ethr =  3.87E-08,  avg # of iterations =  2.0

     total cpu time spent up to now is       79.7 secs

     total energy              =   -2399.99046445 Ry
     estimated scf accuracy    <       0.00000185 Ry

     iteration #  8     ecut=    70.00 Ry     beta= 0.70
     Davidson diagonalization with overlap
     ethr =  3.30E-09,  avg # of iterations =  5.2

     total cpu time spent up to now is       91.0 secs

     End of self-consistent calculation

          k = 0.0000 0.0000 0.0000 ( 18231 PWs)   bands (ev):

   -18.3192 -18.3163 -18.3088 -18.3084 -18.3054 -18.3054 -18.3051 -18.3051
   -18.3047 -18.3047  -9.3439  -8.8364  -8.8364  -8.7178  -4.1158  -2.2595
    -0.1084  -0.1084   0.4264   0.7347   1.2464   1.3476   1.5941   1.5941
     2.0023   2.0023   2.3756   2.8709

     occupation numbers 
     1.0000   1.0000   1.0000   1.0000   1.0000   1.0000   1.0000   1.0000
     1.0000   1.0000   1.0000   1.0000   1.0000   1.0000   1.0000   1.0000
     1.0000   1.0000   1.0000   1.0000   1.0000   1.0000   1.0000   1.0000
     1.0000   1.0000   1.0000   1.0000

          k = 0.0000 0.0000 0.2321 ( 18263 PWs)   bands (ev):

   -18.3187 -18.3160 -18.3087 -18.3084 -18.3063 -18.3063 -18.3049 -18.3049
   -18.3045 -18.3044  -9.2914  -8.8140  -8.8140  -8.7171  -4.0982  -2.4445
    -0.0354  -0.0354   0.2003   0.6891   0.8139   1.1743   1.1743   1.8673
     1.9879   1.9879   2.3017   3.0533

     occupation numbers 
     1.0000   1.0000   1.0000   1.0000   1.0000   1.0000   1.0000   1.0000
     1.0000   1.0000   1.0000   1.0000   1.0000   1.0000   1.0000   1.0000
     1.0000   1.0000   1.0000   1.0000   1.0000   1.0000   1.0000   1.0000
     1.0000   1.0000   1.0000   1.0000

          k = 0.0000 0.0000 0.4643 ( 18228 PWs)   bands (ev):

   -18.3174 -18.3155 -18.3086 -18.3084 -18.3082 -18.3082 -18.3053 -18.3053
   -18.3028 -18.3028  -9.1504  -8.7625  -8.7625  -8.7360  -4.0247  -2.9164
    -0.0908   0.1222   0.1222   0.3163   0.5691   0.5691   1.0394   1.8446
     1.8446   2.0587   2.0833   3.0143

     occupation numbers 
     1.0000   1.0000   1.0000   1.0000   1.0000   1.0000   1.0000   1.0000
     1.0000   1.0000   1.0000   1.0000   1.0000   1.0000   1.0000   1.0000
     1.0000   1.0000   1.0000   1.0000   1.0000   1.0000   1.0000   1.0000
     1.0000   1.0000   1.0000   1.0000

          k = 0.0000 0.0000 0.6964 ( 18188 PWs)   bands (ev):

   -18.3162 -18.3155 -18.3097 -18.3097 -18.3085 -18.3084 -18.3057 -18.3057
   -18.3014 -18.3014  -8.9698  -8.8166  -8.7201  -8.7201  -3.8276  -3.4429
    -0.1251   0.0155   0.0155   0.0596   0.4953   0.4953   1.3736   1.6527
     1.6527   1.7500   2.1990   2.5834

     occupation numbers 
     1.0000   1.0000   1.0000   1.0000   1.0000   1.0000   1.0000   1.0000
     1.0000   1.0000   1.0000   1.0000   1.0000   1.0000   1.0000   1.0000
     1.0000   1.0000   1.0000   1.0000   1.0000   1.0000   1.0000   1.0000
     1.0000   1.0000   1.0000   1.0000

          k = 0.0000 0.1429 0.0000 ( 18275 PWs)   bands (ev):

   -18.3191 -18.3164 -18.3087 -18.3085 -18.3055 -18.3055 -18.3051 -18.3051
   -18.3047 -18.3047  -9.3248  -8.8784  -8.8274  -8.7103  -4.0483  -2.4158
    -0.0601   0.0527   0.4564   0.7760   1.1822   1.2491   1.6047   1.6413
     1.9684   2.0043   2.3198   2.7615

     occupation numbers 
     1.0000   1.0000   1.0000   1.0000   1.0000   1.0000   1.0000   1.0000
     1.0000   1.0000   1.0000   1.0000   1.0000   1.0000   1.0000   1.0000
     1.0000   1.0000   1.0000   1.0000   1.0000   1.0000   1.0000   1.0000
     1.0000   1.0000   1.0000   1.0000

          k = 0.0000 0.1429 0.2321 ( 18244 PWs)   bands (ev):

   -18.3185 -18.3161 -18.3087 -18.3085 -18.3063 -18.3063 -18.3049 -18.3049
   -18.3045 -18.3044  -9.2732  -8.8543  -8.8062  -8.7082  -4.0351  -2.5692
    -0.0920   0.0234   0.3392   0.6704   0.8275   1.2113   1.2473   1.8067
     1.9425   1.9842   2.2719   2.9517

     occupation numbers 
     1.0000   1.0000   1.0000   1.0000   1.0000   1.0000   1.0000   1.0000
     1.0000   1.0000   1.0000   1.0000   1.0000   1.0000   1.0000   1.0000
     1.0000   1.0000   1.0000   1.0000   1.0000   1.0000   1.0000   1.0000
     1.0000   1.0000   1.0000   1.0000

          k = 0.0000 0.1429 0.4643 ( 18244 PWs)   bands (ev):

   -18.3173 -18.3156 -18.3086 -18.3084 -18.3082 -18.3082 -18.3054 -18.3054
   -18.3028 -18.3028  -9.1356  -8.8027  -8.7582  -8.7180  -3.9766  -2.9818
    -0.2632  -0.0511   0.3012   0.3319   0.5888   0.8315   1.1115   1.7986
     1.8234   2.0616   2.0906   2.9691

     occupation numbers 
     1.0000   1.0000   1.0000   1.0000   1.0000   1.0000   1.0000   1.0000
     1.0000   1.0000   1.0000   1.0000   1.0000   1.0000   1.0000   1.0000
     1.0000   1.0000   1.0000   1.0000   1.0000   1.0000   1.0000   1.0000
     1.0000   1.0000   1.0000   1.0000

          k = 0.0000 0.1429 0.6964 ( 18228 PWs)   bands (ev):

   -18.3162 -18.3156 -18.3097 -18.3097 -18.3085 -18.3084 -18.3057 -18.3057
   -18.3015 -18.3014  -8.9613  -8.8213  -8.7232  -8.7212  -3.8067  -3.4594
    -0.3068  -0.1778   0.0309   0.0605   0.6965   0.7652   1.4057   1.6107
     1.6224   1.7764   2.2576   2.6163

     occupation numbers 
     1.0000   1.0000   1.0000   1.0000   1.0000   1.0000   1.0000   1.0000
     1.0000   1.0000   1.0000   1.0000   1.0000   1.0000   1.0000   1.0000
     1.0000   1.0000   1.0000   1.0000   1.0000   1.0000   1.0000   1.0000
     1.0000   1.0000   1.0000   1.0000

          k = 0.0000 0.2857 0.0000 ( 18266 PWs)   bands (ev):

   -18.3187 -18.3168 -18.3087 -18.3085 -18.3054 -18.3054 -18.3051 -18.3051
   -18.3047 -18.3047  -9.2694  -8.9705  -8.8026  -8.7123  -3.8537  -2.7720
     0.0768   0.3711   0.5445   0.8896   1.0515   1.0618   1.6329   1.6882
     1.8639   2.0010   2.2243   2.4864

     occupation numbers 
     1.0000   1.0000   1.0000   1.0000   1.0000   1.0000   1.0000   1.0000
     1.0000   1.0000   1.0000   1.0000   1.0000   1.0000   1.0000   1.0000
     1.0000   1.0000   1.0000   1.0000   1.0000   1.0000   1.0000   1.0000
     1.0000   1.0000   1.0000   1.0000

          k = 0.0000 0.2857 0.2321 ( 18241 PWs)   bands (ev):

   -18.3182 -18.3165 -18.3087 -18.3085 -18.3062 -18.3062 -18.3049 -18.3049
   -18.3045 -18.3044  -9.2209  -8.9406  -8.7845  -8.7078  -3.8534  -2.8703
    -0.1303   0.0544   0.6141   0.7360   0.8626   1.3100   1.3857   1.6208
     1.8738   1.9776   2.1918   2.6817

     occupation numbers 
     1.0000   1.0000   1.0000   1.0000   1.0000   1.0000   1.0000   1.0000
     1.0000   1.0000   1.0000   1.0000   1.0000   1.0000   1.0000   1.0000
     1.0000   1.0000   1.0000   1.0000   1.0000   1.0000   1.0000   1.0000
     1.0000   1.0000   1.0000   1.0000

          k = 0.0000 0.2857 0.4643 ( 18244 PWs)   bands (ev):

   -18.3172 -18.3160 -18.3085 -18.3085 -18.3081 -18.3081 -18.3053 -18.3053
   -18.3028 -18.3028  -9.0931  -8.8715  -8.7464  -8.7101  -3.8392  -3.1566
    -0.4224  -0.2859   0.3380   0.4194   0.8527   1.1743   1.2647   1.7422
     1.7884   2.0265   2.0949   2.8218

     occupation numbers 
     1.0000   1.0000   1.0000   1.0000   1.0000   1.0000   1.0000   1.0000
     1.0000   1.0000   1.0000   1.0000   1.0000   1.0000   1.0000   1.0000
     1.0000   1.0000   1.0000   1.0000   1.0000   1.0000   1.0000   1.0000
     1.0000   1.0000   1.0000   1.0000

          k = 0.0000 0.2857 0.6964 ( 18270 PWs)   bands (ev):

   -18.3163 -18.3159 -18.3096 -18.3096 -18.3085 -18.3084 -18.3057 -18.3057
   -18.3015 -18.3015  -8.9376  -8.8378  -8.7286  -8.7242  -3.7487  -3.5075
    -0.5163  -0.4456   0.0416   0.0673   1.0568   1.0824   1.4307   1.6090
     1.6474   1.8254   2.3697   2.6622

     occupation numbers 
     1.0000   1.0000   1.0000   1.0000   1.0000   1.0000   1.0000   1.0000
     1.0000   1.0000   1.0000   1.0000   1.0000   1.0000   1.0000   1.0000
     1.0000   1.0000   1.0000   1.0000   1.0000   1.0000   1.0000   1.0000
     1.0000   1.0000   1.0000   1.0000

          k = 0.0000 0.4286 0.0000 ( 18244 PWs)   bands (ev):

   -18.3181 -18.3174 -18.3087 -18.3086 -18.3054 -18.3054 -18.3051 -18.3051
   -18.3047 -18.3047  -9.1839  -9.0792  -8.7683  -8.7344  -3.5532  -3.1777
     0.2753   0.4574   0.6840   0.8628   1.0289   1.0562   1.6681   1.6932
     1.7872   1.9242   2.1746   2.2212

     occupation numbers 
     1.0000   1.0000   1.0000   1.0000   1.0000   1.0000   1.0000   1.0000
     1.0000   1.0000   1.0000   1.0000   1.0000   1.0000   1.0000   1.0000
     1.0000   1.0000   1.0000   1.0000   1.0000   1.0000   1.0000   1.0000
     1.0000   1.0000   1.0000   1.0000

          k = 0.0000 0.4286 0.2321 ( 18248 PWs)   bands (ev):

   -18.3177 -18.3171 -18.3086 -18.3086 -18.3062 -18.3062 -18.3049 -18.3049
   -18.3045 -18.3044  -9.1404  -9.0422  -8.7549  -8.7259  -3.5747  -3.2312
    -0.1014  -0.0211   0.8570   0.8867   0.9492   1.2792   1.4339   1.5152
     1.9222   1.9777   2.1296   2.3332

     occupation numbers 
     1.0000   1.0000   1.0000   1.0000   1.0000   1.0000   1.0000   1.0000
     1.0000   1.0000   1.0000   1.0000   1.0000   1.0000   1.0000   1.0000
     1.0000   1.0000   1.0000   1.0000   1.0000   1.0000   1.0000   1.0000
     1.0000   1.0000   1.0000   1.0000

          k = 0.0000 0.4286 0.4643 ( 18246 PWs)   bands (ev):

   -18.3168 -18.3164 -18.3086 -18.3085 -18.3081 -18.3081 -18.3053 -18.3053
   -18.3028 -18.3028  -9.0285  -8.9509  -8.7306  -8.7164  -3.6334  -3.3913
    -0.4826  -0.4362   0.3777   0.4041   1.2310   1.3349   1.3848   1.5981
     1.8224   1.9444   2.2436   2.5607

     occupation numbers 
     1.0000   1.0000   1.0000   1.0000   1.0000   1.0000   1.0000   1.0000
     1.0000   1.0000   1.0000   1.0000   1.0000   1.0000   1.0000   1.0000
     1.0000   1.0000   1.0000   1.0000   1.0000   1.0000   1.0000   1.0000
     1.0000   1.0000   1.0000   1.0000

          k = 0.0000 0.4286 0.6964 ( 18281 PWs)   bands (ev):

   -18.3162 -18.3161 -18.3096 -18.3095 -18.3085 -18.3085 -18.3057 -18.3057
   -18.3015 -18.3015  -8.9037  -8.8673  -8.7304  -8.7280  -3.6672  -3.5809
    -0.6243  -0.6021   0.0540   0.0625   1.1845   1.2089   1.5633   1.6876
     1.7649   1.8354   2.5071   2.6362

     occupation numbers 
     1.0000   1.0000   1.0000   1.0000   1.0000   1.0000   1.0000   1.0000
     1.0000   1.0000   1.0000   1.0000   1.0000   1.0000   1.0000   1.0000
     1.0000   1.0000   1.0000   1.0000   1.0000   1.0000   1.0000   1.0000
     1.0000   1.0000   1.0000   1.0000

          k = 0.1429 0.1429 0.0000 ( 18259 PWs)   bands (ev):

   -18.3190 -18.3165 -18.3087 -18.3085 -18.3055 -18.3055 -18.3051 -18.3051
   -18.3047 -18.3046  -9.3061  -8.8934  -8.8389  -8.7086  -3.9844  -2.5339
    -0.0811   0.2321   0.4853   0.8160   1.1241   1.1894   1.5895   1.6754
     1.9516   1.9955   2.2593   2.6801

     occupation numbers 
     1.0000   1.0000   1.0000   1.0000   1.0000   1.0000   1.0000   1.0000
     1.0000   1.0000   1.0000   1.0000   1.0000   1.0000   1.0000   1.0000
     1.0000   1.0000   1.0000   1.0000   1.0000   1.0000   1.0000   1.0000
     1.0000   1.0000   1.0000   1.0000

          k = 0.1429 0.1429 0.2321 ( 18240 PWs)   bands (ev):

   -18.3184 -18.3162 -18.3087 -18.3085 -18.3063 -18.3062 -18.3049 -18.3049
   -18.3044 -18.3044  -9.2556  -8.8695  -8.8164  -8.7056  -3.9760  -2.6694
    -0.0452  -0.0074   0.3758   0.7294   0.8347   1.2136   1.3314   1.7401
     1.9435   1.9437   2.2447   2.8676

     occupation numbers 
     1.0000   1.0000   1.0000   1.0000   1.0000   1.0000   1.0000   1.0000
     1.0000   1.0000   1.0000   1.0000   1.0000   1.0000   1.0000   1.0000
     1.0000   1.0000   1.0000   1.0000   1.0000   1.0000   1.0000   1.0000
     1.0000   1.0000   1.0000   1.0000

          k = 0.1429 0.1429 0.4643 ( 18240 PWs)   bands (ev):

   -18.3173 -18.3158 -18.3086 -18.3084 -18.3082 -18.3081 -18.3053 -18.3053
   -18.3029 -18.3028  -9.1214  -8.8193  -8.7647  -8.7118  -3.9332  -3.0410
    -0.3645   0.0796   0.1419   0.4355   0.4875   1.0724   1.1712   1.7461
     1.8344   2.0775   2.0785   2.8960

     occupation numbers 
     1.0000   1.0000   1.0000   1.0000   1.0000   1.0000   1.0000   1.0000
     1.0000   1.0000   1.0000   1.0000   1.0000   1.0000   1.0000   1.0000
     1.0000   1.0000   1.0000   1.0000   1.0000   1.0000   1.0000   1.0000
     1.0000   1.0000   1.0000   1.0000

          k = 0.1429 0.1429 0.6964 ( 18230 PWs)   bands (ev):

   -18.3162 -18.3157 -18.3097 -18.3096 -18.3085 -18.3084 -18.3057 -18.3057
   -18.3015 -18.3014  -8.9536  -8.8260  -8.7257  -8.7221  -3.7909  -3.4770
    -0.4583  -0.1602  -0.0275   0.2280   0.4957   1.0814   1.4453   1.5131
     1.6715   1.7992   2.3044   2.6214

     occupation numbers 
     1.0000   1.0000   1.0000   1.0000   1.0000   1.0000   1.0000   1.0000
     1.0000   1.0000   1.0000   1.0000   1.0000   1.0000   1.0000   1.0000
     1.0000   1.0000   1.0000   1.0000   1.0000   1.0000   1.0000   1.0000
     1.0000   1.0000   1.0000   1.0000

          k = 0.1429 0.2857 0.0000 ( 18254 PWs)   bands (ev):

   -18.3186 -18.3169 -18.3087 -18.3086 -18.3055 -18.3054 -18.3051 -18.3051
   -18.3047 -18.3047  -9.2523  -8.9684  -8.8215  -8.7187  -3.8011  -2.8245
     0.0111   0.4657   0.5694   0.9267   1.0369   1.0430   1.6042   1.6961
     1.8638   1.9938   2.1526   2.4643

     occupation numbers 
     1.0000   1.0000   1.0000   1.0000   1.0000   1.0000   1.0000   1.0000
     1.0000   1.0000   1.0000   1.0000   1.0000   1.0000   1.0000   1.0000
     1.0000   1.0000   1.0000   1.0000   1.0000   1.0000   1.0000   1.0000
     1.0000   1.0000   1.0000   1.0000

          k = 0.1429 0.2857 0.2321 ( 18241 PWs)   bands (ev):

   -18.3181 -18.3166 -18.3086 -18.3085 -18.3063 -18.3062 -18.3049 -18.3049
   -18.3045 -18.3044  -9.2049  -8.9395  -8.8015  -8.7129  -3.8066  -2.9220
    -0.0782   0.0484   0.4812   0.8553   0.8734   1.3025   1.4318   1.5696
     1.8790   1.9591   2.1690   2.6488

     occupation numbers 
     1.0000   1.0000   1.0000   1.0000   1.0000   1.0000   1.0000   1.0000
     1.0000   1.0000   1.0000   1.0000   1.0000   1.0000   1.0000   1.0000
     1.0000   1.0000   1.0000   1.0000   1.0000   1.0000   1.0000   1.0000
     1.0000   1.0000   1.0000   1.0000

          k = 0.1429 0.2857 0.4643 ( 18237 PWs)   bands (ev):

   -18.3171 -18.3160 -18.3086 -18.3085 -18.3082 -18.3081 -18.3054 -18.3053
   -18.3028 -18.3028  -9.0807  -8.8738  -8.7574  -8.7115  -3.8097  -3.1983
    -0.4450  -0.1465   0.2669   0.4208   0.6795   1.3069   1.3434   1.7035
     1.8064   2.0464   2.0931   2.7165

     occupation numbers 
     1.0000   1.0000   1.0000   1.0000   1.0000   1.0000   1.0000   1.0000
     1.0000   1.0000   1.0000   1.0000   1.0000   1.0000   1.0000   1.0000
     1.0000   1.0000   1.0000   1.0000   1.0000   1.0000   1.0000   1.0000
     1.0000   1.0000   1.0000   1.0000

          k = 0.1429 0.2857 0.6964 ( 18257 PWs)   bands (ev):

   -18.3163 -18.3158 -18.3097 -18.3095 -18.3085 -18.3085 -18.3057 -18.3057
   -18.3015 -18.3015  -8.9320  -8.8414  -8.7297  -8.7248  -3.7455  -3.5268
    -0.5808  -0.2974  -0.0443   0.1629   0.7858   1.3019   1.4297   1.5787
     1.7027   1.8411   2.3865   2.5894

     occupation numbers 
     1.0000   1.0000   1.0000   1.0000   1.0000   1.0000   1.0000   1.0000
     1.0000   1.0000   1.0000   1.0000   1.0000   1.0000   1.0000   1.0000
     1.0000   1.0000   1.0000   1.0000   1.0000   1.0000   1.0000   1.0000
     1.0000   1.0000   1.0000   1.0000

          k = 0.1429 0.4286 0.0000 ( 18240 PWs)   bands (ev):

   -18.3181 -18.3174 -18.3086 -18.3086 -18.3054 -18.3054 -18.3051 -18.3051
   -18.3047 -18.3047  -9.1698  -9.0696  -8.7854  -8.7470  -3.5213  -3.1793
     0.2010   0.4150   0.7013   0.8671   1.0675   1.1056   1.6423   1.6804
     1.7985   1.9183   2.1277   2.2309

     occupation numbers 
     1.0000   1.0000   1.0000   1.0000   1.0000   1.0000   1.0000   1.0000
     1.0000   1.0000   1.0000   1.0000   1.0000   1.0000   1.0000   1.0000
     1.0000   1.0000   1.0000   1.0000   1.0000   1.0000   1.0000   1.0000
     1.0000   1.0000   1.0000   1.0000

          k = 0.1429 0.4286 0.2321 ( 18239 PWs)   bands (ev):

   -18.3176 -18.3171 -18.3086 -18.3086 -18.3062 -18.3062 -18.3049 -18.3049
   -18.3044 -18.3044  -9.1274  -9.0338  -8.7701  -8.7369  -3.5495  -3.2386
    -0.0644  -0.0010   0.7258   0.8661   0.9878   1.2031   1.4422   1.5517
     1.9180   1.9941   2.1287   2.3581

     occupation numbers 
     1.0000   1.0000   1.0000   1.0000   1.0000   1.0000   1.0000   1.0000
     1.0000   1.0000   1.0000   1.0000   1.0000   1.0000   1.0000   1.0000
     1.0000   1.0000   1.0000   1.0000   1.0000   1.0000   1.0000   1.0000
     1.0000   1.0000   1.0000   1.0000

          k = 0.1429 0.4286 0.4643 ( 18248 PWs)   bands (ev):

   -18.3168 -18.3164 -18.3085 -18.3085 -18.3081 -18.3081 -18.3054 -18.3053
   -18.3028 -18.3028  -9.0191  -8.9461  -8.7403  -8.7227  -3.6252  -3.4086
    -0.4380  -0.3370   0.3223   0.3745   1.0645   1.3778   1.4375   1.5601
     1.8230   1.9479   2.2636   2.5035

     occupation numbers 
     1.0000   1.0000   1.0000   1.0000   1.0000   1.0000   1.0000   1.0000
     1.0000   1.0000   1.0000   1.0000   1.0000   1.0000   1.0000   1.0000
     1.0000   1.0000   1.0000   1.0000   1.0000   1.0000   1.0000   1.0000
     1.0000   1.0000   1.0000   1.0000

          k = 0.1429 0.4286 0.6964 ( 18275 PWs)   bands (ev):

   -18.3162 -18.3160 -18.3096 -18.3095 -18.3085 -18.3085 -18.3057 -18.3057
   -18.3015 -18.3015  -8.9011  -8.8682  -8.7307  -8.7283  -3.6773  -3.5989
    -0.5837  -0.4749  -0.0140   0.0596   1.1493   1.3072   1.4696   1.6515
     1.7660   1.8439   2.4342   2.4939

     occupation numbers 
     1.0000   1.0000   1.0000   1.0000   1.0000   1.0000   1.0000   1.0000
     1.0000   1.0000   1.0000   1.0000   1.0000   1.0000   1.0000   1.0000
     1.0000   1.0000   1.0000   1.0000   1.0000   1.0000   1.0000   1.0000
     1.0000   1.0000   1.0000   1.0000

          k = 0.2857 0.2857 0.0000 ( 18247 PWs)   bands (ev):

   -18.3184 -18.3172 -18.3087 -18.3086 -18.3055 -18.3054 -18.3051 -18.3051
   -18.3047 -18.3046  -9.2036  -8.9840  -8.8443  -8.7425  -3.6532  -2.9748
    -0.0098   0.4608   0.6408   0.9788   1.0287   1.1118   1.5790   1.6810
     1.8235   2.0036   2.0151   2.3754

     occupation numbers 
     1.0000   1.0000   1.0000   1.0000   1.0000   1.0000   1.0000   1.0000
     1.0000   1.0000   1.0000   1.0000   1.0000   1.0000   1.0000   1.0000
     1.0000   1.0000   1.0000   1.0000   1.0000   1.0000   1.0000   1.0000
     1.0000   1.0000   1.0000   1.0000

          k = 0.2857 0.2857 0.2321 ( 18227 PWs)   bands (ev):

   -18.3179 -18.3168 -18.3086 -18.3085 -18.3063 -18.3062 -18.3049 -18.3049
   -18.3044 -18.3044  -9.1594  -8.9557  -8.8217  -8.7333  -3.6750  -3.0645
     0.0018   0.0634   0.4118   0.8476   0.9505   1.2716   1.3688   1.6409
     1.8311   2.0206   2.0966   2.5548

     occupation numbers 
     1.0000   1.0000   1.0000   1.0000   1.0000   1.0000   1.0000   1.0000
     1.0000   1.0000   1.0000   1.0000   1.0000   1.0000   1.0000   1.0000
     1.0000   1.0000   1.0000   1.0000   1.0000   1.0000   1.0000   1.0000
     1.0000   1.0000   1.0000   1.0000

          k = 0.2857 0.2857 0.4643 ( 18254 PWs)   bands (ev):

   -18.3169 -18.3162 -18.3086 -18.3085 -18.3082 -18.3081 -18.3054 -18.3054
   -18.3028 -18.3028  -9.0454  -8.8916  -8.7696  -8.7216  -3.7259  -3.3082
    -0.4009   0.0472   0.1760   0.3823   0.5182   1.4300   1.4323   1.6492
     1.8067   2.0392   2.1446   2.5359

     occupation numbers 
     1.0000   1.0000   1.0000   1.0000   1.0000   1.0000   1.0000   1.0000
     1.0000   1.0000   1.0000   1.0000   1.0000   1.0000   1.0000   1.0000
     1.0000   1.0000   1.0000   1.0000   1.0000   1.0000   1.0000   1.0000
     1.0000   1.0000   1.0000   1.0000

          k = 0.2857 0.2857 0.6964 ( 18258 PWs)   bands (ev):

   -18.3162 -18.3158 -18.3098 -18.3095 -18.3085 -18.3085 -18.3057 -18.3057
   -18.3015 -18.3015  -8.9163  -8.8527  -8.7312  -8.7266  -3.7309  -3.5776
    -0.5339  -0.2182  -0.1175   0.3542   0.5063   1.4092   1.4974   1.6058
     1.7403   1.8707   2.3494   2.3878

     occupation numbers 
     1.0000   1.0000   1.0000   1.0000   1.0000   1.0000   1.0000   1.0000
     1.0000   1.0000   1.0000   1.0000   1.0000   1.0000   1.0000   1.0000
     1.0000   1.0000   1.0000   1.0000   1.0000   1.0000   1.0000   1.0000
     1.0000   1.0000   1.0000   1.0000

          k = 0.2857 0.4286 0.0000 ( 18227 PWs)   bands (ev):

   -18.3180 -18.3176 -18.3086 -18.3086 -18.3054 -18.3054 -18.3051 -18.3051
   -18.3047 -18.3046  -9.1307  -9.0481  -8.8243  -8.7821  -3.4373  -3.1946
     0.0918   0.2804   0.7481   0.8711   1.1635   1.2253   1.5952   1.6392
     1.7738   1.8590   2.1014   2.2351

     occupation numbers 
     1.0000   1.0000   1.0000   1.0000   1.0000   1.0000   1.0000   1.0000
     1.0000   1.0000   1.0000   1.0000   1.0000   1.0000   1.0000   1.0000
     1.0000   1.0000   1.0000   1.0000   1.0000   1.0000   1.0000   1.0000
     1.0000   1.0000   1.0000   1.0000

          k = 0.2857 0.4286 0.2321 ( 18234 PWs)   bands (ev):

   -18.3175 -18.3172 -18.3086 -18.3086 -18.3063 -18.3062 -18.3049 -18.3049
   -18.3044 -18.3044  -9.0915  -9.0150  -8.8046  -8.7678  -3.4828  -3.2654
     0.0234   0.0612   0.5725   0.8114   0.9317   1.0182   1.5021   1.6421
     1.8607   1.9833   2.1953   2.3966

     occupation numbers 
     1.0000   1.0000   1.0000   1.0000   1.0000   1.0000   1.0000   1.0000
     1.0000   1.0000   1.0000   1.0000   1.0000   1.0000   1.0000   1.0000
     1.0000   1.0000   1.0000   1.0000   1.0000   1.0000   1.0000   1.0000
     1.0000   1.0000   1.0000   1.0000

          k = 0.2857 0.4286 0.4643 ( 18257 PWs)   bands (ev):

   -18.3167 -18.3164 -18.3085 -18.3085 -18.3082 -18.3081 -18.3054 -18.3054
   -18.3028 -18.3028  -8.9937  -8.9366  -8.7612  -8.7408  -3.6006  -3.4529
    -0.2751  -0.0953   0.2324   0.3053   0.7351   1.1416   1.5654   1.6589
     1.8304   1.9573   2.2827   2.4123

     occupation numbers 
     1.0000   1.0000   1.0000   1.0000   1.0000   1.0000   1.0000   1.0000
     1.0000   1.0000   1.0000   1.0000   1.0000   1.0000   1.0000   1.0000
     1.0000   1.0000   1.0000   1.0000   1.0000   1.0000   1.0000   1.0000
     1.0000   1.0000   1.0000   1.0000

          k = 0.2857 0.4286 0.6964 ( 18252 PWs)   bands (ev):

   -18.3161 -18.3159 -18.3097 -18.3096 -18.3085 -18.3085 -18.3057 -18.3057
   -18.3015 -18.3014  -8.8944  -8.8714  -8.7311  -8.7291  -3.6963  -3.6412
    -0.3843  -0.2640  -0.1077   0.0849   0.8624   1.2726   1.5346   1.6434
     1.7841   1.8596   2.2273   2.3095

     occupation numbers 
     1.0000   1.0000   1.0000   1.0000   1.0000   1.0000   1.0000   1.0000
     1.0000   1.0000   1.0000   1.0000   1.0000   1.0000   1.0000   1.0000
     1.0000   1.0000   1.0000   1.0000   1.0000   1.0000   1.0000   1.0000
     1.0000   1.0000   1.0000   1.0000

          k = 0.4286 0.4286 0.0000 ( 18214 PWs)   bands (ev):

   -18.3178 -18.3177 -18.3086 -18.3086 -18.3054 -18.3054 -18.3051 -18.3051
   -18.3046 -18.3046  -9.0788  -9.0423  -8.8487  -8.8261  -3.3325  -3.2440
     0.0593   0.1337   0.8076   0.8544   1.2821   1.3241   1.5708   1.5911
     1.7029   1.7442   2.1609   2.2172

     occupation numbers 
     1.0000   1.0000   1.0000   1.0000   1.0000   1.0000   1.0000   1.0000
     1.0000   1.0000   1.0000   1.0000   1.0000   1.0000   1.0000   1.0000
     1.0000   1.0000   1.0000   1.0000   1.0000   1.0000   1.0000   1.0000
     1.0000   1.0000   1.0000   1.0000

          k = 0.4286 0.4286 0.2321 ( 18238 PWs)   bands (ev):

   -18.3174 -18.3173 -18.3086 -18.3086 -18.3063 -18.3063 -18.3049 -18.3049
   -18.3044 -18.3044  -9.0442  -9.0110  -8.8259  -8.8064  -3.3971  -3.3189
     0.0993   0.1299   0.5404   0.6949   0.8372   0.8862   1.6150   1.7271
     1.7853   1.8883   2.3160   2.3914

     occupation numbers 
     1.0000   1.0000   1.0000   1.0000   1.0000   1.0000   1.0000   1.0000
     1.0000   1.0000   1.0000   1.0000   1.0000   1.0000   1.0000   1.0000
     1.0000   1.0000   1.0000   1.0000   1.0000   1.0000   1.0000   1.0000
     1.0000   1.0000   1.0000   1.0000

          k = 0.4286 0.4286 0.4643 ( 18273 PWs)   bands (ev):

   -18.3165 -18.3165 -18.3086 -18.3086 -18.3082 -18.3082 -18.3054 -18.3054
   -18.3028 -18.3028  -8.9610  -8.9378  -8.7735  -8.7630  -3.5604  -3.5083
    -0.0124   0.1432   0.1738   0.3583   0.3735   0.7401   1.6965   1.7782
     1.8266   1.9285   2.3040   2.3495

     occupation numbers 
     1.0000   1.0000   1.0000   1.0000   1.0000   1.0000   1.0000   1.0000
     1.0000   1.0000   1.0000   1.0000   1.0000   1.0000   1.0000   1.0000
     1.0000   1.0000   1.0000   1.0000   1.0000   1.0000   1.0000   1.0000
     1.0000   1.0000   1.0000   1.0000

          k = 0.4286 0.4286 0.6964 ( 18274 PWs)   bands (ev):

   -18.3159 -18.3159 -18.3098 -18.3097 -18.3085 -18.3085 -18.3057 -18.3057
   -18.3015 -18.3015  -8.8856  -8.8773  -8.7310  -8.7302  -3.7024  -3.6826
    -0.1995  -0.1835  -0.0390   0.2880   0.5201   0.8797   1.7178   1.7674
     1.8140   1.8681   2.0758   2.1651

     occupation numbers 
     1.0000   1.0000   1.0000   1.0000   1.0000   1.0000   1.0000   1.0000
     1.0000   1.0000   1.0000   1.0000   1.0000   1.0000   1.0000   1.0000
     1.0000   1.0000   1.0000   1.0000   1.0000   1.0000   1.0000   1.0000
     1.0000   1.0000   1.0000   1.0000

     highest occupied level (ev):     3.0533

!    total energy              =   -2399.99046544 Ry

     total all-electron energy =    -81641.235813 Ry
     estimated scf accuracy    <       0.00000044 Ry

     The total energy is the sum of the following terms:
     one-electron contribution =    -203.79303947 Ry
     hartree contribution      =     130.15787290 Ry
     xc contribution           =    -159.02124049 Ry
     ewald contribution        =    -219.54274839 Ry
     one-center paw contrib.   =   -1947.79131001 Ry
      -> PAW hartree energy AE =     108.41631099 Ry
      -> PAW hartree energy PS =    -107.65015200 Ry
      -> PAW xc energy AE      =    -328.96377820 Ry
      -> PAW xc energy PS      =      47.26247411 Ry
      -> total E_H with PAW    =     130.92403190 Ry
      -> total E_XC with PAW   =    -440.72254457 Ry

     convergence has been achieved in   8 iterations

     Forces acting on atoms (cartesian axes, Ry/au):

     atom    1 type  1   force =     0.00000000    0.00000000    0.00000000
     atom    2 type  1   force =     0.00000000    0.00000000    0.00000000
     atom    3 type  2   force =    -0.00021186   -0.00021186   -0.00000000
     atom    4 type  2   force =     0.00021186    0.00021186   -0.00000000
     atom    5 type  2   force =    -0.00021186    0.00021186    0.00000000
     atom    6 type  2   force =     0.00021186   -0.00021186    0.00000000
     The non-local contrib.  to forces
     atom    1 type  1   force =     0.00000000    0.00000000    0.00000000
     atom    2 type  1   force =     0.00000000    0.00000000    0.00000000
     atom    3 type  2   force =     0.01430526    0.01430526    0.00000000
     atom    4 type  2   force =    -0.01430526   -0.01430526    0.00000000
     atom    5 type  2   force =     0.01430526   -0.01430526    0.00000000
     atom    6 type  2   force =    -0.01430526    0.01430526    0.00000000
     The ionic contribution  to forces
     atom    1 type  1   force =    -0.00000000   -0.00000000    0.00000000
     atom    2 type  1   force =    -0.00000000   -0.00000000   -0.00000000
     atom    3 type  2   force =    -0.90990984   -0.90990984   -0.00000000
     atom    4 type  2   force =     0.90990984    0.90990984   -0.00000000
     atom    5 type  2   force =    -0.90990984    0.90990984   -0.00000000
     atom    6 type  2   force =     0.90990984   -0.90990984   -0.00000000
     The local contribution  to forces
     atom    1 type  1   force =     0.00000000    0.00000000    0.00000000
     atom    2 type  1   force =     0.00000000    0.00000000    0.00000000
     atom    3 type  2   force =     0.89713762    0.89713762   -0.00000000
     atom    4 type  2   force =    -0.89713762   -0.89713762    0.00000000
     atom    5 type  2   force =     0.89713762   -0.89713762    0.00000000
     atom    6 type  2   force =    -0.89713762    0.89713762    0.00000000
     The core correction contribution to forces
     atom    1 type  1   force =     0.00000000    0.00000000    0.00000000
     atom    2 type  1   force =     0.00000000    0.00000000    0.00000000
     atom    3 type  2   force =    -0.00181459   -0.00181459    0.00000000
     atom    4 type  2   force =     0.00181459    0.00181459    0.00000000
     atom    5 type  2   force =    -0.00181459    0.00181459    0.00000000
     atom    6 type  2   force =     0.00181459   -0.00181459    0.00000000
     The Hubbard contrib.    to forces
     atom    1 type  1   force =     0.00000000    0.00000000    0.00000000
     atom    2 type  1   force =     0.00000000    0.00000000    0.00000000
     atom    3 type  2   force =     0.00000000    0.00000000    0.00000000
     atom    4 type  2   force =     0.00000000    0.00000000    0.00000000
     atom    5 type  2   force =     0.00000000    0.00000000    0.00000000
     atom    6 type  2   force =     0.00000000    0.00000000    0.00000000
     The SCF correction term to forces
     atom    1 type  1   force =     0.00000000    0.00000000   -0.00000000
     atom    2 type  1   force =     0.00000000   -0.00000000   -0.00000000
     atom    3 type  2   force =     0.00006969    0.00006969    0.00000000
     atom    4 type  2   force =    -0.00006969   -0.00006969    0.00000000
     atom    5 type  2   force =     0.00006969   -0.00006969    0.00000000
     atom    6 type  2   force =    -0.00006969    0.00006969    0.00000000

     Total force =     0.000599     Total SCF correction =     0.000197
     SCF correction compared to forces is large: reduce conv_thr to get better values


     Computing stress (Cartesian axis) and pressure

          total   stress  (Ry/bohr**3)                   (kbar)     P=       -1.97
  -0.00001475   0.00000000   0.00000000           -2.17        0.00        0.00
   0.00000000  -0.00001475   0.00000000            0.00       -2.17        0.00
   0.00000000   0.00000000  -0.00001077            0.00        0.00       -1.58

     kinetic stress (kbar)   7315.33      0.00      0.00
                                0.00   7315.33      0.00
                                0.00      0.00   7289.21

     local   stress (kbar)  -1446.27      0.00      0.00
                                0.00  -1446.27     -0.00
                                0.00     -0.00  -5849.26

     nonloc. stress (kbar)    116.14      0.00      0.00
                                0.00    116.14      0.00
                                0.00      0.00    115.45

     hartree stress (kbar)   2829.29     -0.00     -0.00
                               -0.00   2829.29      0.00
                               -0.00      0.00   4718.29

     exc-cor stress (kbar)   6161.24      0.00     -0.00
                                0.00   6161.24      0.00
                               -0.00      0.00   6162.29

     corecor stress (kbar)  -8297.12      0.00      0.00
                                0.00  -8297.12     -0.00
                                0.00     -0.00  -8296.00

     ewald   stress (kbar)  -6680.77      0.00     -0.00
                                0.00  -6680.77     -0.00
                               -0.00     -0.00  -4141.56

     hubbard stress (kbar)      0.00      0.00      0.00
                                0.00      0.00      0.00
                                0.00      0.00      0.00

     DFT-D   stress (kbar)      0.00      0.00      0.00
                                0.00      0.00      0.00
                                0.00      0.00      0.00

     XDM     stress (kbar)      0.00      0.00      0.00
                                0.00      0.00      0.00
                                0.00      0.00      0.00

     dft-nl  stress (kbar)      0.00      0.00      0.00
                                0.00      0.00      0.00
                                0.00      0.00      0.00

     TS-vdW  stress (kbar)      0.00      0.00      0.00
                                0.00      0.00      0.00
                                0.00      0.00      0.00



     Writing output data file ./out/SnI2tetr.save/

     init_run     :      4.00s CPU      4.08s WALL (       1 calls)
     electrons    :     84.71s CPU     86.12s WALL (       1 calls)
     forces       :      1.91s CPU      1.92s WALL (       1 calls)
     stress       :      3.39s CPU      3.40s WALL (       1 calls)

     Called by init_run:
     wfcinit      :      3.08s CPU      3.10s WALL (       1 calls)
     wfcinit:atom :      0.03s CPU      0.03s WALL (      40 calls)
     wfcinit:wfcr :      2.88s CPU      2.90s WALL (      40 calls)
     potinit      :      0.32s CPU      0.34s WALL (       1 calls)
     hinit0       :      0.39s CPU      0.39s WALL (       1 calls)

     Called by electrons:
     c_bands      :     72.13s CPU     73.35s WALL (       9 calls)
     sum_band     :     10.40s CPU     10.54s WALL (       9 calls)
     v_of_rho     :      0.20s CPU      0.21s WALL (       9 calls)
     v_h          :      0.02s CPU      0.02s WALL (       9 calls)
     v_xc         :      0.23s CPU      0.23s WALL (      11 calls)
     newd         :      0.91s CPU      0.94s WALL (       9 calls)
     PAW_pot      :      1.20s CPU      1.22s WALL (       9 calls)
     mix_rho      :      0.04s CPU      0.04s WALL (       9 calls)

     Called by c_bands:
     init_us_2    :      1.11s CPU      1.18s WALL (     840 calls)
     cegterg      :     69.58s CPU     70.38s WALL (     360 calls)

     Called by sum_band:
     sum_band:wei :      0.00s CPU      0.00s WALL (       9 calls)
     sum_band:loo :      9.55s CPU      9.68s WALL (       9 calls)
     sum_band:buf :      0.11s CPU      0.12s WALL (     360 calls)
     sum_band:ini :      0.46s CPU      0.47s WALL (     360 calls)
     sum_band:cal :      2.45s CPU      2.46s WALL (     360 calls)
     sum_band:bec :      0.05s CPU      0.05s WALL (     360 calls)
     addusdens    :      0.77s CPU      0.79s WALL (       9 calls)
     addusd:skk   :      0.00s CPU      0.00s WALL (      18 calls)
     addusd:dgemm :      0.32s CPU      0.34s WALL (      18 calls)
     addusd:qvan2 :      0.37s CPU      0.38s WALL (      18 calls)

     Called by *egterg:
     cdiaghg      :      2.69s CPU      2.70s WALL (    1518 calls)
     cegterg:over :      3.99s CPU      4.01s WALL (    1198 calls)
     cegterg:upda :      2.05s CPU      2.06s WALL (    1198 calls)
     cegterg:last :      5.18s CPU      5.19s WALL (     845 calls)
     h_psi        :     49.95s CPU     50.67s WALL (    1598 calls)
     s_psi        :      6.23s CPU      6.26s WALL (    1598 calls)
     g_psi        :      0.13s CPU      0.13s WALL (    1198 calls)

     Called by h_psi:
     h_psi:calbec :      7.90s CPU      7.94s WALL (    1598 calls)
     vloc_psi     :     35.70s CPU     36.34s WALL (    1598 calls)
     add_vuspsi   :      6.15s CPU      6.19s WALL (    1598 calls)

     General routines
     calbec       :     11.66s CPU     11.73s WALL (    2158 calls)
     fft          :      0.16s CPU      0.16s WALL (     125 calls)
     ffts         :      0.01s CPU      0.01s WALL (       9 calls)
     fftw         :     39.64s CPU     40.33s WALL (   69938 calls)

     Parallel routines
     fft_scatt_xy :      2.65s CPU      2.69s WALL (   70072 calls)
     fft_scatt_yz :     10.58s CPU     10.78s WALL (   70072 calls)

     PAW routines
     PAW_pot      :      1.20s CPU      1.22s WALL (       9 calls)
     PAW_symme    :      0.02s CPU      0.02s WALL (      18 calls)

     PWSCF        :   1m35.75s CPU   1m38.34s WALL


   This run was terminated on:  12:26:34  15Jan2021            

=------------------------------------------------------------------------------=
   JOB DONE.
=------------------------------------------------------------------------------=
