
     Program PWSCF v.6.4.1 starts on 25Jan2021 at 15:42:21 

     This program is part of the open-source Quantum ESPRESSO suite
     for quantum simulation of materials; please cite
         "P. Giannozzi et al., J. Phys.:Condens. Matter 21 395502 (2009);
         "P. Giannozzi et al., J. Phys.:Condens. Matter 29 465901 (2017);
          URL http://www.quantum-espresso.org", 
     in publications or presentations arising from this work. More details at
     http://www.quantum-espresso.org/quote

     Parallel version (MPI & OpenMP), running on      48 processor cores
     Number of MPI processes:                24
     Threads/MPI process:                     2

     MPI processes distributed on     1 nodes
     R & G space division:  proc/nbgrp/npool/nimage =      24
     Waiting for input...
     Reading input from standard input

     Current dimensions of program PWSCF are:
     Max number of different atomic species (ntypx) = 10
     Max number of k-points (npk) =  40000
     Max angular momentum in pseudopotentials (lmaxx) =  3
               file Cs.rel-pbesol-spn-rrkjus_psl.1.0.0.UPF: wavefunction(s)  5S 6S renormalized
               file Sn.rel-pbesol-dn-rrkjus_psl.1.0.0.UPF: wavefunction(s)  5S 4D 4D renormalized
               file I.rel-pbesol-n-rrkjus_psl.1.0.0.UPF: wavefunction(s)  5S renormalized

     Subspace diagonalization in iterative solution of the eigenvalue problem:
     one sub-group per band group will be used
     scalapack distributed-memory algorithm (size of sub-group:  3*  3 procs)

 
     Parallelization info
     --------------------
     sticks:   dense  smooth     PW     G-vecs:    dense   smooth      PW
     Min         295     196     51                47137    25645    3419
     Max         296     199     52                47144    25653    3430
     Sum        7083    4717   1241              1131365   615567   82187
 

     Title: 
     CsSnI3                                                                     


     bravais-lattice index     =            8
     lattice parameter (alat)  =       9.1317  a.u.
     unit-cell volume          =    6370.5385 (a.u.)^3
     number of atoms/cell      =           20
     number of atomic types    =            3
     number of electrons       =       176.00
     number of Kohn-Sham states=          176
     kinetic-energy cutoff     =      80.0000  Ry
     charge density cutoff     =     480.0000  Ry
     convergence threshold     =      1.0E-06
     mixing beta               =       0.3500
     number of iterations used =            8  plain     mixing
     Exchange-correlation      = PBESOL ( 1  4 10  8 0 0)
     Non magnetic calculation with spin-orbit


     celldm(1)=   9.131705  celldm(2)=   2.227728  celldm(3)=   3.755420
     celldm(4)=   0.000000  celldm(5)=   0.000000  celldm(6)=   0.000000

     crystal axes: (cart. coord. in units of alat)
               a(1) = (   1.000000   0.000000   0.000000 )  
               a(2) = (   0.000000   2.227728   0.000000 )  
               a(3) = (   0.000000   0.000000   3.755420 )  

     reciprocal axes: (cart. coord. in units 2 pi/alat)
               b(1) = (  1.000000  0.000000  0.000000 )  
               b(2) = (  0.000000  0.448888  0.000000 )  
               b(3) = (  0.000000  0.000000  0.266282 )  


     PseudoPot. # 1 for Cs read from file:
     /marconi_scratch/userexternal/cmalosso/degironcoli/pseudo/pseudo-usp/Cs.rel-pbesol-spn-rrkjus_psl.1.0.0.UPF
     MD5 check sum: 846889b67fb1b19751b5b37931589d70
     Pseudo is Ultrasoft + core correction, Zval =  9.0
     Generated using "atomic" code by A. Dal Corso v.6.4.1
     Using radial grid of 1251 points, 15 beta functions with: 
                l(1) =   0
                l(2) =   0
                l(3) =   0
                l(4) =   1
                l(5) =   1
                l(6) =   1
                l(7) =   1
                l(8) =   2
                l(9) =   2
               l(10) =   2
               l(11) =   2
               l(12) =   3
               l(13) =   3
               l(14) =   3
               l(15) =   3
     Q(r) pseudized with 0 coefficients 


     PseudoPot. # 2 for Sn read from file:
     /marconi_scratch/userexternal/cmalosso/degironcoli/pseudo/pseudo-usp/Sn.rel-pbesol-dn-rrkjus_psl.1.0.0.UPF
     MD5 check sum: c1cf6ea56b96a3656bdf0d1db379e093
     Pseudo is Ultrasoft + core correction, Zval = 14.0
     Generated using "atomic" code by A. Dal Corso v.6.3
     Using radial grid of 1243 points, 10 beta functions with: 
                l(1) =   0
                l(2) =   0
                l(3) =   1
                l(4) =   1
                l(5) =   1
                l(6) =   1
                l(7) =   2
                l(8) =   2
                l(9) =   2
               l(10) =   2
     Q(r) pseudized with 0 coefficients 


     PseudoPot. # 3 for I  read from file:
     /marconi_scratch/userexternal/cmalosso/degironcoli/pseudo/pseudo-usp/I.rel-pbesol-n-rrkjus_psl.1.0.0.UPF
     MD5 check sum: 0f96c6bfb1b448f280658f96eb466b08
     Pseudo is Ultrasoft + core correction, Zval =  7.0
     Generated using "atomic" code by A. Dal Corso v.6.3
     Using radial grid of 1247 points, 10 beta functions with: 
                l(1) =   0
                l(2) =   0
                l(3) =   1
                l(4) =   1
                l(5) =   1
                l(6) =   1
                l(7) =   2
                l(8) =   2
                l(9) =   2
               l(10) =   2
     Q(r) pseudized with 0 coefficients 


     atomic species   valence    mass     pseudopotential
        Cs             9.00   132.90000     Cs( 1.00)
        Sn            14.00   118.70000     Sn( 1.00)
        I              7.00   126.90000     I ( 1.00)

      8 Sym. Ops., with inversion, found ( 6 have fractional translation)


                                    s                        frac. trans.

      isym =  1     identity                                     

 cryst.   s( 1) = (     1          0          0      )
                  (     0          1          0      )
                  (     0          0          1      )

 cart.    s( 1) = (  1.0000000  0.0000000  0.0000000 )
                  (  0.0000000  1.0000000  0.0000000 )
                  (  0.0000000  0.0000000  1.0000000 )


      isym =  2     180 deg rotation - cart. axis [0,0,1]        

 cryst.   s( 2) = (    -1          0          0      )    f =(  0.0000000 )
                  (     0         -1          0      )       (  0.5000000 )
                  (     0          0          1      )       (  0.5000000 )

 cart.    s( 2) = ( -1.0000000  0.0000000  0.0000000 )    f =(  0.0000000 )
                  (  0.0000000 -1.0000000  0.0000000 )       (  1.1138638 )
                  (  0.0000000  0.0000000  1.0000000 )       (  1.8777098 )


      isym =  3     180 deg rotation - cart. axis [0,1,0]        

 cryst.   s( 3) = (    -1          0          0      )    f =(  0.5000000 )
                  (     0          1          0      )       ( -0.5000000 )
                  (     0          0         -1      )       ( -0.5000000 )

 cart.    s( 3) = ( -1.0000000  0.0000000  0.0000000 )    f =(  0.5000000 )
                  (  0.0000000  1.0000000  0.0000000 )       ( -1.1138638 )
                  (  0.0000000  0.0000000 -1.0000000 )       ( -1.8777098 )


      isym =  4     180 deg rotation - cart. axis [1,0,0]        

 cryst.   s( 4) = (     1          0          0      )    f =( -0.5000000 )
                  (     0         -1          0      )       (  0.0000000 )
                  (     0          0         -1      )       (  0.0000000 )

 cart.    s( 4) = (  1.0000000  0.0000000  0.0000000 )    f =( -0.5000000 )
                  (  0.0000000 -1.0000000  0.0000000 )       (  0.0000000 )
                  (  0.0000000  0.0000000 -1.0000000 )       (  0.0000000 )


      isym =  5     inversion                                    

 cryst.   s( 5) = (    -1          0          0      )
                  (     0         -1          0      )
                  (     0          0         -1      )

 cart.    s( 5) = ( -1.0000000  0.0000000  0.0000000 )
                  (  0.0000000 -1.0000000  0.0000000 )
                  (  0.0000000  0.0000000 -1.0000000 )


      isym =  6     inv. 180 deg rotation - cart. axis [0,0,1]   

 cryst.   s( 6) = (     1          0          0      )    f =(  0.0000000 )
                  (     0          1          0      )       ( -0.5000000 )
                  (     0          0         -1      )       ( -0.5000000 )

 cart.    s( 6) = (  1.0000000  0.0000000  0.0000000 )    f =(  0.0000000 )
                  (  0.0000000  1.0000000  0.0000000 )       ( -1.1138638 )
                  (  0.0000000  0.0000000 -1.0000000 )       ( -1.8777098 )


      isym =  7     inv. 180 deg rotation - cart. axis [0,1,0]   

 cryst.   s( 7) = (     1          0          0      )    f =( -0.5000000 )
                  (     0         -1          0      )       (  0.5000000 )
                  (     0          0          1      )       (  0.5000000 )

 cart.    s( 7) = (  1.0000000  0.0000000  0.0000000 )    f =( -0.5000000 )
                  (  0.0000000 -1.0000000  0.0000000 )       (  1.1138638 )
                  (  0.0000000  0.0000000  1.0000000 )       (  1.8777098 )


      isym =  8     inv. 180 deg rotation - cart. axis [1,0,0]   

 cryst.   s( 8) = (    -1          0          0      )    f =(  0.5000000 )
                  (     0          1          0      )       (  0.0000000 )
                  (     0          0          1      )       (  0.0000000 )

 cart.    s( 8) = ( -1.0000000  0.0000000  0.0000000 )    f =(  0.5000000 )
                  (  0.0000000  1.0000000  0.0000000 )       (  0.0000000 )
                  (  0.0000000  0.0000000  1.0000000 )       (  0.0000000 )


     double point group D_2h (mmm) 
     there are 10 classes and  2 irreducible representations
     the character table:

       E     -E     C2    C2'  C2''  i     -i     s_v   s_v' s_v''
                   -C2   -C2'  -C2''             -s_v  -s_v' -s_v'
G_5+   2.00 -2.00  0.00  0.00  0.00  2.00 -2.00  0.00  0.00  0.00
G_5-   2.00 -2.00  0.00  0.00  0.00 -2.00  2.00  0.00  0.00  0.00

     the symmetry operations in each class and the name of the first element:

     E             1
          identity                                               
     -E           -1
          identity E                                             
      C2  -C2      2   -2
          180 deg rotation - cart. axis [0,0,1]                  
      C2' -C2'     4   -4
          180 deg rotation - cart. axis [1,0,0]                  
     C2'' -C2''    3   -3
          180 deg rotation - cart. axis [0,1,0]                  
     i             5
          inversion                                              
     -i           -5
          inversion E                                            
      s_v -s_v     6   -6
          inv. 180 deg rotation - cart. axis [0,0,1]             
      s_v'-s_v'    8   -8
          inv. 180 deg rotation - cart. axis [1,0,0]             
     s_v''-s_v'    7   -7
          inv. 180 deg rotation - cart. axis [0,1,0]             

   Cartesian axes

     site n.     atom                  positions (alat units)
         1           Cs  tau(   1) = (   0.2500000   0.1859640   2.5168147  )
         2           Cs  tau(   2) = (   0.7500000   2.0417636   1.2386050  )
         3           Cs  tau(   3) = (   0.2500000   1.2998278   3.1163149  )
         4           Cs  tau(   4) = (   0.7500000   0.9278998   0.6391048  )
         5           Sn  tau(   5) = (   0.2500000   0.7615710   1.6485466  )
         6           Sn  tau(   6) = (   0.7500000   1.4661567   2.1068731  )
         7           Sn  tau(   7) = (   0.2500000   1.8754348   0.2291632  )
         8           Sn  tau(   8) = (   0.7500000   0.3522928   3.5262565  )
         9           I   tau(   9) = (   0.7500000   0.0581437   0.4202578  )
        10           I   tau(  10) = (   0.2500000   2.1695839   3.3351619  )
        11           I   tau(  11) = (   0.7500000   1.1720075   1.4574521  )
        12           I   tau(  12) = (   0.2500000   1.0557201   2.2979676  )
        13           I   tau(  13) = (   0.7500000   0.6531118   2.9738192  )
        14           I   tau(  14) = (   0.2500000   1.5746158   0.7816005  )
        15           I   tau(  15) = (   0.7500000   1.7669756   2.6593103  )
        16           I   tau(  16) = (   0.2500000   0.4607520   1.0961094  )
        17           I   tau(  17) = (   0.7500000   0.3753632   1.8734812  )
        18           I   tau(  18) = (   0.2500000   1.8523644   1.8819384  )
        19           I   tau(  19) = (   0.7500000   1.4892270   0.0042286  )
        20           I   tau(  20) = (   0.2500000   0.7385006   3.7511911  )

   Crystallographic axes

     site n.     atom                  positions (cryst. coord.)
         1           Cs  tau(   1) = (  0.2500000  0.0834770  0.6701820  )
         2           Cs  tau(   2) = (  0.7500000  0.9165230  0.3298180  )
         3           Cs  tau(   3) = (  0.2500000  0.5834770  0.8298180  )
         4           Cs  tau(   4) = (  0.7500000  0.4165230  0.1701820  )
         5           Sn  tau(   5) = (  0.2500000  0.3418600  0.4389780  )
         6           Sn  tau(   6) = (  0.7500000  0.6581400  0.5610220  )
         7           Sn  tau(   7) = (  0.2500000  0.8418600  0.0610220  )
         8           Sn  tau(   8) = (  0.7500000  0.1581400  0.9389780  )
         9           I   tau(   9) = (  0.7500000  0.0261000  0.1119070  )
        10           I   tau(  10) = (  0.2500000  0.9739000  0.8880930  )
        11           I   tau(  11) = (  0.7500000  0.5261000  0.3880930  )
        12           I   tau(  12) = (  0.2500000  0.4739000  0.6119070  )
        13           I   tau(  13) = (  0.7500000  0.2931740  0.7918740  )
        14           I   tau(  14) = (  0.2500000  0.7068260  0.2081260  )
        15           I   tau(  15) = (  0.7500000  0.7931740  0.7081260  )
        16           I   tau(  16) = (  0.2500000  0.2068260  0.2918740  )
        17           I   tau(  17) = (  0.7500000  0.1684960  0.4988740  )
        18           I   tau(  18) = (  0.2500000  0.8315040  0.5011260  )
        19           I   tau(  19) = (  0.7500000  0.6684960  0.0011260  )
        20           I   tau(  20) = (  0.2500000  0.3315040  0.9988740  )

     number of k points=     1
                       cart. coord. in units 2pi/alat
        k(    1) = (   0.2500000   0.1122220   0.0665705), wk =   1.0000000

                       cryst. coord.
        k(    1) = (   0.2500000   0.2500000   0.2500000), wk =   1.0000000

     Dense  grid:  1131365 G-vectors     FFT dimensions: (  64, 144, 240)

     Smooth grid:   615567 G-vectors     FFT dimensions: (  54, 120, 200)

     Dynamical RAM for                 wfc:      17.23 MB

     Dynamical RAM for     wfc (w. buffer):      17.23 MB

     Dynamical RAM for           str. fact:       2.16 MB

     Dynamical RAM for           local pot:       0.00 MB

     Dynamical RAM for          nlocal pot:      38.95 MB

     Dynamical RAM for                qrad:      61.29 MB

     Dynamical RAM for          rho,v,vnew:      17.07 MB

     Dynamical RAM for               rhoin:       5.69 MB

     Dynamical RAM for            rho*nmix:      46.04 MB

     Dynamical RAM for           G-vectors:       2.89 MB

     Dynamical RAM for          h,s,v(r/c):       2.51 MB

     Dynamical RAM for          <psi|beta>:       4.28 MB

     Dynamical RAM for                 psi:      68.90 MB

     Dynamical RAM for                hpsi:      68.90 MB

     Dynamical RAM for                spsi:      68.90 MB

     Dynamical RAM for      wfcinit/wfcrot:      31.53 MB

     Dynamical RAM for           addusdens:    1478.29 MB

     Dynamical RAM for          addusforce:    1512.66 MB

     Dynamical RAM for         addusstress:    1491.23 MB

     Estimated static dynamical RAM per process >     199.82 MB

     Estimated max dynamical RAM per process >       1.67 GB

     Estimated total dynamical RAM >      40.14 GB

     Initial potential from superposition of free atoms

     starting charge  175.84164, renormalised to  176.00000
     Starting wfcs are  208 randomized atomic wfcs

     total cpu time spent up to now is       27.4 secs

     Self-consistent Calculation

     iteration #  1     ecut=    80.00 Ry     beta= 0.35
     Davidson diagonalization with overlap
     ethr =  1.00E-02,  avg # of iterations =  1.0

     Threshold (ethr) on eigenvalues was too large:
     Diagonalizing with lowered threshold

     Davidson diagonalization with overlap
     ethr =  3.07E-04,  avg # of iterations =  3.0

     total cpu time spent up to now is      101.5 secs

     total energy              =   -1268.08254067 Ry
     Harris-Foulkes estimate   =   -1268.27719020 Ry
     estimated scf accuracy    <       0.41765113 Ry

     iteration #  2     ecut=    80.00 Ry     beta= 0.35
     Davidson diagonalization with overlap
     ethr =  2.37E-04,  avg # of iterations =  2.0

     total cpu time spent up to now is      145.6 secs

     total energy              =   -1268.15419907 Ry
     Harris-Foulkes estimate   =   -1268.16890479 Ry
     estimated scf accuracy    <       0.05321426 Ry

     iteration #  3     ecut=    80.00 Ry     beta= 0.35
     Davidson diagonalization with overlap
     ethr =  3.02E-05,  avg # of iterations =  3.0

     total cpu time spent up to now is      191.5 secs

     total energy              =   -1268.16214034 Ry
     Harris-Foulkes estimate   =   -1268.16264607 Ry
     estimated scf accuracy    <       0.01028970 Ry

     iteration #  4     ecut=    80.00 Ry     beta= 0.35
     Davidson diagonalization with overlap
     ethr =  5.85E-06,  avg # of iterations =  2.0

     total cpu time spent up to now is      228.7 secs

     total energy              =   -1268.16340434 Ry
     Harris-Foulkes estimate   =   -1268.16301318 Ry
     estimated scf accuracy    <       0.00197151 Ry

     iteration #  5     ecut=    80.00 Ry     beta= 0.35
     Davidson diagonalization with overlap
     ethr =  1.12E-06,  avg # of iterations =  3.0

     total cpu time spent up to now is      268.1 secs

     total energy              =   -1268.16365139 Ry
     Harris-Foulkes estimate   =   -1268.16367051 Ry
     estimated scf accuracy    <       0.00020726 Ry

     iteration #  6     ecut=    80.00 Ry     beta= 0.35
     Davidson diagonalization with overlap
     ethr =  1.18E-07,  avg # of iterations =  4.0

     total cpu time spent up to now is      315.5 secs

     total energy              =   -1268.16372304 Ry
     Harris-Foulkes estimate   =   -1268.16371975 Ry
     estimated scf accuracy    <       0.00001977 Ry

     iteration #  7     ecut=    80.00 Ry     beta= 0.35
     Davidson diagonalization with overlap
     ethr =  1.12E-08,  avg # of iterations =  2.0

     total cpu time spent up to now is      358.4 secs

     total energy              =   -1268.16372785 Ry
     Harris-Foulkes estimate   =   -1268.16372572 Ry
     estimated scf accuracy    <       0.00000504 Ry

     iteration #  8     ecut=    80.00 Ry     beta= 0.35
     Davidson diagonalization with overlap
     ethr =  2.87E-09,  avg # of iterations =  4.0

     total cpu time spent up to now is      408.8 secs

     End of self-consistent calculation

          k = 0.2500 0.1122 0.0666 ( 76982 PWs)   bands (ev):

   -18.4227 -18.4227 -18.4227 -18.4227 -18.4226 -18.4226 -18.4226 -18.4226
   -18.4109 -18.4109 -18.4109 -18.4109 -18.4108 -18.4108 -18.4108 -18.4108
   -17.8381 -17.8381 -17.8380 -17.8380 -17.8376 -17.8376 -17.8374 -17.8374
   -17.3849 -17.3849 -17.3849 -17.3849 -17.3848 -17.3848 -17.3848 -17.3848
   -17.3729 -17.3729 -17.3729 -17.3729 -17.3727 -17.3727 -17.3727 -17.3727
   -17.3696 -17.3696 -17.3696 -17.3696 -17.3694 -17.3694 -17.3694 -17.3694
    -8.8092  -8.8092  -8.7979  -8.7979  -8.6592  -8.6592  -8.6433  -8.6433
    -8.5480  -8.5480  -8.5422  -8.5422  -8.4763  -8.4763  -8.4593  -8.4593
    -8.4024  -8.4024  -8.3978  -8.3978  -8.3823  -8.3823  -8.3768  -8.3768
    -5.8019  -5.8019  -5.7980  -5.7980  -5.7944  -5.7944  -5.7903  -5.7903
    -4.2235  -4.2235  -4.2182  -4.2182  -4.2071  -4.2071  -4.1999  -4.1999
    -4.1619  -4.1619  -4.1588  -4.1588  -4.1538  -4.1538  -4.1489  -4.1489
    -3.1731  -3.1731  -3.1691  -3.1691  -3.0806  -3.0806  -3.0706  -3.0706
    -0.0210  -0.0210   0.0391   0.0391   0.1307   0.1307   0.1634   0.1634
     0.2805   0.2805   0.3712   0.3712   0.5000   0.5000   0.5581   0.5581
     0.6743   0.6743   0.7073   0.7073   0.7414   0.7414   0.8077   0.8077
     1.0141   1.0141   1.0801   1.0801   1.2821   1.2821   1.3562   1.3562
     1.4098   1.4098   1.4765   1.4765   1.5946   1.5946   1.6542   1.6542
     1.7278   1.7278   1.7667   1.7667   1.8189   1.8189   1.8470   1.8470
     1.8790   1.8790   1.9580   1.9580   2.0061   2.0061   2.0772   2.0772
     2.1319   2.1319   2.1595   2.1595   2.3124   2.3124   2.3451   2.3451
     2.6535   2.6535   2.7507   2.7507   2.9419   2.9419   2.9897   2.9897

     occupation numbers 
     1.0000   1.0000   1.0000   1.0000   1.0000   1.0000   1.0000   1.0000
     1.0000   1.0000   1.0000   1.0000   1.0000   1.0000   1.0000   1.0000
     1.0000   1.0000   1.0000   1.0000   1.0000   1.0000   1.0000   1.0000
     1.0000   1.0000   1.0000   1.0000   1.0000   1.0000   1.0000   1.0000
     1.0000   1.0000   1.0000   1.0000   1.0000   1.0000   1.0000   1.0000
     1.0000   1.0000   1.0000   1.0000   1.0000   1.0000   1.0000   1.0000
     1.0000   1.0000   1.0000   1.0000   1.0000   1.0000   1.0000   1.0000
     1.0000   1.0000   1.0000   1.0000   1.0000   1.0000   1.0000   1.0000
     1.0000   1.0000   1.0000   1.0000   1.0000   1.0000   1.0000   1.0000
     1.0000   1.0000   1.0000   1.0000   1.0000   1.0000   1.0000   1.0000
     1.0000   1.0000   1.0000   1.0000   1.0000   1.0000   1.0000   1.0000
     1.0000   1.0000   1.0000   1.0000   1.0000   1.0000   1.0000   1.0000
     1.0000   1.0000   1.0000   1.0000   1.0000   1.0000   1.0000   1.0000
     1.0000   1.0000   1.0000   1.0000   1.0000   1.0000   1.0000   1.0000
     1.0000   1.0000   1.0000   1.0000   1.0000   1.0000   1.0000   1.0000
     1.0000   1.0000   1.0000   1.0000   1.0000   1.0000   1.0000   1.0000
     1.0000   1.0000   1.0000   1.0000   1.0000   1.0000   1.0000   1.0000
     1.0000   1.0000   1.0000   1.0000   1.0000   1.0000   1.0000   1.0000
     1.0000   1.0000   1.0000   1.0000   1.0000   1.0000   1.0000   1.0000
     1.0000   1.0000   1.0000   1.0000   1.0000   1.0000   1.0000   1.0000
     1.0000   1.0000   1.0000   1.0000   1.0000   1.0000   1.0000   1.0000
     1.0000   1.0000   1.0000   1.0000   1.0000   1.0000   1.0000   1.0000

     highest occupied level (ev):     2.9897

!    total energy              =   -1268.16372889 Ry
     Harris-Foulkes estimate   =   -1268.16372915 Ry
     estimated scf accuracy    <       0.00000079 Ry

     The total energy is the sum of the following terms:

     one-electron contribution =    -488.14940648 Ry
     hartree contribution      =     316.29864084 Ry
     xc contribution           =    -462.74336164 Ry
     ewald contribution        =    -633.56960162 Ry

     convergence has been achieved in   8 iterations

     Forces acting on atoms (cartesian axes, Ry/au):

     atom    1 type  1   force =     0.00000000   -0.00084229    0.00016444
     atom    2 type  1   force =     0.00000000    0.00084229   -0.00016444
     atom    3 type  1   force =    -0.00000000   -0.00084229   -0.00016444
     atom    4 type  1   force =     0.00000000    0.00084229    0.00016444
     atom    5 type  2   force =    -0.00000000   -0.00136053   -0.00034016
     atom    6 type  2   force =     0.00000000    0.00136053    0.00034016
     atom    7 type  2   force =     0.00000000   -0.00136053    0.00034016
     atom    8 type  2   force =     0.00000000    0.00136053   -0.00034016
     atom    9 type  3   force =     0.00000000    0.00104767   -0.00186700
     atom   10 type  3   force =     0.00000000   -0.00104767    0.00186700
     atom   11 type  3   force =     0.00000000    0.00104767    0.00186700
     atom   12 type  3   force =     0.00000000   -0.00104767   -0.00186700
     atom   13 type  3   force =     0.00000000   -0.00162477    0.00217158
     atom   14 type  3   force =     0.00000000    0.00162477   -0.00217158
     atom   15 type  3   force =     0.00000000   -0.00162477   -0.00217158
     atom   16 type  3   force =     0.00000000    0.00162477    0.00217158
     atom   17 type  3   force =     0.00000000   -0.00206782    0.00060215
     atom   18 type  3   force =     0.00000000    0.00206782   -0.00060215
     atom   19 type  3   force =     0.00000000   -0.00206782   -0.00060215
     atom   20 type  3   force =    -0.00000000    0.00206782    0.00060215
     The non-local contrib.  to forces
     atom    1 type  1   force =     0.00000000    0.00261315   -0.00362001
     atom    2 type  1   force =     0.00000000   -0.00261315    0.00362001
     atom    3 type  1   force =     0.00000000    0.00261315    0.00362001
     atom    4 type  1   force =     0.00000000   -0.00261315   -0.00362001
     atom    5 type  2   force =     0.00000000   -0.08419662   -0.12919640
     atom    6 type  2   force =     0.00000000    0.08419662    0.12919640
     atom    7 type  2   force =     0.00000000   -0.08419662    0.12919640
     atom    8 type  2   force =     0.00000000    0.08419662   -0.12919640
     atom    9 type  3   force =     0.00000000   -0.05026272   -0.04899614
     atom   10 type  3   force =     0.00000000    0.05026272    0.04899614
     atom   11 type  3   force =     0.00000000   -0.05026272    0.04899614
     atom   12 type  3   force =     0.00000000    0.05026272   -0.04899614
     atom   13 type  3   force =     0.00000000   -0.03226305    0.05467108
     atom   14 type  3   force =     0.00000000    0.03226305   -0.05467108
     atom   15 type  3   force =     0.00000000   -0.03226305   -0.05467108
     atom   16 type  3   force =     0.00000000    0.03226305    0.05467108
     atom   17 type  3   force =     0.00000000    0.05654157   -0.01766231
     atom   18 type  3   force =     0.00000000   -0.05654157    0.01766231
     atom   19 type  3   force =     0.00000000    0.05654157    0.01766231
     atom   20 type  3   force =     0.00000000   -0.05654157   -0.01766231
     The ionic contribution  to forces
     atom    1 type  1   force =     0.00000000    0.02273773    0.42856976
     atom    2 type  1   force =    -0.00000000   -0.02273773   -0.42856976
     atom    3 type  1   force =     0.00000000    0.02273773   -0.42856976
     atom    4 type  1   force =    -0.00000000   -0.02273773    0.42856976
     atom    5 type  2   force =    -0.00000000   -2.44382133   -1.60292982
     atom    6 type  2   force =     0.00000000    2.44382133    1.60292982
     atom    7 type  2   force =    -0.00000000   -2.44382133    1.60292982
     atom    8 type  2   force =     0.00000000    2.44382133   -1.60292982
     atom    9 type  3   force =    -0.00000000    3.00608889    5.13288889
     atom   10 type  3   force =     0.00000000   -3.00608889   -5.13288889
     atom   11 type  3   force =    -0.00000000    3.00608889   -5.13288889
     atom   12 type  3   force =    -0.00000000   -3.00608889    5.13288889
     atom   13 type  3   force =    -0.00000000    2.02422847   -3.75281495
     atom   14 type  3   force =     0.00000000   -2.02422847    3.75281495
     atom   15 type  3   force =    -0.00000000    2.02422847    3.75281495
     atom   16 type  3   force =     0.00000000   -2.02422847   -3.75281495
     atom   17 type  3   force =    -0.00000000   -4.20564469    2.10270402
     atom   18 type  3   force =     0.00000000    4.20564469   -2.10270402
     atom   19 type  3   force =     0.00000000   -4.20564469   -2.10270402
     atom   20 type  3   force =     0.00000000    4.20564469    2.10270402
     The local contribution  to forces
     atom    1 type  1   force =    -0.00000000   -0.02596611   -0.42468322
     atom    2 type  1   force =     0.00000000    0.02596611    0.42468322
     atom    3 type  1   force =    -0.00000000   -0.02596611    0.42468322
     atom    4 type  1   force =     0.00000000    0.02596611   -0.42468322
     atom    5 type  2   force =    -0.00000000    2.52656754    1.73140987
     atom    6 type  2   force =    -0.00000000   -2.52656754   -1.73140987
     atom    7 type  2   force =    -0.00000000    2.52656754   -1.73140987
     atom    8 type  2   force =    -0.00000000   -2.52656754    1.73140987
     atom    9 type  3   force =     0.00000000   -2.95999021   -5.09068393
     atom   10 type  3   force =    -0.00000000    2.95999021    5.09068393
     atom   11 type  3   force =     0.00000000   -2.95999021    5.09068393
     atom   12 type  3   force =    -0.00000000    2.95999021   -5.09068393
     atom   13 type  3   force =    -0.00000000   -1.99679633    3.70539891
     atom   14 type  3   force =    -0.00000000    1.99679633   -3.70539891
     atom   15 type  3   force =    -0.00000000   -1.99679633   -3.70539891
     atom   16 type  3   force =     0.00000000    1.99679633    3.70539891
     atom   17 type  3   force =     0.00000000    4.15330094   -2.08634663
     atom   18 type  3   force =    -0.00000000   -4.15330094    2.08634663
     atom   19 type  3   force =     0.00000000    4.15330094    2.08634663
     atom   20 type  3   force =    -0.00000000   -4.15330094   -2.08634663
     The core correction contribution to forces
     atom    1 type  1   force =    -0.00000000   -0.00005668    0.00023039
     atom    2 type  1   force =     0.00000000    0.00005668   -0.00023039
     atom    3 type  1   force =    -0.00000000   -0.00005668   -0.00023039
     atom    4 type  1   force =     0.00000000    0.00005668    0.00023039
     atom    5 type  2   force =     0.00000000    0.00017978    0.00016580
     atom    6 type  2   force =    -0.00000000   -0.00017978   -0.00016580
     atom    7 type  2   force =     0.00000000    0.00017978   -0.00016580
     atom    8 type  2   force =    -0.00000000   -0.00017978    0.00016580
     atom    9 type  3   force =     0.00000000    0.00539163    0.00548024
     atom   10 type  3   force =    -0.00000000   -0.00539163   -0.00548024
     atom   11 type  3   force =     0.00000000    0.00539163   -0.00548024
     atom   12 type  3   force =    -0.00000000   -0.00539163    0.00548024
     atom   13 type  3   force =    -0.00000000    0.00318976   -0.00548402
     atom   14 type  3   force =     0.00000000   -0.00318976    0.00548402
     atom   15 type  3   force =    -0.00000000    0.00318976    0.00548402
     atom   16 type  3   force =     0.00000000   -0.00318976   -0.00548402
     atom   17 type  3   force =     0.00000000   -0.00641573    0.00211226
     atom   18 type  3   force =    -0.00000000    0.00641573   -0.00211226
     atom   19 type  3   force =    -0.00000000   -0.00641573   -0.00211226
     atom   20 type  3   force =    -0.00000000    0.00641573    0.00211226
     The Hubbard contrib.    to forces
     atom    1 type  1   force =     0.00000000    0.00000000    0.00000000
     atom    2 type  1   force =     0.00000000    0.00000000    0.00000000
     atom    3 type  1   force =     0.00000000    0.00000000    0.00000000
     atom    4 type  1   force =     0.00000000    0.00000000    0.00000000
     atom    5 type  2   force =     0.00000000    0.00000000    0.00000000
     atom    6 type  2   force =     0.00000000    0.00000000    0.00000000
     atom    7 type  2   force =     0.00000000    0.00000000    0.00000000
     atom    8 type  2   force =     0.00000000    0.00000000    0.00000000
     atom    9 type  3   force =     0.00000000    0.00000000    0.00000000
     atom   10 type  3   force =     0.00000000    0.00000000    0.00000000
     atom   11 type  3   force =     0.00000000    0.00000000    0.00000000
     atom   12 type  3   force =     0.00000000    0.00000000    0.00000000
     atom   13 type  3   force =     0.00000000    0.00000000    0.00000000
     atom   14 type  3   force =     0.00000000    0.00000000    0.00000000
     atom   15 type  3   force =     0.00000000    0.00000000    0.00000000
     atom   16 type  3   force =     0.00000000    0.00000000    0.00000000
     atom   17 type  3   force =     0.00000000    0.00000000    0.00000000
     atom   18 type  3   force =     0.00000000    0.00000000    0.00000000
     atom   19 type  3   force =     0.00000000    0.00000000    0.00000000
     atom   20 type  3   force =     0.00000000    0.00000000    0.00000000
     The SCF correction term to forces
     atom    1 type  1   force =     0.00000000   -0.00017037   -0.00033248
     atom    2 type  1   force =     0.00000000    0.00017037    0.00033248
     atom    3 type  1   force =     0.00000000   -0.00017037    0.00033248
     atom    4 type  1   force =    -0.00000000    0.00017037   -0.00033248
     atom    5 type  2   force =    -0.00000000   -0.00008989    0.00021039
     atom    6 type  2   force =     0.00000000    0.00008989   -0.00021039
     atom    7 type  2   force =    -0.00000000   -0.00008989   -0.00021039
     atom    8 type  2   force =    -0.00000000    0.00008989    0.00021039
     atom    9 type  3   force =    -0.00000000   -0.00017993   -0.00055606
     atom   10 type  3   force =     0.00000000    0.00017993    0.00055606
     atom   11 type  3   force =    -0.00000000   -0.00017993    0.00055606
     atom   12 type  3   force =     0.00000000    0.00017993   -0.00055606
     atom   13 type  3   force =     0.00000000    0.00001639    0.00040055
     atom   14 type  3   force =    -0.00000000   -0.00001639   -0.00040055
     atom   15 type  3   force =     0.00000000    0.00001639   -0.00040055
     atom   16 type  3   force =    -0.00000000   -0.00001639    0.00040055
     atom   17 type  3   force =    -0.00000000    0.00015009   -0.00020519
     atom   18 type  3   force =    -0.00000000   -0.00015009    0.00020519
     atom   19 type  3   force =    -0.00000000    0.00015009    0.00020519
     atom   20 type  3   force =     0.00000000   -0.00015009   -0.00020519

     Total force =     0.008782     Total SCF correction =     0.001742
     SCF correction compared to forces is large: reduce conv_thr to get better values


     Computing stress (Cartesian axis) and pressure

     Message from routine stres:
     noncollinear stress + GGA not implemented

     Writing output data file CsSnI3.save/
 
     init_run     :     14.73s CPU     20.11s WALL (       1 calls)
     electrons    :    266.82s CPU    381.60s WALL (       1 calls)
     forces       :     11.60s CPU     13.54s WALL (       1 calls)

     Called by init_run:
     wfcinit      :      6.04s CPU      9.31s WALL (       1 calls)
     wfcinit:atom :      0.02s CPU      0.03s WALL (       1 calls)
     wfcinit:wfcr :      5.93s CPU      9.13s WALL (       1 calls)
     potinit      :      1.31s CPU      1.55s WALL (       1 calls)
     hinit0       :      1.91s CPU      2.29s WALL (       1 calls)

     Called by electrons:
     c_bands      :    140.53s CPU    210.14s WALL (       9 calls)
     sum_band     :     78.28s CPU    109.23s WALL (       9 calls)
     v_of_rho     :      2.65s CPU      3.86s WALL (       9 calls)
     v_h          :      0.07s CPU      0.09s WALL (       9 calls)
     v_xc         :      2.87s CPU      4.24s WALL (      10 calls)
     newd         :     46.56s CPU     58.73s WALL (       9 calls)
     mix_rho      :      2.66s CPU      4.48s WALL (       9 calls)

     Called by c_bands:
     init_us_2    :      0.43s CPU      0.47s WALL (      19 calls)
     cegterg      :    131.43s CPU    200.37s WALL (       9 calls)

     Called by sum_band:
     sum_band:bec :      0.68s CPU      0.95s WALL (       9 calls)
     addusdens    :     42.36s CPU     51.69s WALL (       9 calls)

     Called by *egterg:
     h_psi        :    105.44s CPU    168.77s WALL (      34 calls)
     s_psi        :      5.29s CPU      5.86s WALL (      34 calls)
     g_psi        :      0.11s CPU      0.12s WALL (      24 calls)
     cdiaghg      :      8.84s CPU     13.05s WALL (      32 calls)
     cegterg:over :      6.72s CPU      8.32s WALL (      24 calls)
     cegterg:upda :      5.02s CPU      5.99s WALL (      24 calls)
     cegterg:last :      1.37s CPU      1.53s WALL (       9 calls)
     cdiaghg:chol :      0.38s CPU      0.60s WALL (      32 calls)
     cdiaghg:inve :      0.31s CPU      0.41s WALL (      32 calls)
     cdiaghg:para :      0.75s CPU      1.10s WALL (      64 calls)

     Called by h_psi:
     h_psi:pot    :    105.22s CPU    168.40s WALL (      34 calls)
     h_psi:calbec :      5.13s CPU      5.86s WALL (      34 calls)
     vloc_psi     :     94.87s CPU    156.75s WALL (      34 calls)
     add_vuspsi   :      5.23s CPU      5.79s WALL (      34 calls)

     General routines
     calbec       :      7.51s CPU      8.48s WALL (      47 calls)
     fft          :      5.26s CPU      8.78s WALL (     199 calls)
     ffts         :      1.82s CPU      3.15s WALL (      72 calls)
     fftw         :    114.67s CPU    195.14s WALL (   20780 calls)
     interpolate  :      0.83s CPU      1.15s WALL (      36 calls)
 
     Parallel routines
     fft_scatt_xy :      4.56s CPU      4.98s WALL (   21051 calls)
     fft_scatt_yz :     96.10s CPU    173.35s WALL (   21051 calls)
 
     PWSCF        :   5m 0.71s CPU   7m 3.72s WALL

 
   This run was terminated on:  15:49:25  25Jan2021            

=------------------------------------------------------------------------------=
   JOB DONE.
=------------------------------------------------------------------------------=
