
     Program PWSCF v.6.7MaX starts on 31Jan2021 at 10:29:25 

     This program is part of the open-source Quantum ESPRESSO suite
     for quantum simulation of materials; please cite
         "P. Giannozzi et al., J. Phys.:Condens. Matter 21 395502 (2009);
         "P. Giannozzi et al., J. Phys.:Condens. Matter 29 465901 (2017);
          URL http://www.quantum-espresso.org", 
     in publications or presentations arising from this work. More details at
     http://www.quantum-espresso.org/quote

     Parallel version (MPI & OpenMP), running on      96 processor cores
     Number of MPI processes:                48
     Threads/MPI process:                     2

     MPI processes distributed on     2 nodes
     R & G space division:  proc/nbgrp/npool/nimage =      48
     Waiting for input...
     Reading input from standard input

     Current dimensions of program PWSCF are:
     Max number of different atomic species (ntypx) = 10
     Max number of k-points (npk) =  40000
     Max angular momentum in pseudopotentials (lmaxx) =  3
     file Sn.rel-pbesol-dn-rrkjus_psl.1.0.0.UPF: wavefunction(s)  5S 4D 4D renormalized
     file I.rel-pbesol-n-rrkjus_psl.1.0.0.UPF: wavefunction(s)  5S renormalized

     Subspace diagonalization in iterative solution of the eigenvalue problem:
     a serial algorithm will be used


     Parallelization info
     --------------------
     sticks:   dense  smooth     PW     G-vecs:    dense   smooth      PW
     Min         103      83     22                 5479     3919     556
     Max         104      84     23                 5484     3922     559
     Sum        4957    3985   1085               263115   188183   26745


     Title: 
     SnI2                                                                       


     bravais-lattice index     =            1
     lattice parameter (alat)  =      14.4199  a.u.
     unit-cell volume          =    2998.4083 (a.u.)^3
     number of atoms/cell      =            6
     number of atomic types    =            2
     number of electrons       =        56.00
     number of Kohn-Sham states=           56
     kinetic-energy cutoff     =      60.0000  Ry
     charge density cutoff     =     300.0000  Ry
     scf convergence threshold =      1.0E-06
     mixing beta               =       0.3500
     number of iterations used =            8  plain     mixing
     Exchange-correlation= PBESOL
                           (   1   4  10   8   0   0   0)
     Non magnetic calculation with spin-orbit


     celldm(1)=  14.419944  celldm(2)=   0.000000  celldm(3)=   0.000000
     celldm(4)=   0.000000  celldm(5)=   0.000000  celldm(6)=   0.000000

     crystal axes: (cart. coord. in units of alat)
               a(1) = (   1.000000   0.000000   0.000000 )  
               a(2) = (   0.000000   1.000000   0.000000 )  
               a(3) = (   0.000000   0.000000   1.000000 )  

     reciprocal axes: (cart. coord. in units 2 pi/alat)
               b(1) = (  1.000000  0.000000  0.000000 )  
               b(2) = (  0.000000  1.000000  0.000000 )  
               b(3) = (  0.000000  0.000000  1.000000 )  


     PseudoPot. # 1 for Sn read from file:
     /scratch/cmalosso/degironcoli/pseudo/pseudo-usp/Sn.rel-pbesol-dn-rrkjus_psl.1.0.0.UPF
     MD5 check sum: c1cf6ea56b96a3656bdf0d1db379e093
     Pseudo is Ultrasoft + core correction, Zval = 14.0
     Generated using &quot;atomic&quot; code by A. Dal Corso  v.6.3
     Using radial grid of 1243 points, 10 beta functions with: 
                l(1) =   0
                l(2) =   0
                l(3) =   1
                l(4) =   1
                l(5) =   1
                l(6) =   1
                l(7) =   2
                l(8) =   2
                l(9) =   2
               l(10) =   2
     Q(r) pseudized with 0 coefficients 


     PseudoPot. # 2 for I  read from file:
     /scratch/cmalosso/degironcoli/pseudo/pseudo-usp/I.rel-pbesol-n-rrkjus_psl.1.0.0.UPF
     MD5 check sum: 0f96c6bfb1b448f280658f96eb466b08
     Pseudo is Ultrasoft + core correction, Zval =  7.0
     Generated using &quot;atomic&quot; code by A. Dal Corso  v.6.3
     Using radial grid of 1247 points, 10 beta functions with: 
                l(1) =   0
                l(2) =   0
                l(3) =   1
                l(4) =   1
                l(5) =   1
                l(6) =   1
                l(7) =   2
                l(8) =   2
                l(9) =   2
               l(10) =   2
     Q(r) pseudized with 0 coefficients 


     atomic species   valence    mass     pseudopotential
        Sn            14.00   118.70000     Sn( 1.00)
        I              7.00   126.90000     I ( 1.00)

     16 Sym. Ops., with inversion, found ( 8 have fractional translation)


                                    s                        frac. trans.

      isym =  1     identity                                     

 cryst.   s( 1) = (     1          0          0      )
                  (     0          1          0      )
                  (     0          0          1      )

 cart.    s( 1) = (  1.0000000  0.0000000  0.0000000 )
                  (  0.0000000  1.0000000  0.0000000 )
                  (  0.0000000  0.0000000  1.0000000 )


      isym =  2     180 deg rotation - cart. axis [0,0,1]        

 cryst.   s( 2) = (    -1          0          0      )
                  (     0         -1          0      )
                  (     0          0          1      )

 cart.    s( 2) = ( -1.0000000  0.0000000  0.0000000 )
                  (  0.0000000 -1.0000000  0.0000000 )
                  (  0.0000000  0.0000000  1.0000000 )


      isym =  3     180 deg rotation - cart. axis [0,1,0]        

 cryst.   s( 3) = (    -1          0          0      )    f =(  0.5000000 )
                  (     0          1          0      )       ( -0.5000000 )
                  (     0          0         -1      )       (  0.5000000 )

 cart.    s( 3) = ( -1.0000000  0.0000000  0.0000000 )    f =(  0.5000000 )
                  (  0.0000000  1.0000000  0.0000000 )       ( -0.5000000 )
                  (  0.0000000  0.0000000 -1.0000000 )       (  0.5000000 )


      isym =  4     180 deg rotation - cart. axis [1,0,0]        

 cryst.   s( 4) = (     1          0          0      )    f =( -0.5000000 )
                  (     0         -1          0      )       (  0.5000000 )
                  (     0          0         -1      )       (  0.5000000 )

 cart.    s( 4) = (  1.0000000  0.0000000  0.0000000 )    f =( -0.5000000 )
                  (  0.0000000 -1.0000000  0.0000000 )       (  0.5000000 )
                  (  0.0000000  0.0000000 -1.0000000 )       (  0.5000000 )


      isym =  5     180 deg rotation - cart. axis [1,1,0]        

 cryst.   s( 5) = (     0          1          0      )
                  (     1          0          0      )
                  (     0          0         -1      )

 cart.    s( 5) = (  0.0000000  1.0000000  0.0000000 )
                  (  1.0000000  0.0000000  0.0000000 )
                  (  0.0000000  0.0000000 -1.0000000 )


      isym =  6     180 deg rotation - cart. axis [1,-1,0]       

 cryst.   s( 6) = (     0         -1          0      )
                  (    -1          0          0      )
                  (     0          0         -1      )

 cart.    s( 6) = (  0.0000000 -1.0000000  0.0000000 )
                  ( -1.0000000  0.0000000  0.0000000 )
                  (  0.0000000  0.0000000 -1.0000000 )


      isym =  7      90 deg rotation - cart. axis [0,0,-1]       

 cryst.   s( 7) = (     0         -1          0      )    f =( -0.5000000 )
                  (     1          0          0      )       (  0.5000000 )
                  (     0          0          1      )       ( -0.5000000 )

 cart.    s( 7) = (  0.0000000  1.0000000  0.0000000 )    f =( -0.5000000 )
                  ( -1.0000000  0.0000000  0.0000000 )       (  0.5000000 )
                  (  0.0000000  0.0000000  1.0000000 )       ( -0.5000000 )


      isym =  8      90 deg rotation - cart. axis [0,0,1]        

 cryst.   s( 8) = (     0          1          0      )    f =(  0.5000000 )
                  (    -1          0          0      )       ( -0.5000000 )
                  (     0          0          1      )       ( -0.5000000 )

 cart.    s( 8) = (  0.0000000 -1.0000000  0.0000000 )    f =(  0.5000000 )
                  (  1.0000000  0.0000000  0.0000000 )       ( -0.5000000 )
                  (  0.0000000  0.0000000  1.0000000 )       ( -0.5000000 )


      isym =  9     inversion                                    

 cryst.   s( 9) = (    -1          0          0      )
                  (     0         -1          0      )
                  (     0          0         -1      )

 cart.    s( 9) = ( -1.0000000  0.0000000  0.0000000 )
                  (  0.0000000 -1.0000000  0.0000000 )
                  (  0.0000000  0.0000000 -1.0000000 )


      isym = 10     inv. 180 deg rotation - cart. axis [0,0,1]   

 cryst.   s(10) = (     1          0          0      )
                  (     0          1          0      )
                  (     0          0         -1      )

 cart.    s(10) = (  1.0000000  0.0000000  0.0000000 )
                  (  0.0000000  1.0000000  0.0000000 )
                  (  0.0000000  0.0000000 -1.0000000 )


      isym = 11     inv. 180 deg rotation - cart. axis [0,1,0]   

 cryst.   s(11) = (     1          0          0      )    f =( -0.5000000 )
                  (     0         -1          0      )       (  0.5000000 )
                  (     0          0          1      )       ( -0.5000000 )

 cart.    s(11) = (  1.0000000  0.0000000  0.0000000 )    f =( -0.5000000 )
                  (  0.0000000 -1.0000000  0.0000000 )       (  0.5000000 )
                  (  0.0000000  0.0000000  1.0000000 )       ( -0.5000000 )


      isym = 12     inv. 180 deg rotation - cart. axis [1,0,0]   

 cryst.   s(12) = (    -1          0          0      )    f =(  0.5000000 )
                  (     0          1          0      )       ( -0.5000000 )
                  (     0          0          1      )       ( -0.5000000 )

 cart.    s(12) = ( -1.0000000  0.0000000  0.0000000 )    f =(  0.5000000 )
                  (  0.0000000  1.0000000  0.0000000 )       ( -0.5000000 )
                  (  0.0000000  0.0000000  1.0000000 )       ( -0.5000000 )


      isym = 13     inv. 180 deg rotation - cart. axis [1,1,0]   

 cryst.   s(13) = (     0         -1          0      )
                  (    -1          0          0      )
                  (     0          0          1      )

 cart.    s(13) = (  0.0000000 -1.0000000  0.0000000 )
                  ( -1.0000000  0.0000000  0.0000000 )
                  (  0.0000000  0.0000000  1.0000000 )


      isym = 14     inv. 180 deg rotation - cart. axis [1,-1,0]  

 cryst.   s(14) = (     0          1          0      )
                  (     1          0          0      )
                  (     0          0          1      )

 cart.    s(14) = (  0.0000000  1.0000000  0.0000000 )
                  (  1.0000000  0.0000000  0.0000000 )
                  (  0.0000000  0.0000000  1.0000000 )


      isym = 15     inv.  90 deg rotation - cart. axis [0,0,-1]  

 cryst.   s(15) = (     0          1          0      )    f =(  0.5000000 )
                  (    -1          0          0      )       ( -0.5000000 )
                  (     0          0         -1      )       (  0.5000000 )

 cart.    s(15) = (  0.0000000 -1.0000000  0.0000000 )    f =(  0.5000000 )
                  (  1.0000000  0.0000000  0.0000000 )       ( -0.5000000 )
                  (  0.0000000  0.0000000 -1.0000000 )       (  0.5000000 )


      isym = 16     inv.  90 deg rotation - cart. axis [0,0,1]   

 cryst.   s(16) = (     0         -1          0      )    f =( -0.5000000 )
                  (     1          0          0      )       (  0.5000000 )
                  (     0          0         -1      )       (  0.5000000 )

 cart.    s(16) = (  0.0000000  1.0000000  0.0000000 )    f =( -0.5000000 )
                  ( -1.0000000  0.0000000  0.0000000 )       (  0.5000000 )
                  (  0.0000000  0.0000000 -1.0000000 )       (  0.5000000 )


     double point group D_4h(4/mmm)
     there are 14 classes and  4 irreducible representations
     the character table:

       E     -E    2C4   -2C4   C2    2C2' 2C2'' i     -i    2S4   -2S4   s_h 
                               -C2   -2C2' -2C2'                         -s_h 
G_6+   2.00 -2.00  1.41 -1.41  0.00  0.00  0.00  2.00 -2.00  1.41 -1.41  0.00
G_7+   2.00 -2.00 -1.41  1.41  0.00  0.00  0.00  2.00 -2.00 -1.41  1.41  0.00
G_6-   2.00 -2.00  1.41 -1.41  0.00  0.00  0.00 -2.00  2.00 -1.41  1.41  0.00
G_7-   2.00 -2.00 -1.41  1.41  0.00  0.00  0.00 -2.00  2.00  1.41 -1.41  0.00

        2s_v  2s_d
       -2s_v -2s_d
G_6+   0.00  0.00
G_7+   0.00  0.00
G_6-   0.00  0.00
G_7-   0.00  0.00

     the symmetry operations in each class and the name of the first element:

     E             1
          identity                                               
     -E           -1
          identity E                                             
     2C4           7    8
           90 deg rotation - cart. axis [0,0,-1]                 
     -2C4         -7   -8
           90 deg rotation - cart. axis [0,0,-1] E               
      C2  -C2      2   -2
          180 deg rotation - cart. axis [0,0,1]                  
      2C2'-2C2'    3   -3    4   -4
          180 deg rotation - cart. axis [0,1,0]                  
     2C2''-2C2'    5   -5   -6    6
          180 deg rotation - cart. axis [1,1,0]                  
     i             9
          inversion                                              
     -i           -9
          inversion E                                            
     2S4          15   16
          inv.  90 deg rotation - cart. axis [0,0,-1]            
     -2S4        -15  -16
          inv.  90 deg rotation - cart. axis [0,0,-1] E          
      s_h -s_h    10  -10
          inv. 180 deg rotation - cart. axis [0,0,1]             
      2s_v-2s_v   11  -11   12  -12
          inv. 180 deg rotation - cart. axis [0,1,0]             
      2s_d-2s_d   13  -13  -14   14
          inv. 180 deg rotation - cart. axis [1,1,0]             

   Cartesian axes

     site n.     atom                  positions (alat units)
         1           Sn  tau(   1) = (   0.0000000   0.0000000   0.0000000  )
         2           Sn  tau(   2) = (   0.5000000   0.5000000   0.5000000  )
         3           I   tau(   3) = (   0.2985210   0.2985210   0.0000000  )
         4           I   tau(   4) = (   0.7014790   0.7014790   0.0000000  )
         5           I   tau(   5) = (   0.7985210   0.2014790   0.5000000  )
         6           I   tau(   6) = (   0.2014790   0.7985210   0.5000000  )

   Crystallographic axes

     site n.     atom                  positions (cryst. coord.)
         1           Sn  tau(   1) = (  0.0000000  0.0000000  0.0000000  )
         2           Sn  tau(   2) = (  0.5000000  0.5000000  0.5000000  )
         3           I   tau(   3) = (  0.2985210  0.2985210  0.0000000  )
         4           I   tau(   4) = (  0.7014790  0.7014790  0.0000000  )
         5           I   tau(   5) = (  0.7985210  0.2014790  0.5000000  )
         6           I   tau(   6) = (  0.2014790  0.7985210  0.5000000  )

     number of k points=    18
                       cart. coord. in units 2pi/alat
        k(    1) = (   0.0833333   0.0833333   0.0833333), wk =   0.0370370
        k(    2) = (   0.0833333   0.0833333   0.2500000), wk =   0.0370370
        k(    3) = (   0.0833333   0.0833333   0.4166667), wk =   0.0370370
        k(    4) = (   0.0833333   0.2500000   0.2500000), wk =   0.0740741
        k(    5) = (   0.0833333   0.2500000   0.4166667), wk =   0.0740741
        k(    6) = (   0.0833333   0.4166667   0.4166667), wk =   0.0740741
        k(    7) = (   0.2500000   0.2500000   0.2500000), wk =   0.0370370
        k(    8) = (   0.2500000   0.2500000   0.4166667), wk =   0.0370370
        k(    9) = (   0.2500000   0.4166667   0.4166667), wk =   0.0740741
        k(   10) = (   0.4166667   0.4166667   0.4166667), wk =   0.0370370
        k(   11) = (   0.0833333   0.2500000   0.0833333), wk =   0.0740741
        k(   12) = (   0.0833333   0.4166667   0.0833333), wk =   0.0740741
        k(   13) = (   0.2500000   0.2500000   0.0833333), wk =   0.0370370
        k(   14) = (   0.2500000   0.4166667   0.0833333), wk =   0.0740741
        k(   15) = (   0.4166667   0.0833333   0.2500000), wk =   0.0740741
        k(   16) = (   0.4166667   0.4166667   0.0833333), wk =   0.0370370
        k(   17) = (   0.2500000   0.4166667   0.2500000), wk =   0.0740741
        k(   18) = (   0.4166667   0.4166667   0.2500000), wk =   0.0370370

                       cryst. coord.
        k(    1) = (   0.0833333   0.0833333   0.0833333), wk =   0.0370370
        k(    2) = (   0.0833333   0.0833333   0.2500000), wk =   0.0370370
        k(    3) = (   0.0833333   0.0833333   0.4166667), wk =   0.0370370
        k(    4) = (   0.0833333   0.2500000   0.2500000), wk =   0.0740741
        k(    5) = (   0.0833333   0.2500000   0.4166667), wk =   0.0740741
        k(    6) = (   0.0833333   0.4166667   0.4166667), wk =   0.0740741
        k(    7) = (   0.2500000   0.2500000   0.2500000), wk =   0.0370370
        k(    8) = (   0.2500000   0.2500000   0.4166667), wk =   0.0370370
        k(    9) = (   0.2500000   0.4166667   0.4166667), wk =   0.0740741
        k(   10) = (   0.4166667   0.4166667   0.4166667), wk =   0.0370370
        k(   11) = (   0.0833333   0.2500000   0.0833333), wk =   0.0740741
        k(   12) = (   0.0833333   0.4166667   0.0833333), wk =   0.0740741
        k(   13) = (   0.2500000   0.2500000   0.0833333), wk =   0.0370370
        k(   14) = (   0.2500000   0.4166667   0.0833333), wk =   0.0740741
        k(   15) = (   0.4166667   0.0833333   0.2500000), wk =   0.0740741
        k(   16) = (   0.4166667   0.4166667   0.0833333), wk =   0.0370370
        k(   17) = (   0.2500000   0.4166667   0.2500000), wk =   0.0740741
        k(   18) = (   0.4166667   0.4166667   0.2500000), wk =   0.0370370

     Dense  grid:   263115 G-vectors     FFT dimensions: (  80,  80,  80)

     Smooth grid:   188183 G-vectors     FFT dimensions: (  72,  72,  72)

     Dynamical RAM for                 wfc:       0.84 MB

     Dynamical RAM for     wfc (w. buffer):      15.91 MB

     Dynamical RAM for           str. fact:       0.17 MB

     Dynamical RAM for           local pot:       0.00 MB

     Dynamical RAM for          nlocal pot:       1.53 MB

     Dynamical RAM for                qrad:       7.28 MB

     Dynamical RAM for          rho,v,vnew:       2.18 MB

     Dynamical RAM for               rhoin:       0.73 MB

     Dynamical RAM for            rho*nmix:       5.35 MB

     Dynamical RAM for           G-vectors:       0.34 MB

     Dynamical RAM for          h,s,v(r/c):       0.57 MB

     Dynamical RAM for          <psi|beta>:       0.35 MB

     Dynamical RAM for                 psi:       1.67 MB

     Dynamical RAM for                hpsi:       1.67 MB

     Dynamical RAM for                spsi:       1.67 MB

     Dynamical RAM for      wfcinit/wfcrot:       1.63 MB

     Dynamical RAM for           addusdens:      51.35 MB

     Dynamical RAM for          addusforce:      51.95 MB

     Dynamical RAM for         addusstress:      52.52 MB

     Estimated static dynamical RAM per process >      34.52 MB

     Estimated max dynamical RAM per process >      87.04 MB

     Estimated total dynamical RAM >       4.08 GB

     Initial potential from superposition of free atoms

     starting charge   55.99772, renormalised to   56.00000
     Starting wfcs are   68 randomized atomic wfcs

     total cpu time spent up to now is        5.9 secs

     Self-consistent Calculation

     iteration #  1     ecut=    60.00 Ry     beta= 0.35
     Davidson diagonalization with overlap
     ethr =  1.00E-02,  avg # of iterations =  1.0

     total cpu time spent up to now is       13.1 secs

     total energy              =    -458.29100567 Ry
     estimated scf accuracy    <       0.58761581 Ry

     iteration #  2     ecut=    60.00 Ry     beta= 0.35
     Davidson diagonalization with overlap
     ethr =  1.05E-03,  avg # of iterations =  3.0

     total cpu time spent up to now is       22.1 secs

     total energy              =    -458.36798159 Ry
     estimated scf accuracy    <       0.06202117 Ry

     iteration #  3     ecut=    60.00 Ry     beta= 0.35
     Davidson diagonalization with overlap
     ethr =  1.11E-04,  avg # of iterations =  5.4

     total cpu time spent up to now is       33.6 secs

     total energy              =    -458.38174947 Ry
     estimated scf accuracy    <       0.04610351 Ry

     iteration #  4     ecut=    60.00 Ry     beta= 0.35
     Davidson diagonalization with overlap
     ethr =  8.23E-05,  avg # of iterations =  5.2

     total cpu time spent up to now is       44.3 secs

     total energy              =    -458.39134039 Ry
     estimated scf accuracy    <       0.03410405 Ry

     iteration #  5     ecut=    60.00 Ry     beta= 0.35
     Davidson diagonalization with overlap
     ethr =  6.09E-05,  avg # of iterations =  4.6

     total cpu time spent up to now is       53.4 secs

     total energy              =    -458.39838960 Ry
     estimated scf accuracy    <       0.00078496 Ry

     iteration #  6     ecut=    60.00 Ry     beta= 0.35
     Davidson diagonalization with overlap
     ethr =  1.40E-06,  avg # of iterations = 11.0

     total cpu time spent up to now is       68.9 secs

     total energy              =    -458.39631527 Ry
     estimated scf accuracy    <       0.01155493 Ry

     iteration #  7     ecut=    60.00 Ry     beta= 0.35
     Davidson diagonalization with overlap
     ethr =  1.40E-06,  avg # of iterations =  8.1

     total cpu time spent up to now is       82.0 secs

     total energy              =    -458.39877971 Ry
     estimated scf accuracy    <       0.00025025 Ry

     iteration #  8     ecut=    60.00 Ry     beta= 0.35
     Davidson diagonalization with overlap
     ethr =  4.47E-07,  avg # of iterations =  3.4

     total cpu time spent up to now is       90.4 secs

     total energy              =    -458.39881233 Ry
     estimated scf accuracy    <       0.00001427 Ry

     iteration #  9     ecut=    60.00 Ry     beta= 0.35
     Davidson diagonalization with overlap
     ethr =  2.55E-08,  avg # of iterations =  7.0

     total cpu time spent up to now is      101.9 secs

     total energy              =    -458.39882255 Ry
     estimated scf accuracy    <       0.00000224 Ry

     iteration # 10     ecut=    60.00 Ry     beta= 0.35
     Davidson diagonalization with overlap
     ethr =  4.00E-09,  avg # of iterations =  5.0

     total cpu time spent up to now is      111.1 secs

     End of self-consistent calculation

          k = 0.0833 0.0833 0.0833 ( 23502 PWs)   bands (ev):

   -23.2573 -23.2573 -23.2572 -23.2572 -23.1322 -23.1322 -23.1321 -23.1321
   -22.2373 -22.2373 -22.2372 -22.2372 -22.1283 -22.1283 -22.1280 -22.1280
   -22.0772 -22.0772 -22.0770 -22.0770 -11.6211 -11.6211 -11.5305 -11.5305
   -11.4808 -11.4808 -11.4765 -11.4765  -7.0740  -7.0740  -6.8745  -6.8745
    -2.6882  -2.6882  -2.5266  -2.5266  -2.1402  -2.1402  -2.0291  -2.0291
    -1.8816  -1.8816  -1.5297  -1.5297  -1.2263  -1.2263  -1.1330  -1.1330
    -1.1082  -1.1082  -0.9958  -0.9958  -0.9241  -0.9241  -0.8835  -0.8835

     occupation numbers 
     1.0000   1.0000   1.0000   1.0000   1.0000   1.0000   1.0000   1.0000
     1.0000   1.0000   1.0000   1.0000   1.0000   1.0000   1.0000   1.0000
     1.0000   1.0000   1.0000   1.0000   1.0000   1.0000   1.0000   1.0000
     1.0000   1.0000   1.0000   1.0000   1.0000   1.0000   1.0000   1.0000
     1.0000   1.0000   1.0000   1.0000   1.0000   1.0000   1.0000   1.0000
     1.0000   1.0000   1.0000   1.0000   1.0000   1.0000   1.0000   1.0000
     1.0000   1.0000   1.0000   1.0000   1.0000   1.0000   1.0000   1.0000

          k = 0.0833 0.0833 0.2500 ( 23518 PWs)   bands (ev):

   -23.2573 -23.2573 -23.2573 -23.2573 -23.1322 -23.1322 -23.1321 -23.1321
   -22.2373 -22.2373 -22.2372 -22.2372 -22.1282 -22.1282 -22.1282 -22.1282
   -22.0772 -22.0772 -22.0771 -22.0771 -11.6088 -11.6088 -11.5423 -11.5423
   -11.4808 -11.4808 -11.4763 -11.4763  -7.0539  -7.0539  -6.9082  -6.9082
    -2.6755  -2.6755  -2.5238  -2.5238  -2.1288  -2.1288  -2.0075  -2.0075
    -1.8560  -1.8560  -1.5542  -1.5542  -1.2240  -1.2240  -1.1742  -1.1742
    -1.1316  -1.1316  -1.0237  -1.0237  -0.9344  -0.9344  -0.8970  -0.8970

     occupation numbers 
     1.0000   1.0000   1.0000   1.0000   1.0000   1.0000   1.0000   1.0000
     1.0000   1.0000   1.0000   1.0000   1.0000   1.0000   1.0000   1.0000
     1.0000   1.0000   1.0000   1.0000   1.0000   1.0000   1.0000   1.0000
     1.0000   1.0000   1.0000   1.0000   1.0000   1.0000   1.0000   1.0000
     1.0000   1.0000   1.0000   1.0000   1.0000   1.0000   1.0000   1.0000
     1.0000   1.0000   1.0000   1.0000   1.0000   1.0000   1.0000   1.0000
     1.0000   1.0000   1.0000   1.0000   1.0000   1.0000   1.0000   1.0000

          k = 0.0833 0.0833 0.4167 ( 23544 PWs)   bands (ev):

   -23.2574 -23.2574 -23.2573 -23.2573 -23.1322 -23.1322 -23.1322 -23.1322
   -22.2373 -22.2373 -22.2373 -22.2373 -22.1283 -22.1283 -22.1282 -22.1282
   -22.0772 -22.0772 -22.0771 -22.0771 -11.5876 -11.5876 -11.5629 -11.5629
   -11.4807 -11.4807 -11.4762 -11.4762  -7.0146  -7.0146  -6.9611  -6.9611
    -2.6633  -2.6633  -2.5198  -2.5198  -2.1276  -2.1276  -1.9901  -1.9901
    -1.7896  -1.7896  -1.6111  -1.6111  -1.2229  -1.2229  -1.2030  -1.2030
    -1.1352  -1.1352  -1.0584  -1.0584  -0.9614  -0.9614  -0.9110  -0.9110

     occupation numbers 
     1.0000   1.0000   1.0000   1.0000   1.0000   1.0000   1.0000   1.0000
     1.0000   1.0000   1.0000   1.0000   1.0000   1.0000   1.0000   1.0000
     1.0000   1.0000   1.0000   1.0000   1.0000   1.0000   1.0000   1.0000
     1.0000   1.0000   1.0000   1.0000   1.0000   1.0000   1.0000   1.0000
     1.0000   1.0000   1.0000   1.0000   1.0000   1.0000   1.0000   1.0000
     1.0000   1.0000   1.0000   1.0000   1.0000   1.0000   1.0000   1.0000
     1.0000   1.0000   1.0000   1.0000   1.0000   1.0000   1.0000   1.0000

          k = 0.0833 0.2500 0.2500 ( 23539 PWs)   bands (ev):

   -23.2573 -23.2573 -23.2573 -23.2573 -23.1322 -23.1322 -23.1322 -23.1322
   -22.2373 -22.2373 -22.2373 -22.2373 -22.1282 -22.1282 -22.1282 -22.1282
   -22.0772 -22.0772 -22.0771 -22.0771 -11.5938 -11.5938 -11.5375 -11.5375
   -11.4953 -11.4953 -11.4824 -11.4824  -7.0308  -7.0308  -6.9234  -6.9234
    -2.8228  -2.8228  -2.6487  -2.6487  -2.0988  -2.0988  -1.9413  -1.9413
    -1.8140  -1.8140  -1.5761  -1.5761  -1.2495  -1.2495  -1.1819  -1.1819
    -1.0523  -1.0523  -0.9637  -0.9637  -0.8989  -0.8989  -0.7150  -0.7150

     occupation numbers 
     1.0000   1.0000   1.0000   1.0000   1.0000   1.0000   1.0000   1.0000
     1.0000   1.0000   1.0000   1.0000   1.0000   1.0000   1.0000   1.0000
     1.0000   1.0000   1.0000   1.0000   1.0000   1.0000   1.0000   1.0000
     1.0000   1.0000   1.0000   1.0000   1.0000   1.0000   1.0000   1.0000
     1.0000   1.0000   1.0000   1.0000   1.0000   1.0000   1.0000   1.0000
     1.0000   1.0000   1.0000   1.0000   1.0000   1.0000   1.0000   1.0000
     1.0000   1.0000   1.0000   1.0000   1.0000   1.0000   1.0000   1.0000

          k = 0.0833 0.2500 0.4167 ( 23545 PWs)   bands (ev):

   -23.2574 -23.2574 -23.2573 -23.2573 -23.1322 -23.1322 -23.1322 -23.1322
   -22.2373 -22.2373 -22.2373 -22.2373 -22.1282 -22.1282 -22.1282 -22.1282
   -22.0772 -22.0772 -22.0771 -22.0771 -11.5763 -11.5763 -11.5532 -11.5532
   -11.4952 -11.4952 -11.4833 -11.4833  -7.0040  -7.0040  -6.9633  -6.9633
    -2.8353  -2.8353  -2.6526  -2.6526  -2.0649  -2.0649  -1.8868  -1.8868
    -1.8345  -1.8345  -1.5842  -1.5842  -1.2565  -1.2565  -1.1776  -1.1776
    -1.0677  -1.0677  -0.9797  -0.9797  -0.8922  -0.8922  -0.7143  -0.7143

     occupation numbers 
     1.0000   1.0000   1.0000   1.0000   1.0000   1.0000   1.0000   1.0000
     1.0000   1.0000   1.0000   1.0000   1.0000   1.0000   1.0000   1.0000
     1.0000   1.0000   1.0000   1.0000   1.0000   1.0000   1.0000   1.0000
     1.0000   1.0000   1.0000   1.0000   1.0000   1.0000   1.0000   1.0000
     1.0000   1.0000   1.0000   1.0000   1.0000   1.0000   1.0000   1.0000
     1.0000   1.0000   1.0000   1.0000   1.0000   1.0000   1.0000   1.0000
     1.0000   1.0000   1.0000   1.0000   1.0000   1.0000   1.0000   1.0000

          k = 0.0833 0.4167 0.4167 ( 23530 PWs)   bands (ev):

   -23.2573 -23.2573 -23.2573 -23.2573 -23.1322 -23.1322 -23.1322 -23.1322
   -22.2373 -22.2373 -22.2372 -22.2372 -22.1282 -22.1282 -22.1282 -22.1282
   -22.0772 -22.0772 -22.0771 -22.0771 -11.5575 -11.5575 -11.5442 -11.5442
   -11.5083 -11.5083 -11.4986 -11.4986  -6.9877  -6.9877  -6.9712  -6.9712
    -2.9026  -2.9026  -2.8257  -2.8257  -2.0197  -2.0197  -1.9097  -1.9097
    -1.7857  -1.7857  -1.5861  -1.5861  -1.2438  -1.2438  -1.1973  -1.1973
    -0.9683  -0.9683  -0.9350  -0.9350  -0.7181  -0.7181  -0.5751  -0.5751

     occupation numbers 
     1.0000   1.0000   1.0000   1.0000   1.0000   1.0000   1.0000   1.0000
     1.0000   1.0000   1.0000   1.0000   1.0000   1.0000   1.0000   1.0000
     1.0000   1.0000   1.0000   1.0000   1.0000   1.0000   1.0000   1.0000
     1.0000   1.0000   1.0000   1.0000   1.0000   1.0000   1.0000   1.0000
     1.0000   1.0000   1.0000   1.0000   1.0000   1.0000   1.0000   1.0000
     1.0000   1.0000   1.0000   1.0000   1.0000   1.0000   1.0000   1.0000
     1.0000   1.0000   1.0000   1.0000   1.0000   1.0000   1.0000   1.0000

          k = 0.2500 0.2500 0.2500 ( 23502 PWs)   bands (ev):

   -23.2573 -23.2573 -23.2572 -23.2572 -23.1322 -23.1322 -23.1321 -23.1321
   -22.2373 -22.2373 -22.2372 -22.2372 -22.1282 -22.1282 -22.1281 -22.1281
   -22.0772 -22.0772 -22.0771 -22.0771 -11.5853 -11.5853 -11.5374 -11.5374
   -11.5044 -11.5044 -11.4813 -11.4813  -7.0208  -7.0208  -6.9402  -6.9402
    -2.8811  -2.8811  -2.5358  -2.5358  -2.0961  -2.0961  -1.9270  -1.9270
    -1.8728  -1.8728  -1.6037  -1.6037  -1.2957  -1.2957  -1.2281  -1.2281
    -1.1215  -1.1215  -0.9332  -0.9332  -0.8781  -0.8781  -0.5884  -0.5884

     occupation numbers 
     1.0000   1.0000   1.0000   1.0000   1.0000   1.0000   1.0000   1.0000
     1.0000   1.0000   1.0000   1.0000   1.0000   1.0000   1.0000   1.0000
     1.0000   1.0000   1.0000   1.0000   1.0000   1.0000   1.0000   1.0000
     1.0000   1.0000   1.0000   1.0000   1.0000   1.0000   1.0000   1.0000
     1.0000   1.0000   1.0000   1.0000   1.0000   1.0000   1.0000   1.0000
     1.0000   1.0000   1.0000   1.0000   1.0000   1.0000   1.0000   1.0000
     1.0000   1.0000   1.0000   1.0000   1.0000   1.0000   1.0000   1.0000

          k = 0.2500 0.2500 0.4167 ( 23554 PWs)   bands (ev):

   -23.2574 -23.2574 -23.2573 -23.2573 -23.1322 -23.1322 -23.1322 -23.1322
   -22.2373 -22.2373 -22.2373 -22.2373 -22.1282 -22.1282 -22.1282 -22.1282
   -22.0772 -22.0772 -22.0772 -22.0772 -11.5740 -11.5740 -11.5446 -11.5446
   -11.5075 -11.5075 -11.4811 -11.4811  -7.0049  -7.0049  -6.9694  -6.9694
    -2.8989  -2.8989  -2.5211  -2.5211  -2.1169  -2.1169  -1.8875  -1.8875
    -1.8736  -1.8736  -1.5832  -1.5832  -1.3081  -1.3081  -1.2063  -1.2063
    -1.1209  -1.1209  -0.9276  -0.9276  -0.8679  -0.8679  -0.5779  -0.5779

     occupation numbers 
     1.0000   1.0000   1.0000   1.0000   1.0000   1.0000   1.0000   1.0000
     1.0000   1.0000   1.0000   1.0000   1.0000   1.0000   1.0000   1.0000
     1.0000   1.0000   1.0000   1.0000   1.0000   1.0000   1.0000   1.0000
     1.0000   1.0000   1.0000   1.0000   1.0000   1.0000   1.0000   1.0000
     1.0000   1.0000   1.0000   1.0000   1.0000   1.0000   1.0000   1.0000
     1.0000   1.0000   1.0000   1.0000   1.0000   1.0000   1.0000   1.0000
     1.0000   1.0000   1.0000   1.0000   1.0000   1.0000   1.0000   1.0000

          k = 0.2500 0.4167 0.4167 ( 23527 PWs)   bands (ev):

   -23.2573 -23.2573 -23.2573 -23.2573 -23.1322 -23.1322 -23.1322 -23.1322
   -22.2373 -22.2373 -22.2373 -22.2373 -22.1282 -22.1282 -22.1282 -22.1282
   -22.0772 -22.0772 -22.0771 -22.0771 -11.5645 -11.5645 -11.5502 -11.5502
   -11.5028 -11.5028 -11.4890 -11.4890  -6.9984  -6.9984  -6.9830  -6.9830
    -2.8244  -2.8244  -2.6477  -2.6477  -2.0796  -2.0796  -1.9402  -1.9402
    -1.8229  -1.8229  -1.5891  -1.5891  -1.2925  -1.2925  -1.2358  -1.2358
    -1.0295  -1.0295  -0.8980  -0.8980  -0.8318  -0.8318  -0.7219  -0.7219

     occupation numbers 
     1.0000   1.0000   1.0000   1.0000   1.0000   1.0000   1.0000   1.0000
     1.0000   1.0000   1.0000   1.0000   1.0000   1.0000   1.0000   1.0000
     1.0000   1.0000   1.0000   1.0000   1.0000   1.0000   1.0000   1.0000
     1.0000   1.0000   1.0000   1.0000   1.0000   1.0000   1.0000   1.0000
     1.0000   1.0000   1.0000   1.0000   1.0000   1.0000   1.0000   1.0000
     1.0000   1.0000   1.0000   1.0000   1.0000   1.0000   1.0000   1.0000
     1.0000   1.0000   1.0000   1.0000   1.0000   1.0000   1.0000   1.0000

          k = 0.4167 0.4167 0.4167 ( 23522 PWs)   bands (ev):

   -23.2573 -23.2573 -23.2573 -23.2573 -23.1322 -23.1322 -23.1321 -23.1321
   -22.2373 -22.2373 -22.2372 -22.2372 -22.1282 -22.1282 -22.1281 -22.1281
   -22.0772 -22.0772 -22.0771 -22.0771 -11.5661 -11.5661 -11.5605 -11.5605
   -11.4918 -11.4918 -11.4861 -11.4861  -7.0052  -7.0052  -6.9985  -6.9985
    -2.6450  -2.6450  -2.5227  -2.5227  -2.1154  -2.1154  -1.9819  -1.9819
    -1.8673  -1.8673  -1.6643  -1.6643  -1.3326  -1.3326  -1.2811  -1.2811
    -1.0935  -1.0935  -1.0113  -1.0113  -0.8102  -0.8102  -0.7954  -0.7954

     occupation numbers 
     1.0000   1.0000   1.0000   1.0000   1.0000   1.0000   1.0000   1.0000
     1.0000   1.0000   1.0000   1.0000   1.0000   1.0000   1.0000   1.0000
     1.0000   1.0000   1.0000   1.0000   1.0000   1.0000   1.0000   1.0000
     1.0000   1.0000   1.0000   1.0000   1.0000   1.0000   1.0000   1.0000
     1.0000   1.0000   1.0000   1.0000   1.0000   1.0000   1.0000   1.0000
     1.0000   1.0000   1.0000   1.0000   1.0000   1.0000   1.0000   1.0000
     1.0000   1.0000   1.0000   1.0000   1.0000   1.0000   1.0000   1.0000

          k = 0.0833 0.2500 0.0833 ( 23518 PWs)   bands (ev):

   -23.2573 -23.2573 -23.2573 -23.2573 -23.1322 -23.1322 -23.1321 -23.1321
   -22.2373 -22.2373 -22.2372 -22.2372 -22.1282 -22.1282 -22.1281 -22.1281
   -22.0772 -22.0772 -22.0771 -22.0771 -11.6044 -11.6044 -11.5291 -11.5291
   -11.4948 -11.4948 -11.4816 -11.4816  -7.0439  -7.0439  -6.8972  -6.8972
    -2.8072  -2.8072  -2.6437  -2.6437  -2.1559  -2.1559  -1.9716  -1.9716
    -1.8024  -1.8024  -1.5550  -1.5550  -1.2425  -1.2425  -1.1860  -1.1860
    -1.0386  -1.0386  -0.9559  -0.9559  -0.9015  -0.9015  -0.7149  -0.7149

     occupation numbers 
     1.0000   1.0000   1.0000   1.0000   1.0000   1.0000   1.0000   1.0000
     1.0000   1.0000   1.0000   1.0000   1.0000   1.0000   1.0000   1.0000
     1.0000   1.0000   1.0000   1.0000   1.0000   1.0000   1.0000   1.0000
     1.0000   1.0000   1.0000   1.0000   1.0000   1.0000   1.0000   1.0000
     1.0000   1.0000   1.0000   1.0000   1.0000   1.0000   1.0000   1.0000
     1.0000   1.0000   1.0000   1.0000   1.0000   1.0000   1.0000   1.0000
     1.0000   1.0000   1.0000   1.0000   1.0000   1.0000   1.0000   1.0000

          k = 0.0833 0.4167 0.0833 ( 23544 PWs)   bands (ev):

   -23.2574 -23.2574 -23.2573 -23.2573 -23.1322 -23.1322 -23.1322 -23.1322
   -22.2373 -22.2373 -22.2373 -22.2373 -22.1282 -22.1282 -22.1282 -22.1282
   -22.0772 -22.0772 -22.0772 -22.0772 -11.5755 -11.5755 -11.5440 -11.5440
   -11.5002 -11.5002 -11.4913 -11.4913  -6.9939  -6.9939  -6.9399  -6.9399
    -2.8599  -2.8599  -2.7930  -2.7930  -2.1007  -2.1007  -2.0129  -2.0129
    -1.7057  -1.7057  -1.6058  -1.6058  -1.2685  -1.2685  -1.2442  -1.2442
    -0.9968  -0.9968  -0.9483  -0.9483  -0.7241  -0.7241  -0.5961  -0.5961

     occupation numbers 
     1.0000   1.0000   1.0000   1.0000   1.0000   1.0000   1.0000   1.0000
     1.0000   1.0000   1.0000   1.0000   1.0000   1.0000   1.0000   1.0000
     1.0000   1.0000   1.0000   1.0000   1.0000   1.0000   1.0000   1.0000
     1.0000   1.0000   1.0000   1.0000   1.0000   1.0000   1.0000   1.0000
     1.0000   1.0000   1.0000   1.0000   1.0000   1.0000   1.0000   1.0000
     1.0000   1.0000   1.0000   1.0000   1.0000   1.0000   1.0000   1.0000
     1.0000   1.0000   1.0000   1.0000   1.0000   1.0000   1.0000   1.0000

          k = 0.2500 0.2500 0.0833 ( 23539 PWs)   bands (ev):

   -23.2573 -23.2573 -23.2573 -23.2573 -23.1322 -23.1322 -23.1322 -23.1322
   -22.2373 -22.2373 -22.2373 -22.2373 -22.1282 -22.1282 -22.1282 -22.1282
   -22.0772 -22.0772 -22.0771 -22.0771 -11.5934 -11.5934 -11.5338 -11.5338
   -11.5010 -11.5010 -11.4815 -11.4815  -7.0281  -7.0281  -6.9195  -6.9195
    -2.8595  -2.8595  -2.5520  -2.5520  -2.0854  -2.0854  -1.9802  -1.9802
    -1.8691  -1.8691  -1.5867  -1.5867  -1.2950  -1.2950  -1.2494  -1.2494
    -1.1215  -1.1215  -0.9326  -0.9326  -0.8976  -0.8976  -0.5976  -0.5976

     occupation numbers 
     1.0000   1.0000   1.0000   1.0000   1.0000   1.0000   1.0000   1.0000
     1.0000   1.0000   1.0000   1.0000   1.0000   1.0000   1.0000   1.0000
     1.0000   1.0000   1.0000   1.0000   1.0000   1.0000   1.0000   1.0000
     1.0000   1.0000   1.0000   1.0000   1.0000   1.0000   1.0000   1.0000
     1.0000   1.0000   1.0000   1.0000   1.0000   1.0000   1.0000   1.0000
     1.0000   1.0000   1.0000   1.0000   1.0000   1.0000   1.0000   1.0000
     1.0000   1.0000   1.0000   1.0000   1.0000   1.0000   1.0000   1.0000

          k = 0.2500 0.4167 0.0833 ( 23545 PWs)   bands (ev):

   -23.2574 -23.2574 -23.2573 -23.2573 -23.1322 -23.1322 -23.1322 -23.1322
   -22.2373 -22.2373 -22.2373 -22.2373 -22.1282 -22.1282 -22.1282 -22.1282
   -22.0772 -22.0772 -22.0772 -22.0772 -11.5740 -11.5740 -11.5514 -11.5514
   -11.4964 -11.4964 -11.4874 -11.4874  -6.9972  -6.9972  -6.9570  -6.9570
    -2.7903  -2.7903  -2.6398  -2.6398  -2.0653  -2.0653  -2.0071  -2.0071
    -1.7669  -1.7669  -1.6404  -1.6404  -1.3493  -1.3493  -1.3215  -1.3215
    -1.0337  -1.0337  -0.9321  -0.9321  -0.8576  -0.8576  -0.7080  -0.7080

     occupation numbers 
     1.0000   1.0000   1.0000   1.0000   1.0000   1.0000   1.0000   1.0000
     1.0000   1.0000   1.0000   1.0000   1.0000   1.0000   1.0000   1.0000
     1.0000   1.0000   1.0000   1.0000   1.0000   1.0000   1.0000   1.0000
     1.0000   1.0000   1.0000   1.0000   1.0000   1.0000   1.0000   1.0000
     1.0000   1.0000   1.0000   1.0000   1.0000   1.0000   1.0000   1.0000
     1.0000   1.0000   1.0000   1.0000   1.0000   1.0000   1.0000   1.0000
     1.0000   1.0000   1.0000   1.0000   1.0000   1.0000   1.0000   1.0000

          k = 0.4167 0.0833 0.2500 ( 23545 PWs)   bands (ev):

   -23.2574 -23.2574 -23.2573 -23.2573 -23.1323 -23.1323 -23.1322 -23.1322
   -22.2373 -22.2373 -22.2372 -22.2372 -22.1283 -22.1283 -22.1282 -22.1282
   -22.0772 -22.0772 -22.0771 -22.0771 -11.5682 -11.5682 -11.5426 -11.5426
   -11.5045 -11.5045 -11.4945 -11.4945  -6.9931  -6.9931  -6.9533  -6.9533
    -2.8833  -2.8833  -2.8105  -2.8105  -2.0485  -2.0485  -1.9603  -1.9603
    -1.7557  -1.7557  -1.5931  -1.5931  -1.2593  -1.2593  -1.2248  -1.2248
    -0.9983  -0.9983  -0.9267  -0.9267  -0.7249  -0.7249  -0.5885  -0.5885

     occupation numbers 
     1.0000   1.0000   1.0000   1.0000   1.0000   1.0000   1.0000   1.0000
     1.0000   1.0000   1.0000   1.0000   1.0000   1.0000   1.0000   1.0000
     1.0000   1.0000   1.0000   1.0000   1.0000   1.0000   1.0000   1.0000
     1.0000   1.0000   1.0000   1.0000   1.0000   1.0000   1.0000   1.0000
     1.0000   1.0000   1.0000   1.0000   1.0000   1.0000   1.0000   1.0000
     1.0000   1.0000   1.0000   1.0000   1.0000   1.0000   1.0000   1.0000
     1.0000   1.0000   1.0000   1.0000   1.0000   1.0000   1.0000   1.0000

          k = 0.4167 0.4167 0.0833 ( 23530 PWs)   bands (ev):

   -23.2573 -23.2573 -23.2573 -23.2573 -23.1322 -23.1322 -23.1322 -23.1322
   -22.2373 -22.2373 -22.2373 -22.2373 -22.1282 -22.1282 -22.1282 -22.1282
   -22.0772 -22.0772 -22.0771 -22.0771 -11.5695 -11.5695 -11.5614 -11.5614
   -11.4903 -11.4903 -11.4865 -11.4865  -6.9946  -6.9946  -6.9796  -6.9796
    -2.6352  -2.6352  -2.5417  -2.5417  -2.0229  -2.0229  -1.9607  -1.9607
    -1.8490  -1.8490  -1.7227  -1.7227  -1.4102  -1.4102  -1.4006  -1.4006
    -1.1215  -1.1215  -1.0270  -1.0270  -0.8401  -0.8401  -0.8160  -0.8160

     occupation numbers 
     1.0000   1.0000   1.0000   1.0000   1.0000   1.0000   1.0000   1.0000
     1.0000   1.0000   1.0000   1.0000   1.0000   1.0000   1.0000   1.0000
     1.0000   1.0000   1.0000   1.0000   1.0000   1.0000   1.0000   1.0000
     1.0000   1.0000   1.0000   1.0000   1.0000   1.0000   1.0000   1.0000
     1.0000   1.0000   1.0000   1.0000   1.0000   1.0000   1.0000   1.0000
     1.0000   1.0000   1.0000   1.0000   1.0000   1.0000   1.0000   1.0000
     1.0000   1.0000   1.0000   1.0000   1.0000   1.0000   1.0000   1.0000

          k = 0.2500 0.4167 0.2500 ( 23554 PWs)   bands (ev):

   -23.2574 -23.2574 -23.2573 -23.2573 -23.1323 -23.1323 -23.1322 -23.1322
   -22.2373 -22.2373 -22.2373 -22.2373 -22.1282 -22.1282 -22.1282 -22.1282
   -22.0772 -22.0772 -22.0772 -22.0772 -11.5697 -11.5697 -11.5506 -11.5506
   -11.4995 -11.4995 -11.4882 -11.4882  -6.9991  -6.9991  -6.9687  -6.9687
    -2.8089  -2.8089  -2.6439  -2.6439  -2.0662  -2.0662  -1.9619  -1.9619
    -1.8068  -1.8068  -1.6251  -1.6251  -1.3195  -1.3195  -1.2834  -1.2834
    -1.0275  -1.0275  -0.9158  -0.9158  -0.8456  -0.8456  -0.7135  -0.7135

     occupation numbers 
     1.0000   1.0000   1.0000   1.0000   1.0000   1.0000   1.0000   1.0000
     1.0000   1.0000   1.0000   1.0000   1.0000   1.0000   1.0000   1.0000
     1.0000   1.0000   1.0000   1.0000   1.0000   1.0000   1.0000   1.0000
     1.0000   1.0000   1.0000   1.0000   1.0000   1.0000   1.0000   1.0000
     1.0000   1.0000   1.0000   1.0000   1.0000   1.0000   1.0000   1.0000
     1.0000   1.0000   1.0000   1.0000   1.0000   1.0000   1.0000   1.0000
     1.0000   1.0000   1.0000   1.0000   1.0000   1.0000   1.0000   1.0000

          k = 0.4167 0.4167 0.2500 ( 23527 PWs)   bands (ev):

   -23.2573 -23.2573 -23.2573 -23.2573 -23.1322 -23.1322 -23.1322 -23.1322
   -22.2373 -22.2373 -22.2372 -22.2372 -22.1282 -22.1282 -22.1282 -22.1282
   -22.0772 -22.0772 -22.0771 -22.0771 -11.5679 -11.5679 -11.5609 -11.5609
   -11.4910 -11.4910 -11.4863 -11.4863  -7.0003  -7.0003  -6.9887  -6.9887
    -2.6406  -2.6406  -2.5318  -2.5318  -2.0697  -2.0697  -1.9625  -1.9625
    -1.8637  -1.8637  -1.7006  -1.7006  -1.3725  -1.3725  -1.3527  -1.3527
    -1.0985  -1.0985  -1.0087  -1.0087  -0.8259  -0.8259  -0.8092  -0.8092

     occupation numbers 
     1.0000   1.0000   1.0000   1.0000   1.0000   1.0000   1.0000   1.0000
     1.0000   1.0000   1.0000   1.0000   1.0000   1.0000   1.0000   1.0000
     1.0000   1.0000   1.0000   1.0000   1.0000   1.0000   1.0000   1.0000
     1.0000   1.0000   1.0000   1.0000   1.0000   1.0000   1.0000   1.0000
     1.0000   1.0000   1.0000   1.0000   1.0000   1.0000   1.0000   1.0000
     1.0000   1.0000   1.0000   1.0000   1.0000   1.0000   1.0000   1.0000
     1.0000   1.0000   1.0000   1.0000   1.0000   1.0000   1.0000   1.0000

     highest occupied level (ev):    -0.5751

!    total energy              =    -458.39882309 Ry
     estimated scf accuracy    <       0.00000006 Ry

     The total energy is the sum of the following terms:
     one-electron contribution =    -256.47117392 Ry
     hartree contribution      =     145.40289214 Ry
     xc contribution           =    -157.07878098 Ry
     ewald contribution        =    -190.25176033 Ry

     convergence has been achieved in  10 iterations

     Forces acting on atoms (cartesian axes, Ry/au):

     atom    1 type  1   force =     0.00000000    0.00000000    0.00000000
     atom    2 type  1   force =     0.00000000    0.00000000    0.00000000
     atom    3 type  2   force =    -0.01801341   -0.01801341    0.00000000
     atom    4 type  2   force =     0.01801341    0.01801341   -0.00000000
     atom    5 type  2   force =    -0.01801341    0.01801341    0.00000000
     atom    6 type  2   force =     0.01801341   -0.01801341    0.00000000
     The non-local contrib.  to forces
     atom    1 type  1   force =     0.00000000    0.00000000   -0.00000000
     atom    2 type  1   force =     0.00000000    0.00000000   -0.00000000
     atom    3 type  2   force =    -0.04135072   -0.04135072    0.00000000
     atom    4 type  2   force =     0.04135072    0.04135072   -0.00000000
     atom    5 type  2   force =    -0.04135072    0.04135072   -0.00000000
     atom    6 type  2   force =     0.04135072   -0.04135072    0.00000000
     The ionic contribution  to forces
     atom    1 type  1   force =    -0.00000000   -0.00000000    0.00000000
     atom    2 type  1   force =    -0.00000000   -0.00000000    0.00000000
     atom    3 type  2   force =     1.38633658    1.38633658    0.00000000
     atom    4 type  2   force =    -1.38633658   -1.38633658   -0.00000000
     atom    5 type  2   force =     1.38633658   -1.38633658    0.00000000
     atom    6 type  2   force =    -1.38633658    1.38633658    0.00000000
     The local contribution  to forces
     atom    1 type  1   force =    -0.00000000   -0.00000000   -0.00000000
     atom    2 type  1   force =     0.00000000    0.00000000    0.00000000
     atom    3 type  2   force =    -1.36686729   -1.36686729   -0.00000000
     atom    4 type  2   force =     1.36686729    1.36686729    0.00000000
     atom    5 type  2   force =    -1.36686729    1.36686729    0.00000000
     atom    6 type  2   force =     1.36686729   -1.36686729    0.00000000
     The core correction contribution to forces
     atom    1 type  1   force =    -0.00000000   -0.00000000   -0.00000000
     atom    2 type  1   force =     0.00000000    0.00000000    0.00000000
     atom    3 type  2   force =     0.00391053    0.00391053   -0.00000000
     atom    4 type  2   force =    -0.00391053   -0.00391053   -0.00000000
     atom    5 type  2   force =     0.00391053   -0.00391053   -0.00000000
     atom    6 type  2   force =    -0.00391053    0.00391053   -0.00000000
     The Hubbard contrib.    to forces
     atom    1 type  1   force =     0.00000000    0.00000000    0.00000000
     atom    2 type  1   force =     0.00000000    0.00000000    0.00000000
     atom    3 type  2   force =     0.00000000    0.00000000    0.00000000
     atom    4 type  2   force =     0.00000000    0.00000000    0.00000000
     atom    5 type  2   force =     0.00000000    0.00000000    0.00000000
     atom    6 type  2   force =     0.00000000    0.00000000    0.00000000
     The SCF correction term to forces
     atom    1 type  1   force =     0.00000000    0.00000000    0.00000000
     atom    2 type  1   force =     0.00000000   -0.00000000   -0.00000000
     atom    3 type  2   force =    -0.00004251   -0.00004251    0.00000000
     atom    4 type  2   force =     0.00004251    0.00004251    0.00000000
     atom    5 type  2   force =    -0.00004251    0.00004251    0.00000000
     atom    6 type  2   force =     0.00004251   -0.00004251    0.00000000

     Total force =     0.050950     Total SCF correction =     0.000120


     Computing stress (Cartesian axis) and pressure

          total   stress  (Ry/bohr**3)                   (kbar)     P=      -29.64
  -0.00020388   0.00000000   0.00000000          -29.99        0.00        0.00
   0.00000000  -0.00020388   0.00000000            0.00      -29.99        0.00
   0.00000000   0.00000000  -0.00019664            0.00        0.00      -28.93

     kinetic stress (kbar)   4479.64      0.00      0.00
                                0.00   4479.64      0.00
                                0.00      0.00   4474.43

     local   stress (kbar)  -2714.30     -0.00      0.00
                               -0.00  -2714.30     -0.00
                                0.00     -0.00  -2198.64

     nonloc. stress (kbar)     65.36      0.00      0.00
                                0.00     65.36      0.00
                                0.00      0.00     50.15

     hartree stress (kbar)   2422.23     -0.00     -0.00
                               -0.00   2422.23     -0.00
                               -0.00     -0.00   2289.17

     exc-cor stress (kbar)   3792.47      0.00      0.00
                                0.00   3792.47     -0.00
                                0.00     -0.00   3791.47

     corecor stress (kbar)  -5084.38      0.00     -0.00
                                0.00  -5084.38     -0.00
                               -0.00     -0.00  -5083.53

     ewald   stress (kbar)  -2990.99      0.00     -0.00
                                0.00  -2990.99     -0.00
                               -0.00     -0.00  -3351.97

     hubbard stress (kbar)      0.00      0.00      0.00
                                0.00      0.00      0.00
                                0.00      0.00      0.00

     DFT-D   stress (kbar)      0.00      0.00      0.00
                                0.00      0.00      0.00
                                0.00      0.00      0.00

     XDM     stress (kbar)      0.00      0.00      0.00
                                0.00      0.00      0.00
                                0.00      0.00      0.00

     dft-nl  stress (kbar)      0.00      0.00      0.00
                                0.00      0.00      0.00
                                0.00      0.00      0.00

     TS-vdW  stress (kbar)      0.00      0.00      0.00
                                0.00      0.00      0.00
                                0.00      0.00      0.00



     Writing output data file ./SnI2.save/

     init_run     :      7.81s CPU      4.83s WALL (       1 calls)
     electrons    :    197.77s CPU    105.38s WALL (       1 calls)
     forces       :      3.77s CPU      2.93s WALL (       1 calls)
     stress       :     11.52s CPU      6.31s WALL (       1 calls)

     Called by init_run:
     wfcinit      :      6.14s CPU      3.48s WALL (       1 calls)
     wfcinit:atom :      0.05s CPU      0.02s WALL (      18 calls)
     wfcinit:wfcr :      5.90s CPU      3.30s WALL (      18 calls)
     potinit      :      0.25s CPU      0.15s WALL (       1 calls)
     hinit0       :      0.69s CPU      0.63s WALL (       1 calls)

     Called by electrons:
     c_bands      :    161.66s CPU     84.31s WALL (      10 calls)
     sum_band     :     29.46s CPU     16.35s WALL (      10 calls)
     v_of_rho     :      0.44s CPU      0.23s WALL (      11 calls)
     v_h          :      0.05s CPU      0.02s WALL (      11 calls)
     v_xc         :      0.53s CPU      0.31s WALL (      13 calls)
     newd         :      5.61s CPU      3.89s WALL (      11 calls)
     mix_rho      :      0.43s CPU      0.30s WALL (      10 calls)

     Called by c_bands:
     init_us_2    :      0.75s CPU      0.39s WALL (     414 calls)
     cegterg      :    154.71s CPU     80.76s WALL (     180 calls)

     Called by sum_band:
     sum_band:wei :      0.00s CPU      0.00s WALL (      10 calls)
     sum_band:loo :     24.88s CPU     12.86s WALL (      10 calls)
     sum_band:buf :      0.16s CPU      0.11s WALL (     180 calls)
     sum_band:ini :      0.31s CPU      0.16s WALL (     180 calls)
     sum_band:cal :      1.82s CPU      0.92s WALL (     180 calls)
     sum_band:bec :      4.89s CPU      2.46s WALL (     180 calls)
     addusdens    :      3.89s CPU      2.90s WALL (      10 calls)
     addusd:skk   :      0.00s CPU      0.00s WALL (      20 calls)
     addusd:dgemm :      1.21s CPU      1.54s WALL (      20 calls)
     addusd:qvan2 :      2.58s CPU      1.31s WALL (      20 calls)

     Called by *egterg:
     cdiaghg      :      8.49s CPU      4.57s WALL (    1144 calls)
     cegterg:over :      7.57s CPU      4.17s WALL (     964 calls)
     cegterg:upda :      2.61s CPU      1.33s WALL (     964 calls)
     cegterg:last :      4.27s CPU      2.16s WALL (     493 calls)
     h_psi        :    122.57s CPU     63.43s WALL (    1162 calls)
     s_psi        :      9.35s CPU      5.23s WALL (    1162 calls)
     g_psi        :      0.42s CPU      0.21s WALL (     964 calls)

     Called by h_psi:
     h_psi:calbec :      6.73s CPU      3.42s WALL (    1162 calls)
     vloc_psi     :    108.42s CPU     55.91s WALL (    1162 calls)
     add_vuspsi   :      7.07s CPU      3.92s WALL (    1162 calls)

     General routines
     calbec       :     10.49s CPU      5.80s WALL (    1432 calls)
     fft          :      1.16s CPU      0.84s WALL (     259 calls)
     ffts         :      0.25s CPU      0.14s WALL (      84 calls)
     fftw         :    115.98s CPU     59.92s WALL (  155424 calls)
     interpolate  :      0.24s CPU      0.13s WALL (      44 calls)

     Parallel routines
     fft_scatt_xy :      5.37s CPU      2.73s WALL (  155767 calls)
     fft_scatt_yz :     80.02s CPU     41.69s WALL (  155767 calls)

     PWSCF        :   3m43.76s CPU   2m 3.46s WALL


   This run was terminated on:  10:31:28  31Jan2021            

=------------------------------------------------------------------------------=
   JOB DONE.
=------------------------------------------------------------------------------=
