
     Program PWSCF v.6.7MaX starts on 15Jan2021 at 12:20: 4 

     This program is part of the open-source Quantum ESPRESSO suite
     for quantum simulation of materials; please cite
         "P. Giannozzi et al., J. Phys.:Condens. Matter 21 395502 (2009);
         "P. Giannozzi et al., J. Phys.:Condens. Matter 29 465901 (2017);
          URL http://www.quantum-espresso.org", 
     in publications or presentations arising from this work. More details at
     http://www.quantum-espresso.org/quote

     Parallel version (MPI), running on    32 processors

     MPI processes distributed on     1 nodes
     R & G space division:  proc/nbgrp/npool/nimage =      32
     Waiting for input...
     Reading input from standard input

     Current dimensions of program PWSCF are:
     Max number of different atomic species (ntypx) = 10
     Max number of k-points (npk) =  40000
     Max angular momentum in pseudopotentials (lmaxx) =  3
     file Sn.pbe-dn-kjpaw_psl.1.0.0.UPF: wavefunction(s)  5S 5P 4D renormalized
     file I.pbe-n-kjpaw_psl.1.0.0.UPF: wavefunction(s)  5S renormalized

     Subspace diagonalization in iterative solution of the eigenvalue problem:
     a serial algorithm will be used

     Message from routine setup:
     using ibrav=0 with symmetry is DISCOURAGED, use correct ibrav instead

     Parallelization info
     --------------------
     sticks:   dense  smooth     PW     G-vecs:    dense   smooth      PW
     Min         103     103     29                 2753     2753     419
     Max         104     104     31                 2756     2756     420
     Sum        3313    3313    949                88127    88127   13425


     Title: 
     SnI2tetr                                                                   


     bravais-lattice index     =            0
     lattice parameter (alat)  =      14.4199  a.u.
     unit-cell volume          =    1845.1511 (a.u.)^3
     number of atoms/cell      =            6
     number of atomic types    =            2
     number of electrons       =        56.00
     number of Kohn-Sham states=           29
     kinetic-energy cutoff     =      50.0000  Ry
     charge density cutoff     =     200.0000  Ry
     scf convergence threshold =      1.0E-06
     mixing beta               =       0.7000
     number of iterations used =            8  plain     mixing
     Exchange-correlation= SLA  PW   PBX  PBC
                           (   1   4   3   4   0   0   0)

     celldm(1)=  14.419944  celldm(2)=   0.000000  celldm(3)=   0.000000
     celldm(4)=   0.000000  celldm(5)=   0.000000  celldm(6)=   0.000000

     crystal axes: (cart. coord. in units of alat)
               a(1) = (   1.000000   0.000000   0.000000 )  
               a(2) = (   0.000000   1.000000   0.000000 )  
               a(3) = (   0.000000   0.000000   0.615377 )  

     reciprocal axes: (cart. coord. in units 2 pi/alat)
               b(1) = (  1.000000  0.000000  0.000000 )  
               b(2) = (  0.000000  1.000000  0.000000 )  
               b(3) = (  0.000000  0.000000  1.625020 )  


     PseudoPot. # 1 for Sn read from file:
     ../../../pseudo/Sn.pbe-dn-kjpaw_psl.1.0.0.UPF
     MD5 check sum: 67f11dec737d427557dc41ea34975807
     Pseudo is Projector augmented-wave + core cor, Zval = 14.0
     Generated using &quot;atomic&quot; code by A. Dal Corso  v.6.3
     Shape of augmentation charge: PSQ
     Using radial grid of 1243 points,  6 beta functions with: 
                l(1) =   0
                l(2) =   0
                l(3) =   1
                l(4) =   1
                l(5) =   2
                l(6) =   2
     Q(r) pseudized with 0 coefficients 


     PseudoPot. # 2 for I  read from file:
     ../../../pseudo/I.pbe-n-kjpaw_psl.1.0.0.UPF
     MD5 check sum: cd3d296c3308a581e1559a0c8a554cb5
     Pseudo is Projector augmented-wave + core cor, Zval =  7.0
     Generated using &quot;atomic&quot; code by A. Dal Corso  v.6.3
     Shape of augmentation charge: PSQ
     Using radial grid of 1247 points,  6 beta functions with: 
                l(1) =   0
                l(2) =   0
                l(3) =   1
                l(4) =   1
                l(5) =   2
                l(6) =   2
     Q(r) pseudized with 0 coefficients 


     atomic species   valence    mass     pseudopotential
        Sn            14.00   118.70000     Sn( 1.00)
        I              7.00   126.90000     I ( 1.00)

     16 Sym. Ops., with inversion, found ( 8 have fractional translation)


                                    s                        frac. trans.

      isym =  1     identity                                     

 cryst.   s( 1) = (     1          0          0      )
                  (     0          1          0      )
                  (     0          0          1      )

 cart.    s( 1) = (  1.0000000  0.0000000  0.0000000 )
                  (  0.0000000  1.0000000  0.0000000 )
                  (  0.0000000  0.0000000  1.0000000 )


      isym =  2     180 deg rotation - cart. axis [0,0,1]        

 cryst.   s( 2) = (    -1          0          0      )
                  (     0         -1          0      )
                  (     0          0          1      )

 cart.    s( 2) = ( -1.0000000  0.0000000  0.0000000 )
                  (  0.0000000 -1.0000000  0.0000000 )
                  (  0.0000000  0.0000000  1.0000000 )


      isym =  3     180 deg rotation - cart. axis [0,1,0]        

 cryst.   s( 3) = (    -1          0          0      )    f =(  0.5000000 )
                  (     0          1          0      )       ( -0.5000000 )
                  (     0          0         -1      )       (  0.5000000 )

 cart.    s( 3) = ( -1.0000000  0.0000000  0.0000000 )    f =(  0.5000000 )
                  (  0.0000000  1.0000000  0.0000000 )       ( -0.5000000 )
                  (  0.0000000  0.0000000 -1.0000000 )       (  0.3076884 )


      isym =  4     180 deg rotation - cart. axis [1,0,0]        

 cryst.   s( 4) = (     1          0          0      )    f =( -0.5000000 )
                  (     0         -1          0      )       (  0.5000000 )
                  (     0          0         -1      )       (  0.5000000 )

 cart.    s( 4) = (  1.0000000  0.0000000  0.0000000 )    f =( -0.5000000 )
                  (  0.0000000 -1.0000000  0.0000000 )       (  0.5000000 )
                  (  0.0000000  0.0000000 -1.0000000 )       (  0.3076884 )


      isym =  5     180 deg rotation - cart. axis [1,1,0]        

 cryst.   s( 5) = (     0          1          0      )
                  (     1          0          0      )
                  (     0          0         -1      )

 cart.    s( 5) = (  0.0000000  1.0000000  0.0000000 )
                  (  1.0000000  0.0000000  0.0000000 )
                  (  0.0000000  0.0000000 -1.0000000 )


      isym =  6     180 deg rotation - cart. axis [1,-1,0]       

 cryst.   s( 6) = (     0         -1          0      )
                  (    -1          0          0      )
                  (     0          0         -1      )

 cart.    s( 6) = (  0.0000000 -1.0000000  0.0000000 )
                  ( -1.0000000  0.0000000  0.0000000 )
                  (  0.0000000  0.0000000 -1.0000000 )


      isym =  7      90 deg rotation - cart. axis [0,0,-1]       

 cryst.   s( 7) = (     0         -1          0      )    f =( -0.5000000 )
                  (     1          0          0      )       (  0.5000000 )
                  (     0          0          1      )       ( -0.5000000 )

 cart.    s( 7) = (  0.0000000  1.0000000  0.0000000 )    f =( -0.5000000 )
                  ( -1.0000000  0.0000000  0.0000000 )       (  0.5000000 )
                  (  0.0000000  0.0000000  1.0000000 )       ( -0.3076884 )


      isym =  8      90 deg rotation - cart. axis [0,0,1]        

 cryst.   s( 8) = (     0          1          0      )    f =(  0.5000000 )
                  (    -1          0          0      )       ( -0.5000000 )
                  (     0          0          1      )       ( -0.5000000 )

 cart.    s( 8) = (  0.0000000 -1.0000000  0.0000000 )    f =(  0.5000000 )
                  (  1.0000000  0.0000000  0.0000000 )       ( -0.5000000 )
                  (  0.0000000  0.0000000  1.0000000 )       ( -0.3076884 )


      isym =  9     inversion                                    

 cryst.   s( 9) = (    -1          0          0      )
                  (     0         -1          0      )
                  (     0          0         -1      )

 cart.    s( 9) = ( -1.0000000  0.0000000  0.0000000 )
                  (  0.0000000 -1.0000000  0.0000000 )
                  (  0.0000000  0.0000000 -1.0000000 )


      isym = 10     inv. 180 deg rotation - cart. axis [0,0,1]   

 cryst.   s(10) = (     1          0          0      )
                  (     0          1          0      )
                  (     0          0         -1      )

 cart.    s(10) = (  1.0000000  0.0000000  0.0000000 )
                  (  0.0000000  1.0000000  0.0000000 )
                  (  0.0000000  0.0000000 -1.0000000 )


      isym = 11     inv. 180 deg rotation - cart. axis [0,1,0]   

 cryst.   s(11) = (     1          0          0      )    f =( -0.5000000 )
                  (     0         -1          0      )       (  0.5000000 )
                  (     0          0          1      )       ( -0.5000000 )

 cart.    s(11) = (  1.0000000  0.0000000  0.0000000 )    f =( -0.5000000 )
                  (  0.0000000 -1.0000000  0.0000000 )       (  0.5000000 )
                  (  0.0000000  0.0000000  1.0000000 )       ( -0.3076884 )


      isym = 12     inv. 180 deg rotation - cart. axis [1,0,0]   

 cryst.   s(12) = (    -1          0          0      )    f =(  0.5000000 )
                  (     0          1          0      )       ( -0.5000000 )
                  (     0          0          1      )       ( -0.5000000 )

 cart.    s(12) = ( -1.0000000  0.0000000  0.0000000 )    f =(  0.5000000 )
                  (  0.0000000  1.0000000  0.0000000 )       ( -0.5000000 )
                  (  0.0000000  0.0000000  1.0000000 )       ( -0.3076884 )


      isym = 13     inv. 180 deg rotation - cart. axis [1,1,0]   

 cryst.   s(13) = (     0         -1          0      )
                  (    -1          0          0      )
                  (     0          0          1      )

 cart.    s(13) = (  0.0000000 -1.0000000  0.0000000 )
                  ( -1.0000000  0.0000000  0.0000000 )
                  (  0.0000000  0.0000000  1.0000000 )


      isym = 14     inv. 180 deg rotation - cart. axis [1,-1,0]  

 cryst.   s(14) = (     0          1          0      )
                  (     1          0          0      )
                  (     0          0          1      )

 cart.    s(14) = (  0.0000000  1.0000000  0.0000000 )
                  (  1.0000000  0.0000000  0.0000000 )
                  (  0.0000000  0.0000000  1.0000000 )


      isym = 15     inv.  90 deg rotation - cart. axis [0,0,-1]  

 cryst.   s(15) = (     0          1          0      )    f =(  0.5000000 )
                  (    -1          0          0      )       ( -0.5000000 )
                  (     0          0         -1      )       (  0.5000000 )

 cart.    s(15) = (  0.0000000 -1.0000000  0.0000000 )    f =(  0.5000000 )
                  (  1.0000000  0.0000000  0.0000000 )       ( -0.5000000 )
                  (  0.0000000  0.0000000 -1.0000000 )       (  0.3076884 )


      isym = 16     inv.  90 deg rotation - cart. axis [0,0,1]   

 cryst.   s(16) = (     0         -1          0      )    f =( -0.5000000 )
                  (     1          0          0      )       (  0.5000000 )
                  (     0          0         -1      )       (  0.5000000 )

 cart.    s(16) = (  0.0000000  1.0000000  0.0000000 )    f =( -0.5000000 )
                  ( -1.0000000  0.0000000  0.0000000 )       (  0.5000000 )
                  (  0.0000000  0.0000000 -1.0000000 )       (  0.3076884 )


   Cartesian axes

     site n.     atom                  positions (alat units)
         1           Sn  tau(   1) = (   0.0000000   0.0000000   0.0000000  )
         2           Sn  tau(   2) = (   0.5000000   0.5000000   0.3076884  )
         3           I   tau(   3) = (   0.2985210   0.2985210   0.0000000  )
         4           I   tau(   4) = (   0.7014790   0.7014790   0.0000000  )
         5           I   tau(   5) = (   0.7985210   0.2014790   0.3076884  )
         6           I   tau(   6) = (   0.2014790   0.7985210   0.3076884  )

   Crystallographic axes

     site n.     atom                  positions (cryst. coord.)
         1           Sn  tau(   1) = (  0.0000000  0.0000000  0.0000000  )
         2           Sn  tau(   2) = (  0.5000000  0.5000000  0.5000000  )
         3           I   tau(   3) = (  0.2985210  0.2985210  0.0000000  )
         4           I   tau(   4) = (  0.7014790  0.7014790  0.0000000  )
         5           I   tau(   5) = (  0.7985210  0.2014790  0.5000000  )
         6           I   tau(   6) = (  0.2014790  0.7985210  0.5000000  )

     number of k points=     6
                       cart. coord. in units 2pi/alat
        k(    1) = (   0.0000000   0.0000000   0.0000000), wk =   0.2500000
        k(    2) = (   0.0000000   0.0000000  -0.8125102), wk =   0.2500000
        k(    3) = (   0.0000000  -0.5000000   0.0000000), wk =   0.5000000
        k(    4) = (   0.0000000  -0.5000000  -0.8125102), wk =   0.5000000
        k(    5) = (  -0.5000000  -0.5000000   0.0000000), wk =   0.2500000
        k(    6) = (  -0.5000000  -0.5000000  -0.8125102), wk =   0.2500000

                       cryst. coord.
        k(    1) = (   0.0000000   0.0000000   0.0000000), wk =   0.2500000
        k(    2) = (   0.0000000   0.0000000  -0.5000000), wk =   0.2500000
        k(    3) = (   0.0000000  -0.5000000   0.0000000), wk =   0.5000000
        k(    4) = (   0.0000000  -0.5000000  -0.5000000), wk =   0.5000000
        k(    5) = (  -0.5000000  -0.5000000   0.0000000), wk =   0.2500000
        k(    6) = (  -0.5000000  -0.5000000  -0.5000000), wk =   0.2500000

     Dense  grid:    88127 G-vectors     FFT dimensions: (  72,  72,  40)

     Dynamical RAM for                 wfc:       0.15 MB

     Dynamical RAM for     wfc (w. buffer):       1.07 MB

     Dynamical RAM for           str. fact:       0.08 MB

     Dynamical RAM for           local pot:       0.00 MB

     Dynamical RAM for          nlocal pot:       0.57 MB

     Dynamical RAM for                qrad:       2.27 MB

     Dynamical RAM for          rho,v,vnew:       0.36 MB

     Dynamical RAM for               rhoin:       0.12 MB

     Dynamical RAM for            rho*nmix:       0.67 MB

     Dynamical RAM for           G-vectors:       0.18 MB

     Dynamical RAM for          h,s,v(r/c):       0.15 MB

     Dynamical RAM for          <psi|beta>:       0.05 MB

     Dynamical RAM for                 psi:       0.30 MB

     Dynamical RAM for                hpsi:       0.30 MB

     Dynamical RAM for                spsi:       0.30 MB

     Dynamical RAM for      wfcinit/wfcrot:       0.38 MB

     Dynamical RAM for           addusdens:       7.99 MB

     Dynamical RAM for          addusforce:       8.28 MB

     Dynamical RAM for         addusstress:       8.45 MB

     Estimated static dynamical RAM per process >       5.85 MB

     Estimated max dynamical RAM per process >      14.30 MB

     Estimated total dynamical RAM >     457.57 MB

     Check: negative core charge=   -0.000002

     Initial potential from superposition of free atoms

     starting charge   55.99693, renormalised to   56.00000
     Starting wfcs are   34 randomized atomic wfcs
     Checking if some PAW data can be deallocated... 
       PAW data deallocated on   20 nodes for type:  1
       PAW data deallocated on   12 nodes for type:  2

     total cpu time spent up to now is        1.8 secs

     Self-consistent Calculation

     iteration #  1     ecut=    50.00 Ry     beta= 0.70
     Davidson diagonalization with overlap
     ethr =  1.00E-02,  avg # of iterations =  2.0

     Threshold (ethr) on eigenvalues was too large:
     Diagonalizing with lowered threshold

     Davidson diagonalization with overlap
     ethr =  2.55E-04,  avg # of iterations =  2.2

     total cpu time spent up to now is        3.7 secs

     total energy              =   -2399.90765741 Ry
     estimated scf accuracy    <       0.12935109 Ry

     iteration #  2     ecut=    50.00 Ry     beta= 0.70
     Davidson diagonalization with overlap
     ethr =  2.31E-04,  avg # of iterations =  3.8

     total cpu time spent up to now is        5.1 secs

     total energy              =   -2399.94937389 Ry
     estimated scf accuracy    <       0.05209825 Ry

     iteration #  3     ecut=    50.00 Ry     beta= 0.70
     Davidson diagonalization with overlap
     ethr =  9.30E-05,  avg # of iterations =  2.5

     total cpu time spent up to now is        6.2 secs

     total energy              =   -2399.95898537 Ry
     estimated scf accuracy    <       0.00083864 Ry

     iteration #  4     ecut=    50.00 Ry     beta= 0.70
     Davidson diagonalization with overlap
     ethr =  1.50E-06,  avg # of iterations =  5.7

     total cpu time spent up to now is        7.9 secs

     total energy              =   -2399.95965239 Ry
     estimated scf accuracy    <       0.00054813 Ry

     iteration #  5     ecut=    50.00 Ry     beta= 0.70
     Davidson diagonalization with overlap
     ethr =  9.79E-07,  avg # of iterations =  2.3

     total cpu time spent up to now is        9.1 secs

     total energy              =   -2399.95971784 Ry
     estimated scf accuracy    <       0.00002417 Ry

     iteration #  6     ecut=    50.00 Ry     beta= 0.70
     Davidson diagonalization with overlap
     ethr =  4.32E-08,  avg # of iterations =  5.3

     total cpu time spent up to now is       10.6 secs

     total energy              =   -2399.95973455 Ry
     estimated scf accuracy    <       0.00001205 Ry

     iteration #  7     ecut=    50.00 Ry     beta= 0.70
     Davidson diagonalization with overlap
     ethr =  2.15E-08,  avg # of iterations =  3.5

     total cpu time spent up to now is       11.8 secs

     End of self-consistent calculation

          k = 0.0000 0.0000 0.0000 ( 10951 PWs)   bands (ev):

   -18.3865 -18.3835 -18.3765 -18.3762 -18.3655 -18.3655 -18.3618 -18.3618
   -18.3613 -18.3613  -9.3187  -8.8056  -8.8056  -8.6864  -4.1418  -2.2912
    -0.1037  -0.1037   0.4400   0.7567   1.2618   1.3645   1.6189   1.6189
     2.0268   2.0268   2.4038   2.8728   4.5277

     occupation numbers 
     1.0000   1.0000   1.0000   1.0000   1.0000   1.0000   1.0000   1.0000
     1.0000   1.0000   1.0000   1.0000   1.0000   1.0000   1.0000   1.0000
     1.0000   1.0000   1.0000   1.0000   1.0000   1.0000   1.0000   1.0000
     1.0000   1.0000   1.0000   1.0000   0.0000

          k = 0.0000 0.0000-0.8125 ( 11044 PWs)   bands (ev):

   -18.3837 -18.3837 -18.3762 -18.3762 -18.3666 -18.3666 -18.3659 -18.3659
   -18.3575 -18.3575  -8.8556  -8.8556  -8.6824  -8.6824  -3.6877  -3.6877
    -0.0403  -0.0403  -0.0141  -0.0141   0.5297   0.5297   1.5863   1.5863
     1.6396   1.6396   2.3750   2.3750   6.0970

     occupation numbers 
     1.0000   1.0000   1.0000   1.0000   1.0000   1.0000   1.0000   1.0000
     1.0000   1.0000   1.0000   1.0000   1.0000   1.0000   1.0000   1.0000
     1.0000   1.0000   1.0000   1.0000   1.0000   1.0000   1.0000   1.0000
     1.0000   1.0000   1.0000   1.0000   0.0000

          k = 0.0000-0.5000 0.0000 ( 11016 PWs)   bands (ev):

   -18.3850 -18.3850 -18.3763 -18.3763 -18.3656 -18.3656 -18.3618 -18.3618
   -18.3613 -18.3613  -9.1059  -9.1059  -8.7191  -8.7191  -3.3978  -3.3978
     0.3849   0.3849   0.7844   0.7844   1.0840   1.0840   1.7082   1.7082
     1.8476   1.8476   2.1971   2.1971   5.2188

     occupation numbers 
     1.0000   1.0000   1.0000   1.0000   1.0000   1.0000   1.0000   1.0000
     1.0000   1.0000   1.0000   1.0000   1.0000   1.0000   1.0000   1.0000
     1.0000   1.0000   1.0000   1.0000   1.0000   1.0000   1.0000   1.0000
     1.0000   1.0000   1.0000   1.0000   0.0000

          k = 0.0000-0.5000-0.8125 ( 11032 PWs)   bands (ev):

   -18.3837 -18.3837 -18.3762 -18.3762 -18.3666 -18.3666 -18.3658 -18.3658
   -18.3575 -18.3575  -8.8341  -8.8341  -8.7044  -8.7044  -3.6693  -3.6693
    -0.6404  -0.6404   0.0282   0.0282   1.1881   1.1881   1.7080   1.7080
     1.8297   1.8297   2.6205   2.6205   4.2995

     occupation numbers 
     1.0000   1.0000   1.0000   1.0000   1.0000   1.0000   1.0000   1.0000
     1.0000   1.0000   1.0000   1.0000   1.0000   1.0000   1.0000   1.0000
     1.0000   1.0000   1.0000   1.0000   1.0000   1.0000   1.0000   1.0000
     1.0000   1.0000   1.0000   1.0000   0.0000

          k =-0.5000-0.5000 0.0000 ( 10988 PWs)   bands (ev):

   -18.3850 -18.3850 -18.3763 -18.3763 -18.3656 -18.3656 -18.3618 -18.3618
   -18.3613 -18.3613  -9.0226  -9.0226  -8.8186  -8.8186  -3.3049  -3.3049
     0.0750   0.0750   0.8527   0.8527   1.3633   1.3633   1.5942   1.5942
     1.7088   1.7088   2.2046   2.2046   5.1762

     occupation numbers 
     1.0000   1.0000   1.0000   1.0000   1.0000   1.0000   1.0000   1.0000
     1.0000   1.0000   1.0000   1.0000   1.0000   1.0000   1.0000   1.0000
     1.0000   1.0000   1.0000   1.0000   1.0000   1.0000   1.0000   1.0000
     1.0000   1.0000   1.0000   1.0000   0.0000

          k =-0.5000-0.5000-0.8125 ( 11048 PWs)   bands (ev):

   -18.3837 -18.3837 -18.3762 -18.3762 -18.3666 -18.3666 -18.3659 -18.3659
   -18.3575 -18.3575  -8.8412  -8.8412  -8.6930  -8.6930  -3.7515  -3.7515
    -0.2300  -0.2300   0.2777   0.2777   0.5580   0.5580   1.8431   1.8431
     1.8598   1.8598   2.0287   2.0287   5.9942

     occupation numbers 
     1.0000   1.0000   1.0000   1.0000   1.0000   1.0000   1.0000   1.0000
     1.0000   1.0000   1.0000   1.0000   1.0000   1.0000   1.0000   1.0000
     1.0000   1.0000   1.0000   1.0000   1.0000   1.0000   1.0000   1.0000
     1.0000   1.0000   1.0000   1.0000   0.0000

     highest occupied, lowest unoccupied level (ev):     2.8728    4.2995

!    total energy              =   -2399.95973636 Ry

     total all-electron energy =    -81641.205084 Ry
     estimated scf accuracy    <       0.00000025 Ry

     The total energy is the sum of the following terms:
     one-electron contribution =    -203.69335565 Ry
     hartree contribution      =     130.09307269 Ry
     xc contribution           =    -159.03138139 Ry
     ewald contribution        =    -219.54274840 Ry
     one-center paw contrib.   =   -1947.78532361 Ry
      -> PAW hartree energy AE =     108.11249630 Ry
      -> PAW hartree energy PS =    -107.34462010 Ry
      -> PAW xc energy AE      =    -328.93402589 Ry
      -> PAW xc energy PS      =      47.23465269 Ry
      -> total E_H with PAW    =     130.86094889 Ry
      -> total E_XC with PAW   =    -440.73075459 Ry

     convergence has been achieved in   7 iterations

     Forces acting on atoms (cartesian axes, Ry/au):

     atom    1 type  1   force =     0.00000000    0.00000000    0.00000000
     atom    2 type  1   force =     0.00000000    0.00000000    0.00000000
     atom    3 type  2   force =     0.00282140    0.00282140    0.00000000
     atom    4 type  2   force =    -0.00282140   -0.00282140   -0.00000000
     atom    5 type  2   force =     0.00282140   -0.00282140   -0.00000000
     atom    6 type  2   force =    -0.00282140    0.00282140   -0.00000000
     The non-local contrib.  to forces
     atom    1 type  1   force =     0.00000000    0.00000000    0.00000000
     atom    2 type  1   force =     0.00000000    0.00000000   -0.00000000
     atom    3 type  2   force =     0.01540487    0.01540487   -0.00000000
     atom    4 type  2   force =    -0.01540487   -0.01540487    0.00000000
     atom    5 type  2   force =     0.01540487   -0.01540487    0.00000000
     atom    6 type  2   force =    -0.01540487    0.01540487   -0.00000000
     The ionic contribution  to forces
     atom    1 type  1   force =    -0.00000000   -0.00000000    0.00000000
     atom    2 type  1   force =    -0.00000000   -0.00000000   -0.00000000
     atom    3 type  2   force =    -0.90990984   -0.90990984   -0.00000000
     atom    4 type  2   force =     0.90990984    0.90990984   -0.00000000
     atom    5 type  2   force =    -0.90990984    0.90990984   -0.00000000
     atom    6 type  2   force =     0.90990984   -0.90990984    0.00000000
     The local contribution  to forces
     atom    1 type  1   force =     0.00000000    0.00000000    0.00000000
     atom    2 type  1   force =     0.00000000    0.00000000    0.00000000
     atom    3 type  2   force =     0.89932610    0.89932610    0.00000000
     atom    4 type  2   force =    -0.89932610   -0.89932610    0.00000000
     atom    5 type  2   force =     0.89932610   -0.89932610    0.00000000
     atom    6 type  2   force =    -0.89932610    0.89932610    0.00000000
     The core correction contribution to forces
     atom    1 type  1   force =     0.00000000    0.00000000    0.00000000
     atom    2 type  1   force =     0.00000000    0.00000000    0.00000000
     atom    3 type  2   force =    -0.00198018   -0.00198018   -0.00000000
     atom    4 type  2   force =     0.00198018    0.00198018    0.00000000
     atom    5 type  2   force =    -0.00198018    0.00198018    0.00000000
     atom    6 type  2   force =     0.00198018   -0.00198018    0.00000000
     The Hubbard contrib.    to forces
     atom    1 type  1   force =     0.00000000    0.00000000    0.00000000
     atom    2 type  1   force =     0.00000000    0.00000000    0.00000000
     atom    3 type  2   force =     0.00000000    0.00000000    0.00000000
     atom    4 type  2   force =     0.00000000    0.00000000    0.00000000
     atom    5 type  2   force =     0.00000000    0.00000000    0.00000000
     atom    6 type  2   force =     0.00000000    0.00000000    0.00000000
     The SCF correction term to forces
     atom    1 type  1   force =    -0.00000000    0.00000000   -0.00000000
     atom    2 type  1   force =     0.00000000    0.00000000    0.00000000
     atom    3 type  2   force =    -0.00001955   -0.00001955   -0.00000000
     atom    4 type  2   force =     0.00001955    0.00001955   -0.00000000
     atom    5 type  2   force =    -0.00001955    0.00001955    0.00000000
     atom    6 type  2   force =     0.00001955   -0.00001955   -0.00000000

     Total force =     0.007980     Total SCF correction =     0.000055


     Computing stress (Cartesian axis) and pressure

          total   stress  (Ry/bohr**3)                   (kbar)     P=        1.91
  -0.00000714   0.00000000   0.00000000           -1.05        0.00        0.00
   0.00000000  -0.00000714   0.00000000            0.00       -1.05        0.00
   0.00000000   0.00000000   0.00005313            0.00        0.00        7.82

     kinetic stress (kbar)   7315.15      0.00      0.00
                                0.00   7315.15      0.00
                                0.00      0.00   7303.09

     local   stress (kbar)  -1438.53     -0.00      0.00
                               -0.00  -1438.53      0.00
                                0.00      0.00  -5856.74

     nonloc. stress (kbar)    112.74      0.00      0.00
                                0.00    112.74      0.00
                                0.00      0.00    116.28

     hartree stress (kbar)   2825.71      0.00     -0.00
                                0.00   2825.71      0.00
                               -0.00      0.00   4720.29

     exc-cor stress (kbar)   6161.20      0.00     -0.00
                                0.00   6161.20      0.00
                               -0.00      0.00   6162.40

     corecor stress (kbar)  -8296.55      0.00     -0.00
                                0.00  -8296.55     -0.00
                               -0.00     -0.00  -8295.94

     ewald   stress (kbar)  -6680.77      0.00     -0.00
                                0.00  -6680.77     -0.00
                               -0.00     -0.00  -4141.56

     hubbard stress (kbar)      0.00      0.00      0.00
                                0.00      0.00      0.00
                                0.00      0.00      0.00

     DFT-D   stress (kbar)      0.00      0.00      0.00
                                0.00      0.00      0.00
                                0.00      0.00      0.00

     XDM     stress (kbar)      0.00      0.00      0.00
                                0.00      0.00      0.00
                                0.00      0.00      0.00

     dft-nl  stress (kbar)      0.00      0.00      0.00
                                0.00      0.00      0.00
                                0.00      0.00      0.00

     TS-vdW  stress (kbar)      0.00      0.00      0.00
                                0.00      0.00      0.00
                                0.00      0.00      0.00



     Writing output data file ./out/SnI2tetr.save/

     init_run     :      0.94s CPU      0.99s WALL (       1 calls)
     electrons    :      9.81s CPU     10.02s WALL (       1 calls)
     forces       :      0.46s CPU      0.46s WALL (       1 calls)
     stress       :      1.04s CPU      1.05s WALL (       1 calls)

     Called by init_run:
     wfcinit      :      0.32s CPU      0.33s WALL (       1 calls)
     wfcinit:atom :      0.00s CPU      0.00s WALL (       6 calls)
     wfcinit:wfcr :      0.31s CPU      0.31s WALL (       6 calls)
     potinit      :      0.23s CPU      0.26s WALL (       1 calls)
     hinit0       :      0.25s CPU      0.26s WALL (       1 calls)

     Called by electrons:
     c_bands      :      6.88s CPU      7.01s WALL (       8 calls)
     sum_band     :      1.36s CPU      1.40s WALL (       8 calls)
     v_of_rho     :      0.13s CPU      0.14s WALL (       8 calls)
     v_h          :      0.01s CPU      0.01s WALL (       8 calls)
     v_xc         :      0.15s CPU      0.16s WALL (      10 calls)
     newd         :      0.48s CPU      0.49s WALL (       8 calls)
     PAW_pot      :      1.07s CPU      1.11s WALL (       8 calls)
     mix_rho      :      0.02s CPU      0.02s WALL (       8 calls)

     Called by c_bands:
     init_us_2    :      0.08s CPU      0.09s WALL (     114 calls)
     cegterg      :      6.69s CPU      6.78s WALL (      48 calls)

     Called by sum_band:
     sum_band:wei :      0.00s CPU      0.00s WALL (       8 calls)
     sum_band:loo :      0.92s CPU      0.94s WALL (       8 calls)
     sum_band:buf :      0.01s CPU      0.01s WALL (      48 calls)
     sum_band:ini :      0.03s CPU      0.03s WALL (      48 calls)
     sum_band:cal :      0.20s CPU      0.20s WALL (      48 calls)
     sum_band:bec :      0.01s CPU      0.01s WALL (      48 calls)
     addusdens    :      0.40s CPU      0.41s WALL (       8 calls)
     addusd:skk   :      0.00s CPU      0.00s WALL (      16 calls)
     addusd:dgemm :      0.16s CPU      0.17s WALL (      16 calls)
     addusd:qvan2 :      0.19s CPU      0.19s WALL (      16 calls)

     Called by *egterg:
     cdiaghg      :      0.40s CPU      0.40s WALL (     206 calls)
     cegterg:over :      0.37s CPU      0.37s WALL (     164 calls)
     cegterg:upda :      0.17s CPU      0.17s WALL (     164 calls)
     cegterg:last :      0.41s CPU      0.41s WALL (     111 calls)
     h_psi        :      4.92s CPU      5.00s WALL (     218 calls)
     s_psi        :      0.50s CPU      0.50s WALL (     218 calls)
     g_psi        :      0.01s CPU      0.01s WALL (     164 calls)

     Called by h_psi:
     h_psi:calbec :      0.65s CPU      0.66s WALL (     218 calls)
     vloc_psi     :      3.75s CPU      3.83s WALL (     218 calls)
     add_vuspsi   :      0.49s CPU      0.50s WALL (     218 calls)

     General routines
     calbec       :      0.97s CPU      0.97s WALL (     296 calls)
     fft          :      0.10s CPU      0.10s WALL (     114 calls)
     ffts         :      0.01s CPU      0.01s WALL (       8 calls)
     fftw         :      4.14s CPU      4.22s WALL (    9450 calls)

     Parallel routines
     fft_scatt_xy :      0.29s CPU      0.30s WALL (    9572 calls)
     fft_scatt_yz :      1.01s CPU      1.03s WALL (    9572 calls)

     PAW routines
     PAW_pot      :      1.07s CPU      1.11s WALL (       8 calls)
     PAW_symme    :      0.01s CPU      0.01s WALL (      16 calls)

     PWSCF        :     13.06s CPU     13.62s WALL


   This run was terminated on:  12:20:18  15Jan2021            

=------------------------------------------------------------------------------=
   JOB DONE.
=------------------------------------------------------------------------------=
