
     Program PWSCF v.6.7MaX starts on 14Jan2021 at 13:53:53 

     This program is part of the open-source Quantum ESPRESSO suite
     for quantum simulation of materials; please cite
         "P. Giannozzi et al., J. Phys.:Condens. Matter 21 395502 (2009);
         "P. Giannozzi et al., J. Phys.:Condens. Matter 29 465901 (2017);
          URL http://www.quantum-espresso.org", 
     in publications or presentations arising from this work. More details at
     http://www.quantum-espresso.org/quote

     Parallel version (MPI), running on    19 processors

     MPI processes distributed on     1 nodes
     R & G space division:  proc/nbgrp/npool/nimage =      19
     Waiting for input...
     Reading input from standard input

     Current dimensions of program PWSCF are:
     Max number of different atomic species (ntypx) = 10
     Max number of k-points (npk) =  40000
     Max angular momentum in pseudopotentials (lmaxx) =  3
     file Sn.pbe-dn-kjpaw_psl.1.0.0.UPF: wavefunction(s)  5S 5P 4D renormalized
     file I.pbe-n-kjpaw_psl.1.0.0.UPF: wavefunction(s)  5S renormalized

     Subspace diagonalization in iterative solution of the eigenvalue problem:
     a serial algorithm will be used

     Message from routine setup:
     using ibrav=0 with symmetry is DISCOURAGED, use correct ibrav instead

     Parallelization info
     --------------------
     sticks:   dense  smooth     PW     G-vecs:    dense   smooth      PW
     Min         174     174     49                 4638     4638     705
     Max         176     176     50                 4639     4639     708
     Sum        3313    3313    949                88127    88127   13425


     Title: 
     SnI2tetr                                                                   


     bravais-lattice index     =            0
     lattice parameter (alat)  =      14.4199  a.u.
     unit-cell volume          =    1845.1511 (a.u.)^3
     number of atoms/cell      =            6
     number of atomic types    =            2
     number of electrons       =        56.00
     number of Kohn-Sham states=           28
     kinetic-energy cutoff     =      50.0000  Ry
     charge density cutoff     =     200.0000  Ry
     scf convergence threshold =      1.0E-06
     mixing beta               =       0.5000
     number of iterations used =            8  plain     mixing
     energy convergence thresh.=      1.0E-04
     force convergence thresh. =      1.0E-04
     press convergence thresh. =      5.0E-01
     Exchange-correlation= SLA  PW   PBX  PBC
                           (   1   4   3   4   0   0   0)
     nstep                     =           50


     celldm(1)=  14.419944  celldm(2)=   0.000000  celldm(3)=   0.000000
     celldm(4)=   0.000000  celldm(5)=   0.000000  celldm(6)=   0.000000

     crystal axes: (cart. coord. in units of alat)
               a(1) = (   1.000000   0.000000   0.000000 )  
               a(2) = (   0.000000   1.000000   0.000000 )  
               a(3) = (   0.000000   0.000000   0.615377 )  

     reciprocal axes: (cart. coord. in units 2 pi/alat)
               b(1) = (  1.000000  0.000000  0.000000 )  
               b(2) = (  0.000000  1.000000  0.000000 )  
               b(3) = (  0.000000  0.000000  1.625020 )  


     PseudoPot. # 1 for Sn read from file:
     ../../../pseudo/Sn.pbe-dn-kjpaw_psl.1.0.0.UPF
     MD5 check sum: 67f11dec737d427557dc41ea34975807
     Pseudo is Projector augmented-wave + core cor, Zval = 14.0
     Generated using &quot;atomic&quot; code by A. Dal Corso  v.6.3
     Shape of augmentation charge: PSQ
     Using radial grid of 1243 points,  6 beta functions with: 
                l(1) =   0
                l(2) =   0
                l(3) =   1
                l(4) =   1
                l(5) =   2
                l(6) =   2
     Q(r) pseudized with 0 coefficients 


     PseudoPot. # 2 for I  read from file:
     ../../../pseudo/I.pbe-n-kjpaw_psl.1.0.0.UPF
     MD5 check sum: cd3d296c3308a581e1559a0c8a554cb5
     Pseudo is Projector augmented-wave + core cor, Zval =  7.0
     Generated using &quot;atomic&quot; code by A. Dal Corso  v.6.3
     Shape of augmentation charge: PSQ
     Using radial grid of 1247 points,  6 beta functions with: 
                l(1) =   0
                l(2) =   0
                l(3) =   1
                l(4) =   1
                l(5) =   2
                l(6) =   2
     Q(r) pseudized with 0 coefficients 


     atomic species   valence    mass     pseudopotential
        Sn            14.00   118.70000     Sn( 1.00)
        I              7.00   126.90000     I ( 1.00)

     16 Sym. Ops., with inversion, found ( 8 have fractional translation)


                                    s                        frac. trans.

      isym =  1     identity                                     

 cryst.   s( 1) = (     1          0          0      )
                  (     0          1          0      )
                  (     0          0          1      )

 cart.    s( 1) = (  1.0000000  0.0000000  0.0000000 )
                  (  0.0000000  1.0000000  0.0000000 )
                  (  0.0000000  0.0000000  1.0000000 )


      isym =  2     180 deg rotation - cart. axis [0,0,1]        

 cryst.   s( 2) = (    -1          0          0      )
                  (     0         -1          0      )
                  (     0          0          1      )

 cart.    s( 2) = ( -1.0000000  0.0000000  0.0000000 )
                  (  0.0000000 -1.0000000  0.0000000 )
                  (  0.0000000  0.0000000  1.0000000 )


      isym =  3     180 deg rotation - cart. axis [0,1,0]        

 cryst.   s( 3) = (    -1          0          0      )    f =(  0.5000000 )
                  (     0          1          0      )       ( -0.5000000 )
                  (     0          0         -1      )       (  0.5000000 )

 cart.    s( 3) = ( -1.0000000  0.0000000  0.0000000 )    f =(  0.5000000 )
                  (  0.0000000  1.0000000  0.0000000 )       ( -0.5000000 )
                  (  0.0000000  0.0000000 -1.0000000 )       (  0.3076884 )


      isym =  4     180 deg rotation - cart. axis [1,0,0]        

 cryst.   s( 4) = (     1          0          0      )    f =( -0.5000000 )
                  (     0         -1          0      )       (  0.5000000 )
                  (     0          0         -1      )       (  0.5000000 )

 cart.    s( 4) = (  1.0000000  0.0000000  0.0000000 )    f =( -0.5000000 )
                  (  0.0000000 -1.0000000  0.0000000 )       (  0.5000000 )
                  (  0.0000000  0.0000000 -1.0000000 )       (  0.3076884 )


      isym =  5     180 deg rotation - cart. axis [1,1,0]        

 cryst.   s( 5) = (     0          1          0      )
                  (     1          0          0      )
                  (     0          0         -1      )

 cart.    s( 5) = (  0.0000000  1.0000000  0.0000000 )
                  (  1.0000000  0.0000000  0.0000000 )
                  (  0.0000000  0.0000000 -1.0000000 )


      isym =  6     180 deg rotation - cart. axis [1,-1,0]       

 cryst.   s( 6) = (     0         -1          0      )
                  (    -1          0          0      )
                  (     0          0         -1      )

 cart.    s( 6) = (  0.0000000 -1.0000000  0.0000000 )
                  ( -1.0000000  0.0000000  0.0000000 )
                  (  0.0000000  0.0000000 -1.0000000 )


      isym =  7      90 deg rotation - cart. axis [0,0,-1]       

 cryst.   s( 7) = (     0         -1          0      )    f =( -0.5000000 )
                  (     1          0          0      )       (  0.5000000 )
                  (     0          0          1      )       ( -0.5000000 )

 cart.    s( 7) = (  0.0000000  1.0000000  0.0000000 )    f =( -0.5000000 )
                  ( -1.0000000  0.0000000  0.0000000 )       (  0.5000000 )
                  (  0.0000000  0.0000000  1.0000000 )       ( -0.3076884 )


      isym =  8      90 deg rotation - cart. axis [0,0,1]        

 cryst.   s( 8) = (     0          1          0      )    f =(  0.5000000 )
                  (    -1          0          0      )       ( -0.5000000 )
                  (     0          0          1      )       ( -0.5000000 )

 cart.    s( 8) = (  0.0000000 -1.0000000  0.0000000 )    f =(  0.5000000 )
                  (  1.0000000  0.0000000  0.0000000 )       ( -0.5000000 )
                  (  0.0000000  0.0000000  1.0000000 )       ( -0.3076884 )


      isym =  9     inversion                                    

 cryst.   s( 9) = (    -1          0          0      )
                  (     0         -1          0      )
                  (     0          0         -1      )

 cart.    s( 9) = ( -1.0000000  0.0000000  0.0000000 )
                  (  0.0000000 -1.0000000  0.0000000 )
                  (  0.0000000  0.0000000 -1.0000000 )


      isym = 10     inv. 180 deg rotation - cart. axis [0,0,1]   

 cryst.   s(10) = (     1          0          0      )
                  (     0          1          0      )
                  (     0          0         -1      )

 cart.    s(10) = (  1.0000000  0.0000000  0.0000000 )
                  (  0.0000000  1.0000000  0.0000000 )
                  (  0.0000000  0.0000000 -1.0000000 )


      isym = 11     inv. 180 deg rotation - cart. axis [0,1,0]   

 cryst.   s(11) = (     1          0          0      )    f =( -0.5000000 )
                  (     0         -1          0      )       (  0.5000000 )
                  (     0          0          1      )       ( -0.5000000 )

 cart.    s(11) = (  1.0000000  0.0000000  0.0000000 )    f =( -0.5000000 )
                  (  0.0000000 -1.0000000  0.0000000 )       (  0.5000000 )
                  (  0.0000000  0.0000000  1.0000000 )       ( -0.3076884 )


      isym = 12     inv. 180 deg rotation - cart. axis [1,0,0]   

 cryst.   s(12) = (    -1          0          0      )    f =(  0.5000000 )
                  (     0          1          0      )       ( -0.5000000 )
                  (     0          0          1      )       ( -0.5000000 )

 cart.    s(12) = ( -1.0000000  0.0000000  0.0000000 )    f =(  0.5000000 )
                  (  0.0000000  1.0000000  0.0000000 )       ( -0.5000000 )
                  (  0.0000000  0.0000000  1.0000000 )       ( -0.3076884 )


      isym = 13     inv. 180 deg rotation - cart. axis [1,1,0]   

 cryst.   s(13) = (     0         -1          0      )
                  (    -1          0          0      )
                  (     0          0          1      )

 cart.    s(13) = (  0.0000000 -1.0000000  0.0000000 )
                  ( -1.0000000  0.0000000  0.0000000 )
                  (  0.0000000  0.0000000  1.0000000 )


      isym = 14     inv. 180 deg rotation - cart. axis [1,-1,0]  

 cryst.   s(14) = (     0          1          0      )
                  (     1          0          0      )
                  (     0          0          1      )

 cart.    s(14) = (  0.0000000  1.0000000  0.0000000 )
                  (  1.0000000  0.0000000  0.0000000 )
                  (  0.0000000  0.0000000  1.0000000 )


      isym = 15     inv.  90 deg rotation - cart. axis [0,0,-1]  

 cryst.   s(15) = (     0          1          0      )    f =(  0.5000000 )
                  (    -1          0          0      )       ( -0.5000000 )
                  (     0          0         -1      )       (  0.5000000 )

 cart.    s(15) = (  0.0000000 -1.0000000  0.0000000 )    f =(  0.5000000 )
                  (  1.0000000  0.0000000  0.0000000 )       ( -0.5000000 )
                  (  0.0000000  0.0000000 -1.0000000 )       (  0.3076884 )


      isym = 16     inv.  90 deg rotation - cart. axis [0,0,1]   

 cryst.   s(16) = (     0         -1          0      )    f =( -0.5000000 )
                  (     1          0          0      )       (  0.5000000 )
                  (     0          0         -1      )       (  0.5000000 )

 cart.    s(16) = (  0.0000000  1.0000000  0.0000000 )    f =( -0.5000000 )
                  ( -1.0000000  0.0000000  0.0000000 )       (  0.5000000 )
                  (  0.0000000  0.0000000 -1.0000000 )       (  0.3076884 )


   Cartesian axes

     site n.     atom                  positions (alat units)
         1           Sn  tau(   1) = (   0.0000000   0.0000000   0.0000000  )
         2           Sn  tau(   2) = (   0.5000000   0.5000000   0.3076884  )
         3           I   tau(   3) = (   0.2985210   0.2985210   0.0000000  )
         4           I   tau(   4) = (   0.7014790   0.7014790   0.0000000  )
         5           I   tau(   5) = (   0.7985210   0.2014790   0.3076884  )
         6           I   tau(   6) = (   0.2014790   0.7985210   0.3076884  )

   Crystallographic axes

     site n.     atom                  positions (cryst. coord.)
         1           Sn  tau(   1) = (  0.0000000  0.0000000  0.0000000  )
         2           Sn  tau(   2) = (  0.5000000  0.5000000  0.5000000  )
         3           I   tau(   3) = (  0.2985210  0.2985210  0.0000000  )
         4           I   tau(   4) = (  0.7014790  0.7014790  0.0000000  )
         5           I   tau(   5) = (  0.7985210  0.2014790  0.5000000  )
         6           I   tau(   6) = (  0.2014790  0.7985210  0.5000000  )

     number of k points=     6
                       cart. coord. in units 2pi/alat
        k(    1) = (   0.0000000   0.0000000   0.0000000), wk =   0.2500000
        k(    2) = (   0.0000000   0.0000000  -0.8125102), wk =   0.2500000
        k(    3) = (   0.0000000  -0.5000000   0.0000000), wk =   0.5000000
        k(    4) = (   0.0000000  -0.5000000  -0.8125102), wk =   0.5000000
        k(    5) = (  -0.5000000  -0.5000000   0.0000000), wk =   0.2500000
        k(    6) = (  -0.5000000  -0.5000000  -0.8125102), wk =   0.2500000

                       cryst. coord.
        k(    1) = (   0.0000000   0.0000000   0.0000000), wk =   0.2500000
        k(    2) = (   0.0000000   0.0000000  -0.5000000), wk =   0.2500000
        k(    3) = (   0.0000000  -0.5000000   0.0000000), wk =   0.5000000
        k(    4) = (   0.0000000  -0.5000000  -0.5000000), wk =   0.5000000
        k(    5) = (  -0.5000000  -0.5000000   0.0000000), wk =   0.2500000
        k(    6) = (  -0.5000000  -0.5000000  -0.5000000), wk =   0.2500000

     Dense  grid:    88127 G-vectors     FFT dimensions: (  72,  72,  40)

     Dynamical RAM for                 wfc:       0.25 MB

     Dynamical RAM for     wfc (w. buffer):       1.73 MB

     Dynamical RAM for           str. fact:       0.14 MB

     Dynamical RAM for           local pot:       0.00 MB

     Dynamical RAM for          nlocal pot:       0.95 MB

     Dynamical RAM for                qrad:       4.54 MB

     Dynamical RAM for          rho,v,vnew:       0.57 MB

     Dynamical RAM for               rhoin:       0.19 MB

     Dynamical RAM for            rho*nmix:       1.13 MB

     Dynamical RAM for           G-vectors:       0.30 MB

     Dynamical RAM for          h,s,v(r/c):       0.14 MB

     Dynamical RAM for          <psi|beta>:       0.05 MB

     Dynamical RAM for                 psi:       0.49 MB

     Dynamical RAM for                hpsi:       0.49 MB

     Dynamical RAM for                spsi:       0.49 MB

     Dynamical RAM for      wfcinit/wfcrot:       0.63 MB

     Dynamical RAM for           addusdens:      13.45 MB

     Dynamical RAM for          addusforce:      13.93 MB

     Dynamical RAM for         addusstress:      14.23 MB

     Estimated static dynamical RAM per process >      10.37 MB

     Estimated max dynamical RAM per process >      24.60 MB

     Estimated total dynamical RAM >     467.32 MB

     Check: negative core charge=   -0.000002

     Initial potential from superposition of free atoms

     starting charge   55.99693, renormalised to   56.00000
     Starting wfcs are   34 randomized atomic wfcs
     Checking if some PAW data can be deallocated... 
       PAW data deallocated on   12 nodes for type:  1
       PAW data deallocated on    7 nodes for type:  2

     total cpu time spent up to now is        3.4 secs

     Self-consistent Calculation

     iteration #  1     ecut=    50.00 Ry     beta= 0.50
     Davidson diagonalization with overlap
     ethr =  1.00E-02,  avg # of iterations =  1.3

     Threshold (ethr) on eigenvalues was too large:
     Diagonalizing with lowered threshold

     Davidson diagonalization with overlap
     ethr =  2.56E-04,  avg # of iterations =  2.5

     total cpu time spent up to now is       24.5 secs

     total energy              =   -2399.92258052 Ry
     estimated scf accuracy    <       0.12981959 Ry

     iteration #  2     ecut=    50.00 Ry     beta= 0.50
     Davidson diagonalization with overlap
     ethr =  2.32E-04,  avg # of iterations =  3.3

     total cpu time spent up to now is       26.4 secs

     total energy              =   -2399.95804638 Ry
     estimated scf accuracy    <       0.00732888 Ry

     iteration #  3     ecut=    50.00 Ry     beta= 0.50
     Davidson diagonalization with overlap
     ethr =  1.31E-05,  avg # of iterations =  3.8

     total cpu time spent up to now is       28.3 secs

     total energy              =   -2399.95927246 Ry
     estimated scf accuracy    <       0.00158320 Ry

     iteration #  4     ecut=    50.00 Ry     beta= 0.50
     Davidson diagonalization with overlap
     ethr =  2.83E-06,  avg # of iterations =  3.8

     total cpu time spent up to now is       30.2 secs

     total energy              =   -2399.95966297 Ry
     estimated scf accuracy    <       0.00033514 Ry

     iteration #  5     ecut=    50.00 Ry     beta= 0.50
     Davidson diagonalization with overlap
     ethr =  5.98E-07,  avg # of iterations =  3.5

     total cpu time spent up to now is       32.1 secs

     total energy              =   -2399.95973043 Ry
     estimated scf accuracy    <       0.00000616 Ry

     iteration #  6     ecut=    50.00 Ry     beta= 0.50
     Davidson diagonalization with overlap
     ethr =  1.10E-08,  avg # of iterations =  6.3

     total cpu time spent up to now is       34.7 secs

     total energy              =   -2399.95973536 Ry
     estimated scf accuracy    <       0.00000482 Ry

     iteration #  7     ecut=    50.00 Ry     beta= 0.50
     Davidson diagonalization with overlap
     ethr =  8.60E-09,  avg # of iterations =  2.8

     total cpu time spent up to now is       36.6 secs

     End of self-consistent calculation

          k = 0.0000 0.0000 0.0000 ( 10951 PWs)   bands (ev):

   -18.3842 -18.3813 -18.3742 -18.3739 -18.3632 -18.3632 -18.3595 -18.3595
   -18.3590 -18.3590  -9.3193  -8.8064  -8.8064  -8.6872  -4.1409  -2.2902
    -0.1038  -0.1038   0.4398   0.7561   1.2614   1.3642   1.6184   1.6184
     2.0261   2.0261   2.4030   2.8728

     occupation numbers 
     1.0000   1.0000   1.0000   1.0000   1.0000   1.0000   1.0000   1.0000
     1.0000   1.0000   1.0000   1.0000   1.0000   1.0000   1.0000   1.0000
     1.0000   1.0000   1.0000   1.0000   1.0000   1.0000   1.0000   1.0000
     1.0000   1.0000   1.0000   1.0000

          k = 0.0000 0.0000-0.8125 ( 11044 PWs)   bands (ev):

   -18.3814 -18.3814 -18.3739 -18.3739 -18.3643 -18.3643 -18.3636 -18.3636
   -18.3552 -18.3552  -8.8564  -8.8564  -8.6832  -8.6832  -3.6868  -3.6868
    -0.0404  -0.0404  -0.0143  -0.0143   0.5295   0.5295   1.5856   1.5856
     1.6390   1.6390   2.3748   2.3748

     occupation numbers 
     1.0000   1.0000   1.0000   1.0000   1.0000   1.0000   1.0000   1.0000
     1.0000   1.0000   1.0000   1.0000   1.0000   1.0000   1.0000   1.0000
     1.0000   1.0000   1.0000   1.0000   1.0000   1.0000   1.0000   1.0000
     1.0000   1.0000   1.0000   1.0000

          k = 0.0000-0.5000 0.0000 ( 11016 PWs)   bands (ev):

   -18.3828 -18.3828 -18.3740 -18.3740 -18.3633 -18.3633 -18.3595 -18.3595
   -18.3590 -18.3590  -9.1066  -9.1066  -8.7199  -8.7199  -3.3970  -3.3970
     0.3847   0.3847   0.7841   0.7841   1.0835   1.0835   1.7077   1.7077
     1.8473   1.8473   2.1966   2.1966

     occupation numbers 
     1.0000   1.0000   1.0000   1.0000   1.0000   1.0000   1.0000   1.0000
     1.0000   1.0000   1.0000   1.0000   1.0000   1.0000   1.0000   1.0000
     1.0000   1.0000   1.0000   1.0000   1.0000   1.0000   1.0000   1.0000
     1.0000   1.0000   1.0000   1.0000

          k = 0.0000-0.5000-0.8125 ( 11032 PWs)   bands (ev):

   -18.3815 -18.3815 -18.3739 -18.3739 -18.3643 -18.3643 -18.3635 -18.3635
   -18.3552 -18.3552  -8.8349  -8.8349  -8.7052  -8.7052  -3.6683  -3.6683
    -0.6405  -0.6405   0.0281   0.0281   1.1875   1.1875   1.7075   1.7075
     1.8290   1.8290   2.6202   2.6202

     occupation numbers 
     1.0000   1.0000   1.0000   1.0000   1.0000   1.0000   1.0000   1.0000
     1.0000   1.0000   1.0000   1.0000   1.0000   1.0000   1.0000   1.0000
     1.0000   1.0000   1.0000   1.0000   1.0000   1.0000   1.0000   1.0000
     1.0000   1.0000   1.0000   1.0000

          k =-0.5000-0.5000 0.0000 ( 10988 PWs)   bands (ev):

   -18.3827 -18.3827 -18.3740 -18.3740 -18.3633 -18.3633 -18.3595 -18.3595
   -18.3590 -18.3590  -9.0233  -9.0233  -8.8194  -8.8194  -3.3041  -3.3041
     0.0748   0.0748   0.8524   0.8524   1.3627   1.3627   1.5937   1.5937
     1.7081   1.7081   2.2045   2.2045

     occupation numbers 
     1.0000   1.0000   1.0000   1.0000   1.0000   1.0000   1.0000   1.0000
     1.0000   1.0000   1.0000   1.0000   1.0000   1.0000   1.0000   1.0000
     1.0000   1.0000   1.0000   1.0000   1.0000   1.0000   1.0000   1.0000
     1.0000   1.0000   1.0000   1.0000

          k =-0.5000-0.5000-0.8125 ( 11048 PWs)   bands (ev):

   -18.3814 -18.3814 -18.3739 -18.3739 -18.3643 -18.3643 -18.3636 -18.3636
   -18.3552 -18.3552  -8.8420  -8.8420  -8.6938  -8.6938  -3.7507  -3.7507
    -0.2302  -0.2302   0.2777   0.2777   0.5578   0.5578   1.8424   1.8424
     1.8590   1.8590   2.0284   2.0284

     occupation numbers 
     1.0000   1.0000   1.0000   1.0000   1.0000   1.0000   1.0000   1.0000
     1.0000   1.0000   1.0000   1.0000   1.0000   1.0000   1.0000   1.0000
     1.0000   1.0000   1.0000   1.0000   1.0000   1.0000   1.0000   1.0000
     1.0000   1.0000   1.0000   1.0000

     highest occupied level (ev):     2.8728

!    total energy              =   -2399.95973662 Ry

     total all-electron energy =    -81641.205084 Ry
     estimated scf accuracy    <       0.00000009 Ry

     The total energy is the sum of the following terms:
     one-electron contribution =    -203.68831201 Ry
     hartree contribution      =     130.08857799 Ry
     xc contribution           =    -159.03166145 Ry
     ewald contribution        =    -219.54274840 Ry
     one-center paw contrib.   =   -1947.78559275 Ry
      -> PAW hartree energy AE =     108.10669411 Ry
      -> PAW hartree energy PS =    -107.33884908 Ry
      -> PAW xc energy AE      =    -328.93341419 Ry
      -> PAW xc energy PS      =      47.23411313 Ry
      -> total E_H with PAW    =     130.85642302 Ry
      -> total E_XC with PAW   =    -440.73096251 Ry

     convergence has been achieved in   7 iterations

     Forces acting on atoms (cartesian axes, Ry/au):

     atom    1 type  1   force =     0.00000000    0.00000000    0.00000000
     atom    2 type  1   force =     0.00000000    0.00000000   -0.00000000
     atom    3 type  2   force =     0.00281583    0.00281583   -0.00000000
     atom    4 type  2   force =    -0.00281583   -0.00281583   -0.00000000
     atom    5 type  2   force =     0.00281583   -0.00281583    0.00000000
     atom    6 type  2   force =    -0.00281583    0.00281583    0.00000000
     The non-local contrib.  to forces
     atom    1 type  1   force =     0.00000000    0.00000000    0.00000000
     atom    2 type  1   force =     0.00000000    0.00000000    0.00000000
     atom    3 type  2   force =     0.01539250    0.01539250   -0.00000000
     atom    4 type  2   force =    -0.01539250   -0.01539250   -0.00000000
     atom    5 type  2   force =     0.01539250   -0.01539250    0.00000000
     atom    6 type  2   force =    -0.01539250    0.01539250    0.00000000
     The ionic contribution  to forces
     atom    1 type  1   force =    -0.00000000   -0.00000000    0.00000000
     atom    2 type  1   force =    -0.00000000   -0.00000000   -0.00000000
     atom    3 type  2   force =    -0.90990984   -0.90990984   -0.00000000
     atom    4 type  2   force =     0.90990984    0.90990984   -0.00000000
     atom    5 type  2   force =    -0.90990984    0.90990984   -0.00000000
     atom    6 type  2   force =     0.90990984   -0.90990984   -0.00000000
     The local contribution  to forces
     atom    1 type  1   force =     0.00000000   -0.00000000    0.00000000
     atom    2 type  1   force =     0.00000000    0.00000000    0.00000000
     atom    3 type  2   force =     0.89931894    0.89931894   -0.00000000
     atom    4 type  2   force =    -0.89931894   -0.89931894    0.00000000
     atom    5 type  2   force =     0.89931894   -0.89931894    0.00000000
     atom    6 type  2   force =    -0.89931894    0.89931894    0.00000000
     The core correction contribution to forces
     atom    1 type  1   force =     0.00000000    0.00000000   -0.00000000
     atom    2 type  1   force =     0.00000000    0.00000000    0.00000000
     atom    3 type  2   force =    -0.00197712   -0.00197712   -0.00000000
     atom    4 type  2   force =     0.00197712    0.00197712   -0.00000000
     atom    5 type  2   force =    -0.00197712    0.00197712    0.00000000
     atom    6 type  2   force =     0.00197712   -0.00197712    0.00000000
     The Hubbard contrib.    to forces
     atom    1 type  1   force =     0.00000000    0.00000000    0.00000000
     atom    2 type  1   force =     0.00000000    0.00000000    0.00000000
     atom    3 type  2   force =     0.00000000    0.00000000    0.00000000
     atom    4 type  2   force =     0.00000000    0.00000000    0.00000000
     atom    5 type  2   force =     0.00000000    0.00000000    0.00000000
     atom    6 type  2   force =     0.00000000    0.00000000    0.00000000
     The SCF correction term to forces
     atom    1 type  1   force =     0.00000000    0.00000000   -0.00000000
     atom    2 type  1   force =     0.00000000   -0.00000000    0.00000000
     atom    3 type  2   force =    -0.00000865   -0.00000865   -0.00000000
     atom    4 type  2   force =     0.00000865    0.00000865   -0.00000000
     atom    5 type  2   force =    -0.00000865    0.00000865    0.00000000
     atom    6 type  2   force =     0.00000865   -0.00000865    0.00000000

     Total force =     0.007964     Total SCF correction =     0.000024


     Computing stress (Cartesian axis) and pressure

          total   stress  (Ry/bohr**3)                   (kbar)     P=        1.26
  -0.00001156   0.00000000   0.00000000           -1.70        0.00        0.00
   0.00000000  -0.00001156   0.00000000            0.00       -1.70        0.00
   0.00000000   0.00000000   0.00004880            0.00        0.00        7.18

     kinetic stress (kbar)   7315.19      0.00      0.00
                                0.00   7315.19      0.00
                                0.00      0.00   7303.15

     local   stress (kbar)  -1438.49     -0.00      0.00
                               -0.00  -1438.49     -0.00
                                0.00     -0.00  -5856.63

     nonloc. stress (kbar)    112.11      0.00      0.00
                                0.00    112.11      0.00
                                0.00      0.00    115.65

     hartree stress (kbar)   2825.61      0.00     -0.00
                                0.00   2825.61      0.00
                               -0.00      0.00   4720.11

     exc-cor stress (kbar)   6161.20      0.00     -0.00
                                0.00   6161.20      0.00
                               -0.00      0.00   6162.40

     corecor stress (kbar)  -8296.56      0.00     -0.00
                                0.00  -8296.56     -0.00
                               -0.00     -0.00  -8295.95

     ewald   stress (kbar)  -6680.77      0.00     -0.00
                                0.00  -6680.77     -0.00
                               -0.00     -0.00  -4141.56

     hubbard stress (kbar)      0.00      0.00      0.00
                                0.00      0.00      0.00
                                0.00      0.00      0.00

     DFT-D   stress (kbar)      0.00      0.00      0.00
                                0.00      0.00      0.00
                                0.00      0.00      0.00

     XDM     stress (kbar)      0.00      0.00      0.00
                                0.00      0.00      0.00
                                0.00      0.00      0.00

     dft-nl  stress (kbar)      0.00      0.00      0.00
                                0.00      0.00      0.00
                                0.00      0.00      0.00

     TS-vdW  stress (kbar)      0.00      0.00      0.00
                                0.00      0.00      0.00
                                0.00      0.00      0.00



     BFGS Geometry Optimization
     Energy error            =      0.0E+00
     Gradient error          =      2.8E-03
     Cell gradient error     =      4.9E-05


     number of scf cycles    =   1
     number of bfgs steps    =   0

     enthalpy new            =   -2399.9597366199 Ry

     new trust radius        =       0.0104819824 bohr
     new conv_thr            =       0.0000010000 Ry

     new unit-cell volume =   1846.33473 a.u.^3 (   273.59858 Ang^3 )
     density =      4.52159 g/cm^3

CELL_PARAMETERS (angstrom)
   7.628500718   0.000000000   0.000000000
   0.000000000   7.628500718   0.000000000
   0.000000000   0.000000000   4.701489324

ATOMIC_POSITIONS (crystal)
Sn            0.0000000000        0.0000000000        0.0000000000
Sn            0.5000000000        0.5000000000        0.5000000000
I             0.2987162734        0.2987162734       -0.0000000000
I             0.7012837266        0.7012837266       -0.0000000000
I             0.7987162734        0.2012837266        0.5000000000
I             0.2012837266        0.7987162734        0.5000000000



     Writing output data file ./out/SnI2tetr.save/
     NEW-OLD atomic charge density approx. for the potential

     Check: negative core charge=   -0.000002
     extrapolated charge   56.03590, renormalised to   56.00000

     total cpu time spent up to now is       42.6 secs

     Self-consistent Calculation

     iteration #  1     ecut=    50.00 Ry     beta= 0.50
     Davidson diagonalization with overlap
     ethr =  1.00E-06,  avg # of iterations =  3.2

     Threshold (ethr) on eigenvalues was too large:
     Diagonalizing with lowered threshold

     Davidson diagonalization with overlap
     ethr =  9.50E-08,  avg # of iterations =  4.0

     total cpu time spent up to now is       46.4 secs

     total energy              =   -2399.95983005 Ry
     estimated scf accuracy    <       0.00006445 Ry

     iteration #  2     ecut=    50.00 Ry     beta= 0.50
     Davidson diagonalization with overlap
     ethr =  1.15E-07,  avg # of iterations =  4.0

     total cpu time spent up to now is       48.8 secs

     total energy              =   -2399.95991859 Ry
     estimated scf accuracy    <       0.00005544 Ry

     iteration #  3     ecut=    50.00 Ry     beta= 0.50
     Davidson diagonalization with overlap
     ethr =  9.90E-08,  avg # of iterations =  1.8

     total cpu time spent up to now is       50.3 secs

     total energy              =   -2399.95991489 Ry
     estimated scf accuracy    <       0.00001679 Ry

     iteration #  4     ecut=    50.00 Ry     beta= 0.50
     Davidson diagonalization with overlap
     ethr =  3.00E-08,  avg # of iterations =  3.3

     total cpu time spent up to now is       52.3 secs

     total energy              =   -2399.95991923 Ry
     estimated scf accuracy    <       0.00000145 Ry

     iteration #  5     ecut=    50.00 Ry     beta= 0.50
     Davidson diagonalization with overlap
     ethr =  2.59E-09,  avg # of iterations =  3.7

     total cpu time spent up to now is       54.1 secs

     total energy              =   -2399.95991931 Ry
     estimated scf accuracy    <       0.00000121 Ry

     iteration #  6     ecut=    50.00 Ry     beta= 0.50
     Davidson diagonalization with overlap
     ethr =  2.15E-09,  avg # of iterations =  1.0

     total cpu time spent up to now is       55.6 secs

     total energy              =   -2399.95991999 Ry
     estimated scf accuracy    <       0.00000124 Ry

     iteration #  7     ecut=    50.00 Ry     beta= 0.50
     Davidson diagonalization with overlap
     ethr =  2.15E-09,  avg # of iterations =  2.0

     total cpu time spent up to now is       61.9 secs

     End of self-consistent calculation

          k = 0.0000 0.0000 0.0000 ( 10951 PWs)   bands (ev):

   -18.3968 -18.3938 -18.3869 -18.3866 -18.3758 -18.3758 -18.3721 -18.3720
   -18.3716 -18.3716  -9.3230  -8.8096  -8.8096  -8.6922  -4.1439  -2.2977
    -0.1034  -0.1034   0.4276   0.7542   1.2528   1.3512   1.6097   1.6097
     2.0220   2.0220   2.3974   2.8575

     occupation numbers 
     1.0000   1.0000   1.0000   1.0000   1.0000   1.0000   1.0000   1.0000
     1.0000   1.0000   1.0000   1.0000   1.0000   1.0000   1.0000   1.0000
     1.0000   1.0000   1.0000   1.0000   1.0000   1.0000   1.0000   1.0000
     1.0000   1.0000   1.0000   1.0000

          k = 0.0000 0.0000-0.8115 ( 11044 PWs)   bands (ev):

   -18.3939 -18.3939 -18.3866 -18.3866 -18.3768 -18.3768 -18.3761 -18.3761
   -18.3678 -18.3678  -8.8615  -8.8615  -8.6873  -8.6873  -3.6950  -3.6950
    -0.0445  -0.0445  -0.0171  -0.0171   0.5281   0.5281   1.5812   1.5812
     1.6339   1.6339   2.3721   2.3721

     occupation numbers 
     1.0000   1.0000   1.0000   1.0000   1.0000   1.0000   1.0000   1.0000
     1.0000   1.0000   1.0000   1.0000   1.0000   1.0000   1.0000   1.0000
     1.0000   1.0000   1.0000   1.0000   1.0000   1.0000   1.0000   1.0000
     1.0000   1.0000   1.0000   1.0000

          k = 0.0000-0.5001 0.0000 ( 11016 PWs)   bands (ev):

   -18.3953 -18.3953 -18.3867 -18.3867 -18.3758 -18.3758 -18.3721 -18.3721
   -18.3716 -18.3716  -9.1103  -9.1103  -8.7237  -8.7237  -3.4011  -3.4011
     0.3798   0.3798   0.7720   0.7720   1.0823   1.0823   1.6988   1.6988
     1.8435   1.8435   2.1901   2.1901

     occupation numbers 
     1.0000   1.0000   1.0000   1.0000   1.0000   1.0000   1.0000   1.0000
     1.0000   1.0000   1.0000   1.0000   1.0000   1.0000   1.0000   1.0000
     1.0000   1.0000   1.0000   1.0000   1.0000   1.0000   1.0000   1.0000
     1.0000   1.0000   1.0000   1.0000

          k = 0.0000-0.5001-0.8115 ( 11032 PWs)   bands (ev):

   -18.3940 -18.3940 -18.3866 -18.3866 -18.3768 -18.3768 -18.3761 -18.3761
   -18.3678 -18.3678  -8.8400  -8.8400  -8.7093  -8.7093  -3.6764  -3.6764
    -0.6440  -0.6440   0.0247   0.0247   1.1848   1.1848   1.7037   1.7037
     1.8246   1.8246   2.6178   2.6178

     occupation numbers 
     1.0000   1.0000   1.0000   1.0000   1.0000   1.0000   1.0000   1.0000
     1.0000   1.0000   1.0000   1.0000   1.0000   1.0000   1.0000   1.0000
     1.0000   1.0000   1.0000   1.0000   1.0000   1.0000   1.0000   1.0000
     1.0000   1.0000   1.0000   1.0000

          k =-0.5001-0.5001 0.0000 ( 10988 PWs)   bands (ev):

   -18.3953 -18.3953 -18.3867 -18.3867 -18.3758 -18.3758 -18.3721 -18.3721
   -18.3716 -18.3716  -9.0274  -9.0274  -8.8226  -8.8226  -3.3090  -3.3090
     0.0748   0.0748   0.8400   0.8400   1.3593   1.3593   1.5850   1.5850
     1.7052   1.7052   2.1923   2.1923

     occupation numbers 
     1.0000   1.0000   1.0000   1.0000   1.0000   1.0000   1.0000   1.0000
     1.0000   1.0000   1.0000   1.0000   1.0000   1.0000   1.0000   1.0000
     1.0000   1.0000   1.0000   1.0000   1.0000   1.0000   1.0000   1.0000
     1.0000   1.0000   1.0000   1.0000

          k =-0.5001-0.5001-0.8115 ( 11048 PWs)   bands (ev):

   -18.3940 -18.3940 -18.3866 -18.3866 -18.3768 -18.3768 -18.3762 -18.3762
   -18.3678 -18.3678  -8.8471  -8.8471  -8.6980  -8.6980  -3.7586  -3.7586
    -0.2332  -0.2332   0.2718   0.2718   0.5563   0.5563   1.8367   1.8367
     1.8549   1.8549   2.0279   2.0279

     occupation numbers 
     1.0000   1.0000   1.0000   1.0000   1.0000   1.0000   1.0000   1.0000
     1.0000   1.0000   1.0000   1.0000   1.0000   1.0000   1.0000   1.0000
     1.0000   1.0000   1.0000   1.0000   1.0000   1.0000   1.0000   1.0000
     1.0000   1.0000   1.0000   1.0000

     highest occupied level (ev):     2.8575

!    total energy              =   -2399.95991988 Ry

     total all-electron energy =    -81641.205268 Ry
     estimated scf accuracy    <       0.00000090 Ry

     The total energy is the sum of the following terms:
     one-electron contribution =    -203.74648455 Ry
     hartree contribution      =     130.11094854 Ry
     xc contribution           =    -159.03170898 Ry
     ewald contribution        =    -219.50738919 Ry
     one-center paw contrib.   =   -1947.78528571 Ry
      -> PAW hartree energy AE =     108.09663505 Ry
      -> PAW hartree energy PS =    -107.32837235 Ry
      -> PAW xc energy AE      =    -328.93351749 Ry
      -> PAW xc energy PS      =      47.23388075 Ry
      -> total E_H with PAW    =     130.87921124 Ry
      -> total E_XC with PAW   =    -440.73134572 Ry

     convergence has been achieved in   7 iterations

     Forces acting on atoms (cartesian axes, Ry/au):

     atom    1 type  1   force =     0.00000000    0.00000000    0.00000000
     atom    2 type  1   force =     0.00000000    0.00000000   -0.00000000
     atom    3 type  2   force =     0.00263268    0.00263268   -0.00000000
     atom    4 type  2   force =    -0.00263268   -0.00263268   -0.00000000
     atom    5 type  2   force =     0.00263268   -0.00263268    0.00000000
     atom    6 type  2   force =    -0.00263268    0.00263268    0.00000000
     The non-local contrib.  to forces
     atom    1 type  1   force =     0.00000000    0.00000000    0.00000000
     atom    2 type  1   force =     0.00000000    0.00000000   -0.00000000
     atom    3 type  2   force =     0.01499967    0.01499967    0.00000000
     atom    4 type  2   force =    -0.01499967   -0.01499967    0.00000000
     atom    5 type  2   force =     0.01499967   -0.01499967    0.00000000
     atom    6 type  2   force =    -0.01499967    0.01499967    0.00000000
     The ionic contribution  to forces
     atom    1 type  1   force =    -0.00000000   -0.00000000    0.00000000
     atom    2 type  1   force =    -0.00000000   -0.00000000    0.00000000
     atom    3 type  2   force =    -0.91042383   -0.91042383   -0.00000000
     atom    4 type  2   force =     0.91042383    0.91042383    0.00000000
     atom    5 type  2   force =    -0.91042383    0.91042383    0.00000000
     atom    6 type  2   force =     0.91042383   -0.91042383    0.00000000
     The local contribution  to forces
     atom    1 type  1   force =     0.00000000    0.00000000    0.00000000
     atom    2 type  1   force =     0.00000000    0.00000000    0.00000000
     atom    3 type  2   force =     0.90010115    0.90010115    0.00000000
     atom    4 type  2   force =    -0.90010115   -0.90010115    0.00000000
     atom    5 type  2   force =     0.90010115   -0.90010115   -0.00000000
     atom    6 type  2   force =    -0.90010115    0.90010115   -0.00000000
     The core correction contribution to forces
     atom    1 type  1   force =     0.00000000    0.00000000    0.00000000
     atom    2 type  1   force =     0.00000000    0.00000000   -0.00000000
     atom    3 type  2   force =    -0.00196041   -0.00196041   -0.00000000
     atom    4 type  2   force =     0.00196041    0.00196041    0.00000000
     atom    5 type  2   force =    -0.00196041    0.00196041   -0.00000000
     atom    6 type  2   force =     0.00196041   -0.00196041   -0.00000000
     The Hubbard contrib.    to forces
     atom    1 type  1   force =     0.00000000    0.00000000    0.00000000
     atom    2 type  1   force =     0.00000000    0.00000000    0.00000000
     atom    3 type  2   force =     0.00000000    0.00000000    0.00000000
     atom    4 type  2   force =     0.00000000    0.00000000    0.00000000
     atom    5 type  2   force =     0.00000000    0.00000000    0.00000000
     atom    6 type  2   force =     0.00000000    0.00000000    0.00000000
     The SCF correction term to forces
     atom    1 type  1   force =    -0.00000000   -0.00000000    0.00000000
     atom    2 type  1   force =     0.00000000    0.00000000    0.00000000
     atom    3 type  2   force =    -0.00008391   -0.00008391   -0.00000000
     atom    4 type  2   force =     0.00008391    0.00008391   -0.00000000
     atom    5 type  2   force =    -0.00008391    0.00008391    0.00000000
     atom    6 type  2   force =     0.00008391   -0.00008391   -0.00000000

     Total force =     0.007446     Total SCF correction =     0.000237


     Computing stress (Cartesian axis) and pressure

          total   stress  (Ry/bohr**3)                   (kbar)     P=        3.00
   0.00000095   0.00000000   0.00000000            0.14        0.00        0.00
   0.00000000   0.00000095   0.00000000            0.00        0.14        0.00
   0.00000000   0.00000000   0.00005929            0.00        0.00        8.72

     kinetic stress (kbar)   7310.66      0.00      0.00
                                0.00   7310.66      0.00
                                0.00      0.00   7298.03

     local   stress (kbar)  -1436.27     -0.00     -0.00
                               -0.00  -1436.27      0.00
                               -0.00      0.00  -5859.51

     nonloc. stress (kbar)    113.62      0.00      0.00
                                0.00    113.62      0.00
                                0.00      0.00    117.22

     hartree stress (kbar)   2823.71      0.00     -0.00
                                0.00   2823.71     -0.00
                               -0.00     -0.00   4719.05

     exc-cor stress (kbar)   6157.25      0.00      0.00
                                0.00   6157.25      0.00
                                0.00      0.00   6158.48

     corecor stress (kbar)  -8291.26     -0.00     -0.00
                               -0.00  -8291.26     -0.00
                               -0.00      0.00  -8290.63

     ewald   stress (kbar)  -6677.57     -0.00      0.00
                               -0.00  -6677.57      0.00
                                0.00      0.00  -4133.91

     hubbard stress (kbar)      0.00      0.00      0.00
                                0.00      0.00      0.00
                                0.00      0.00      0.00

     DFT-D   stress (kbar)      0.00      0.00      0.00
                                0.00      0.00      0.00
                                0.00      0.00      0.00

     XDM     stress (kbar)      0.00      0.00      0.00
                                0.00      0.00      0.00
                                0.00      0.00      0.00

     dft-nl  stress (kbar)      0.00      0.00      0.00
                                0.00      0.00      0.00
                                0.00      0.00      0.00

     TS-vdW  stress (kbar)      0.00      0.00      0.00
                                0.00      0.00      0.00
                                0.00      0.00      0.00


     Energy error            =      1.8E-04
     Gradient error          =      2.6E-03
     Cell gradient error     =      5.9E-05


     number of scf cycles    =   2
     number of bfgs steps    =   1

     enthalpy old            =   -2399.9597366199 Ry
     enthalpy new            =   -2399.9599198797 Ry

     CASE: enthalpy_new < enthalpy_old


     WARNING: bfgs curvature condition failed, Theta= 0.775
     new trust radius        =       0.0157088493 bohr
     new conv_thr            =       0.0000000183 Ry

     new unit-cell volume =   1847.45970 a.u.^3 (   273.76528 Ang^3 )
     density =      4.51884 g/cm^3

CELL_PARAMETERS (angstrom)
   7.623859646   0.000000000   0.000000000
   0.000000000   7.623859646   0.000000000
   0.000000000   0.000000000   4.710083309

ATOMIC_POSITIONS (crystal)
Sn            0.0000000000        0.0000000000        0.0000000000
Sn            0.5000000000        0.5000000000        0.5000000000
I             0.2990346266        0.2990346266       -0.0000000000
I             0.7009653734        0.7009653734       -0.0000000000
I             0.7990346266        0.2009653734        0.5000000000
I             0.2009653734        0.7990346266        0.5000000000



     Writing output data file ./out/SnI2tetr.save/
     NEW-OLD atomic charge density approx. for the potential

     Check: negative core charge=   -0.000002
     extrapolated charge   56.03410, renormalised to   56.00000

     total cpu time spent up to now is       69.2 secs

     Self-consistent Calculation

     iteration #  1     ecut=    50.00 Ry     beta= 0.50
     Davidson diagonalization with overlap
     ethr =  1.00E-06,  avg # of iterations =  4.8

     total cpu time spent up to now is       71.7 secs

     total energy              =   -2399.96010001 Ry
     estimated scf accuracy    <       0.00008039 Ry

     iteration #  2     ecut=    50.00 Ry     beta= 0.50
     Davidson diagonalization with overlap
     ethr =  1.44E-07,  avg # of iterations =  4.2

     total cpu time spent up to now is       74.1 secs

     total energy              =   -2399.96018944 Ry
     estimated scf accuracy    <       0.00004595 Ry

     iteration #  3     ecut=    50.00 Ry     beta= 0.50
     Davidson diagonalization with overlap
     ethr =  8.21E-08,  avg # of iterations =  2.0

     total cpu time spent up to now is       77.4 secs

     total energy              =   -2399.96019097 Ry
     estimated scf accuracy    <       0.00001253 Ry

     iteration #  4     ecut=    50.00 Ry     beta= 0.50
     Davidson diagonalization with overlap
     ethr =  2.24E-08,  avg # of iterations =  3.7

     total cpu time spent up to now is       82.0 secs

     total energy              =   -2399.96019472 Ry
     estimated scf accuracy    <       0.00000202 Ry

     iteration #  5     ecut=    50.00 Ry     beta= 0.50
     Davidson diagonalization with overlap
     ethr =  3.60E-09,  avg # of iterations =  2.5

     total cpu time spent up to now is       83.7 secs

     total energy              =   -2399.96019638 Ry
     estimated scf accuracy    <       0.00000190 Ry

     iteration #  6     ecut=    50.00 Ry     beta= 0.50
     Davidson diagonalization with overlap
     ethr =  3.39E-09,  avg # of iterations =  2.0

     total cpu time spent up to now is      104.2 secs

     total energy              =   -2399.96019632 Ry
     estimated scf accuracy    <       0.00000190 Ry

     iteration #  7     ecut=    50.00 Ry     beta= 0.50
     Davidson diagonalization with overlap
     ethr =  3.39E-09,  avg # of iterations =  3.2

     total cpu time spent up to now is      139.2 secs

     total energy              =   -2399.96019721 Ry
     estimated scf accuracy    <       0.00000043 Ry

     iteration #  8     ecut=    50.00 Ry     beta= 0.50
     Davidson diagonalization with overlap
     ethr =  7.65E-10,  avg # of iterations =  2.2

     total cpu time spent up to now is      168.1 secs

     total energy              =   -2399.96019721 Ry
     estimated scf accuracy    <       0.00000012 Ry

     iteration #  9     ecut=    50.00 Ry     beta= 0.50
     Davidson diagonalization with overlap
     ethr =  2.15E-10,  avg # of iterations =  4.2

     total cpu time spent up to now is      210.8 secs

     total energy              =   -2399.96019726 Ry
     estimated scf accuracy    <       0.00000005 Ry

     iteration # 10     ecut=    50.00 Ry     beta= 0.50
     Davidson diagonalization with overlap
     ethr =  9.44E-11,  avg # of iterations =  2.5

     total cpu time spent up to now is      236.6 secs

     End of self-consistent calculation

          k = 0.0000 0.0000 0.0000 ( 10951 PWs)   bands (ev):

   -18.3968 -18.3938 -18.3871 -18.3868 -18.3756 -18.3756 -18.3719 -18.3718
   -18.3715 -18.3715  -9.3266  -8.8125  -8.8125  -8.6976  -4.1413  -2.2993
    -0.0994  -0.0994   0.4114   0.7525   1.2428   1.3343   1.5989   1.5989
     2.0181   2.0181   2.3908   2.8401

     occupation numbers 
     1.0000   1.0000   1.0000   1.0000   1.0000   1.0000   1.0000   1.0000
     1.0000   1.0000   1.0000   1.0000   1.0000   1.0000   1.0000   1.0000
     1.0000   1.0000   1.0000   1.0000   1.0000   1.0000   1.0000   1.0000
     1.0000   1.0000   1.0000   1.0000

          k = 0.0000 0.0000-0.8100 ( 11044 PWs)   bands (ev):

   -18.3940 -18.3940 -18.3868 -18.3868 -18.3765 -18.3765 -18.3761 -18.3761
   -18.3676 -18.3676  -8.8673  -8.8673  -8.6916  -8.6916  -3.7001  -3.7001
    -0.0474  -0.0474  -0.0187  -0.0187   0.5297   0.5297   1.5759   1.5759
     1.6278   1.6278   2.3731   2.3731

     occupation numbers 
     1.0000   1.0000   1.0000   1.0000   1.0000   1.0000   1.0000   1.0000
     1.0000   1.0000   1.0000   1.0000   1.0000   1.0000   1.0000   1.0000
     1.0000   1.0000   1.0000   1.0000   1.0000   1.0000   1.0000   1.0000
     1.0000   1.0000   1.0000   1.0000

          k = 0.0000-0.5004 0.0000 ( 11016 PWs)   bands (ev):

   -18.3953 -18.3953 -18.3869 -18.3869 -18.3756 -18.3756 -18.3719 -18.3719
   -18.3716 -18.3716  -9.1140  -9.1140  -8.7273  -8.7273  -3.3997  -3.3997
     0.3757   0.3757   0.7560   0.7560   1.0831   1.0831   1.6876   1.6876
     1.8420   1.8420   2.1830   2.1830

     occupation numbers 
     1.0000   1.0000   1.0000   1.0000   1.0000   1.0000   1.0000   1.0000
     1.0000   1.0000   1.0000   1.0000   1.0000   1.0000   1.0000   1.0000
     1.0000   1.0000   1.0000   1.0000   1.0000   1.0000   1.0000   1.0000
     1.0000   1.0000   1.0000   1.0000

          k = 0.0000-0.5004-0.8100 ( 11032 PWs)   bands (ev):

   -18.3941 -18.3941 -18.3868 -18.3868 -18.3765 -18.3765 -18.3760 -18.3760
   -18.3676 -18.3676  -8.8460  -8.8460  -8.7135  -8.7135  -3.6814  -3.6814
    -0.6462  -0.6462   0.0223   0.0223   1.1829   1.1829   1.7010   1.7010
     1.8196   1.8196   2.6193   2.6193

     occupation numbers 
     1.0000   1.0000   1.0000   1.0000   1.0000   1.0000   1.0000   1.0000
     1.0000   1.0000   1.0000   1.0000   1.0000   1.0000   1.0000   1.0000
     1.0000   1.0000   1.0000   1.0000   1.0000   1.0000   1.0000   1.0000
     1.0000   1.0000   1.0000   1.0000

          k =-0.5004-0.5004 0.0000 ( 10988 PWs)   bands (ev):

   -18.3953 -18.3953 -18.3869 -18.3869 -18.3756 -18.3756 -18.3719 -18.3719
   -18.3716 -18.3716  -9.0317  -9.0317  -8.8255  -8.8255  -3.3086  -3.3086
     0.0783   0.0783   0.8238   0.8238   1.3562   1.3562   1.5739   1.5739
     1.7027   1.7027   2.1789   2.1789

     occupation numbers 
     1.0000   1.0000   1.0000   1.0000   1.0000   1.0000   1.0000   1.0000
     1.0000   1.0000   1.0000   1.0000   1.0000   1.0000   1.0000   1.0000
     1.0000   1.0000   1.0000   1.0000   1.0000   1.0000   1.0000   1.0000
     1.0000   1.0000   1.0000   1.0000

          k =-0.5004-0.5004-0.8100 ( 11048 PWs)   bands (ev):

   -18.3941 -18.3941 -18.3868 -18.3868 -18.3765 -18.3765 -18.3761 -18.3761
   -18.3676 -18.3676  -8.8529  -8.8529  -8.7022  -8.7022  -3.7636  -3.7636
    -0.2356  -0.2356   0.2672   0.2672   0.5580   0.5580   1.8299   1.8299
     1.8504   1.8504   2.0315   2.0315

     occupation numbers 
     1.0000   1.0000   1.0000   1.0000   1.0000   1.0000   1.0000   1.0000
     1.0000   1.0000   1.0000   1.0000   1.0000   1.0000   1.0000   1.0000
     1.0000   1.0000   1.0000   1.0000   1.0000   1.0000   1.0000   1.0000
     1.0000   1.0000   1.0000   1.0000

     highest occupied level (ev):     2.8401

!    total energy              =   -2399.96019726 Ry

     total all-electron energy =    -81641.205545 Ry
     estimated scf accuracy    <       0.00000001 Ry

     The total energy is the sum of the following terms:
     one-electron contribution =    -203.77468909 Ry
     hartree contribution      =     130.11063634 Ry
     xc contribution           =    -159.02956186 Ry
     ewald contribution        =    -219.48131509 Ry
     one-center paw contrib.   =   -1947.78526756 Ry
      -> PAW hartree energy AE =     108.10062498 Ry
      -> PAW hartree energy PS =    -107.33269857 Ry
      -> PAW xc energy AE      =    -328.93311056 Ry
      -> PAW xc energy PS      =      47.23376171 Ry
      -> total E_H with PAW    =     130.87856276 Ry
      -> total E_XC with PAW   =    -440.72891071 Ry

     convergence has been achieved in  10 iterations

     Forces acting on atoms (cartesian axes, Ry/au):

     atom    1 type  1   force =     0.00000000    0.00000000    0.00000000
     atom    2 type  1   force =     0.00000000    0.00000000    0.00000000
     atom    3 type  2   force =     0.00248519    0.00248519    0.00000000
     atom    4 type  2   force =    -0.00248519   -0.00248519    0.00000000
     atom    5 type  2   force =     0.00248519   -0.00248519    0.00000000
     atom    6 type  2   force =    -0.00248519    0.00248519    0.00000000
     The non-local contrib.  to forces
     atom    1 type  1   force =     0.00000000    0.00000000    0.00000000
     atom    2 type  1   force =     0.00000000    0.00000000   -0.00000000
     atom    3 type  2   force =     0.01530619    0.01530619    0.00000000
     atom    4 type  2   force =    -0.01530619   -0.01530619    0.00000000
     atom    5 type  2   force =     0.01530619   -0.01530619   -0.00000000
     atom    6 type  2   force =    -0.01530619    0.01530619    0.00000000
     The ionic contribution  to forces
     atom    1 type  1   force =    -0.00000000   -0.00000000    0.00000000
     atom    2 type  1   force =    -0.00000000   -0.00000000    0.00000000
     atom    3 type  2   force =    -0.91160450   -0.91160450   -0.00000000
     atom    4 type  2   force =     0.91160450    0.91160450   -0.00000000
     atom    5 type  2   force =    -0.91160450    0.91160450   -0.00000000
     atom    6 type  2   force =     0.91160450   -0.91160450   -0.00000000
     The local contribution  to forces
     atom    1 type  1   force =     0.00000000    0.00000000    0.00000000
     atom    2 type  1   force =     0.00000000    0.00000000    0.00000000
     atom    3 type  2   force =     0.90078006    0.90078006    0.00000000
     atom    4 type  2   force =    -0.90078006   -0.90078006    0.00000000
     atom    5 type  2   force =     0.90078006   -0.90078006    0.00000000
     atom    6 type  2   force =    -0.90078006    0.90078006    0.00000000
     The core correction contribution to forces
     atom    1 type  1   force =     0.00000000    0.00000000    0.00000000
     atom    2 type  1   force =     0.00000000    0.00000000   -0.00000000
     atom    3 type  2   force =    -0.00197098   -0.00197098    0.00000000
     atom    4 type  2   force =     0.00197098    0.00197098    0.00000000
     atom    5 type  2   force =    -0.00197098    0.00197098    0.00000000
     atom    6 type  2   force =     0.00197098   -0.00197098    0.00000000
     The Hubbard contrib.    to forces
     atom    1 type  1   force =     0.00000000    0.00000000    0.00000000
     atom    2 type  1   force =     0.00000000    0.00000000    0.00000000
     atom    3 type  2   force =     0.00000000    0.00000000    0.00000000
     atom    4 type  2   force =     0.00000000    0.00000000    0.00000000
     atom    5 type  2   force =     0.00000000    0.00000000    0.00000000
     atom    6 type  2   force =     0.00000000    0.00000000    0.00000000
     The SCF correction term to forces
     atom    1 type  1   force =     0.00000000    0.00000000   -0.00000000
     atom    2 type  1   force =     0.00000000    0.00000000   -0.00000000
     atom    3 type  2   force =    -0.00002557   -0.00002557   -0.00000000
     atom    4 type  2   force =     0.00002557    0.00002557    0.00000000
     atom    5 type  2   force =    -0.00002557    0.00002557   -0.00000000
     atom    6 type  2   force =     0.00002557   -0.00002557    0.00000000

     Total force =     0.007029     Total SCF correction =     0.000072


     Computing stress (Cartesian axis) and pressure

          total   stress  (Ry/bohr**3)                   (kbar)     P=        1.40
  -0.00000922   0.00000000   0.00000000           -1.36        0.00        0.00
   0.00000000  -0.00000922   0.00000000            0.00       -1.36        0.00
   0.00000000   0.00000000   0.00004690            0.00        0.00        6.90

     kinetic stress (kbar)   7306.32      0.00      0.00
                                0.00   7306.32      0.00
                                0.00      0.00   7292.80

     local   stress (kbar)  -1431.77      0.00      0.00
                                0.00  -1431.77     -0.00
                                0.00     -0.00  -5865.63

     nonloc. stress (kbar)    112.17      0.00      0.00
                                0.00    112.17      0.00
                                0.00      0.00    115.89

     hartree stress (kbar)   2820.91     -0.00      0.00
                               -0.00   2820.91      0.00
                                0.00      0.00   4718.31

     exc-cor stress (kbar)   6153.52     -0.00     -0.00
                               -0.00   6153.52      0.00
                               -0.00      0.00   6154.78

     corecor stress (kbar)  -8286.19     -0.00      0.00
                               -0.00  -8286.19      0.00
                                0.00      0.00  -8285.54

     ewald   stress (kbar)  -6676.31     -0.00      0.00
                               -0.00  -6676.31      0.00
                                0.00      0.00  -4123.72

     hubbard stress (kbar)      0.00      0.00      0.00
                                0.00      0.00      0.00
                                0.00      0.00      0.00

     DFT-D   stress (kbar)      0.00      0.00      0.00
                                0.00      0.00      0.00
                                0.00      0.00      0.00

     XDM     stress (kbar)      0.00      0.00      0.00
                                0.00      0.00      0.00
                                0.00      0.00      0.00

     dft-nl  stress (kbar)      0.00      0.00      0.00
                                0.00      0.00      0.00
                                0.00      0.00      0.00

     TS-vdW  stress (kbar)      0.00      0.00      0.00
                                0.00      0.00      0.00
                                0.00      0.00      0.00


     Energy error            =      2.8E-04
     Gradient error          =      2.5E-03
     Cell gradient error     =      4.7E-05


     number of scf cycles    =   3
     number of bfgs steps    =   2

     enthalpy old            =   -2399.9599198797 Ry
     enthalpy new            =   -2399.9601972559 Ry

     CASE: enthalpy_new < enthalpy_old

     new trust radius        =       0.0235274450 bohr
     new conv_thr            =       0.0000000277 Ry

     new unit-cell volume =   1848.69545 a.u.^3 (   273.94840 Ang^3 )
     density =      4.51582 g/cm^3

CELL_PARAMETERS (angstrom)
   7.615994032   0.000000000   0.000000000
   0.000000000   7.615994032   0.000000000
   0.000000000   0.000000000   4.722974288

ATOMIC_POSITIONS (crystal)
Sn            0.0000000000        0.0000000000        0.0000000000
Sn            0.5000000000        0.5000000000        0.5000000000
I             0.2995172822        0.2995172822       -0.0000000000
I             0.7004827178        0.7004827178       -0.0000000000
I             0.7995172822        0.2004827178        0.5000000000
I             0.2004827178        0.7995172822        0.5000000000



     Writing output data file ./out/SnI2tetr.save/
     NEW-OLD atomic charge density approx. for the potential

     Check: negative core charge=   -0.000002
     extrapolated charge   56.03743, renormalised to   56.00000

     total cpu time spent up to now is      247.2 secs

     Self-consistent Calculation

     iteration #  1     ecut=    50.00 Ry     beta= 0.50
     Davidson diagonalization with overlap
     ethr =  1.00E-06,  avg # of iterations =  5.3

     total cpu time spent up to now is      249.8 secs

     total energy              =   -2399.96046573 Ry
     estimated scf accuracy    <       0.00010757 Ry

     iteration #  2     ecut=    50.00 Ry     beta= 0.50
     Davidson diagonalization with overlap
     ethr =  1.92E-07,  avg # of iterations =  4.0

     total cpu time spent up to now is      252.2 secs

     total energy              =   -2399.96057207 Ry
     estimated scf accuracy    <       0.00005606 Ry

     iteration #  3     ecut=    50.00 Ry     beta= 0.50
     Davidson diagonalization with overlap
     ethr =  1.00E-07,  avg # of iterations =  2.0

     total cpu time spent up to now is      253.9 secs

     total energy              =   -2399.96057812 Ry
     estimated scf accuracy    <       0.00001401 Ry

     iteration #  4     ecut=    50.00 Ry     beta= 0.50
     Davidson diagonalization with overlap
     ethr =  2.50E-08,  avg # of iterations =  3.5

     total cpu time spent up to now is      256.0 secs

     total energy              =   -2399.96058348 Ry
     estimated scf accuracy    <       0.00000295 Ry

     iteration #  5     ecut=    50.00 Ry     beta= 0.50
     Davidson diagonalization with overlap
     ethr =  5.26E-09,  avg # of iterations =  2.2

     total cpu time spent up to now is      257.6 secs

     total energy              =   -2399.96058703 Ry
     estimated scf accuracy    <       0.00000262 Ry

     iteration #  6     ecut=    50.00 Ry     beta= 0.50
     Davidson diagonalization with overlap
     ethr =  4.67E-09,  avg # of iterations =  2.2

     total cpu time spent up to now is      259.3 secs

     total energy              =   -2399.96058692 Ry
     estimated scf accuracy    <       0.00000230 Ry

     iteration #  7     ecut=    50.00 Ry     beta= 0.50
     Davidson diagonalization with overlap
     ethr =  4.11E-09,  avg # of iterations =  2.2

     total cpu time spent up to now is      279.6 secs

     total energy              =   -2399.96058794 Ry
     estimated scf accuracy    <       0.00000063 Ry

     iteration #  8     ecut=    50.00 Ry     beta= 0.50
     Davidson diagonalization with overlap
     ethr =  1.13E-09,  avg # of iterations =  5.0

     total cpu time spent up to now is      306.2 secs

     total energy              =   -2399.96058827 Ry
     estimated scf accuracy    <       0.00000024 Ry

     iteration #  9     ecut=    50.00 Ry     beta= 0.50
     Davidson diagonalization with overlap
     ethr =  4.20E-10,  avg # of iterations =  2.0

     total cpu time spent up to now is      307.9 secs

     total energy              =   -2399.96058826 Ry
     estimated scf accuracy    <       0.00000005 Ry

     iteration # 10     ecut=    50.00 Ry     beta= 0.50
     Davidson diagonalization with overlap
     ethr =  8.16E-11,  avg # of iterations =  4.3

     total cpu time spent up to now is      310.1 secs

     End of self-consistent calculation

          k = 0.0000 0.0000 0.0000 ( 10951 PWs)   bands (ev):

   -18.4017 -18.3988 -18.3923 -18.3920 -18.3802 -18.3802 -18.3766 -18.3765
   -18.3765 -18.3765  -9.3310  -8.8150  -8.8150  -8.7041  -4.1380  -2.3016
    -0.0924  -0.0924   0.3878   0.7517   1.2290   1.3102   1.5845   1.5845
     2.0144   2.0144   2.3834   2.8150

     occupation numbers 
     1.0000   1.0000   1.0000   1.0000   1.0000   1.0000   1.0000   1.0000
     1.0000   1.0000   1.0000   1.0000   1.0000   1.0000   1.0000   1.0000
     1.0000   1.0000   1.0000   1.0000   1.0000   1.0000   1.0000   1.0000
     1.0000   1.0000   1.0000   1.0000

          k = 0.0000 0.0000-0.8078 ( 11044 PWs)   bands (ev):

   -18.3990 -18.3990 -18.3921 -18.3921 -18.3811 -18.3811 -18.3809 -18.3809
   -18.3724 -18.3724  -8.8745  -8.8745  -8.6960  -8.6960  -3.7082  -3.7082
    -0.0508  -0.0508  -0.0200  -0.0200   0.5334   0.5334   1.5700   1.5700
     1.6206   1.6206   2.3767   2.3767

     occupation numbers 
     1.0000   1.0000   1.0000   1.0000   1.0000   1.0000   1.0000   1.0000
     1.0000   1.0000   1.0000   1.0000   1.0000   1.0000   1.0000   1.0000
     1.0000   1.0000   1.0000   1.0000   1.0000   1.0000   1.0000   1.0000
     1.0000   1.0000   1.0000   1.0000

          k = 0.0000-0.5010 0.0000 ( 11016 PWs)   bands (ev):

   -18.4003 -18.4003 -18.3922 -18.3922 -18.3802 -18.3802 -18.3766 -18.3766
   -18.3765 -18.3765  -9.1183  -9.1183  -8.7309  -8.7309  -3.3977  -3.3977
     0.3703   0.3703   0.7330   0.7330   1.0862   1.0862   1.6728   1.6728
     1.8418   1.8418   2.1745   2.1745

     occupation numbers 
     1.0000   1.0000   1.0000   1.0000   1.0000   1.0000   1.0000   1.0000
     1.0000   1.0000   1.0000   1.0000   1.0000   1.0000   1.0000   1.0000
     1.0000   1.0000   1.0000   1.0000   1.0000   1.0000   1.0000   1.0000
     1.0000   1.0000   1.0000   1.0000

          k = 0.0000-0.5010-0.8078 ( 11032 PWs)   bands (ev):

   -18.3991 -18.3991 -18.3921 -18.3921 -18.3811 -18.3811 -18.3808 -18.3808
   -18.3723 -18.3723  -8.8532  -8.8532  -8.7179  -8.7179  -3.6892  -3.6892
    -0.6490  -0.6490   0.0198   0.0198   1.1817   1.1817   1.6990   1.6990
     1.8143   1.8143   2.6239   2.6239

     occupation numbers 
     1.0000   1.0000   1.0000   1.0000   1.0000   1.0000   1.0000   1.0000
     1.0000   1.0000   1.0000   1.0000   1.0000   1.0000   1.0000   1.0000
     1.0000   1.0000   1.0000   1.0000   1.0000   1.0000   1.0000   1.0000
     1.0000   1.0000   1.0000   1.0000

          k =-0.5010-0.5010 0.0000 ( 10988 PWs)   bands (ev):

   -18.4003 -18.4003 -18.3921 -18.3921 -18.3802 -18.3802 -18.3766 -18.3766
   -18.3765 -18.3765  -9.0368  -9.0368  -8.8281  -8.8281  -3.3081  -3.3081
     0.0845   0.0845   0.8004   0.8004   1.3534   1.3534   1.5593   1.5593
     1.7010   1.7010   2.1599   2.1599

     occupation numbers 
     1.0000   1.0000   1.0000   1.0000   1.0000   1.0000   1.0000   1.0000
     1.0000   1.0000   1.0000   1.0000   1.0000   1.0000   1.0000   1.0000
     1.0000   1.0000   1.0000   1.0000   1.0000   1.0000   1.0000   1.0000
     1.0000   1.0000   1.0000   1.0000

          k =-0.5010-0.5010-0.8078 ( 11048 PWs)   bands (ev):

   -18.3991 -18.3991 -18.3920 -18.3920 -18.3811 -18.3811 -18.3809 -18.3809
   -18.3724 -18.3724  -8.8600  -8.8600  -8.7068  -8.7068  -3.7716  -3.7716
    -0.2380  -0.2380   0.2611   0.2611   0.5617   0.5617   1.8218   1.8218
     1.8460   1.8460   2.0389   2.0389

     occupation numbers 
     1.0000   1.0000   1.0000   1.0000   1.0000   1.0000   1.0000   1.0000
     1.0000   1.0000   1.0000   1.0000   1.0000   1.0000   1.0000   1.0000
     1.0000   1.0000   1.0000   1.0000   1.0000   1.0000   1.0000   1.0000
     1.0000   1.0000   1.0000   1.0000

     highest occupied level (ev):     2.8150

!    total energy              =   -2399.96058827 Ry

     total all-electron energy =    -81641.205936 Ry
     estimated scf accuracy    <       0.00000002 Ry

     The total energy is the sum of the following terms:
     one-electron contribution =    -203.79373059 Ry
     hartree contribution      =     130.10911467 Ry
     xc contribution           =    -159.02845328 Ry
     ewald contribution        =    -219.46239353 Ry
     one-center paw contrib.   =   -1947.78512554 Ry
      -> PAW hartree energy AE =     108.09818772 Ry
      -> PAW hartree energy PS =    -107.33025569 Ry
      -> PAW xc energy AE      =    -328.93293056 Ry
      -> PAW xc energy PS      =      47.23358914 Ry
      -> total E_H with PAW    =     130.87704671 Ry
      -> total E_XC with PAW   =    -440.72779471 Ry

     convergence has been achieved in  10 iterations

     Forces acting on atoms (cartesian axes, Ry/au):

     atom    1 type  1   force =     0.00000000    0.00000000    0.00000000
     atom    2 type  1   force =     0.00000000    0.00000000   -0.00000000
     atom    3 type  2   force =     0.00217110    0.00217110   -0.00000000
     atom    4 type  2   force =    -0.00217110   -0.00217110    0.00000000
     atom    5 type  2   force =     0.00217110   -0.00217110    0.00000000
     atom    6 type  2   force =    -0.00217110    0.00217110   -0.00000000
     The non-local contrib.  to forces
     atom    1 type  1   force =     0.00000000    0.00000000    0.00000000
     atom    2 type  1   force =     0.00000000    0.00000000    0.00000000
     atom    3 type  2   force =     0.01527686    0.01527686    0.00000000
     atom    4 type  2   force =    -0.01527686   -0.01527686   -0.00000000
     atom    5 type  2   force =     0.01527686   -0.01527686    0.00000000
     atom    6 type  2   force =    -0.01527686    0.01527686   -0.00000000
     The ionic contribution  to forces
     atom    1 type  1   force =    -0.00000000   -0.00000000    0.00000000
     atom    2 type  1   force =    -0.00000000   -0.00000000    0.00000000
     atom    3 type  2   force =    -0.91298422   -0.91298422    0.00000000
     atom    4 type  2   force =     0.91298422    0.91298422    0.00000000
     atom    5 type  2   force =    -0.91298422    0.91298422    0.00000000
     atom    6 type  2   force =     0.91298422   -0.91298422    0.00000000
     The local contribution  to forces
     atom    1 type  1   force =     0.00000000   -0.00000000    0.00000000
     atom    2 type  1   force =    -0.00000000   -0.00000000    0.00000000
     atom    3 type  2   force =     0.90187918    0.90187918    0.00000000
     atom    4 type  2   force =    -0.90187918   -0.90187918    0.00000000
     atom    5 type  2   force =     0.90187918   -0.90187918    0.00000000
     atom    6 type  2   force =    -0.90187918    0.90187918    0.00000000
     The core correction contribution to forces
     atom    1 type  1   force =     0.00000000    0.00000000    0.00000000
     atom    2 type  1   force =     0.00000000    0.00000000   -0.00000000
     atom    3 type  2   force =    -0.00196656   -0.00196656    0.00000000
     atom    4 type  2   force =     0.00196656    0.00196656    0.00000000
     atom    5 type  2   force =    -0.00196656    0.00196656    0.00000000
     atom    6 type  2   force =     0.00196656   -0.00196656   -0.00000000
     The Hubbard contrib.    to forces
     atom    1 type  1   force =     0.00000000    0.00000000    0.00000000
     atom    2 type  1   force =     0.00000000    0.00000000    0.00000000
     atom    3 type  2   force =     0.00000000    0.00000000    0.00000000
     atom    4 type  2   force =     0.00000000    0.00000000    0.00000000
     atom    5 type  2   force =     0.00000000    0.00000000    0.00000000
     atom    6 type  2   force =     0.00000000    0.00000000    0.00000000
     The SCF correction term to forces
     atom    1 type  1   force =     0.00000000    0.00000000   -0.00000000
     atom    2 type  1   force =     0.00000000    0.00000000    0.00000000
     atom    3 type  2   force =    -0.00003416   -0.00003416    0.00000000
     atom    4 type  2   force =     0.00003416    0.00003416    0.00000000
     atom    5 type  2   force =    -0.00003416    0.00003416    0.00000000
     atom    6 type  2   force =     0.00003416   -0.00003416    0.00000000

     Total force =     0.006141     Total SCF correction =     0.000097


     Computing stress (Cartesian axis) and pressure

          total   stress  (Ry/bohr**3)                   (kbar)     P=        1.25
  -0.00000898   0.00000000   0.00000000           -1.32        0.00        0.00
   0.00000000  -0.00000898   0.00000000            0.00       -1.32        0.00
   0.00000000   0.00000000   0.00004337            0.00        0.00        6.38

     kinetic stress (kbar)   7301.77      0.00      0.00
                                0.00   7301.77      0.00
                                0.00      0.00   7286.87

     local   stress (kbar)  -1424.55     -0.00      0.00
                               -0.00  -1424.55      0.00
                                0.00      0.00  -5875.58

     nonloc. stress (kbar)    111.97      0.00      0.00
                                0.00    111.97      0.00
                                0.00      0.00    115.88

     hartree stress (kbar)   2817.34      0.00     -0.00
                                0.00   2817.34     -0.00
                               -0.00     -0.00   4718.40

     exc-cor stress (kbar)   6149.40      0.00     -0.00
                                0.00   6149.40      0.00
                               -0.00      0.00   6150.73

     corecor stress (kbar)  -8280.65      0.00     -0.00
                                0.00  -8280.65      0.00
                                0.00      0.00  -8279.97

     ewald   stress (kbar)  -6676.60     -0.00     -0.00
                               -0.00  -6676.60      0.00
                               -0.00      0.00  -4109.95

     hubbard stress (kbar)      0.00      0.00      0.00
                                0.00      0.00      0.00
                                0.00      0.00      0.00

     DFT-D   stress (kbar)      0.00      0.00      0.00
                                0.00      0.00      0.00
                                0.00      0.00      0.00

     XDM     stress (kbar)      0.00      0.00      0.00
                                0.00      0.00      0.00
                                0.00      0.00      0.00

     dft-nl  stress (kbar)      0.00      0.00      0.00
                                0.00      0.00      0.00
                                0.00      0.00      0.00

     TS-vdW  stress (kbar)      0.00      0.00      0.00
                                0.00      0.00      0.00
                                0.00      0.00      0.00


     Energy error            =      3.9E-04
     Gradient error          =      2.2E-03
     Cell gradient error     =      4.3E-05


     number of scf cycles    =   4
     number of bfgs steps    =   3

     enthalpy old            =   -2399.9601972559 Ry
     enthalpy new            =   -2399.9605882714 Ry

     CASE: enthalpy_new < enthalpy_old

     new trust radius        =       0.0352066118 bohr
     new conv_thr            =       0.0000000391 Ry

     new unit-cell volume =   1850.48879 a.u.^3 (   274.21415 Ang^3 )
     density =      4.51144 g/cm^3

CELL_PARAMETERS (angstrom)
   7.604136859   0.000000000   0.000000000
   0.000000000   7.604136859   0.000000000
   0.000000000   0.000000000   4.742310755

ATOMIC_POSITIONS (crystal)
Sn            0.0000000000        0.0000000000        0.0000000000
Sn            0.5000000000        0.5000000000        0.5000000000
I             0.3002254879        0.3002254879       -0.0000000000
I             0.6997745121        0.6997745121        0.0000000000
I             0.8002254879        0.1997745121        0.5000000000
I             0.1997745121        0.8002254879        0.5000000000



     Writing output data file ./out/SnI2tetr.save/
     NEW-OLD atomic charge density approx. for the potential

     Check: negative core charge=   -0.000002
     extrapolated charge   56.05427, renormalised to   56.00000

     total cpu time spent up to now is      316.1 secs

     Self-consistent Calculation

     iteration #  1     ecut=    50.00 Ry     beta= 0.50
     Davidson diagonalization with overlap
     ethr =  1.00E-06,  avg # of iterations =  6.0

     total cpu time spent up to now is      319.0 secs

     total energy              =   -2399.96084833 Ry
     estimated scf accuracy    <       0.00023137 Ry

     iteration #  2     ecut=    50.00 Ry     beta= 0.50
     Davidson diagonalization with overlap
     ethr =  4.13E-07,  avg # of iterations =  4.0

     total cpu time spent up to now is      321.4 secs

     total energy              =   -2399.96106822 Ry
     estimated scf accuracy    <       0.00012255 Ry

     iteration #  3     ecut=    50.00 Ry     beta= 0.50
     Davidson diagonalization with overlap
     ethr =  2.19E-07,  avg # of iterations =  2.0

     total cpu time spent up to now is      347.9 secs

     total energy              =   -2399.96108098 Ry
     estimated scf accuracy    <       0.00003034 Ry

     iteration #  4     ecut=    50.00 Ry     beta= 0.50
     Davidson diagonalization with overlap
     ethr =  5.42E-08,  avg # of iterations =  4.2

     total cpu time spent up to now is      381.5 secs

     total energy              =   -2399.96109263 Ry
     estimated scf accuracy    <       0.00000601 Ry

     iteration #  5     ecut=    50.00 Ry     beta= 0.50
     Davidson diagonalization with overlap
     ethr =  1.07E-08,  avg # of iterations =  1.3

     total cpu time spent up to now is      405.4 secs

     total energy              =   -2399.96109991 Ry
     estimated scf accuracy    <       0.00000550 Ry

     iteration #  6     ecut=    50.00 Ry     beta= 0.50
     Davidson diagonalization with overlap
     ethr =  9.83E-09,  avg # of iterations =  2.0

     total cpu time spent up to now is      428.5 secs

     total energy              =   -2399.96109949 Ry
     estimated scf accuracy    <       0.00000510 Ry

     iteration #  7     ecut=    50.00 Ry     beta= 0.50
     Davidson diagonalization with overlap
     ethr =  9.10E-09,  avg # of iterations =  3.3

     total cpu time spent up to now is      430.6 secs

     total energy              =   -2399.96110290 Ry
     estimated scf accuracy    <       0.00000207 Ry

     iteration #  8     ecut=    50.00 Ry     beta= 0.50
     Davidson diagonalization with overlap
     ethr =  3.70E-09,  avg # of iterations =  2.0

     total cpu time spent up to now is      432.2 secs

     total energy              =   -2399.96110293 Ry
     estimated scf accuracy    <       0.00000063 Ry

     iteration #  9     ecut=    50.00 Ry     beta= 0.50
     Davidson diagonalization with overlap
     ethr =  1.13E-09,  avg # of iterations =  2.8

     total cpu time spent up to now is      434.2 secs

     End of self-consistent calculation

          k = 0.0000 0.0000 0.0000 ( 10951 PWs)   bands (ev):

   -18.4089 -18.4060 -18.3999 -18.3996 -18.3869 -18.3869 -18.3837 -18.3837
   -18.3836 -18.3834  -9.3374  -8.8187  -8.8187  -8.7135  -4.1330  -2.3047
    -0.0818  -0.0818   0.3533   0.7507   1.2081   1.2750   1.5636   1.5636
     2.0091   2.0091   2.3726   2.7777

     occupation numbers 
     1.0000   1.0000   1.0000   1.0000   1.0000   1.0000   1.0000   1.0000
     1.0000   1.0000   1.0000   1.0000   1.0000   1.0000   1.0000   1.0000
     1.0000   1.0000   1.0000   1.0000   1.0000   1.0000   1.0000   1.0000
     1.0000   1.0000   1.0000   1.0000

          k = 0.0000 0.0000-0.8045 ( 11044 PWs)   bands (ev):

   -18.4063 -18.4063 -18.3997 -18.3997 -18.3881 -18.3881 -18.3878 -18.3878
   -18.3793 -18.3793  -8.8852  -8.8852  -8.7026  -8.7026  -3.7198  -3.7198
    -0.0556  -0.0556  -0.0212  -0.0212   0.5389   0.5389   1.5614   1.5614
     1.6100   1.6100   2.3818   2.3818

     occupation numbers 
     1.0000   1.0000   1.0000   1.0000   1.0000   1.0000   1.0000   1.0000
     1.0000   1.0000   1.0000   1.0000   1.0000   1.0000   1.0000   1.0000
     1.0000   1.0000   1.0000   1.0000   1.0000   1.0000   1.0000   1.0000
     1.0000   1.0000   1.0000   1.0000

          k = 0.0000-0.5017 0.0000 ( 11016 PWs)   bands (ev):

   -18.4075 -18.4075 -18.3998 -18.3998 -18.3869 -18.3869 -18.3837 -18.3837
   -18.3835 -18.3835  -9.1245  -9.1245  -8.7361  -8.7361  -3.3946  -3.3946
     0.3619   0.3619   0.6992   0.6992   1.0908   1.0908   1.6512   1.6512
     1.8420   1.8420   2.1615   2.1615

     occupation numbers 
     1.0000   1.0000   1.0000   1.0000   1.0000   1.0000   1.0000   1.0000
     1.0000   1.0000   1.0000   1.0000   1.0000   1.0000   1.0000   1.0000
     1.0000   1.0000   1.0000   1.0000   1.0000   1.0000   1.0000   1.0000
     1.0000   1.0000   1.0000   1.0000

          k = 0.0000-0.5017-0.8045 ( 11032 PWs)   bands (ev):

[...]
        k(    3) = (   0.0000000  -0.5074924   0.0000000), wk =   0.5000000
        k(    4) = (   0.0000000  -0.5074924  -0.7830628), wk =   0.5000000
        k(    5) = (  -0.5074924  -0.5074924   0.0000000), wk =   0.2500000
        k(    6) = (  -0.5074924  -0.5074924  -0.7830628), wk =   0.2500000

                       cryst. coord.
        k(    1) = (   0.0000000   0.0000000   0.0000000), wk =   0.2500000
        k(    2) = (   0.0000000   0.0000000  -0.5000000), wk =   0.2500000
        k(    3) = (   0.0000000  -0.5000000   0.0000000), wk =   0.5000000
        k(    4) = (   0.0000000  -0.5000000  -0.5000000), wk =   0.5000000
        k(    5) = (  -0.5000000  -0.5000000   0.0000000), wk =   0.2500000
        k(    6) = (  -0.5000000  -0.5000000  -0.5000000), wk =   0.2500000

     Dense  grid:    88757 G-vectors     FFT dimensions: (  64,  64,  48)

     Dynamical RAM for                 wfc:       0.25 MB

     Dynamical RAM for     wfc (w. buffer):       1.75 MB

     Dynamical RAM for           str. fact:       0.14 MB

     Dynamical RAM for           local pot:       0.07 MB

     Dynamical RAM for          nlocal pot:       0.96 MB

     Dynamical RAM for                qrad:       4.54 MB

     Dynamical RAM for          rho,v,vnew:       0.50 MB

     Dynamical RAM for               rhoin:       0.17 MB

     Dynamical RAM for            rho*nmix:       1.14 MB

     Dynamical RAM for           G-vectors:       0.30 MB

     Dynamical RAM for          h,s,v(r/c):       0.14 MB

     Dynamical RAM for          <psi|beta>:       0.05 MB

     Dynamical RAM for                 psi:       0.50 MB

     Dynamical RAM for                hpsi:       0.50 MB

     Dynamical RAM for                spsi:       0.50 MB

     Dynamical RAM for      wfcinit/wfcrot:       0.63 MB

     Dynamical RAM for           addusdens:      13.54 MB

     Dynamical RAM for          addusforce:      14.02 MB

     Dynamical RAM for         addusstress:      14.33 MB

     Estimated static dynamical RAM per process >      10.25 MB

     Estimated max dynamical RAM per process >      24.58 MB

     Estimated total dynamical RAM >     467.05 MB

     Check: negative core charge=   -0.000002

     Initial potential from superposition of free atoms

     starting charge   55.99693, renormalised to   56.00000
     Starting wfcs are   34 randomized atomic wfcs
     Checking if some PAW data can be deallocated... 
       PAW data deallocated on   12 nodes for type:  1
       PAW data deallocated on    7 nodes for type:  2

     total cpu time spent up to now is      856.3 secs

     Self-consistent Calculation

     iteration #  1     ecut=    50.00 Ry     beta= 0.50
     Davidson diagonalization with overlap
     ethr =  1.00E-06,  avg # of iterations =  9.0

     total cpu time spent up to now is      880.7 secs

     total energy              =   -2399.93147569 Ry
     estimated scf accuracy    <       0.12323882 Ry

     iteration #  2     ecut=    50.00 Ry     beta= 0.50
     Davidson diagonalization with overlap
     ethr =  2.20E-04,  avg # of iterations =  2.3

     total cpu time spent up to now is      882.6 secs

     total energy              =   -2399.96112242 Ry
     estimated scf accuracy    <       0.00668097 Ry

     iteration #  3     ecut=    50.00 Ry     beta= 0.50
     Davidson diagonalization with overlap
     ethr =  1.19E-05,  avg # of iterations =  2.0

     total cpu time spent up to now is      885.8 secs

     total energy              =   -2399.96205037 Ry
     estimated scf accuracy    <       0.00126656 Ry

     iteration #  4     ecut=    50.00 Ry     beta= 0.50
     Davidson diagonalization with overlap
     ethr =  2.26E-06,  avg # of iterations =  4.2

     total cpu time spent up to now is      891.0 secs

     total energy              =   -2399.96230121 Ry
     estimated scf accuracy    <       0.00027698 Ry

     iteration #  5     ecut=    50.00 Ry     beta= 0.50
     Davidson diagonalization with overlap
     ethr =  4.95E-07,  avg # of iterations =  3.5

     total cpu time spent up to now is      892.8 secs

     total energy              =   -2399.96236073 Ry
     estimated scf accuracy    <       0.00000760 Ry

     iteration #  6     ecut=    50.00 Ry     beta= 0.50
     Davidson diagonalization with overlap
     ethr =  1.36E-08,  avg # of iterations =  4.3

     total cpu time spent up to now is      894.9 secs

     total energy              =   -2399.96236265 Ry
     estimated scf accuracy    <       0.00000382 Ry

     iteration #  7     ecut=    50.00 Ry     beta= 0.50
     Davidson diagonalization with overlap
     ethr =  6.83E-09,  avg # of iterations =  3.0

     total cpu time spent up to now is      896.7 secs

     total energy              =   -2399.96236353 Ry
     estimated scf accuracy    <       0.00000003 Ry

     iteration #  8     ecut=    50.00 Ry     beta= 0.50
     Davidson diagonalization with overlap
     ethr =  5.31E-11,  avg # of iterations =  7.5

     total cpu time spent up to now is      899.3 secs

     total energy              =   -2399.96236357 Ry
     estimated scf accuracy    <       0.00000005 Ry

     iteration #  9     ecut=    50.00 Ry     beta= 0.50
     Davidson diagonalization with overlap
     ethr =  5.31E-11,  avg # of iterations =  2.3

     total cpu time spent up to now is      901.1 secs

     End of self-consistent calculation

          k = 0.0000 0.0000 0.0000 ( 11085 PWs)   bands (ev):

   -18.4459 -18.4432 -18.4390 -18.4387 -18.4229 -18.4229 -18.4205 -18.4205
   -18.4203 -18.4199  -9.3589  -8.8222  -8.8222  -8.7431  -4.1116  -2.3116
    -0.0160  -0.0160   0.1676   0.7549   1.0844   1.1114   1.4606   1.4606
     1.9975   1.9975   2.3288   2.5736

     occupation numbers 
     1.0000   1.0000   1.0000   1.0000   1.0000   1.0000   1.0000   1.0000
     1.0000   1.0000   1.0000   1.0000   1.0000   1.0000   1.0000   1.0000
     1.0000   1.0000   1.0000   1.0000   1.0000   1.0000   1.0000   1.0000
     1.0000   1.0000   1.0000   1.0000

          k = 0.0000 0.0000-0.7831 ( 11084 PWs)   bands (ev):

   -18.4440 -18.4440 -18.4388 -18.4388 -18.4265 -18.4265 -18.4212 -18.4212
   -18.4164 -18.4164  -8.9313  -8.9313  -8.7252  -8.7252  -3.7674  -3.7674
    -0.0553  -0.0553   0.0084   0.0084   0.5645   0.5645   1.5233   1.5233
     1.5663   1.5663   2.4160   2.4160

     occupation numbers 
     1.0000   1.0000   1.0000   1.0000   1.0000   1.0000   1.0000   1.0000
     1.0000   1.0000   1.0000   1.0000   1.0000   1.0000   1.0000   1.0000
     1.0000   1.0000   1.0000   1.0000   1.0000   1.0000   1.0000   1.0000
     1.0000   1.0000   1.0000   1.0000

          k = 0.0000-0.5075 0.0000 ( 11076 PWs)   bands (ev):

   -18.4445 -18.4445 -18.4388 -18.4388 -18.4229 -18.4229 -18.4205 -18.4205
   -18.4201 -18.4201  -9.1428  -9.1428  -8.7464  -8.7464  -3.3761  -3.3761
     0.3020   0.3020   0.5246   0.5246   1.1306   1.1306   1.5491   1.5491
     1.8800   1.8800   2.0905   2.0905

     occupation numbers 
     1.0000   1.0000   1.0000   1.0000   1.0000   1.0000   1.0000   1.0000
     1.0000   1.0000   1.0000   1.0000   1.0000   1.0000   1.0000   1.0000
     1.0000   1.0000   1.0000   1.0000   1.0000   1.0000   1.0000   1.0000
     1.0000   1.0000   1.0000   1.0000

          k = 0.0000-0.5075-0.7831 ( 11084 PWs)   bands (ev):

   -18.4441 -18.4441 -18.4388 -18.4388 -18.4265 -18.4265 -18.4212 -18.4212
   -18.4164 -18.4164  -8.9093  -8.9093  -8.7482  -8.7482  -3.7443  -3.7443
    -0.6670  -0.6670   0.0328   0.0328   1.1685   1.1685   1.7130   1.7130
     1.7826   1.7826   2.6805   2.6805

     occupation numbers 
     1.0000   1.0000   1.0000   1.0000   1.0000   1.0000   1.0000   1.0000
     1.0000   1.0000   1.0000   1.0000   1.0000   1.0000   1.0000   1.0000
     1.0000   1.0000   1.0000   1.0000   1.0000   1.0000   1.0000   1.0000
     1.0000   1.0000   1.0000   1.0000

          k =-0.5075-0.5075 0.0000 ( 11180 PWs)   bands (ev):

   -18.4445 -18.4445 -18.4389 -18.4389 -18.4229 -18.4229 -18.4205 -18.4205
   -18.4202 -18.4202  -9.0673  -9.0673  -8.8367  -8.8367  -3.3019  -3.3019
     0.1537   0.1537   0.5918   0.5918   1.3327   1.3327   1.4312   1.4312
     1.7061   1.7061   1.9737   1.9737

     occupation numbers 
     1.0000   1.0000   1.0000   1.0000   1.0000   1.0000   1.0000   1.0000
     1.0000   1.0000   1.0000   1.0000   1.0000   1.0000   1.0000   1.0000
     1.0000   1.0000   1.0000   1.0000   1.0000   1.0000   1.0000   1.0000
     1.0000   1.0000   1.0000   1.0000

          k =-0.5075-0.5075-0.7831 ( 11088 PWs)   bands (ev):

   -18.4440 -18.4440 -18.4388 -18.4388 -18.4265 -18.4265 -18.4212 -18.4212
   -18.4164 -18.4164  -8.9150  -8.9150  -8.7375  -8.7375  -3.8318  -3.8318
    -0.2335  -0.2335   0.2476   0.2476   0.5938   0.5938   1.7708   1.7708
     1.8218   1.8218   2.0975   2.0975

     occupation numbers 
     1.0000   1.0000   1.0000   1.0000   1.0000   1.0000   1.0000   1.0000
     1.0000   1.0000   1.0000   1.0000   1.0000   1.0000   1.0000   1.0000
     1.0000   1.0000   1.0000   1.0000   1.0000   1.0000   1.0000   1.0000
     1.0000   1.0000   1.0000   1.0000

     highest occupied level (ev):     2.6805

!    total energy              =   -2399.96236357 Ry

     total all-electron energy =    -81641.207711 Ry
     estimated scf accuracy    <          5.5E-09 Ry

     The total energy is the sum of the following terms:
     one-electron contribution =    -203.30421111 Ry
     hartree contribution      =     129.77755783 Ry
     xc contribution           =    -159.01605364 Ry
     ewald contribution        =    -219.63595728 Ry
     one-center paw contrib.   =   -1947.78369937 Ry
      -> PAW hartree energy AE =     108.05415511 Ry
      -> PAW hartree energy PS =    -107.28589858 Ry
      -> PAW xc energy AE      =    -328.92986134 Ry
      -> PAW xc energy PS      =      47.23052682 Ry
      -> total E_H with PAW    =     130.54581436 Ry
      -> total E_XC with PAW   =    -440.71538816 Ry

     convergence has been achieved in   9 iterations

     Forces acting on atoms (cartesian axes, Ry/au):

     atom    1 type  1   force =     0.00000000    0.00000000   -0.00000000
     atom    2 type  1   force =     0.00000000    0.00000000   -0.00000000
     atom    3 type  2   force =     0.00004572    0.00004572    0.00000000
     atom    4 type  2   force =    -0.00004572   -0.00004572    0.00000000
     atom    5 type  2   force =     0.00004572   -0.00004572    0.00000000
     atom    6 type  2   force =    -0.00004572    0.00004572    0.00000000
     The non-local contrib.  to forces
     atom    1 type  1   force =     0.00000000    0.00000000    0.00000000
     atom    2 type  1   force =     0.00000000    0.00000000    0.00000000
     atom    3 type  2   force =     0.01414707    0.01414707   -0.00000000
     atom    4 type  2   force =    -0.01414707   -0.01414707   -0.00000000
     atom    5 type  2   force =     0.01414707   -0.01414707    0.00000000
     atom    6 type  2   force =    -0.01414707    0.01414707    0.00000000
     The ionic contribution  to forces
     atom    1 type  1   force =     0.00000000    0.00000000   -0.00000000
     atom    2 type  1   force =     0.00000000    0.00000000   -0.00000000
     atom    3 type  2   force =    -0.84136959   -0.84136959   -0.00000000
     atom    4 type  2   force =     0.84136959    0.84136959   -0.00000000
     atom    5 type  2   force =    -0.84136959    0.84136959    0.00000000
     atom    6 type  2   force =     0.84136959   -0.84136959    0.00000000
     The local contribution  to forces
     atom    1 type  1   force =     0.00000000    0.00000000    0.00000000
     atom    2 type  1   force =    -0.00000000   -0.00000000    0.00000000
     atom    3 type  2   force =     0.82913279    0.82913279    0.00000000
     atom    4 type  2   force =    -0.82913279   -0.82913279    0.00000000
     atom    5 type  2   force =     0.82913279   -0.82913279    0.00000000
     atom    6 type  2   force =    -0.82913279    0.82913279    0.00000000
     The core correction contribution to forces
     atom    1 type  1   force =     0.00000000    0.00000000    0.00000000
     atom    2 type  1   force =    -0.00000000   -0.00000000    0.00000000
     atom    3 type  2   force =    -0.00187413   -0.00187413    0.00000000
     atom    4 type  2   force =     0.00187413    0.00187413    0.00000000
     atom    5 type  2   force =    -0.00187413    0.00187413   -0.00000000
     atom    6 type  2   force =     0.00187413   -0.00187413   -0.00000000
     The Hubbard contrib.    to forces
     atom    1 type  1   force =     0.00000000    0.00000000    0.00000000
     atom    2 type  1   force =     0.00000000    0.00000000    0.00000000
     atom    3 type  2   force =     0.00000000    0.00000000    0.00000000
     atom    4 type  2   force =     0.00000000    0.00000000    0.00000000
     atom    5 type  2   force =     0.00000000    0.00000000    0.00000000
     atom    6 type  2   force =     0.00000000    0.00000000    0.00000000
     The SCF correction term to forces
     atom    1 type  1   force =     0.00000000   -0.00000000    0.00000000
     atom    2 type  1   force =    -0.00000000    0.00000000   -0.00000000
     atom    3 type  2   force =     0.00000957    0.00000957   -0.00000000
     atom    4 type  2   force =    -0.00000957   -0.00000957   -0.00000000
     atom    5 type  2   force =     0.00000957   -0.00000957   -0.00000000
     atom    6 type  2   force =    -0.00000957    0.00000957   -0.00000000

     Total force =     0.000129     Total SCF correction =     0.000027
     SCF correction compared to forces is large: reduce conv_thr to get better values


     Computing stress (Cartesian axis) and pressure

          total   stress  (Ry/bohr**3)                   (kbar)     P=       -0.45
  -0.00000114   0.00000000   0.00000000           -0.17        0.00        0.00
   0.00000000  -0.00000114   0.00000000            0.00       -0.17        0.00
   0.00000000   0.00000000  -0.00000683            0.00        0.00       -1.00

     kinetic stress (kbar)   7266.98      0.00      0.00
                                0.00   7266.98      0.00
                                0.00      0.00   7238.28

     local   stress (kbar)  -1392.50      0.00     -0.00
                                0.00  -1392.50     -0.00
                               -0.00     -0.00  -5853.67

     nonloc. stress (kbar)    110.58      0.00      0.00
                                0.00    110.58      0.00
                                0.00      0.00    114.18

     hartree stress (kbar)   2798.84      0.00      0.00
                                0.00   2798.84      0.00
                                0.00      0.00   4674.95

     exc-cor stress (kbar)   6117.27      0.00     -0.00
                                0.00   6117.27      0.00
                               -0.00      0.00   6119.07

     corecor stress (kbar)  -8237.34     -0.00      0.00
                               -0.00  -8237.34     -0.00
                                0.00     -0.00  -8236.36

     ewald   stress (kbar)  -6664.00     -0.00     -0.00
                               -0.00  -6664.00      0.00
                               -0.00      0.00  -4057.46

     hubbard stress (kbar)      0.00      0.00      0.00
                                0.00      0.00      0.00
                                0.00      0.00      0.00

     DFT-D   stress (kbar)      0.00      0.00      0.00
                                0.00      0.00      0.00
                                0.00      0.00      0.00

     XDM     stress (kbar)      0.00      0.00      0.00
                                0.00      0.00      0.00
                                0.00      0.00      0.00

     dft-nl  stress (kbar)      0.00      0.00      0.00
                                0.00      0.00      0.00
                                0.00      0.00      0.00

     TS-vdW  stress (kbar)      0.00      0.00      0.00
                                0.00      0.00      0.00
                                0.00      0.00      0.00



     Writing output data file ./out/SnI2tetr.save/

     init_run     :      4.29s CPU      4.43s WALL (       2 calls)
     electrons    :    610.60s CPU    823.34s WALL (      13 calls)
     update_pot   :     17.63s CPU     17.69s WALL (      11 calls)
     forces       :     16.21s CPU     17.69s WALL (      13 calls)
     stress       :     36.43s CPU     36.47s WALL (      13 calls)

     Called by init_run:
     wfcinit      :      1.04s CPU      1.08s WALL (       2 calls)
     wfcinit:atom :      0.01s CPU      0.01s WALL (      12 calls)
     wfcinit:wfcr :      1.00s CPU      1.02s WALL (      12 calls)
     potinit      :      1.12s CPU      1.16s WALL (       2 calls)
     hinit0       :      1.74s CPU      1.75s WALL (       2 calls)

     Called by electrons:
     c_bands      :    460.56s CPU    623.29s WALL (     118 calls)
     sum_band     :     84.39s CPU    115.64s WALL (     118 calls)
     v_of_rho     :     13.97s CPU     19.99s WALL (     125 calls)
     v_h          :      2.47s CPU      3.66s WALL (     125 calls)
     v_xc         :     12.56s CPU     17.61s WALL (     151 calls)
     newd         :     13.96s CPU     15.45s WALL (     125 calls)
     PAW_pot      :     27.98s CPU     31.44s WALL (     136 calls)
     mix_rho      :     11.05s CPU     16.27s WALL (     118 calls)

     Called by c_bands:
     init_us_2    :      1.19s CPU      1.31s WALL (    1650 calls)
     cegterg      :    451.09s CPU    608.91s WALL (     708 calls)

     Called by sum_band:
     sum_band:wei :      0.00s CPU      0.00s WALL (     118 calls)
     sum_band:loo :     67.44s CPU     94.76s WALL (     118 calls)
     sum_band:buf :      0.07s CPU      0.08s WALL (     708 calls)
     sum_band:ini :      0.52s CPU      0.54s WALL (     708 calls)
     sum_band:cal :     11.65s CPU     15.19s WALL (     774 calls)
     sum_band:bec :      0.11s CPU      0.11s WALL (     774 calls)
     addusdens    :      7.57s CPU      8.33s WALL (     118 calls)
     addusd:skk   :      0.03s CPU      0.03s WALL (     236 calls)
     addusd:dgemm :      1.94s CPU      2.17s WALL (     236 calls)
     addusd:qvan2 :      4.72s CPU      5.21s WALL (     236 calls)

     Called by *egterg:
     cdiaghg      :      4.97s CPU      4.99s WALL (    2901 calls)
     cegterg:over :     40.39s CPU     57.05s WALL (    2295 calls)
     cegterg:upda :      4.11s CPU      4.21s WALL (    2295 calls)
     cegterg:last :     10.40s CPU     10.61s WALL (    1745 calls)
     h_psi        :    348.35s CPU    473.04s WALL (    3015 calls)
     s_psi        :     11.58s CPU     11.92s WALL (    3015 calls)
     g_psi        :      0.23s CPU      0.23s WALL (    2295 calls)

     Called by h_psi:
     h_psi:calbec :     35.05s CPU     46.61s WALL (    3015 calls)
     vloc_psi     :    301.42s CPU    414.51s WALL (    3015 calls)
     add_vuspsi   :     11.65s CPU     11.69s WALL (    3015 calls)

     General routines
     calbec       :     50.94s CPU     66.75s WALL (    4179 calls)
     fft          :     15.41s CPU     21.80s WALL (    1717 calls)
     ffts         :      1.20s CPU      1.93s WALL (     118 calls)
     fftw         :    352.03s CPU    488.79s WALL (  137676 calls)

     Parallel routines
     fft_scatt_xy :      6.11s CPU      6.21s WALL (  139511 calls)
     fft_scatt_yz :    304.08s CPU    446.98s WALL (  139511 calls)

     PAW routines
     PAW_pot      :     27.98s CPU     31.44s WALL (     136 calls)
     PAW_symme    :      1.20s CPU      1.78s WALL (     254 calls)

     PWSCF        :  11m30.21s CPU  15m 5.44s WALL


   This run was terminated on:  14: 8:58  14Jan2021            

=------------------------------------------------------------------------------=
   JOB DONE.
=------------------------------------------------------------------------------=
