
     Program PWSCF v.6.4.1 starts on 23Jan2021 at 12:19:28 

     This program is part of the open-source Quantum ESPRESSO suite
     for quantum simulation of materials; please cite
         "P. Giannozzi et al., J. Phys.:Condens. Matter 21 395502 (2009);
         "P. Giannozzi et al., J. Phys.:Condens. Matter 29 465901 (2017);
          URL http://www.quantum-espresso.org", 
     in publications or presentations arising from this work. More details at
     http://www.quantum-espresso.org/quote

     Parallel version (MPI & OpenMP), running on      48 processor cores
     Number of MPI processes:                24
     Threads/MPI process:                     2

     MPI processes distributed on     1 nodes
     R & G space division:  proc/nbgrp/npool/nimage =      24
     Waiting for input...
     Reading input from standard input

     Current dimensions of program PWSCF are:
     Max number of different atomic species (ntypx) = 10
     Max number of k-points (npk) =  40000
     Max angular momentum in pseudopotentials (lmaxx) =  3
               file Cs.rel-pbesol-spn-kjpaw_psl.1.0.0.UPF: wavefunction(s)  5S 6S renormalized
               file I.rel-pbesol-n-kjpaw_psl.1.0.0.UPF: wavefunction(s)  5S renormalized

     Subspace diagonalization in iterative solution of the eigenvalue problem:
     one sub-group per band group will be used
     scalapack distributed-memory algorithm (size of sub-group:  3*  3 procs)

     Found symmetry operation: I + (  0.0000 -0.5000 -0.5000)
     This is a supercell, fractional translations are disabled
 
     Parallelization info
     --------------------
     sticks:   dense  smooth     PW     G-vecs:    dense   smooth      PW
     Min          92      61     18                 3288     1789     281
     Max          93      62     19                 3295     1794     282
     Sum        2225    1481    437                78997    43003    6763
 

     Title: 
     CsIsalt                                                                    


     bravais-lattice index     =            1
     lattice parameter (alat)  =       8.8160  a.u.
     unit-cell volume          =     685.1896 (a.u.)^3
     number of atoms/cell      =            8
     number of atomic types    =            2
     number of electrons       =        64.00
     number of Kohn-Sham states=           64
     kinetic-energy cutoff     =      60.0000  Ry
     charge density cutoff     =     360.0000  Ry
     convergence threshold     =      1.0E-06
     mixing beta               =       0.5000
     number of iterations used =            8  plain     mixing
     Exchange-correlation      = SLA PW PSX PSC ( 1  4 10  8 0 0)
     Non magnetic calculation with spin-orbit


     celldm(1)=   8.815973  celldm(2)=   0.000000  celldm(3)=   0.000000
     celldm(4)=   0.000000  celldm(5)=   0.000000  celldm(6)=   0.000000

     crystal axes: (cart. coord. in units of alat)
               a(1) = (   1.000000   0.000000   0.000000 )  
               a(2) = (   0.000000   1.000000   0.000000 )  
               a(3) = (   0.000000   0.000000   1.000000 )  

     reciprocal axes: (cart. coord. in units 2 pi/alat)
               b(1) = (  1.000000  0.000000  0.000000 )  
               b(2) = (  0.000000  1.000000  0.000000 )  
               b(3) = (  0.000000  0.000000  1.000000 )  


     PseudoPot. # 1 for Cs read from file:
     /marconi_scratch/userexternal/cmalosso/degironcoli/pseudo/Cs.rel-pbesol-spn-kjpaw_psl.1.0.0.UPF
     MD5 check sum: 2adfb289dd462649b099d7edbec69378
     Pseudo is Projector augmented-wave + core cor, Zval =  9.0
     Generated using "atomic" code by A. Dal Corso v.6.4.1
     Shape of augmentation charge: PSQ
     Using radial grid of 1251 points, 15 beta functions with: 
                l(1) =   0
                l(2) =   0
                l(3) =   0
                l(4) =   1
                l(5) =   1
                l(6) =   1
                l(7) =   1
                l(8) =   2
                l(9) =   2
               l(10) =   2
               l(11) =   2
               l(12) =   3
               l(13) =   3
               l(14) =   3
               l(15) =   3
     Q(r) pseudized with 0 coefficients 


     PseudoPot. # 2 for I  read from file:
     /marconi_scratch/userexternal/cmalosso/degironcoli/pseudo/I.rel-pbesol-n-kjpaw_psl.1.0.0.UPF
     MD5 check sum: 4478c427bd443f303eca1937a163b991
     Pseudo is Projector augmented-wave + core cor, Zval =  7.0
     Generated using "atomic" code by A. Dal Corso v.6.3
     Shape of augmentation charge: PSQ
     Using radial grid of 1247 points, 10 beta functions with: 
                l(1) =   0
                l(2) =   0
                l(3) =   1
                l(4) =   1
                l(5) =   1
                l(6) =   1
                l(7) =   2
                l(8) =   2
                l(9) =   2
               l(10) =   2
     Q(r) pseudized with 0 coefficients 


     atomic species   valence    mass     pseudopotential
        Cs             9.00   132.90000     Cs( 1.00)
        I              7.00   126.90000     I ( 1.00)

     48 Sym. Ops., with inversion, found


                                    s                        frac. trans.

      isym =  1     identity                                     

 cryst.   s( 1) = (     1          0          0      )
                  (     0          1          0      )
                  (     0          0          1      )

 cart.    s( 1) = (  1.0000000  0.0000000  0.0000000 )
                  (  0.0000000  1.0000000  0.0000000 )
                  (  0.0000000  0.0000000  1.0000000 )


      isym =  2     180 deg rotation - cart. axis [0,0,1]        

 cryst.   s( 2) = (    -1          0          0      )
                  (     0         -1          0      )
                  (     0          0          1      )

 cart.    s( 2) = ( -1.0000000  0.0000000  0.0000000 )
                  (  0.0000000 -1.0000000  0.0000000 )
                  (  0.0000000  0.0000000  1.0000000 )


      isym =  3     180 deg rotation - cart. axis [0,1,0]        

 cryst.   s( 3) = (    -1          0          0      )
                  (     0          1          0      )
                  (     0          0         -1      )

 cart.    s( 3) = ( -1.0000000  0.0000000  0.0000000 )
                  (  0.0000000  1.0000000  0.0000000 )
                  (  0.0000000  0.0000000 -1.0000000 )


      isym =  4     180 deg rotation - cart. axis [1,0,0]        

 cryst.   s( 4) = (     1          0          0      )
                  (     0         -1          0      )
                  (     0          0         -1      )

 cart.    s( 4) = (  1.0000000  0.0000000  0.0000000 )
                  (  0.0000000 -1.0000000  0.0000000 )
                  (  0.0000000  0.0000000 -1.0000000 )


      isym =  5     180 deg rotation - cart. axis [1,1,0]        

 cryst.   s( 5) = (     0          1          0      )
                  (     1          0          0      )
                  (     0          0         -1      )

 cart.    s( 5) = (  0.0000000  1.0000000  0.0000000 )
                  (  1.0000000  0.0000000  0.0000000 )
                  (  0.0000000  0.0000000 -1.0000000 )


      isym =  6     180 deg rotation - cart. axis [1,-1,0]       

 cryst.   s( 6) = (     0         -1          0      )
                  (    -1          0          0      )
                  (     0          0         -1      )

 cart.    s( 6) = (  0.0000000 -1.0000000  0.0000000 )
                  ( -1.0000000  0.0000000  0.0000000 )
                  (  0.0000000  0.0000000 -1.0000000 )


      isym =  7      90 deg rotation - cart. axis [0,0,-1]       

 cryst.   s( 7) = (     0         -1          0      )
                  (     1          0          0      )
                  (     0          0          1      )

 cart.    s( 7) = (  0.0000000  1.0000000  0.0000000 )
                  ( -1.0000000  0.0000000  0.0000000 )
                  (  0.0000000  0.0000000  1.0000000 )


      isym =  8      90 deg rotation - cart. axis [0,0,1]        

 cryst.   s( 8) = (     0          1          0      )
                  (    -1          0          0      )
                  (     0          0          1      )

 cart.    s( 8) = (  0.0000000 -1.0000000  0.0000000 )
                  (  1.0000000  0.0000000  0.0000000 )
                  (  0.0000000  0.0000000  1.0000000 )


      isym =  9     180 deg rotation - cart. axis [1,0,1]        

 cryst.   s( 9) = (     0          0          1      )
                  (     0         -1          0      )
                  (     1          0          0      )

 cart.    s( 9) = (  0.0000000  0.0000000  1.0000000 )
                  (  0.0000000 -1.0000000  0.0000000 )
                  (  1.0000000  0.0000000  0.0000000 )


      isym = 10     180 deg rotation - cart. axis [-1,0,1]       

 cryst.   s(10) = (     0          0         -1      )
                  (     0         -1          0      )
                  (    -1          0          0      )

 cart.    s(10) = (  0.0000000  0.0000000 -1.0000000 )
                  (  0.0000000 -1.0000000  0.0000000 )
                  ( -1.0000000  0.0000000  0.0000000 )


      isym = 11      90 deg rotation - cart. axis [0,1,0]        

 cryst.   s(11) = (     0          0         -1      )
                  (     0          1          0      )
                  (     1          0          0      )

 cart.    s(11) = (  0.0000000  0.0000000  1.0000000 )
                  (  0.0000000  1.0000000  0.0000000 )
                  ( -1.0000000  0.0000000  0.0000000 )


      isym = 12      90 deg rotation - cart. axis [0,-1,0]       

 cryst.   s(12) = (     0          0          1      )
                  (     0          1          0      )
                  (    -1          0          0      )

 cart.    s(12) = (  0.0000000  0.0000000 -1.0000000 )
                  (  0.0000000  1.0000000  0.0000000 )
                  (  1.0000000  0.0000000  0.0000000 )


      isym = 13     180 deg rotation - cart. axis [0,1,1]        

 cryst.   s(13) = (    -1          0          0      )
                  (     0          0          1      )
                  (     0          1          0      )

 cart.    s(13) = ( -1.0000000  0.0000000  0.0000000 )
                  (  0.0000000  0.0000000  1.0000000 )
                  (  0.0000000  1.0000000  0.0000000 )


      isym = 14     180 deg rotation - cart. axis [0,1,-1]       

 cryst.   s(14) = (    -1          0          0      )
                  (     0          0         -1      )
                  (     0         -1          0      )

 cart.    s(14) = ( -1.0000000  0.0000000  0.0000000 )
                  (  0.0000000  0.0000000 -1.0000000 )
                  (  0.0000000 -1.0000000  0.0000000 )


      isym = 15      90 deg rotation - cart. axis [-1,0,0]       

 cryst.   s(15) = (     1          0          0      )
                  (     0          0         -1      )
                  (     0          1          0      )

 cart.    s(15) = (  1.0000000  0.0000000  0.0000000 )
                  (  0.0000000  0.0000000  1.0000000 )
                  (  0.0000000 -1.0000000  0.0000000 )


      isym = 16      90 deg rotation - cart. axis [1,0,0]        

 cryst.   s(16) = (     1          0          0      )
                  (     0          0          1      )
                  (     0         -1          0      )

 cart.    s(16) = (  1.0000000  0.0000000  0.0000000 )
                  (  0.0000000  0.0000000 -1.0000000 )
                  (  0.0000000  1.0000000  0.0000000 )


      isym = 17     120 deg rotation - cart. axis [-1,-1,-1]     

 cryst.   s(17) = (     0          0          1      )
                  (     1          0          0      )
                  (     0          1          0      )

 cart.    s(17) = (  0.0000000  1.0000000  0.0000000 )
                  (  0.0000000  0.0000000  1.0000000 )
                  (  1.0000000  0.0000000  0.0000000 )


      isym = 18     120 deg rotation - cart. axis [-1,1,1]       

 cryst.   s(18) = (     0          0         -1      )
                  (    -1          0          0      )
                  (     0          1          0      )

 cart.    s(18) = (  0.0000000 -1.0000000  0.0000000 )
                  (  0.0000000  0.0000000  1.0000000 )
                  ( -1.0000000  0.0000000  0.0000000 )


      isym = 19     120 deg rotation - cart. axis [1,1,-1]       

 cryst.   s(19) = (     0          0         -1      )
                  (     1          0          0      )
                  (     0         -1          0      )

 cart.    s(19) = (  0.0000000  1.0000000  0.0000000 )
                  (  0.0000000  0.0000000 -1.0000000 )
                  ( -1.0000000  0.0000000  0.0000000 )


      isym = 20     120 deg rotation - cart. axis [1,-1,1]       

 cryst.   s(20) = (     0          0          1      )
                  (    -1          0          0      )
                  (     0         -1          0      )

 cart.    s(20) = (  0.0000000 -1.0000000  0.0000000 )
                  (  0.0000000  0.0000000 -1.0000000 )
                  (  1.0000000  0.0000000  0.0000000 )


      isym = 21     120 deg rotation - cart. axis [1,1,1]        

 cryst.   s(21) = (     0          1          0      )
                  (     0          0          1      )
                  (     1          0          0      )

 cart.    s(21) = (  0.0000000  0.0000000  1.0000000 )
                  (  1.0000000  0.0000000  0.0000000 )
                  (  0.0000000  1.0000000  0.0000000 )


      isym = 22     120 deg rotation - cart. axis [-1,1,-1]      

 cryst.   s(22) = (     0         -1          0      )
                  (     0          0         -1      )
                  (     1          0          0      )

 cart.    s(22) = (  0.0000000  0.0000000  1.0000000 )
                  ( -1.0000000  0.0000000  0.0000000 )
                  (  0.0000000 -1.0000000  0.0000000 )


      isym = 23     120 deg rotation - cart. axis [1,-1,-1]      

 cryst.   s(23) = (     0         -1          0      )
                  (     0          0          1      )
                  (    -1          0          0      )

 cart.    s(23) = (  0.0000000  0.0000000 -1.0000000 )
                  ( -1.0000000  0.0000000  0.0000000 )
                  (  0.0000000  1.0000000  0.0000000 )


      isym = 24     120 deg rotation - cart. axis [-1,-1,1]      

 cryst.   s(24) = (     0          1          0      )
                  (     0          0         -1      )
                  (    -1          0          0      )

 cart.    s(24) = (  0.0000000  0.0000000 -1.0000000 )
                  (  1.0000000  0.0000000  0.0000000 )
                  (  0.0000000 -1.0000000  0.0000000 )


      isym = 25     inversion                                    

 cryst.   s(25) = (    -1          0          0      )
                  (     0         -1          0      )
                  (     0          0         -1      )

 cart.    s(25) = ( -1.0000000  0.0000000  0.0000000 )
                  (  0.0000000 -1.0000000  0.0000000 )
                  (  0.0000000  0.0000000 -1.0000000 )


      isym = 26     inv. 180 deg rotation - cart. axis [0,0,1]   

 cryst.   s(26) = (     1          0          0      )
                  (     0          1          0      )
                  (     0          0         -1      )

 cart.    s(26) = (  1.0000000  0.0000000  0.0000000 )
                  (  0.0000000  1.0000000  0.0000000 )
                  (  0.0000000  0.0000000 -1.0000000 )


      isym = 27     inv. 180 deg rotation - cart. axis [0,1,0]   

 cryst.   s(27) = (     1          0          0      )
                  (     0         -1          0      )
                  (     0          0          1      )

 cart.    s(27) = (  1.0000000  0.0000000  0.0000000 )
                  (  0.0000000 -1.0000000  0.0000000 )
                  (  0.0000000  0.0000000  1.0000000 )


      isym = 28     inv. 180 deg rotation - cart. axis [1,0,0]   

 cryst.   s(28) = (    -1          0          0      )
                  (     0          1          0      )
                  (     0          0          1      )

 cart.    s(28) = ( -1.0000000  0.0000000  0.0000000 )
                  (  0.0000000  1.0000000  0.0000000 )
                  (  0.0000000  0.0000000  1.0000000 )


      isym = 29     inv. 180 deg rotation - cart. axis [1,1,0]   

 cryst.   s(29) = (     0         -1          0      )
                  (    -1          0          0      )
                  (     0          0          1      )

 cart.    s(29) = (  0.0000000 -1.0000000  0.0000000 )
                  ( -1.0000000  0.0000000  0.0000000 )
                  (  0.0000000  0.0000000  1.0000000 )


      isym = 30     inv. 180 deg rotation - cart. axis [1,-1,0]  

 cryst.   s(30) = (     0          1          0      )
                  (     1          0          0      )
                  (     0          0          1      )

 cart.    s(30) = (  0.0000000  1.0000000  0.0000000 )
                  (  1.0000000  0.0000000  0.0000000 )
                  (  0.0000000  0.0000000  1.0000000 )


      isym = 31     inv.  90 deg rotation - cart. axis [0,0,-1]  

 cryst.   s(31) = (     0          1          0      )
                  (    -1          0          0      )
                  (     0          0         -1      )

 cart.    s(31) = (  0.0000000 -1.0000000  0.0000000 )
                  (  1.0000000  0.0000000  0.0000000 )
                  (  0.0000000  0.0000000 -1.0000000 )


      isym = 32     inv.  90 deg rotation - cart. axis [0,0,1]   

 cryst.   s(32) = (     0         -1          0      )
                  (     1          0          0      )
                  (     0          0         -1      )

 cart.    s(32) = (  0.0000000  1.0000000  0.0000000 )
                  ( -1.0000000  0.0000000  0.0000000 )
                  (  0.0000000  0.0000000 -1.0000000 )


      isym = 33     inv. 180 deg rotation - cart. axis [1,0,1]   

 cryst.   s(33) = (     0          0         -1      )
                  (     0          1          0      )
                  (    -1          0          0      )

 cart.    s(33) = (  0.0000000  0.0000000 -1.0000000 )
                  (  0.0000000  1.0000000  0.0000000 )
                  ( -1.0000000  0.0000000  0.0000000 )


      isym = 34     inv. 180 deg rotation - cart. axis [-1,0,1]  

 cryst.   s(34) = (     0          0          1      )
                  (     0          1          0      )
                  (     1          0          0      )

 cart.    s(34) = (  0.0000000  0.0000000  1.0000000 )
                  (  0.0000000  1.0000000  0.0000000 )
                  (  1.0000000  0.0000000  0.0000000 )


      isym = 35     inv.  90 deg rotation - cart. axis [0,1,0]   

 cryst.   s(35) = (     0          0          1      )
                  (     0         -1          0      )
                  (    -1          0          0      )

 cart.    s(35) = (  0.0000000  0.0000000 -1.0000000 )
                  (  0.0000000 -1.0000000  0.0000000 )
                  (  1.0000000  0.0000000  0.0000000 )


      isym = 36     inv.  90 deg rotation - cart. axis [0,-1,0]  

 cryst.   s(36) = (     0          0         -1      )
                  (     0         -1          0      )
                  (     1          0          0      )

 cart.    s(36) = (  0.0000000  0.0000000  1.0000000 )
                  (  0.0000000 -1.0000000  0.0000000 )
                  ( -1.0000000  0.0000000  0.0000000 )


      isym = 37     inv. 180 deg rotation - cart. axis [0,1,1]   

 cryst.   s(37) = (     1          0          0      )
                  (     0          0         -1      )
                  (     0         -1          0      )

 cart.    s(37) = (  1.0000000  0.0000000  0.0000000 )
                  (  0.0000000  0.0000000 -1.0000000 )
                  (  0.0000000 -1.0000000  0.0000000 )


      isym = 38     inv. 180 deg rotation - cart. axis [0,1,-1]  

 cryst.   s(38) = (     1          0          0      )
                  (     0          0          1      )
                  (     0          1          0      )

 cart.    s(38) = (  1.0000000  0.0000000  0.0000000 )
                  (  0.0000000  0.0000000  1.0000000 )
                  (  0.0000000  1.0000000  0.0000000 )


      isym = 39     inv.  90 deg rotation - cart. axis [-1,0,0]  

 cryst.   s(39) = (    -1          0          0      )
                  (     0          0          1      )
                  (     0         -1          0      )

 cart.    s(39) = ( -1.0000000  0.0000000  0.0000000 )
                  (  0.0000000  0.0000000 -1.0000000 )
                  (  0.0000000  1.0000000  0.0000000 )


      isym = 40     inv.  90 deg rotation - cart. axis [1,0,0]   

 cryst.   s(40) = (    -1          0          0      )
                  (     0          0         -1      )
                  (     0          1          0      )

 cart.    s(40) = ( -1.0000000  0.0000000  0.0000000 )
                  (  0.0000000  0.0000000  1.0000000 )
                  (  0.0000000 -1.0000000  0.0000000 )


      isym = 41     inv. 120 deg rotation - cart. axis [-1,-1,-1]

 cryst.   s(41) = (     0          0         -1      )
                  (    -1          0          0      )
                  (     0         -1          0      )

 cart.    s(41) = (  0.0000000 -1.0000000  0.0000000 )
                  (  0.0000000  0.0000000 -1.0000000 )
                  ( -1.0000000  0.0000000  0.0000000 )


      isym = 42     inv. 120 deg rotation - cart. axis [-1,1,1]  

 cryst.   s(42) = (     0          0          1      )
                  (     1          0          0      )
                  (     0         -1          0      )

 cart.    s(42) = (  0.0000000  1.0000000  0.0000000 )
                  (  0.0000000  0.0000000 -1.0000000 )
                  (  1.0000000  0.0000000  0.0000000 )


      isym = 43     inv. 120 deg rotation - cart. axis [1,1,-1]  

 cryst.   s(43) = (     0          0          1      )
                  (    -1          0          0      )
                  (     0          1          0      )

 cart.    s(43) = (  0.0000000 -1.0000000  0.0000000 )
                  (  0.0000000  0.0000000  1.0000000 )
                  (  1.0000000  0.0000000  0.0000000 )


      isym = 44     inv. 120 deg rotation - cart. axis [1,-1,1]  

 cryst.   s(44) = (     0          0         -1      )
                  (     1          0          0      )
                  (     0          1          0      )

 cart.    s(44) = (  0.0000000  1.0000000  0.0000000 )
                  (  0.0000000  0.0000000  1.0000000 )
                  ( -1.0000000  0.0000000  0.0000000 )


      isym = 45     inv. 120 deg rotation - cart. axis [1,1,1]   

 cryst.   s(45) = (     0         -1          0      )
                  (     0          0         -1      )
                  (    -1          0          0      )

 cart.    s(45) = (  0.0000000  0.0000000 -1.0000000 )
                  ( -1.0000000  0.0000000  0.0000000 )
                  (  0.0000000 -1.0000000  0.0000000 )


      isym = 46     inv. 120 deg rotation - cart. axis [-1,1,-1] 

 cryst.   s(46) = (     0          1          0      )
                  (     0          0          1      )
                  (    -1          0          0      )

 cart.    s(46) = (  0.0000000  0.0000000 -1.0000000 )
                  (  1.0000000  0.0000000  0.0000000 )
                  (  0.0000000  1.0000000  0.0000000 )


      isym = 47     inv. 120 deg rotation - cart. axis [1,-1,-1] 

 cryst.   s(47) = (     0          1          0      )
                  (     0          0         -1      )
                  (     1          0          0      )

 cart.    s(47) = (  0.0000000  0.0000000  1.0000000 )
                  (  1.0000000  0.0000000  0.0000000 )
                  (  0.0000000 -1.0000000  0.0000000 )


      isym = 48     inv. 120 deg rotation - cart. axis [-1,-1,1] 

 cryst.   s(48) = (     0         -1          0      )
                  (     0          0          1      )
                  (     1          0          0      )

 cart.    s(48) = (  0.0000000  0.0000000  1.0000000 )
                  ( -1.0000000  0.0000000  0.0000000 )
                  (  0.0000000  1.0000000  0.0000000 )


     double point group O_h (m-3m) 
     there are 16 classes and  6 irreducible representations
     the character table:

       E     -E    8C3   -8C3   3C2  6C4   -6C4   6C2' i     -i    8S6   -8S6 
                               -3C2              -6C2'                        
G_6+   2.00 -2.00  1.00 -1.00  0.00  1.41 -1.41  0.00  2.00 -2.00  1.00 -1.00
G_7+   2.00 -2.00  1.00 -1.00  0.00 -1.41  1.41  0.00  2.00 -2.00  1.00 -1.00
G_8+   4.00 -4.00 -1.00  1.00  0.00  0.00  0.00  0.00  4.00 -4.00 -1.00  1.00
G_6-   2.00 -2.00  1.00 -1.00  0.00  1.41 -1.41  0.00 -2.00  2.00 -1.00  1.00
G_7-   2.00 -2.00  1.00 -1.00  0.00 -1.41  1.41  0.00 -2.00  2.00 -1.00  1.00
G_8-   4.00 -4.00 -1.00  1.00  0.00  0.00  0.00  0.00 -4.00  4.00  1.00 -1.00

        3s_h 6S4   -6S4   6s_d
       -3s_h             -6s_d
G_6+   0.00  1.41 -1.41  0.00
G_7+   0.00 -1.41  1.41  0.00
G_8+   0.00  0.00  0.00  0.00
G_6-   0.00 -1.41  1.41  0.00
G_7-   0.00  1.41 -1.41  0.00
G_8-   0.00  0.00  0.00  0.00

     the symmetry operations in each class and the name of the first element:

     E             1
          identity                                               
     -E           -1
          identity E                                             
     8C3          17   19   20   18   24   21   22   23
          120 deg rotation - cart. axis [-1,-1,-1]               
     -8C3        -17  -19  -20  -18  -24  -21  -22  -23
          120 deg rotation - cart. axis [-1,-1,-1] E             
      3C2 -3C2     2   -2    4   -4    3   -3
          180 deg rotation - cart. axis [0,0,1]                  
     6C4           7    8   15   16   12   11
           90 deg rotation - cart. axis [0,0,-1]                 
     -6C4         -7   -8  -15  -16  -12  -11
           90 deg rotation - cart. axis [0,0,-1] E               
      6C2'-6C2'    5   -5   -6    6   14  -13  -14   13   10   -9  -10    9
          180 deg rotation - cart. axis [1,1,0]                  
     i            25
          inversion                                              
     -i          -25
          inversion E                                            
     8S6          41   43   44   42   48   45   46   47
          inv. 120 deg rotation - cart. axis [-1,-1,-1]          
     -8S6        -41  -43  -44  -42  -48  -45  -46  -47
          inv. 120 deg rotation - cart. axis [-1,-1,-1] E        
      3s_h-3s_h   26  -26   28  -28   27  -27
          inv. 180 deg rotation - cart. axis [0,0,1]             
     6S4          31   32   39   40   36   35
          inv.  90 deg rotation - cart. axis [0,0,-1]            
     -6S4        -31  -32  -39  -40  -36  -35
          inv.  90 deg rotation - cart. axis [0,0,-1] E          
      6s_d-6s_d   29  -29  -30   30   38  -37  -38   37   34  -33  -34   33
          inv. 180 deg rotation - cart. axis [1,1,0]             

   Cartesian axes

     site n.     atom                  positions (alat units)
         1           Cs  tau(   1) = (   0.0000000   0.0000000   0.0000000  )
         2           Cs  tau(   2) = (   0.0000000   0.5000000   0.5000000  )
         3           Cs  tau(   3) = (   0.5000000   0.0000000   0.5000000  )
         4           Cs  tau(   4) = (   0.5000000   0.5000000   0.0000000  )
         5           I   tau(   5) = (   0.5000000   0.0000000   0.0000000  )
         6           I   tau(   6) = (   0.5000000   0.5000000   0.5000000  )
         7           I   tau(   7) = (   0.0000000   0.0000000   0.5000000  )
         8           I   tau(   8) = (   0.0000000   0.5000000   0.0000000  )

   Crystallographic axes

     site n.     atom                  positions (cryst. coord.)
         1           Cs  tau(   1) = (  0.0000000  0.0000000  0.0000000  )
         2           Cs  tau(   2) = (  0.0000000  0.5000000  0.5000000  )
         3           Cs  tau(   3) = (  0.5000000  0.0000000  0.5000000  )
         4           Cs  tau(   4) = (  0.5000000  0.5000000  0.0000000  )
         5           I   tau(   5) = (  0.5000000  0.0000000  0.0000000  )
         6           I   tau(   6) = (  0.5000000  0.5000000  0.5000000  )
         7           I   tau(   7) = (  0.0000000  0.0000000  0.5000000  )
         8           I   tau(   8) = (  0.0000000  0.5000000  0.0000000  )

     number of k points=    35
                       cart. coord. in units 2pi/alat
        k(    1) = (   0.0555556   0.0555556   0.0555556), wk =   0.0109739
        k(    2) = (   0.0555556   0.0555556   0.1666667), wk =   0.0329218
        k(    3) = (   0.0555556   0.0555556   0.2777778), wk =   0.0329218
        k(    4) = (   0.0555556   0.0555556   0.3888889), wk =   0.0329218
        k(    5) = (   0.0555556   0.0555556  -0.5000000), wk =   0.0164609
        k(    6) = (   0.0555556   0.1666667   0.1666667), wk =   0.0329218
        k(    7) = (   0.0555556   0.1666667   0.2777778), wk =   0.0658436
        k(    8) = (   0.0555556   0.1666667   0.3888889), wk =   0.0658436
        k(    9) = (   0.0555556   0.1666667  -0.5000000), wk =   0.0329218
        k(   10) = (   0.0555556   0.2777778   0.2777778), wk =   0.0329218
        k(   11) = (   0.0555556   0.2777778   0.3888889), wk =   0.0658436
        k(   12) = (   0.0555556   0.2777778  -0.5000000), wk =   0.0329218
        k(   13) = (   0.0555556   0.3888889   0.3888889), wk =   0.0329218
        k(   14) = (   0.0555556   0.3888889  -0.5000000), wk =   0.0329218
        k(   15) = (   0.0555556  -0.5000000  -0.5000000), wk =   0.0082305
        k(   16) = (   0.1666667   0.1666667   0.1666667), wk =   0.0109739
        k(   17) = (   0.1666667   0.1666667   0.2777778), wk =   0.0329218
        k(   18) = (   0.1666667   0.1666667   0.3888889), wk =   0.0329218
        k(   19) = (   0.1666667   0.1666667  -0.5000000), wk =   0.0164609
        k(   20) = (   0.1666667   0.2777778   0.2777778), wk =   0.0329218
        k(   21) = (   0.1666667   0.2777778   0.3888889), wk =   0.0658436
        k(   22) = (   0.1666667   0.2777778  -0.5000000), wk =   0.0329218
        k(   23) = (   0.1666667   0.3888889   0.3888889), wk =   0.0329218
        k(   24) = (   0.1666667   0.3888889  -0.5000000), wk =   0.0329218
        k(   25) = (   0.1666667  -0.5000000  -0.5000000), wk =   0.0082305
        k(   26) = (   0.2777778   0.2777778   0.2777778), wk =   0.0109739
        k(   27) = (   0.2777778   0.2777778   0.3888889), wk =   0.0329218
        k(   28) = (   0.2777778   0.2777778  -0.5000000), wk =   0.0164609
        k(   29) = (   0.2777778   0.3888889   0.3888889), wk =   0.0329218
        k(   30) = (   0.2777778   0.3888889  -0.5000000), wk =   0.0329218
        k(   31) = (   0.2777778  -0.5000000  -0.5000000), wk =   0.0082305
        k(   32) = (   0.3888889   0.3888889   0.3888889), wk =   0.0109739
        k(   33) = (   0.3888889   0.3888889  -0.5000000), wk =   0.0164609
        k(   34) = (   0.3888889  -0.5000000  -0.5000000), wk =   0.0082305
        k(   35) = (  -0.5000000  -0.5000000  -0.5000000), wk =   0.0013717

                       cryst. coord.
        k(    1) = (   0.0555556   0.0555556   0.0555556), wk =   0.0109739
        k(    2) = (   0.0555556   0.0555556   0.1666667), wk =   0.0329218
        k(    3) = (   0.0555556   0.0555556   0.2777778), wk =   0.0329218
        k(    4) = (   0.0555556   0.0555556   0.3888889), wk =   0.0329218
        k(    5) = (   0.0555556   0.0555556  -0.5000000), wk =   0.0164609
        k(    6) = (   0.0555556   0.1666667   0.1666667), wk =   0.0329218
        k(    7) = (   0.0555556   0.1666667   0.2777778), wk =   0.0658436
        k(    8) = (   0.0555556   0.1666667   0.3888889), wk =   0.0658436
        k(    9) = (   0.0555556   0.1666667  -0.5000000), wk =   0.0329218
        k(   10) = (   0.0555556   0.2777778   0.2777778), wk =   0.0329218
        k(   11) = (   0.0555556   0.2777778   0.3888889), wk =   0.0658436
        k(   12) = (   0.0555556   0.2777778  -0.5000000), wk =   0.0329218
        k(   13) = (   0.0555556   0.3888889   0.3888889), wk =   0.0329218
        k(   14) = (   0.0555556   0.3888889  -0.5000000), wk =   0.0329218
        k(   15) = (   0.0555556  -0.5000000  -0.5000000), wk =   0.0082305
        k(   16) = (   0.1666667   0.1666667   0.1666667), wk =   0.0109739
        k(   17) = (   0.1666667   0.1666667   0.2777778), wk =   0.0329218
        k(   18) = (   0.1666667   0.1666667   0.3888889), wk =   0.0329218
        k(   19) = (   0.1666667   0.1666667  -0.5000000), wk =   0.0164609
        k(   20) = (   0.1666667   0.2777778   0.2777778), wk =   0.0329218
        k(   21) = (   0.1666667   0.2777778   0.3888889), wk =   0.0658436
        k(   22) = (   0.1666667   0.2777778  -0.5000000), wk =   0.0329218
        k(   23) = (   0.1666667   0.3888889   0.3888889), wk =   0.0329218
        k(   24) = (   0.1666667   0.3888889  -0.5000000), wk =   0.0329218
        k(   25) = (   0.1666667  -0.5000000  -0.5000000), wk =   0.0082305
        k(   26) = (   0.2777778   0.2777778   0.2777778), wk =   0.0109739
        k(   27) = (   0.2777778   0.2777778   0.3888889), wk =   0.0329218
        k(   28) = (   0.2777778   0.2777778  -0.5000000), wk =   0.0164609
        k(   29) = (   0.2777778   0.3888889   0.3888889), wk =   0.0329218
        k(   30) = (   0.2777778   0.3888889  -0.5000000), wk =   0.0329218
        k(   31) = (   0.2777778  -0.5000000  -0.5000000), wk =   0.0082305
        k(   32) = (   0.3888889   0.3888889   0.3888889), wk =   0.0109739
        k(   33) = (   0.3888889   0.3888889  -0.5000000), wk =   0.0164609
        k(   34) = (   0.3888889  -0.5000000  -0.5000000), wk =   0.0082305
        k(   35) = (  -0.5000000  -0.5000000  -0.5000000), wk =   0.0013717

     Dense  grid:    78997 G-vectors     FFT dimensions: (  54,  54,  54)

     Smooth grid:    43003 G-vectors     FFT dimensions: (  45,  45,  45)

     Dynamical RAM for                 wfc:       0.44 MB

     Dynamical RAM for     wfc (w. buffer):      15.75 MB

     Dynamical RAM for           str. fact:       0.10 MB

     Dynamical RAM for           local pot:       0.00 MB

     Dynamical RAM for          nlocal pot:       1.33 MB

     Dynamical RAM for                qrad:      34.17 MB

     Dynamical RAM for          rho,v,vnew:       1.40 MB

     Dynamical RAM for               rhoin:       0.47 MB

     Dynamical RAM for            rho*nmix:       3.21 MB

     Dynamical RAM for           G-vectors:       0.20 MB

     Dynamical RAM for          h,s,v(r/c):       0.33 MB

     Dynamical RAM for          <psi|beta>:       0.76 MB

     Dynamical RAM for                 psi:       1.75 MB

     Dynamical RAM for                hpsi:       1.75 MB

     Dynamical RAM for                spsi:       1.75 MB

     Dynamical RAM for      wfcinit/wfcrot:       0.86 MB

     Dynamical RAM for           addusdens:     102.76 MB

     Dynamical RAM for          addusforce:     104.06 MB

     Dynamical RAM for         addusstress:     104.07 MB

     Estimated static dynamical RAM per process >      57.32 MB

     Estimated max dynamical RAM per process >     161.39 MB

     Estimated total dynamical RAM >       3.78 GB

     Initial potential from superposition of free atoms

     starting charge   63.84620, renormalised to   64.00000
     Starting wfcs are   72 randomized atomic wfcs
     Checking if some PAW data can be deallocated... 
       PAW data deallocated on   12 nodes for type:  1
       PAW data deallocated on   12 nodes for type:  2

     total cpu time spent up to now is       21.8 secs

     Self-consistent Calculation

     iteration #  1     ecut=    60.00 Ry     beta= 0.50
     Davidson diagonalization with overlap
     ethr =  1.00E-02,  avg # of iterations =  6.3

     Threshold (ethr) on eigenvalues was too large:
     Diagonalizing with lowered threshold

     Davidson diagonalization with overlap
     ethr =  1.56E-04,  avg # of iterations =  7.6

     total cpu time spent up to now is      192.6 secs

     total energy              =   -3131.14188829 Ry
     Harris-Foulkes estimate   =   -3131.18323747 Ry
     estimated scf accuracy    <       0.12129011 Ry

     iteration #  2     ecut=    60.00 Ry     beta= 0.50
     Davidson diagonalization with overlap
     ethr =  1.90E-04,  avg # of iterations =  1.5

     total cpu time spent up to now is      235.0 secs

     total energy              =   -3131.14424633 Ry
     Harris-Foulkes estimate   =   -3131.14859924 Ry
     estimated scf accuracy    <       0.02058200 Ry

     iteration #  3     ecut=    60.00 Ry     beta= 0.50
     Davidson diagonalization with overlap
     c_bands:  1 eigenvalues not converged
     ethr =  3.22E-05,  avg # of iterations =  5.4

     total cpu time spent up to now is      310.6 secs

     total energy              =   -3131.15547053 Ry
     Harris-Foulkes estimate   =   -3131.15786692 Ry
     estimated scf accuracy    <       0.00593211 Ry

     iteration #  4     ecut=    60.00 Ry     beta= 0.50
     Davidson diagonalization with overlap
     c_bands:  1 eigenvalues not converged
     ethr =  9.27E-06,  avg # of iterations =  3.2

     total cpu time spent up to now is      355.5 secs

     total energy              =   -3131.15510211 Ry
     Harris-Foulkes estimate   =   -3131.15607561 Ry
     estimated scf accuracy    <       0.00227580 Ry

     iteration #  5     ecut=    60.00 Ry     beta= 0.50
     Davidson diagonalization with overlap
     c_bands:  1 eigenvalues not converged
     ethr =  3.56E-06,  avg # of iterations =  5.7

     total cpu time spent up to now is      426.8 secs

     total energy              =   -3131.15640420 Ry
     Harris-Foulkes estimate   =   -3131.15641368 Ry
     estimated scf accuracy    <       0.00009485 Ry

     iteration #  6     ecut=    60.00 Ry     beta= 0.50
     Davidson diagonalization with overlap
     c_bands:  1 eigenvalues not converged
     ethr =  1.48E-07,  avg # of iterations =  7.0

     total cpu time spent up to now is      506.1 secs

     total energy              =   -3131.15646178 Ry
     Harris-Foulkes estimate   =   -3131.15648260 Ry
     estimated scf accuracy    <       0.00003564 Ry

     iteration #  7     ecut=    60.00 Ry     beta= 0.50
     Davidson diagonalization with overlap
     ethr =  5.57E-08,  avg # of iterations =  5.9

     total cpu time spent up to now is      567.6 secs

     total energy              =   -3131.15646410 Ry
     Harris-Foulkes estimate   =   -3131.15646981 Ry
     estimated scf accuracy    <       0.00000578 Ry

     iteration #  8     ecut=    60.00 Ry     beta= 0.50
     Davidson diagonalization with overlap
     ethr =  9.03E-09,  avg # of iterations =  5.5

     total cpu time spent up to now is      637.5 secs

     total energy              =   -3131.15646660 Ry
     Harris-Foulkes estimate   =   -3131.15646886 Ry
     estimated scf accuracy    <       0.00000459 Ry

     iteration #  9     ecut=    60.00 Ry     beta= 0.50
     Davidson diagonalization with overlap
     c_bands:  1 eigenvalues not converged
     c_bands:  1 eigenvalues not converged
     ethr =  7.18E-09,  avg # of iterations =  6.4

     total cpu time spent up to now is      703.2 secs

     total energy              =   -3131.15647067 Ry
     Harris-Foulkes estimate   =   -3131.15647027 Ry
     estimated scf accuracy    <       0.00001183 Ry

     iteration # 10     ecut=    60.00 Ry     beta= 0.50
     Davidson diagonalization with overlap
     c_bands:  1 eigenvalues not converged
     ethr =  7.18E-09,  avg # of iterations =  1.6

     total cpu time spent up to now is      741.4 secs

     total energy              =   -3131.15647117 Ry
     Harris-Foulkes estimate   =   -3131.15647296 Ry
     estimated scf accuracy    <       0.00001235 Ry

     iteration # 11     ecut=    60.00 Ry     beta= 0.50
     Davidson diagonalization with overlap
     c_bands:  1 eigenvalues not converged
     ethr =  7.18E-09,  avg # of iterations =  1.5

     total cpu time spent up to now is      777.6 secs

     total energy              =   -3131.15647133 Ry
     Harris-Foulkes estimate   =   -3131.15647131 Ry
     estimated scf accuracy    <       0.00000972 Ry

     iteration # 12     ecut=    60.00 Ry     beta= 0.50
     Davidson diagonalization with overlap
     ethr =  7.18E-09,  avg # of iterations =  1.1

     total cpu time spent up to now is      816.9 secs

     total energy              =   -3131.15646760 Ry
     Harris-Foulkes estimate   =   -3131.15647137 Ry
     estimated scf accuracy    <       0.00000952 Ry

     iteration # 13     ecut=    60.00 Ry     beta= 0.50
     Davidson diagonalization with overlap
     c_bands:  1 eigenvalues not converged
     c_bands:  2 eigenvalues not converged
     ethr =  7.18E-09,  avg # of iterations =  6.7

     total cpu time spent up to now is      887.1 secs

     total energy              =   -3131.15654883 Ry
     Harris-Foulkes estimate   =   -3131.15654887 Ry
     estimated scf accuracy    <       0.00006279 Ry

     iteration # 14     ecut=    60.00 Ry     beta= 0.50
     Davidson diagonalization with overlap
     c_bands:  2 eigenvalues not converged
     c_bands:  1 eigenvalues not converged
     ethr =  7.18E-09,  avg # of iterations =  6.4

     total cpu time spent up to now is      953.6 secs

     total energy              =   -3131.15655134 Ry
     Harris-Foulkes estimate   =   -3131.15655005 Ry
     estimated scf accuracy    <       0.00006897 Ry

     iteration # 15     ecut=    60.00 Ry     beta= 0.50
     Davidson diagonalization with overlap
     c_bands:  2 eigenvalues not converged
     ethr =  7.18E-09,  avg # of iterations =  1.6

     total cpu time spent up to now is      991.6 secs

     total energy              =   -3131.15654830 Ry
     Harris-Foulkes estimate   =   -3131.15655167 Ry
     estimated scf accuracy    <       0.00007169 Ry

     iteration # 16     ecut=    60.00 Ry     beta= 0.50
     Davidson diagonalization with overlap
     ethr =  7.18E-09,  avg # of iterations =  1.2

     total cpu time spent up to now is     1034.0 secs

     total energy              =   -3131.15654755 Ry
     Harris-Foulkes estimate   =   -3131.15654840 Ry
     estimated scf accuracy    <       0.00006686 Ry

     iteration # 17     ecut=    60.00 Ry     beta= 0.50
     Davidson diagonalization with overlap
     c_bands:  1 eigenvalues not converged
     ethr =  7.18E-09,  avg # of iterations =  1.5

     total cpu time spent up to now is     1075.2 secs

     total energy              =   -3131.15654708 Ry
     Harris-Foulkes estimate   =   -3131.15654776 Ry
     estimated scf accuracy    <       0.00006313 Ry

     iteration # 18     ecut=    60.00 Ry     beta= 0.50
     Davidson diagonalization with overlap
     c_bands:  1 eigenvalues not converged
     ethr =  7.18E-09,  avg # of iterations =  1.5

     total cpu time spent up to now is     1117.2 secs

     total energy              =   -3131.15654451 Ry
     Harris-Foulkes estimate   =   -3131.15654728 Ry
     estimated scf accuracy    <       0.00006087 Ry

     iteration # 19     ecut=    60.00 Ry     beta= 0.50
     Davidson diagonalization with overlap
     c_bands:  1 eigenvalues not converged
     ethr =  7.18E-09,  avg # of iterations =  2.4

     total cpu time spent up to now is     1162.2 secs

     total energy              =   -3131.15654152 Ry
     Harris-Foulkes estimate   =   -3131.15654481 Ry
     estimated scf accuracy    <       0.00005264 Ry

     iteration # 20     ecut=    60.00 Ry     beta= 0.50
     Davidson diagonalization with overlap
     c_bands:  1 eigenvalues not converged
     c_bands:  1 eigenvalues not converged
     ethr =  7.18E-09,  avg # of iterations =  6.3

     total cpu time spent up to now is     1229.6 secs

     total energy              =   -3131.15654482 Ry
     Harris-Foulkes estimate   =   -3131.15654496 Ry
     estimated scf accuracy    <       0.00002962 Ry

     iteration # 21     ecut=    60.00 Ry     beta= 0.50
     Davidson diagonalization with overlap
     c_bands:  2 eigenvalues not converged
     ethr =  7.18E-09,  avg # of iterations =  2.4

     total cpu time spent up to now is     1274.7 secs

     total energy              =   -3131.15660139 Ry
     Harris-Foulkes estimate   =   -3131.15654502 Ry
     estimated scf accuracy    <       0.00002789 Ry

     iteration # 22     ecut=    60.00 Ry     beta= 0.50
     Davidson diagonalization with overlap
     c_bands:  1 eigenvalues not converged
     c_bands:  2 eigenvalues not converged
     c_bands:  3 eigenvalues not converged
     c_bands:  2 eigenvalues not converged
     c_bands:  3 eigenvalues not converged
     c_bands:  2 eigenvalues not converged
     c_bands:  2 eigenvalues not converged
     c_bands:  2 eigenvalues not converged
     c_bands:  4 eigenvalues not converged
     c_bands:  4 eigenvalues not converged
     c_bands:  3 eigenvalues not converged
     c_bands:  4 eigenvalues not converged
     c_bands:  2 eigenvalues not converged
     c_bands:  2 eigenvalues not converged
     c_bands:  2 eigenvalues not converged
     c_bands:  2 eigenvalues not converged
     c_bands:  4 eigenvalues not converged
     c_bands:  3 eigenvalues not converged
     c_bands:  1 eigenvalues not converged
     ethr =  7.18E-09,  avg # of iterations = 17.3

     total cpu time spent up to now is     1448.1 secs

     total energy              =   -3131.15690595 Ry
     Harris-Foulkes estimate   =   -3131.15710411 Ry
     estimated scf accuracy    <       0.00216122 Ry

     iteration # 23     ecut=    60.00 Ry     beta= 0.50
     Davidson diagonalization with overlap
     c_bands:  2 eigenvalues not converged
     c_bands:  2 eigenvalues not converged
     c_bands:  4 eigenvalues not converged
     c_bands:  2 eigenvalues not converged
     c_bands:  2 eigenvalues not converged
     c_bands:  1 eigenvalues not converged
     c_bands:  2 eigenvalues not converged
     c_bands:  2 eigenvalues not converged
     c_bands:  1 eigenvalues not converged
     ethr =  7.18E-09,  avg # of iterations = 10.8

     total cpu time spent up to now is     1554.9 secs

     total energy              =   -3131.15710215 Ry
     Harris-Foulkes estimate   =   -3131.15692342 Ry
     estimated scf accuracy    <       0.00161387 Ry

     iteration # 24     ecut=    60.00 Ry     beta= 0.50
     Davidson diagonalization with overlap
     c_bands:  2 eigenvalues not converged
     c_bands:  2 eigenvalues not converged
     c_bands:  2 eigenvalues not converged
     c_bands:  1 eigenvalues not converged
     c_bands:  2 eigenvalues not converged
     c_bands:  4 eigenvalues not converged
     c_bands:  2 eigenvalues not converged
     c_bands:  2 eigenvalues not converged
     c_bands:  2 eigenvalues not converged
     c_bands:  4 eigenvalues not converged
     c_bands:  2 eigenvalues not converged
     ethr =  7.18E-09,  avg # of iterations = 12.2

     total cpu time spent up to now is     1672.9 secs

     total energy              =   -3131.15621643 Ry
     Harris-Foulkes estimate   =   -3131.15712334 Ry
     estimated scf accuracy    <       0.00250919 Ry

     iteration # 25     ecut=    60.00 Ry     beta= 0.50
     Davidson diagonalization with overlap
     c_bands:  1 eigenvalues not converged
     c_bands:  2 eigenvalues not converged
     c_bands:  2 eigenvalues not converged
     c_bands:  3 eigenvalues not converged
     c_bands:  5 eigenvalues not converged
     c_bands:  4 eigenvalues not converged
     c_bands:  4 eigenvalues not converged
     c_bands:  1 eigenvalues not converged
     c_bands:  2 eigenvalues not converged
     c_bands:  4 eigenvalues not converged
     ethr =  7.18E-09,  avg # of iterations = 15.2

     total cpu time spent up to now is     1845.4 secs

     total energy              =   -3131.15655333 Ry
     Harris-Foulkes estimate   =   -3131.15654283 Ry
     estimated scf accuracy    <       0.00007015 Ry

     iteration # 26     ecut=    60.00 Ry     beta= 0.50
     Davidson diagonalization with overlap
     c_bands:  2 eigenvalues not converged
     c_bands:  2 eigenvalues not converged
     c_bands:  2 eigenvalues not converged
     c_bands:  2 eigenvalues not converged
     c_bands:  4 eigenvalues not converged
     c_bands:  2 eigenvalues not converged
     c_bands:  2 eigenvalues not converged
     c_bands:  1 eigenvalues not converged
     c_bands:  4 eigenvalues not converged
     ethr =  7.18E-09,  avg # of iterations = 11.5

     total cpu time spent up to now is     1965.8 secs

     total energy              =   -3131.15657530 Ry
     Harris-Foulkes estimate   =   -3131.15657331 Ry
     estimated scf accuracy    <       0.00015757 Ry

     iteration # 27     ecut=    60.00 Ry     beta= 0.50
     Davidson diagonalization with overlap
     c_bands:  1 eigenvalues not converged
     ethr =  7.18E-09,  avg # of iterations =  7.3

     total cpu time spent up to now is     2070.6 secs

     total energy              =   -3131.15661836 Ry
     Harris-Foulkes estimate   =   -3131.15664006 Ry
     estimated scf accuracy    <       0.00017139 Ry

     iteration # 28     ecut=    60.00 Ry     beta= 0.50
     Davidson diagonalization with overlap
     ethr =  7.18E-09,  avg # of iterations =  5.2

     total cpu time spent up to now is     2158.4 secs

     total energy              =   -3131.15661276 Ry
     Harris-Foulkes estimate   =   -3131.15661994 Ry
     estimated scf accuracy    <       0.00011487 Ry

     iteration # 29     ecut=    60.00 Ry     beta= 0.50
     Davidson diagonalization with overlap
     ethr =  7.18E-09,  avg # of iterations =  6.1

     total cpu time spent up to now is     2250.4 secs

     total energy              =   -3131.15663472 Ry
     Harris-Foulkes estimate   =   -3131.15661494 Ry
     estimated scf accuracy    <       0.00009287 Ry

     iteration # 30     ecut=    60.00 Ry     beta= 0.50
     Davidson diagonalization with overlap
     c_bands:  1 eigenvalues not converged
     ethr =  7.18E-09,  avg # of iterations =  6.2

     total cpu time spent up to now is     2350.2 secs

     total energy              =   -3131.15654029 Ry
     Harris-Foulkes estimate   =   -3131.15664542 Ry
     estimated scf accuracy    <       0.00021067 Ry

     iteration # 31     ecut=    60.00 Ry     beta= 0.50
     Davidson diagonalization with overlap
     c_bands:  1 eigenvalues not converged
     c_bands:  2 eigenvalues not converged
     c_bands:  2 eigenvalues not converged
     c_bands:  1 eigenvalues not converged
     c_bands:  4 eigenvalues not converged
     c_bands:  2 eigenvalues not converged
     c_bands:  2 eigenvalues not converged
     c_bands:  2 eigenvalues not converged
     c_bands:  2 eigenvalues not converged
     ethr =  7.18E-09,  avg # of iterations = 13.4

     total cpu time spent up to now is     2513.7 secs

     total energy              =   -3131.15660555 Ry
     Harris-Foulkes estimate   =   -3131.15660715 Ry
     estimated scf accuracy    <       0.00010032 Ry

     iteration # 32     ecut=    60.00 Ry     beta= 0.50
     Davidson diagonalization with overlap
     c_bands:  1 eigenvalues not converged
     c_bands:  2 eigenvalues not converged
     c_bands:  1 eigenvalues not converged
     c_bands:  2 eigenvalues not converged
     c_bands:  2 eigenvalues not converged
     c_bands:  1 eigenvalues not converged
     ethr =  7.18E-09,  avg # of iterations =  8.1

     total cpu time spent up to now is     2608.3 secs

     total energy              =   -3131.15663871 Ry
     Harris-Foulkes estimate   =   -3131.15664265 Ry
     estimated scf accuracy    <       0.00019448 Ry

     iteration # 33     ecut=    60.00 Ry     beta= 0.50
     Davidson diagonalization with overlap
     c_bands:  1 eigenvalues not converged
     c_bands:  1 eigenvalues not converged
     c_bands:  1 eigenvalues not converged
     ethr =  7.18E-09,  avg # of iterations =  7.5

     total cpu time spent up to now is     2713.4 secs

     total energy              =   -3131.15661884 Ry
     Harris-Foulkes estimate   =   -3131.15669368 Ry
     estimated scf accuracy    <       0.00044110 Ry

     iteration # 34     ecut=    60.00 Ry     beta= 0.50
     Davidson diagonalization with overlap
     c_bands:  2 eigenvalues not converged
     c_bands:  4 eigenvalues not converged
     c_bands:  2 eigenvalues not converged
     c_bands:  4 eigenvalues not converged
     c_bands:  4 eigenvalues not converged
     ethr =  7.18E-09,  avg # of iterations =  9.5

     total cpu time spent up to now is     2829.1 secs

     total energy              =   -3131.15660096 Ry
     Harris-Foulkes estimate   =   -3131.15663495 Ry
     estimated scf accuracy    <       0.00027159 Ry

     iteration # 35     ecut=    60.00 Ry     beta= 0.50
     Davidson diagonalization with overlap
     c_bands:  2 eigenvalues not converged
     c_bands:  2 eigenvalues not converged
     ethr =  7.18E-09,  avg # of iterations =  7.4

     total cpu time spent up to now is     2935.4 secs

     total energy              =   -3131.15662898 Ry
     Harris-Foulkes estimate   =   -3131.15664109 Ry
     estimated scf accuracy    <       0.00022585 Ry

     iteration # 36     ecut=    60.00 Ry     beta= 0.50
     Davidson diagonalization with overlap
     c_bands:  2 eigenvalues not converged
     ethr =  7.18E-09,  avg # of iterations =  3.9

     total cpu time spent up to now is     3010.9 secs

     total energy              =   -3131.15660897 Ry
     Harris-Foulkes estimate   =   -3131.15663265 Ry
     estimated scf accuracy    <       0.00022046 Ry

     iteration # 37     ecut=    60.00 Ry     beta= 0.50
     Davidson diagonalization with overlap
     ethr =  7.18E-09,  avg # of iterations =  6.6

     total cpu time spent up to now is     3108.6 secs

     total energy              =   -3131.15666590 Ry
     Harris-Foulkes estimate   =   -3131.15661257 Ry
     estimated scf accuracy    <       0.00013017 Ry

     iteration # 38     ecut=    60.00 Ry     beta= 0.50
     Davidson diagonalization with overlap
     c_bands:  1 eigenvalues not converged
     c_bands:  2 eigenvalues not converged
     c_bands:  1 eigenvalues not converged
     c_bands:  4 eigenvalues not converged
     c_bands:  2 eigenvalues not converged
     c_bands:  2 eigenvalues not converged
     ethr =  7.18E-09,  avg # of iterations = 10.1

     total cpu time spent up to now is     3224.6 secs

     total energy              =   -3131.15650493 Ry
     Harris-Foulkes estimate   =   -3131.15668108 Ry
     estimated scf accuracy    <       0.00037659 Ry

     iteration # 39     ecut=    60.00 Ry     beta= 0.50
     Davidson diagonalization with overlap
     c_bands:  2 eigenvalues not converged
     c_bands:  2 eigenvalues not converged
     c_bands:  2 eigenvalues not converged
     c_bands:  4 eigenvalues not converged
     c_bands:  2 eigenvalues not converged
     c_bands:  4 eigenvalues not converged
     c_bands:  2 eigenvalues not converged
     c_bands:  4 eigenvalues not converged
     c_bands:  2 eigenvalues not converged
     c_bands:  2 eigenvalues not converged
     ethr =  7.18E-09,  avg # of iterations = 14.0

     total cpu time spent up to now is     3384.1 secs

     total energy              =   -3131.15662786 Ry
     Harris-Foulkes estimate   =   -3131.15658691 Ry
     estimated scf accuracy    <       0.00001292 Ry

     iteration # 40     ecut=    60.00 Ry     beta= 0.50
     Davidson diagonalization with overlap
     c_bands:  2 eigenvalues not converged
     c_bands:  2 eigenvalues not converged
     c_bands:  1 eigenvalues not converged
     c_bands:  4 eigenvalues not converged
     c_bands:  2 eigenvalues not converged
     c_bands:  4 eigenvalues not converged
     c_bands:  1 eigenvalues not converged
     c_bands:  2 eigenvalues not converged
     c_bands:  2 eigenvalues not converged
     c_bands:  4 eigenvalues not converged
     ethr =  7.18E-09,  avg # of iterations = 13.8

     total cpu time spent up to now is     3535.3 secs

     total energy              =   -3131.15652485 Ry
     Harris-Foulkes estimate   =   -3131.15674696 Ry
     estimated scf accuracy    <       0.00060747 Ry

     iteration # 41     ecut=    60.00 Ry     beta= 0.50
     Davidson diagonalization with overlap
     c_bands:  2 eigenvalues not converged
     c_bands:  2 eigenvalues not converged
     c_bands:  4 eigenvalues not converged
     c_bands:  2 eigenvalues not converged
     c_bands:  4 eigenvalues not converged
     c_bands:  4 eigenvalues not converged
     c_bands:  2 eigenvalues not converged
     c_bands:  4 eigenvalues not converged
     ethr =  7.18E-09,  avg # of iterations = 13.5

     total cpu time spent up to now is     3694.8 secs

     total energy              =   -3131.15657739 Ry
     Harris-Foulkes estimate   =   -3131.15660867 Ry
     estimated scf accuracy    <       0.00005545 Ry

     iteration # 42     ecut=    60.00 Ry     beta= 0.50
     Davidson diagonalization with overlap
     c_bands:  2 eigenvalues not converged
     c_bands:  2 eigenvalues not converged
     c_bands:  2 eigenvalues not converged
     c_bands:  2 eigenvalues not converged
     c_bands:  4 eigenvalues not converged
     c_bands:  2 eigenvalues not converged
     c_bands:  1 eigenvalues not converged
     c_bands:  4 eigenvalues not converged
     ethr =  7.18E-09,  avg # of iterations = 11.1

     total cpu time spent up to now is     3820.3 secs

     WARNING: integrated charge=    63.99954243, expected=    64.00000000

     total energy              =   -3131.15659466 Ry
     Harris-Foulkes estimate   =   -3131.15659286 Ry
     estimated scf accuracy    <       0.00000230 Ry

     iteration # 43     ecut=    60.00 Ry     beta= 0.50
     Davidson diagonalization with overlap
     c_bands:  1 eigenvalues not converged
     c_bands:  1 eigenvalues not converged
     ethr =  3.59E-09,  avg # of iterations =  8.8

     total cpu time spent up to now is     3939.3 secs

     WARNING: integrated charge=    63.99964310, expected=    64.00000000

     total energy              =   -3131.15662049 Ry
     Harris-Foulkes estimate   =   -3131.15661264 Ry
     estimated scf accuracy    <       0.00009048 Ry

     iteration # 44     ecut=    60.00 Ry     beta= 0.50
     Davidson diagonalization with overlap
     ethr =  3.59E-09,  avg # of iterations =  3.6

     total cpu time spent up to now is     4007.8 secs

     WARNING: integrated charge=    63.99931702, expected=    64.00000000

     total energy              =   -3131.15662293 Ry
     Harris-Foulkes estimate   =   -3131.15662072 Ry
     estimated scf accuracy    <       0.00010913 Ry

     iteration # 45     ecut=    60.00 Ry     beta= 0.50
     Davidson diagonalization with overlap
     ethr =  3.59E-09,  avg # of iterations =  1.1

     total cpu time spent up to now is     4055.0 secs

     WARNING: integrated charge=    64.00051917, expected=    64.00000000

     total energy              =   -3131.15662286 Ry
     Harris-Foulkes estimate   =   -3131.15662299 Ry
     estimated scf accuracy    <       0.00011274 Ry

     iteration # 46     ecut=    60.00 Ry     beta= 0.50
     Davidson diagonalization with overlap
     ethr =  3.59E-09,  avg # of iterations =  1.0

     total cpu time spent up to now is     4109.8 secs

     WARNING: integrated charge=    64.00239189, expected=    64.00000000

     total energy              =   -3131.15663861 Ry
     Harris-Foulkes estimate   =   -3131.15662290 Ry
     estimated scf accuracy    <       0.00011402 Ry

     iteration # 47     ecut=    60.00 Ry     beta= 0.50
     Davidson diagonalization with overlap
     ethr =  3.59E-09,  avg # of iterations =  6.0

     total cpu time spent up to now is     4211.5 secs

     WARNING: integrated charge=    64.00280518, expected=    64.00000000

     total energy              =   -3131.15665896 Ry
     Harris-Foulkes estimate   =   -3131.15664030 Ry
     estimated scf accuracy    <       0.00017313 Ry

     iteration # 48     ecut=    60.00 Ry     beta= 0.50
     Davidson diagonalization with overlap
     c_bands:  2 eigenvalues not converged
     ethr =  3.59E-09,  avg # of iterations =  6.3

     total cpu time spent up to now is     4309.1 secs

     WARNING: integrated charge=    64.00251470, expected=    64.00000000

     total energy              =   -3131.15664175 Ry
     Harris-Foulkes estimate   =   -3131.15666041 Ry
     estimated scf accuracy    <       0.00023334 Ry

     iteration # 49     ecut=    60.00 Ry     beta= 0.50
     Davidson diagonalization with overlap
     c_bands:  1 eigenvalues not converged
     ethr =  3.59E-09,  avg # of iterations =  5.6

     total cpu time spent up to now is     4403.1 secs

     WARNING: integrated charge=    63.99743365, expected=    64.00000000

     total energy              =   -3131.15665406 Ry
     Harris-Foulkes estimate   =   -3131.15665240 Ry
     estimated scf accuracy    <       0.00020628 Ry

     iteration # 50     ecut=    60.00 Ry     beta= 0.50
     Davidson diagonalization with overlap
     ethr =  3.59E-09,  avg # of iterations =  6.2

     total cpu time spent up to now is     4507.6 secs

     WARNING: integrated charge=    64.01199552, expected=    64.00000000

     total energy              =   -3131.15658851 Ry
     Harris-Foulkes estimate   =   -3131.15665572 Ry
     estimated scf accuracy    <       0.00021534 Ry

     iteration # 51     ecut=    60.00 Ry     beta= 0.50
     Davidson diagonalization with overlap
     c_bands:  1 eigenvalues not converged
     c_bands:  2 eigenvalues not converged
     c_bands:  2 eigenvalues not converged
     c_bands:  2 eigenvalues not converged
     c_bands:  4 eigenvalues not converged
     c_bands:  2 eigenvalues not converged
     c_bands:  1 eigenvalues not converged
     c_bands:  4 eigenvalues not converged
     ethr =  3.59E-09,  avg # of iterations = 12.3

     total cpu time spent up to now is     4660.2 secs

     WARNING: integrated charge=    64.00057366, expected=    64.00000000

     total energy              =   -3131.15656824 Ry
     Harris-Foulkes estimate   =   -3131.15660753 Ry
     estimated scf accuracy    <       0.00007948 Ry

     iteration # 52     ecut=    60.00 Ry     beta= 0.50
     Davidson diagonalization with overlap
     c_bands:  2 eigenvalues not converged
     c_bands:  2 eigenvalues not converged
     c_bands:  2 eigenvalues not converged
     c_bands:  4 eigenvalues not converged
     c_bands:  2 eigenvalues not converged
     c_bands:  4 eigenvalues not converged
     c_bands:  4 eigenvalues not converged
     ethr =  3.59E-09,  avg # of iterations = 12.3

     total cpu time spent up to now is     4810.5 secs

     WARNING: integrated charge=    63.99998791, expected=    64.00000000

     total energy              =   -3131.15658566 Ry
     Harris-Foulkes estimate   =   -3131.15658784 Ry
     estimated scf accuracy    <       0.00002032 Ry

     iteration # 53     ecut=    60.00 Ry     beta= 0.50
     Davidson diagonalization with overlap
     c_bands:  2 eigenvalues not converged
     c_bands:  2 eigenvalues not converged
     ethr =  3.59E-09,  avg # of iterations =  4.6

     total cpu time spent up to now is     4883.6 secs

     WARNING: integrated charge=    63.99991783, expected=    64.00000000

     total energy              =   -3131.15658433 Ry
     Harris-Foulkes estimate   =   -3131.15658589 Ry
     estimated scf accuracy    <       0.00001462 Ry

     iteration # 54     ecut=    60.00 Ry     beta= 0.50
     Davidson diagonalization with overlap
     ethr =  3.59E-09,  avg # of iterations =  4.5

     total cpu time spent up to now is     4958.5 secs

     WARNING: integrated charge=    63.99991848, expected=    64.00000000

     total energy              =   -3131.15658449 Ry
     Harris-Foulkes estimate   =   -3131.15658452 Ry
     estimated scf accuracy    <       0.00000984 Ry

     iteration # 55     ecut=    60.00 Ry     beta= 0.50
     Davidson diagonalization with overlap
     ethr =  3.59E-09,  avg # of iterations =  1.0

     total cpu time spent up to now is     5005.7 secs

     WARNING: integrated charge=    63.99996063, expected=    64.00000000

     total energy              =   -3131.15658402 Ry
     Harris-Foulkes estimate   =   -3131.15658453 Ry
     estimated scf accuracy    <       0.00000945 Ry

     iteration # 56     ecut=    60.00 Ry     beta= 0.50
     Davidson diagonalization with overlap
     ethr =  3.59E-09,  avg # of iterations =  1.3

     total cpu time spent up to now is     5064.0 secs

     WARNING: integrated charge=    63.99963231, expected=    64.00000000

     total energy              =   -3131.15658819 Ry
     Harris-Foulkes estimate   =   -3131.15658407 Ry
     estimated scf accuracy    <       0.00000825 Ry

     iteration # 57     ecut=    60.00 Ry     beta= 0.50
     Davidson diagonalization with overlap
     c_bands:  2 eigenvalues not converged
     ethr =  3.59E-09,  avg # of iterations =  6.6

     total cpu time spent up to now is     5164.3 secs

     WARNING: integrated charge=    64.00055293, expected=    64.00000000

     total energy              =   -3131.15659179 Ry
     Harris-Foulkes estimate   =   -3131.15661001 Ry
     estimated scf accuracy    <       0.00005137 Ry

     iteration # 58     ecut=    60.00 Ry     beta= 0.50
     Davidson diagonalization with overlap
     c_bands:  2 eigenvalues not converged
     c_bands:  1 eigenvalues not converged
     c_bands:  1 eigenvalues not converged
     c_bands:  4 eigenvalues not converged
     c_bands:  2 eigenvalues not converged
     c_bands:  4 eigenvalues not converged
     ethr =  3.59E-09,  avg # of iterations = 10.3

     total cpu time spent up to now is     5290.3 secs

     WARNING: integrated charge=    64.00031164, expected=    64.00000000

     total energy              =   -3131.15660081 Ry
     Harris-Foulkes estimate   =   -3131.15659933 Ry
     estimated scf accuracy    <       0.00000810 Ry

     iteration # 59     ecut=    60.00 Ry     beta= 0.50
     Davidson diagonalization with overlap
     c_bands:  1 eigenvalues not converged
     ethr =  3.59E-09,  avg # of iterations =  7.1

     total cpu time spent up to now is     5398.5 secs

     WARNING: integrated charge=    64.00015900, expected=    64.00000000

     total energy              =   -3131.15659999 Ry
     Harris-Foulkes estimate   =   -3131.15660176 Ry
     estimated scf accuracy    <       0.00001472 Ry

     iteration # 60     ecut=    60.00 Ry     beta= 0.50
     Davidson diagonalization with overlap
     ethr =  3.59E-09,  avg # of iterations =  1.1

     total cpu time spent up to now is     5451.9 secs

     WARNING: integrated charge=    64.00015622, expected=    64.00000000

     total energy              =   -3131.15659977 Ry
     Harris-Foulkes estimate   =   -3131.15660005 Ry
     estimated scf accuracy    <       0.00001142 Ry

     iteration # 61     ecut=    60.00 Ry     beta= 0.50
     Davidson diagonalization with overlap
     ethr =  3.59E-09,  avg # of iterations =  1.0

     total cpu time spent up to now is     5502.4 secs

     WARNING: integrated charge=    64.00023157, expected=    64.00000000

     total energy              =   -3131.15659866 Ry
     Harris-Foulkes estimate   =   -3131.15659979 Ry
     estimated scf accuracy    <       0.00001100 Ry

     iteration # 62     ecut=    60.00 Ry     beta= 0.50
     Davidson diagonalization with overlap
     ethr =  3.59E-09,  avg # of iterations =  1.0

     total cpu time spent up to now is     5554.8 secs

     WARNING: integrated charge=    64.00023949, expected=    64.00000000

     total energy              =   -3131.15659563 Ry
     Harris-Foulkes estimate   =   -3131.15659872 Ry
     estimated scf accuracy    <       0.00000868 Ry

     iteration # 63     ecut=    60.00 Ry     beta= 0.50
     Davidson diagonalization with overlap
     ethr =  3.59E-09,  avg # of iterations =  6.3

     total cpu time spent up to now is     5658.6 secs

     End of self-consistent calculation

          k = 0.0556 0.0556 0.0556 (  5383 PWs)   bands (ev):

    -1.8721  -1.8721   2.5830   2.5830   2.5830   2.5830   2.5835   2.5835
     8.8321   8.8321   8.8321   8.8321   8.8322   8.8322  10.7212  10.7212
    10.7213  10.7213  10.7225  10.7225  12.3809  12.3809  12.3812  12.3812
    12.3817  12.3817  13.3703  13.3703  13.3707  13.3707  13.3711  13.3711
    14.5733  14.5733  16.0555  16.0555  16.6373  16.6373  19.0899  19.0899
    22.3539  22.3539  22.3539  22.3539  22.3540  22.3540  25.1134  25.1134
    26.4581  26.4581  26.4785  26.4785  26.8594  26.8594  26.9075  26.9075
    27.0516  27.0516  29.5131  29.5131  29.5133  29.5133  29.5138  29.5138

     occupation numbers 
     1.0000   1.0000   1.0000   1.0000   1.0000   1.0000   1.0000   1.0000
     1.0000   1.0000   1.0000   1.0000   1.0000   1.0000   1.0000   1.0000
     1.0000   1.0000   1.0000   1.0000   1.0000   1.0000   1.0000   1.0000
     1.0000   1.0000   1.0000   1.0000   1.0000   1.0000   1.0000   1.0000
     1.0000   1.0000   1.0000   1.0000   1.0000   1.0000   1.0000   1.0000
     1.0000   1.0000   1.0000   1.0000   1.0000   1.0000   1.0000   1.0000
     1.0000   1.0000   1.0000   1.0000   1.0000   1.0000   1.0000   1.0000
     1.0000   1.0000   1.0000   1.0000   1.0000   1.0000   1.0000   1.0000

          k = 0.0556 0.0556 0.1667 (  5377 PWs)   bands (ev):

    -1.7104  -1.7104   2.0529   2.0529   2.6605   2.6605   2.6608   2.6608
     8.8810   8.8810   8.8811   8.8811   9.2753   9.2753   9.7651   9.7651
     9.7658   9.7658  11.2765  11.2765  12.2846  12.2846  12.2847  12.2847
    12.5716  12.5716  13.5550  13.5550  13.8728  13.8728  14.6408  14.6408
    14.6416  14.6416  15.5053  15.5053  16.4332  16.4332  20.2591  20.2591
    22.4950  22.4950  22.9827  22.9827  22.9827  22.9827  23.9494  23.9494
    25.7970  25.7970  26.0990  26.0990  26.7015  26.7015  27.4918  27.4918
    27.6951  27.6951  28.1475  28.1475  28.1482  28.1482  29.0948  29.0948

     occupation numbers 
     1.0000   1.0000   1.0000   1.0000   1.0000   1.0000   1.0000   1.0000
     1.0000   1.0000   1.0000   1.0000   1.0000   1.0000   1.0000   1.0000
     1.0000   1.0000   1.0000   1.0000   1.0000   1.0000   1.0000   1.0000
     1.0000   1.0000   1.0000   1.0000   1.0000   1.0000   1.0000   1.0000
     1.0000   1.0000   1.0000   1.0000   1.0000   1.0000   1.0000   1.0000
     1.0000   1.0000   1.0000   1.0000   1.0000   1.0000   1.0000   1.0000
     1.0000   1.0000   1.0000   1.0000   1.0000   1.0000   1.0000   1.0000
     1.0000   1.0000   1.0000   1.0000   1.0000   1.0000   1.0000   1.0000

          k = 0.0556 0.0556 0.2778 (  5367 PWs)   bands (ev):

    -1.3890  -1.3890   1.2691   1.2691   2.7904   2.7904   2.7907   2.7907
     8.4809   8.4809   8.4817   8.4817   9.5251   9.5251   9.5253   9.5253
     9.8366   9.8366  11.7500  11.7500  11.7501  11.7501  12.2643  12.2643
    12.9094  12.9094  13.0505  13.0505  13.9752  13.9752  14.9047  14.9047
    15.9205  15.9205  16.4754  16.4754  16.4761  16.4761  21.0868  21.0868
    22.6530  22.6530  22.7762  22.7762  24.1098  24.1098  24.1099  24.1099
    25.1888  25.1888  25.9254  25.9254  25.9263  25.9263  26.0291  26.0291
    26.9436  26.9436  28.4232  28.4232  28.5961  28.5961  28.8031  28.8031

     occupation numbers 
     1.0000   1.0000   1.0000   1.0000   1.0000   1.0000   1.0000   1.0000
     1.0000   1.0000   1.0000   1.0000   1.0000   1.0000   1.0000   1.0000
     1.0000   1.0000   1.0000   1.0000   1.0000   1.0000   1.0000   1.0000
     1.0000   1.0000   1.0000   1.0000   1.0000   1.0000   1.0000   1.0000
     1.0000   1.0000   1.0000   1.0000   1.0000   1.0000   1.0000   1.0000
     1.0000   1.0000   1.0000   1.0000   1.0000   1.0000   1.0000   1.0000
     1.0000   1.0000   1.0000   1.0000   1.0000   1.0000   1.0000   1.0000
     1.0000   1.0000   1.0000   1.0000   1.0000   1.0000   1.0000   1.0000

          k = 0.0556 0.0556 0.3889 (  5382 PWs)   bands (ev):

    -0.9125  -0.9125   0.4518   0.4518   2.9187   2.9187   2.9190   2.9190
     7.9181   7.9181   7.9191   7.9191   9.8891   9.8891   9.8892   9.8892
    10.4417  10.4417  11.1108  11.1108  11.1108  11.1108  11.9713  11.9713
    13.0281  13.0281  13.9137  13.9137  14.2680  14.2680  15.0028  15.0028
    15.2821  15.2821  18.4846  18.4846  18.4853  18.4853  19.0690  19.0690
    23.1949  23.1949  23.5913  23.5913  23.5923  23.5923  24.2999  24.2999
    24.5007  24.5007  25.6081  25.6081  25.6081  25.6081  26.4287  26.4287
    27.4338  27.4338  27.6613  27.6613  28.6245  28.6245  29.2002  29.2003

     occupation numbers 
     1.0000   1.0000   1.0000   1.0000   1.0000   1.0000   1.0000   1.0000
     1.0000   1.0000   1.0000   1.0000   1.0000   1.0000   1.0000   1.0000
     1.0000   1.0000   1.0000   1.0000   1.0000   1.0000   1.0000   1.0000
     1.0000   1.0000   1.0000   1.0000   1.0000   1.0000   1.0000   1.0000
     1.0000   1.0000   1.0000   1.0000   1.0000   1.0000   1.0000   1.0000
     1.0000   1.0000   1.0000   1.0000   1.0000   1.0000   1.0000   1.0000
     1.0000   1.0000   1.0000   1.0000   1.0000   1.0000   1.0000   1.0000
     1.0000   1.0000   1.0000   1.0000   1.0000   1.0000   1.0000   1.0000

          k = 0.0556 0.0556-0.5000 (  5374 PWs)   bands (ev):

    -0.2916  -0.2916  -0.2915  -0.2915   2.9740   2.9740   2.9743   2.9743
     7.7042   7.7042   7.7052   7.7052  10.2968  10.2968  10.2968  10.2968
    10.6140  10.6140  10.6140  10.6140  11.1441  11.1441  11.1448  11.1448
    13.6366  13.6366  13.6367  13.6367  14.6180  14.6180  14.6181  14.6181
    16.8722  16.8722  16.8724  16.8724  19.9506  19.9506  19.9511  19.9511
    22.0164  22.0164  22.0176  22.0176  23.7453  23.7453  23.7455  23.7455
    26.5182  26.5182  26.5185  26.5185  27.0780  27.0780  27.0783  27.0783
    27.2509  27.2509  27.2510  27.2510  27.4079  27.4079  27.4080  27.4080

     occupation numbers 
     1.0000   1.0000   1.0000   1.0000   1.0000   1.0000   1.0000   1.0000
     1.0000   1.0000   1.0000   1.0000   1.0000   1.0000   1.0000   1.0000
     1.0000   1.0000   1.0000   1.0000   1.0000   1.0000   1.0000   1.0000
     1.0000   1.0000   1.0000   1.0000   1.0000   1.0000   1.0000   1.0000
     1.0000   1.0000   1.0000   1.0000   1.0000   1.0000   1.0000   1.0000
     1.0000   1.0000   1.0000   1.0000   1.0000   1.0000   1.0000   1.0000
     1.0000   1.0000   1.0000   1.0000   1.0000   1.0000   1.0000   1.0000
     1.0000   1.0000   1.0000   1.0000   1.0000   1.0000   1.0000   1.0000

          k = 0.0556 0.1667 0.1667 (  5381 PWs)   bands (ev):

    -1.5497  -1.5497   2.1545   2.1545   2.1548   2.1548   2.7162   2.7162
     8.5519   8.5519   8.9070   8.9070   8.9072   8.9072   9.4056   9.4056
    10.7243  10.7243  10.7247  10.7247  12.4564  12.4564  12.4571  12.4571
    12.9362  12.9362  12.9939  12.9939  14.8283  14.8283  14.8287  14.8287
    14.9372  14.9372  15.3102  15.3102  16.6764  16.6764  20.7646  20.7646
    23.1208  23.1208  23.1209  23.1209  23.6329  23.6329  23.6526  23.6526
    24.7519  24.7519  25.9356  25.9356  27.0369  27.0369  27.1604  27.1604
    27.6526  27.6526  27.6527  27.6527  27.6876  27.6876  28.1787  28.1787

     occupation numbers 
     1.0000   1.0000   1.0000   1.0000   1.0000   1.0000   1.0000   1.0000
     1.0000   1.0000   1.0000   1.0000   1.0000   1.0000   1.0000   1.0000
     1.0000   1.0000   1.0000   1.0000   1.0000   1.0000   1.0000   1.0000
     1.0000   1.0000   1.0000   1.0000   1.0000   1.0000   1.0000   1.0000
     1.0000   1.0000   1.0000   1.0000   1.0000   1.0000   1.0000   1.0000
     1.0000   1.0000   1.0000   1.0000   1.0000   1.0000   1.0000   1.0000
     1.0000   1.0000   1.0000   1.0000   1.0000   1.0000   1.0000   1.0000
     1.0000   1.0000   1.0000   1.0000   1.0000   1.0000   1.0000   1.0000

          k = 0.0556 0.1667 0.2778 (  5372 PWs)   bands (ev):

    -1.2302  -1.2302   1.3941   1.3941   2.3391   2.3391   2.7935   2.7935
     7.8409   7.8409   8.2140   8.2140   9.1621   9.1621   9.6055   9.6055
    10.7228  10.7228  11.9312  11.9312  11.9791  11.9791  12.0809  12.0809
    12.7970  12.7970  12.8612  12.8612  14.8275  14.8275  15.2284  15.2284
    16.2617  16.2617  16.5292  16.5292  16.6439  16.6439  21.3516  21.3516
    22.4267  22.4267  23.3946  23.3946  24.2384  24.2384  24.5796  24.5796
    24.7573  24.7573  25.4082  25.4082  25.6221  25.6221  25.9372  25.9372
    26.9121  26.9121  26.9192  26.9192  28.1728  28.1728  29.3158  29.3158

     occupation numbers 
     1.0000   1.0000   1.0000   1.0000   1.0000   1.0000   1.0000   1.0000
     1.0000   1.0000   1.0000   1.0000   1.0000   1.0000   1.0000   1.0000
     1.0000   1.0000   1.0000   1.0000   1.0000   1.0000   1.0000   1.0000
     1.0000   1.0000   1.0000   1.0000   1.0000   1.0000   1.0000   1.0000
     1.0000   1.0000   1.0000   1.0000   1.0000   1.0000   1.0000   1.0000
     1.0000   1.0000   1.0000   1.0000   1.0000   1.0000   1.0000   1.0000
     1.0000   1.0000   1.0000   1.0000   1.0000   1.0000   1.0000   1.0000
     1.0000   1.0000   1.0000   1.0000   1.0000   1.0000   1.0000   1.0000

          k = 0.0556 0.1667 0.3889 (  5370 PWs)   bands (ev):

    -0.7572  -0.7572   0.5921   0.5921   2.5615   2.5615   2.8261   2.8261
     7.3518   7.3518   7.5880   7.5880   9.6178   9.6178  10.0234  10.0234
    10.9451  10.9451  11.0452  11.0452  11.4038  11.4038  12.2471  12.2471
    13.0103  13.0103  13.9691  13.9691  14.2259  14.2259  15.9611  15.9611
    15.9929  15.9929  18.1300  18.1300  18.6214  18.6214  19.3646  19.3646
    23.0986  23.0986  23.6308  23.6308  23.7964  23.7964  23.8351  23.8351
    24.9393  24.9393  25.1222  25.1222  25.7289  25.7289  26.1210  26.1210
    26.3152  26.3152  27.2800  27.2800  28.1983  28.1983  28.8832  28.8832

     occupation numbers 
     1.0000   1.0000   1.0000   1.0000   1.0000   1.0000   1.0000   1.0000
     1.0000   1.0000   1.0000   1.0000   1.0000   1.0000   1.0000   1.0000
     1.0000   1.0000   1.0000   1.0000   1.0000   1.0000   1.0000   1.0000
     1.0000   1.0000   1.0000   1.0000   1.0000   1.0000   1.0000   1.0000
     1.0000   1.0000   1.0000   1.0000   1.0000   1.0000   1.0000   1.0000
     1.0000   1.0000   1.0000   1.0000   1.0000   1.0000   1.0000   1.0000
     1.0000   1.0000   1.0000   1.0000   1.0000   1.0000   1.0000   1.0000
     1.0000   1.0000   1.0000   1.0000   1.0000   1.0000   1.0000   1.0000

          k = 0.0556 0.1667-0.5000 (  5372 PWs)   bands (ev):

    -0.1419  -0.1419  -0.1419  -0.1419   2.7478   2.7478   2.7480   2.7480
     7.2638   7.2638   7.2647   7.2647  10.2503  10.2503  10.2509  10.2509
    10.5560  10.5560  10.5560  10.5560  11.6707  11.6707  11.6709  11.6709
    13.6092  13.6092  13.6093  13.6093  15.1837  15.1837  15.1839  15.1839
    17.3524  17.3524  17.3526  17.3526  19.7827  19.7827  19.7831  19.7831
    21.8415  21.8415  21.8426  21.8426  24.2936  24.2936  24.2938  24.2938
    25.3371  25.3371  25.3374  25.3374  26.2691  26.2691  26.2693  26.2693
    27.4117  27.4117  27.4117  27.4117  27.9187  27.9187  27.9191  27.9191

     occupation numbers 
     1.0000   1.0000   1.0000   1.0000   1.0000   1.0000   1.0000   1.0000
     1.0000   1.0000   1.0000   1.0000   1.0000   1.0000   1.0000   1.0000
     1.0000   1.0000   1.0000   1.0000   1.0000   1.0000   1.0000   1.0000
     1.0000   1.0000   1.0000   1.0000   1.0000   1.0000   1.0000   1.0000
     1.0000   1.0000   1.0000   1.0000   1.0000   1.0000   1.0000   1.0000
     1.0000   1.0000   1.0000   1.0000   1.0000   1.0000   1.0000   1.0000
     1.0000   1.0000   1.0000   1.0000   1.0000   1.0000   1.0000   1.0000
[...]
     1.0000   1.0000   1.0000   1.0000   1.0000   1.0000   1.0000   1.0000
     1.0000   1.0000   1.0000   1.0000   1.0000   1.0000   1.0000   1.0000
     1.0000   1.0000   1.0000   1.0000   1.0000   1.0000   1.0000   1.0000
     1.0000   1.0000   1.0000   1.0000   1.0000   1.0000   1.0000   1.0000
     1.0000   1.0000   1.0000   1.0000   1.0000   1.0000   1.0000   1.0000
     1.0000   1.0000   1.0000   1.0000   1.0000   1.0000   1.0000   1.0000

          k = 0.2778 0.2778-0.5000 (  5382 PWs)   bands (ev):

     0.5634   0.5634   0.5634   0.5634   2.1276   2.1276   2.1278   2.1278
     5.9864   5.9864   5.9871   5.9871   7.5607   7.5607   7.5612   7.5612
    13.1276  13.1276  13.1277  13.1277  14.0983  14.0983  14.0987  14.0987
    14.9188  14.9188  14.9188  14.9188  15.9852  15.9852  15.9854  15.9854
    18.6216  18.6216  18.6219  18.6219  19.4662  19.4662  19.4666  19.4666
    21.0557  21.0557  21.0568  21.0568  22.9023  22.9023  22.9027  22.9027
    23.3340  23.3340  23.3340  23.3340  25.2351  25.2351  25.2353  25.2353
    25.6933  25.6933  25.6935  25.6935  27.5143  27.5143  27.5149  27.5149

     occupation numbers 
     1.0000   1.0000   1.0000   1.0000   1.0000   1.0000   1.0000   1.0000
     1.0000   1.0000   1.0000   1.0000   1.0000   1.0000   1.0000   1.0000
     1.0000   1.0000   1.0000   1.0000   1.0000   1.0000   1.0000   1.0000
     1.0000   1.0000   1.0000   1.0000   1.0000   1.0000   1.0000   1.0000
     1.0000   1.0000   1.0000   1.0000   1.0000   1.0000   1.0000   1.0000
     1.0000   1.0000   1.0000   1.0000   1.0000   1.0000   1.0000   1.0000
     1.0000   1.0000   1.0000   1.0000   1.0000   1.0000   1.0000   1.0000
     1.0000   1.0000   1.0000   1.0000   1.0000   1.0000   1.0000   1.0000

          k = 0.2778 0.3889 0.3889 (  5396 PWs)   bands (ev):

     0.4164   0.4164   1.5229   1.5229   1.5231   1.5231   2.0156   2.0156
     5.8188   5.8188   6.3128   6.3128   6.3134   6.3134   7.4244   7.4244
    13.3729  13.3729  14.1797  14.1797  14.1801  14.1801  15.1588  15.1588
    15.1591  15.1591  15.3038  15.3038  15.3430  15.3430  17.0459  17.0459
    18.3067  18.3067  18.6682  18.6682  18.6687  18.6687  20.4052  20.4052
    21.2724  21.2724  21.8645  21.8645  21.8647  21.8647  21.9447  21.9447
    22.2269  22.2269  24.2034  24.2034  24.3061  24.3061  24.3062  24.3062
    24.3339  24.3339  26.1196  26.1196  26.1202  26.1202  26.8840  26.8840

     occupation numbers 
     1.0000   1.0000   1.0000   1.0000   1.0000   1.0000   1.0000   1.0000
     1.0000   1.0000   1.0000   1.0000   1.0000   1.0000   1.0000   1.0000
     1.0000   1.0000   1.0000   1.0000   1.0000   1.0000   1.0000   1.0000
     1.0000   1.0000   1.0000   1.0000   1.0000   1.0000   1.0000   1.0000
     1.0000   1.0000   1.0000   1.0000   1.0000   1.0000   1.0000   1.0000
     1.0000   1.0000   1.0000   1.0000   1.0000   1.0000   1.0000   1.0000
     1.0000   1.0000   1.0000   1.0000   1.0000   1.0000   1.0000   1.0000
     1.0000   1.0000   1.0000   1.0000   1.0000   1.0000   1.0000   1.0000

          k = 0.2778 0.3889-0.5000 (  5396 PWs)   bands (ev):

     0.9449   0.9449   0.9449   0.9449   1.8226   1.8226   1.8228   1.8228
     5.8632   5.8632   5.8638   5.8638   6.7441   6.7441   6.7447   6.7447
    13.8364  13.8364  13.8364  13.8364  14.8440  14.8440  14.8440  14.8440
    15.4387  15.4387  15.4389  15.4389  16.4959  16.4959  16.4960  16.4960
    19.3694  19.3694  19.3698  19.3698  19.4275  19.4275  19.4279  19.4279
    20.9499  20.9499  20.9508  20.9508  21.3432  21.3432  21.3437  21.3437
    22.8685  22.8685  22.8685  22.8685  24.0892  24.0892  24.0895  24.0895
    24.9894  24.9894  24.9897  24.9897  26.2729  26.2729  26.2733  26.2733

     occupation numbers 
     1.0000   1.0000   1.0000   1.0000   1.0000   1.0000   1.0000   1.0000
     1.0000   1.0000   1.0000   1.0000   1.0000   1.0000   1.0000   1.0000
     1.0000   1.0000   1.0000   1.0000   1.0000   1.0000   1.0000   1.0000
     1.0000   1.0000   1.0000   1.0000   1.0000   1.0000   1.0000   1.0000
     1.0000   1.0000   1.0000   1.0000   1.0000   1.0000   1.0000   1.0000
     1.0000   1.0000   1.0000   1.0000   1.0000   1.0000   1.0000   1.0000
     1.0000   1.0000   1.0000   1.0000   1.0000   1.0000   1.0000   1.0000
     1.0000   1.0000   1.0000   1.0000   1.0000   1.0000   1.0000   1.0000

          k = 0.2778-0.5000-0.5000 (  5392 PWs)   bands (ev):

     1.3923   1.3923   1.3923   1.3923   1.3925   1.3925   1.3927   1.3927
     6.1457   6.1457   6.1457   6.1457   6.1458   6.1458   6.1470   6.1470
    14.3755  14.3755  14.3755  14.3755  14.3760  14.3760  14.3761  14.3761
    16.4987  16.4987  16.4988  16.4988  16.4990  16.4990  16.4991  16.4991
    19.6668  19.6668  19.6671  19.6671  19.6671  19.6671  19.6674  19.6674
    20.7357  20.7357  20.7365  20.7365  20.7367  20.7367  20.7367  20.7367
    22.8793  22.8793  22.8795  22.8795  22.8796  22.8796  22.8797  22.8797
    25.4464  25.4464  25.4465  25.4465  25.4467  25.4467  25.4475  25.4475

     occupation numbers 
     1.0000   1.0000   1.0000   1.0000   1.0000   1.0000   1.0000   1.0000
     1.0000   1.0000   1.0000   1.0000   1.0000   1.0000   1.0000   1.0000
     1.0000   1.0000   1.0000   1.0000   1.0000   1.0000   1.0000   1.0000
     1.0000   1.0000   1.0000   1.0000   1.0000   1.0000   1.0000   1.0000
     1.0000   1.0000   1.0000   1.0000   1.0000   1.0000   1.0000   1.0000
     1.0000   1.0000   1.0000   1.0000   1.0000   1.0000   1.0000   1.0000
     1.0000   1.0000   1.0000   1.0000   1.0000   1.0000   1.0000   1.0000
     1.0000   1.0000   1.0000   1.0000   1.0000   1.0000   1.0000   1.0000

          k = 0.3889 0.3889 0.3889 (  5394 PWs)   bands (ev):

     0.8026   0.8026   1.6989   1.6989   1.6989   1.6989   1.6992   1.6992
     5.7069   5.7069   5.7069   5.7069   5.7079   5.7079   6.6055   6.6055
    14.9107  14.9107  14.9108  14.9108  14.9109  14.9109  15.8226  15.8226
    15.8230  15.8230  15.8231  15.8231  15.9877  15.9877  17.1087  17.1087
    18.8143  18.8143  18.8143  18.8143  18.8152  18.8152  20.2613  20.2613
    21.0731  21.0731  21.5681  21.5681  21.5938  21.5938  21.5947  21.5947
    21.5948  21.5948  23.0919  23.0919  23.0920  23.0920  23.0922  23.0922
    23.2828  23.2828  25.0275  25.0275  25.0276  25.0276  25.0283  25.0283

     occupation numbers 
     1.0000   1.0000   1.0000   1.0000   1.0000   1.0000   1.0000   1.0000
     1.0000   1.0000   1.0000   1.0000   1.0000   1.0000   1.0000   1.0000
     1.0000   1.0000   1.0000   1.0000   1.0000   1.0000   1.0000   1.0000
     1.0000   1.0000   1.0000   1.0000   1.0000   1.0000   1.0000   1.0000
     1.0000   1.0000   1.0000   1.0000   1.0000   1.0000   1.0000   1.0000
     1.0000   1.0000   1.0000   1.0000   1.0000   1.0000   1.0000   1.0000
     1.0000   1.0000   1.0000   1.0000   1.0000   1.0000   1.0000   1.0000
     1.0000   1.0000   1.0000   1.0000   1.0000   1.0000   1.0000   1.0000

          k = 0.3889 0.3889-0.5000 (  5400 PWs)   bands (ev):

     1.2577   1.2577   1.2578   1.2578   1.7780   1.7780   1.7782   1.7782
     5.4789   5.4789   5.4796   5.4796   6.0002   6.0002   6.0008   6.0008
    15.1229  15.1229  15.1230  15.1230  15.7443  15.7443  15.7444  15.7444
    16.0794  16.0794  16.0797  16.0797  16.7673  16.7673  16.7674  16.7674
    19.5436  19.5436  19.5442  19.5442  19.5584  19.5584  19.5590  19.5590
    20.6171  20.6171  20.6181  20.6181  21.0921  21.0921  21.0926  21.0926
    22.0332  22.0332  22.0333  22.0333  22.8860  22.8860  22.8862  22.8862
    23.7221  23.7221  23.7225  23.7225  24.6325  24.6325  24.6330  24.6330

     occupation numbers 
     1.0000   1.0000   1.0000   1.0000   1.0000   1.0000   1.0000   1.0000
     1.0000   1.0000   1.0000   1.0000   1.0000   1.0000   1.0000   1.0000
     1.0000   1.0000   1.0000   1.0000   1.0000   1.0000   1.0000   1.0000
     1.0000   1.0000   1.0000   1.0000   1.0000   1.0000   1.0000   1.0000
     1.0000   1.0000   1.0000   1.0000   1.0000   1.0000   1.0000   1.0000
     1.0000   1.0000   1.0000   1.0000   1.0000   1.0000   1.0000   1.0000
     1.0000   1.0000   1.0000   1.0000   1.0000   1.0000   1.0000   1.0000
     1.0000   1.0000   1.0000   1.0000   1.0000   1.0000   1.0000   1.0000

          k = 0.3889-0.5000-0.5000 (  5404 PWs)   bands (ev):

     1.5715   1.5715   1.5715   1.5715   1.5716   1.5716   1.5719   1.5719
     5.5370   5.5370   5.5370   5.5370   5.5370   5.5370   5.5383   5.5383
    15.7002  15.7002  15.7004  15.7004  15.7006  15.7006  15.7006  15.7006
    16.8691  16.8691  16.8691  16.8691  16.8693  16.8693  16.8694  16.8694
    19.8234  19.8234  19.8240  19.8240  19.8240  19.8240  19.8247  19.8247
    20.4584  20.4584  20.4587  20.4587  20.4594  20.4594  20.4595  20.4595
    21.9673  21.9673  21.9674  21.9674  21.9675  21.9675  21.9676  21.9676
    23.7079  23.7079  23.7079  23.7079  23.7081  23.7081  23.7090  23.7090

     occupation numbers 
     1.0000   1.0000   1.0000   1.0000   1.0000   1.0000   1.0000   1.0000
     1.0000   1.0000   1.0000   1.0000   1.0000   1.0000   1.0000   1.0000
     1.0000   1.0000   1.0000   1.0000   1.0000   1.0000   1.0000   1.0000
     1.0000   1.0000   1.0000   1.0000   1.0000   1.0000   1.0000   1.0000
     1.0000   1.0000   1.0000   1.0000   1.0000   1.0000   1.0000   1.0000
     1.0000   1.0000   1.0000   1.0000   1.0000   1.0000   1.0000   1.0000
     1.0000   1.0000   1.0000   1.0000   1.0000   1.0000   1.0000   1.0000
     1.0000   1.0000   1.0000   1.0000   1.0000   1.0000   1.0000   1.0000

          k =-0.5000-0.5000-0.5000 (  5400 PWs)   bands (ev):

     1.6523   1.6523   1.6523   1.6523   1.6524   1.6524   1.6527   1.6527
     5.3074   5.3074   5.3074   5.3074   5.3074   5.3074   5.3087   5.3087
    16.1582  16.1582  16.1584  16.1584  16.1584  16.1584  16.1585  16.1585
    17.2842  17.2842  17.2842  17.2842  17.2845  17.2845  17.2845  17.2845
    19.7124  19.7124  19.7131  19.7131  19.7131  19.7131  19.7141  19.7141
    20.4916  20.4916  20.4916  20.4916  20.4926  20.4926  20.4926  20.4926
    21.5485  21.5485  21.5486  21.5486  21.5488  21.5488  21.5488  21.5488
    22.9555  22.9555  22.9555  22.9555  22.9555  22.9555  22.9565  22.9565

     occupation numbers 
     1.0000   1.0000   1.0000   1.0000   1.0000   1.0000   1.0000   1.0000
     1.0000   1.0000   1.0000   1.0000   1.0000   1.0000   1.0000   1.0000
     1.0000   1.0000   1.0000   1.0000   1.0000   1.0000   1.0000   1.0000
     1.0000   1.0000   1.0000   1.0000   1.0000   1.0000   1.0000   1.0000
     1.0000   1.0000   1.0000   1.0000   1.0000   1.0000   1.0000   1.0000
     1.0000   1.0000   1.0000   1.0000   1.0000   1.0000   1.0000   1.0000
     1.0000   1.0000   1.0000   1.0000   1.0000   1.0000   1.0000   1.0000
     1.0000   1.0000   1.0000   1.0000   1.0000   1.0000   1.0000   1.0000

     highest occupied level (ev):    29.5138

!    total energy              =   -3131.15659653 Ry
     Harris-Foulkes estimate   =   -3131.15659699 Ry
     estimated scf accuracy    <       0.00000053 Ry

     total all-electron energy =   -119218.212724 Ry

     The total energy is the sum of the following terms:

     one-electron contribution =     153.68226674 Ry
     hartree contribution      =       5.42732757 Ry
     xc contribution           =    -157.41715590 Ry
     ewald contribution        =    -332.73169529 Ry
     one-center paw contrib.   =   -2800.11733965 Ry
      -> PAW hartree energy AE =      42.91120827 Ry
      -> PAW hartree energy PS =     -42.79804185 Ry
      -> PAW xc energy AE      =    -381.08724881 Ry
      -> PAW xc energy PS      =      22.84129384 Ry
      -> total E_H with PAW    =       5.54049399 Ry
      -> total E_XC with PAW   =    -515.66311087 Ry

     convergence has been achieved in  63 iterations

     Forces acting on atoms (cartesian axes, Ry/au):

     atom    1 type  1   force =     0.00000000    0.00000000    0.00000000
     atom    2 type  1   force =     0.00000000   -0.00000000    0.00000000
     atom    3 type  1   force =     0.00000000    0.00000000    0.00000000
     atom    4 type  1   force =     0.00000000    0.00000000    0.00000000
     atom    5 type  2   force =     0.00000000    0.00000000    0.00000000
     atom    6 type  2   force =     0.00000000    0.00000000    0.00000000
     atom    7 type  2   force =     0.00000000    0.00000000    0.00000000
     atom    8 type  2   force =     0.00000000    0.00000000    0.00000000
     The non-local contrib.  to forces
     atom    1 type  1   force =     0.00000000    0.00000000   -0.00000000
     atom    2 type  1   force =     0.00000000    0.00000000    0.00000000
     atom    3 type  1   force =     0.00000000    0.00000000    0.00000000
     atom    4 type  1   force =     0.00000000    0.00000000    0.00000000
     atom    5 type  2   force =     0.00000000    0.00000000    0.00000000
     atom    6 type  2   force =     0.00000000    0.00000000    0.00000000
     atom    7 type  2   force =     0.00000000   -0.00000000    0.00000000
     atom    8 type  2   force =     0.00000000    0.00000000    0.00000000
     The ionic contribution  to forces
     atom    1 type  1   force =    -0.00000000   -0.00000000   -0.00000000
     atom    2 type  1   force =    -0.00000000    0.00000000    0.00000000
     atom    3 type  1   force =     0.00000000   -0.00000000    0.00000000
     atom    4 type  1   force =     0.00000000    0.00000000   -0.00000000
     atom    5 type  2   force =     0.00000000   -0.00000000   -0.00000000
     atom    6 type  2   force =     0.00000000    0.00000000    0.00000000
     atom    7 type  2   force =    -0.00000000   -0.00000000    0.00000000
     atom    8 type  2   force =    -0.00000000    0.00000000   -0.00000000
     The local contribution  to forces
     atom    1 type  1   force =     0.00000000    0.00000000   -0.00000000
     atom    2 type  1   force =     0.00000000    0.00000000    0.00000000
     atom    3 type  1   force =     0.00000000    0.00000000    0.00000000
     atom    4 type  1   force =     0.00000000    0.00000000   -0.00000000
     atom    5 type  2   force =     0.00000000   -0.00000000   -0.00000000
     atom    6 type  2   force =     0.00000000    0.00000000    0.00000000
     atom    7 type  2   force =     0.00000000   -0.00000000    0.00000000
     atom    8 type  2   force =     0.00000000    0.00000000   -0.00000000
     The core correction contribution to forces
     atom    1 type  1   force =     0.00000000    0.00000000   -0.00000000
     atom    2 type  1   force =     0.00000000   -0.00000000   -0.00000000
     atom    3 type  1   force =     0.00000000   -0.00000000   -0.00000000
     atom    4 type  1   force =     0.00000000   -0.00000000   -0.00000000
     atom    5 type  2   force =     0.00000000    0.00000000   -0.00000000
     atom    6 type  2   force =     0.00000000    0.00000000    0.00000000
     atom    7 type  2   force =     0.00000000   -0.00000000   -0.00000000
     atom    8 type  2   force =     0.00000000   -0.00000000   -0.00000000
     The Hubbard contrib.    to forces
     atom    1 type  1   force =     0.00000000    0.00000000    0.00000000
     atom    2 type  1   force =     0.00000000    0.00000000    0.00000000
     atom    3 type  1   force =     0.00000000    0.00000000    0.00000000
     atom    4 type  1   force =     0.00000000    0.00000000    0.00000000
     atom    5 type  2   force =     0.00000000    0.00000000    0.00000000
     atom    6 type  2   force =     0.00000000    0.00000000    0.00000000
     atom    7 type  2   force =     0.00000000    0.00000000    0.00000000
     atom    8 type  2   force =     0.00000000    0.00000000    0.00000000
     The SCF correction term to forces
     atom    1 type  1   force =    -0.00000000    0.00000000    0.00000000
     atom    2 type  1   force =    -0.00000000   -0.00000000   -0.00000000
     atom    3 type  1   force =    -0.00000000   -0.00000000   -0.00000000
     atom    4 type  1   force =    -0.00000000    0.00000000    0.00000000
     atom    5 type  2   force =     0.00000000    0.00000000   -0.00000000
     atom    6 type  2   force =    -0.00000000   -0.00000000   -0.00000000
     atom    7 type  2   force =    -0.00000000    0.00000000   -0.00000000
     atom    8 type  2   force =     0.00000000   -0.00000000    0.00000000

     Total force =     0.000000     Total SCF correction =     0.000000


     Computing stress (Cartesian axis) and pressure

     Message from routine stres:
     noncollinear stress + GGA not implemented

     Writing output data file CsIsalt.save/
 
     init_run     :      9.88s CPU     14.26s WALL (       1 calls)
     electrons    :   3687.09s CPU   5637.05s WALL (       1 calls)
     forces       :     16.95s CPU     23.87s WALL (       1 calls)

     Called by init_run:
     wfcinit      :      7.21s CPU     10.71s WALL (       1 calls)
     wfcinit:atom :      0.04s CPU      0.04s WALL (      35 calls)
     wfcinit:wfcr :      7.04s CPU     10.50s WALL (      35 calls)
     potinit      :      0.81s CPU      1.04s WALL (       1 calls)
     hinit0       :      0.67s CPU      1.08s WALL (       1 calls)

     Called by electrons:
     c_bands      :   3091.98s CPU   4749.37s WALL (      64 calls)
     sum_band     :    457.21s CPU    719.01s WALL (      64 calls)
     v_of_rho     :      0.75s CPU      1.19s WALL (      64 calls)
     v_h          :      0.11s CPU      0.21s WALL (      64 calls)
     v_xc         :      0.65s CPU      0.99s WALL (      65 calls)
     newd         :     71.79s CPU     82.13s WALL (      64 calls)
     PAW_pot      :     48.93s CPU     60.39s WALL (      64 calls)
     mix_rho      :      5.94s CPU      8.76s WALL (      64 calls)

     Called by c_bands:
     init_us_2    :      5.77s CPU     10.16s WALL (    4550 calls)
     cegterg      :   2956.16s CPU   4553.48s WALL (    2244 calls)

     Called by sum_band:
     sum_band:bec :    119.40s CPU    173.16s WALL (    2240 calls)
     addusdens    :     17.17s CPU     22.69s WALL (      64 calls)

     Called by *egterg:
     h_psi        :   1221.84s CPU   1909.65s WALL (   16555 calls)
     s_psi        :    106.03s CPU    145.54s WALL (   16555 calls)
     g_psi        :      2.96s CPU      3.15s WALL (   14276 calls)
     cdiaghg      :    709.96s CPU   1124.22s WALL (   16485 calls)
     cegterg:over :    355.58s CPU    525.38s WALL (   14276 calls)
     cegterg:upda :    287.28s CPU    432.38s WALL (   14276 calls)
     cegterg:last :     67.67s CPU     99.90s WALL (    2931 calls)
     cdiaghg:chol :     37.76s CPU     54.46s WALL (   16485 calls)
     cdiaghg:inve :     20.70s CPU     34.28s WALL (   16485 calls)
     cdiaghg:para :    149.20s CPU    225.17s WALL (   32970 calls)

     Called by h_psi:
     h_psi:pot    :   1215.55s CPU   1903.09s WALL (   16555 calls)
     h_psi:calbec :     39.85s CPU     53.61s WALL (   16555 calls)
     vloc_psi     :   1062.23s CPU   1693.17s WALL (   16555 calls)
     add_vuspsi   :    113.39s CPU    156.20s WALL (   16555 calls)

     General routines
     calbec       :     54.28s CPU     73.80s WALL (   18935 calls)
     fft          :      8.99s CPU     14.33s WALL (    1409 calls)
     ffts         :      7.55s CPU     12.12s WALL (     512 calls)
     fftw         :   1334.88s CPU   2148.38s WALL ( 2252512 calls)
     interpolate  :      5.63s CPU      9.83s WALL (     256 calls)
 
     Parallel routines
     fft_scatt_xy :     35.32s CPU     47.02s WALL ( 2254433 calls)
     fft_scatt_yz :   1137.25s CPU   1892.98s WALL ( 2254433 calls)

     PAW routines
     PAW_pot      :     48.93s CPU     60.39s WALL (      64 calls)
     PAW_symme    :      2.16s CPU      2.89s WALL (     128 calls)
 
     PWSCF        :      1h 2m CPU      1h34m WALL

 
   This run was terminated on:  13:54:15  23Jan2021            

=------------------------------------------------------------------------------=
   JOB DONE.
=------------------------------------------------------------------------------=
