
     Program PWSCF v.6.7MaX starts on 14Jan2021 at 12:45:22 

     This program is part of the open-source Quantum ESPRESSO suite
     for quantum simulation of materials; please cite
         "P. Giannozzi et al., J. Phys.:Condens. Matter 21 395502 (2009);
         "P. Giannozzi et al., J. Phys.:Condens. Matter 29 465901 (2017);
          URL http://www.quantum-espresso.org", 
     in publications or presentations arising from this work. More details at
     http://www.quantum-espresso.org/quote

     Parallel version (MPI), running on    19 processors

     MPI processes distributed on     1 nodes
     R & G space division:  proc/nbgrp/npool/nimage =      19
     Waiting for input...
     Reading input from standard input

     Current dimensions of program PWSCF are:
     Max number of different atomic species (ntypx) = 10
     Max number of k-points (npk) =  40000
     Max angular momentum in pseudopotentials (lmaxx) =  3
     file Cs.pbe-spn-kjpaw_psl.1.0.0.UPF: wavefunction(s)  5S 6S renormalized
     file I.pbe-n-kjpaw_psl.1.0.0.UPF: wavefunction(s)  5S renormalized

     Subspace diagonalization in iterative solution of the eigenvalue problem:
     a serial algorithm will be used

     Found symmetry operation: I + (  0.0000 -0.5000 -0.5000)
     This is a supercell, fractional translations are disabled
     Message from routine setup:
     using ibrav=0 with symmetry is DISCOURAGED, use correct ibrav instead

     Parallelization info
     --------------------
     sticks:   dense  smooth     PW     G-vecs:    dense   smooth      PW
     Min         220     220     60                10808    10808    1546
     Max         221     221     61                10815    10815    1549
     Sum        4197    4197   1153               205453   205453   29423


     Title: 
     CsIhexagonal                                                               


     bravais-lattice index     =            0
     lattice parameter (alat)  =      14.8517  a.u.
     unit-cell volume          =    3275.8799 (a.u.)^3
     number of atoms/cell      =            8
     number of atomic types    =            2
     number of electrons       =        64.00
     number of Kohn-Sham states=           32
     kinetic-energy cutoff     =      60.0000  Ry
     charge density cutoff     =     240.0000  Ry
     scf convergence threshold =      1.0E-06
     mixing beta               =       0.5000
     number of iterations used =            8  plain     mixing
     energy convergence thresh.=      1.0E-04
     force convergence thresh. =      1.0E-04
     press convergence thresh. =      5.0E-01
     Exchange-correlation= SLA  PW   PBX  PBC
                           (   1   4   3   4   0   0   0)
     nstep                     =           50


     celldm(1)=  14.851694  celldm(2)=   0.000000  celldm(3)=   0.000000
     celldm(4)=   0.000000  celldm(5)=   0.000000  celldm(6)=   0.000000

     crystal axes: (cart. coord. in units of alat)
               a(1) = (   1.000000   0.000000   0.000000 )  
               a(2) = (   0.000000   1.000000   0.000000 )  
               a(3) = (   0.000000   0.000000   1.000000 )  

     reciprocal axes: (cart. coord. in units 2 pi/alat)
               b(1) = (  1.000000  0.000000  0.000000 )  
               b(2) = (  0.000000  1.000000  0.000000 )  
               b(3) = (  0.000000  0.000000  1.000000 )  


     PseudoPot. # 1 for Cs read from file:
     ../../../pseudo/Cs.pbe-spn-kjpaw_psl.1.0.0.UPF
     MD5 check sum: b82c75cc2e1f4ff73b6412cffeb9c584
     Pseudo is Projector augmented-wave + core cor, Zval =  9.0
     Generated using &quot;atomic&quot; code by A. Dal Corso  v.6.4.1
     Shape of augmentation charge: PSQ
     Using radial grid of 1251 points,  9 beta functions with: 
                l(1) =   0
                l(2) =   0
                l(3) =   0
                l(4) =   1
                l(5) =   1
                l(6) =   2
                l(7) =   2
                l(8) =   3
                l(9) =   3
     Q(r) pseudized with 0 coefficients 


     PseudoPot. # 2 for I  read from file:
     ../../../pseudo/I.pbe-n-kjpaw_psl.1.0.0.UPF
     MD5 check sum: cd3d296c3308a581e1559a0c8a554cb5
     Pseudo is Projector augmented-wave + core cor, Zval =  7.0
     Generated using &quot;atomic&quot; code by A. Dal Corso  v.6.3
     Shape of augmentation charge: PSQ
     Using radial grid of 1247 points,  6 beta functions with: 
                l(1) =   0
                l(2) =   0
                l(3) =   1
                l(4) =   1
                l(5) =   2
                l(6) =   2
     Q(r) pseudized with 0 coefficients 


     atomic species   valence    mass     pseudopotential
        Cs             9.00   132.90000     Cs( 1.00)
        I              7.00   126.90000     I ( 1.00)

     48 Sym. Ops., with inversion, found


                                    s                        frac. trans.

      isym =  1     identity                                     

 cryst.   s( 1) = (     1          0          0      )
                  (     0          1          0      )
                  (     0          0          1      )

 cart.    s( 1) = (  1.0000000  0.0000000  0.0000000 )
                  (  0.0000000  1.0000000  0.0000000 )
                  (  0.0000000  0.0000000  1.0000000 )


      isym =  2     180 deg rotation - cart. axis [0,0,1]        

 cryst.   s( 2) = (    -1          0          0      )
                  (     0         -1          0      )
                  (     0          0          1      )

 cart.    s( 2) = ( -1.0000000  0.0000000  0.0000000 )
                  (  0.0000000 -1.0000000  0.0000000 )
                  (  0.0000000  0.0000000  1.0000000 )


      isym =  3     180 deg rotation - cart. axis [0,1,0]        

 cryst.   s( 3) = (    -1          0          0      )
                  (     0          1          0      )
                  (     0          0         -1      )

 cart.    s( 3) = ( -1.0000000  0.0000000  0.0000000 )
                  (  0.0000000  1.0000000  0.0000000 )
                  (  0.0000000  0.0000000 -1.0000000 )


      isym =  4     180 deg rotation - cart. axis [1,0,0]        

 cryst.   s( 4) = (     1          0          0      )
                  (     0         -1          0      )
                  (     0          0         -1      )

 cart.    s( 4) = (  1.0000000  0.0000000  0.0000000 )
                  (  0.0000000 -1.0000000  0.0000000 )
                  (  0.0000000  0.0000000 -1.0000000 )


      isym =  5     180 deg rotation - cart. axis [1,1,0]        

 cryst.   s( 5) = (     0          1          0      )
                  (     1          0          0      )
                  (     0          0         -1      )

 cart.    s( 5) = (  0.0000000  1.0000000  0.0000000 )
                  (  1.0000000  0.0000000  0.0000000 )
                  (  0.0000000  0.0000000 -1.0000000 )


      isym =  6     180 deg rotation - cart. axis [1,-1,0]       

 cryst.   s( 6) = (     0         -1          0      )
                  (    -1          0          0      )
                  (     0          0         -1      )

 cart.    s( 6) = (  0.0000000 -1.0000000  0.0000000 )
                  ( -1.0000000  0.0000000  0.0000000 )
                  (  0.0000000  0.0000000 -1.0000000 )


      isym =  7      90 deg rotation - cart. axis [0,0,-1]       

 cryst.   s( 7) = (     0         -1          0      )
                  (     1          0          0      )
                  (     0          0          1      )

 cart.    s( 7) = (  0.0000000  1.0000000  0.0000000 )
                  ( -1.0000000  0.0000000  0.0000000 )
                  (  0.0000000  0.0000000  1.0000000 )


      isym =  8      90 deg rotation - cart. axis [0,0,1]        

 cryst.   s( 8) = (     0          1          0      )
                  (    -1          0          0      )
                  (     0          0          1      )

 cart.    s( 8) = (  0.0000000 -1.0000000  0.0000000 )
                  (  1.0000000  0.0000000  0.0000000 )
                  (  0.0000000  0.0000000  1.0000000 )


      isym =  9     180 deg rotation - cart. axis [1,0,1]        

 cryst.   s( 9) = (     0          0          1      )
                  (     0         -1          0      )
                  (     1          0          0      )

 cart.    s( 9) = (  0.0000000  0.0000000  1.0000000 )
                  (  0.0000000 -1.0000000  0.0000000 )
                  (  1.0000000  0.0000000  0.0000000 )


      isym = 10     180 deg rotation - cart. axis [-1,0,1]       

 cryst.   s(10) = (     0          0         -1      )
                  (     0         -1          0      )
                  (    -1          0          0      )

 cart.    s(10) = (  0.0000000  0.0000000 -1.0000000 )
                  (  0.0000000 -1.0000000  0.0000000 )
                  ( -1.0000000  0.0000000  0.0000000 )


      isym = 11      90 deg rotation - cart. axis [0,1,0]        

 cryst.   s(11) = (     0          0         -1      )
                  (     0          1          0      )
                  (     1          0          0      )

 cart.    s(11) = (  0.0000000  0.0000000  1.0000000 )
                  (  0.0000000  1.0000000  0.0000000 )
                  ( -1.0000000  0.0000000  0.0000000 )


      isym = 12      90 deg rotation - cart. axis [0,-1,0]       

 cryst.   s(12) = (     0          0          1      )
                  (     0          1          0      )
                  (    -1          0          0      )

 cart.    s(12) = (  0.0000000  0.0000000 -1.0000000 )
                  (  0.0000000  1.0000000  0.0000000 )
                  (  1.0000000  0.0000000  0.0000000 )


      isym = 13     180 deg rotation - cart. axis [0,1,1]        

 cryst.   s(13) = (    -1          0          0      )
                  (     0          0          1      )
                  (     0          1          0      )

 cart.    s(13) = ( -1.0000000  0.0000000  0.0000000 )
                  (  0.0000000  0.0000000  1.0000000 )
                  (  0.0000000  1.0000000  0.0000000 )


      isym = 14     180 deg rotation - cart. axis [0,1,-1]       

 cryst.   s(14) = (    -1          0          0      )
                  (     0          0         -1      )
                  (     0         -1          0      )

 cart.    s(14) = ( -1.0000000  0.0000000  0.0000000 )
                  (  0.0000000  0.0000000 -1.0000000 )
                  (  0.0000000 -1.0000000  0.0000000 )


      isym = 15      90 deg rotation - cart. axis [-1,0,0]       

 cryst.   s(15) = (     1          0          0      )
                  (     0          0         -1      )
                  (     0          1          0      )

 cart.    s(15) = (  1.0000000  0.0000000  0.0000000 )
                  (  0.0000000  0.0000000  1.0000000 )
                  (  0.0000000 -1.0000000  0.0000000 )


      isym = 16      90 deg rotation - cart. axis [1,0,0]        

 cryst.   s(16) = (     1          0          0      )
                  (     0          0          1      )
                  (     0         -1          0      )

 cart.    s(16) = (  1.0000000  0.0000000  0.0000000 )
                  (  0.0000000  0.0000000 -1.0000000 )
                  (  0.0000000  1.0000000  0.0000000 )


      isym = 17     120 deg rotation - cart. axis [-1,-1,-1]     

 cryst.   s(17) = (     0          0          1      )
                  (     1          0          0      )
                  (     0          1          0      )

 cart.    s(17) = (  0.0000000  1.0000000  0.0000000 )
                  (  0.0000000  0.0000000  1.0000000 )
                  (  1.0000000  0.0000000  0.0000000 )


      isym = 18     120 deg rotation - cart. axis [-1,1,1]       

 cryst.   s(18) = (     0          0         -1      )
                  (    -1          0          0      )
                  (     0          1          0      )

 cart.    s(18) = (  0.0000000 -1.0000000  0.0000000 )
                  (  0.0000000  0.0000000  1.0000000 )
                  ( -1.0000000  0.0000000  0.0000000 )


      isym = 19     120 deg rotation - cart. axis [1,1,-1]       

 cryst.   s(19) = (     0          0         -1      )
                  (     1          0          0      )
                  (     0         -1          0      )

 cart.    s(19) = (  0.0000000  1.0000000  0.0000000 )
                  (  0.0000000  0.0000000 -1.0000000 )
                  ( -1.0000000  0.0000000  0.0000000 )


      isym = 20     120 deg rotation - cart. axis [1,-1,1]       

 cryst.   s(20) = (     0          0          1      )
                  (    -1          0          0      )
                  (     0         -1          0      )

 cart.    s(20) = (  0.0000000 -1.0000000  0.0000000 )
                  (  0.0000000  0.0000000 -1.0000000 )
                  (  1.0000000  0.0000000  0.0000000 )


      isym = 21     120 deg rotation - cart. axis [1,1,1]        

 cryst.   s(21) = (     0          1          0      )
                  (     0          0          1      )
                  (     1          0          0      )

 cart.    s(21) = (  0.0000000  0.0000000  1.0000000 )
                  (  1.0000000  0.0000000  0.0000000 )
                  (  0.0000000  1.0000000  0.0000000 )


      isym = 22     120 deg rotation - cart. axis [-1,1,-1]      

 cryst.   s(22) = (     0         -1          0      )
                  (     0          0         -1      )
                  (     1          0          0      )

 cart.    s(22) = (  0.0000000  0.0000000  1.0000000 )
                  ( -1.0000000  0.0000000  0.0000000 )
                  (  0.0000000 -1.0000000  0.0000000 )


      isym = 23     120 deg rotation - cart. axis [1,-1,-1]      

 cryst.   s(23) = (     0         -1          0      )
                  (     0          0          1      )
                  (    -1          0          0      )

 cart.    s(23) = (  0.0000000  0.0000000 -1.0000000 )
                  ( -1.0000000  0.0000000  0.0000000 )
                  (  0.0000000  1.0000000  0.0000000 )


      isym = 24     120 deg rotation - cart. axis [-1,-1,1]      

 cryst.   s(24) = (     0          1          0      )
                  (     0          0         -1      )
                  (    -1          0          0      )

 cart.    s(24) = (  0.0000000  0.0000000 -1.0000000 )
                  (  1.0000000  0.0000000  0.0000000 )
                  (  0.0000000 -1.0000000  0.0000000 )


      isym = 25     inversion                                    

 cryst.   s(25) = (    -1          0          0      )
                  (     0         -1          0      )
                  (     0          0         -1      )

 cart.    s(25) = ( -1.0000000  0.0000000  0.0000000 )
                  (  0.0000000 -1.0000000  0.0000000 )
                  (  0.0000000  0.0000000 -1.0000000 )


      isym = 26     inv. 180 deg rotation - cart. axis [0,0,1]   

 cryst.   s(26) = (     1          0          0      )
                  (     0          1          0      )
                  (     0          0         -1      )

 cart.    s(26) = (  1.0000000  0.0000000  0.0000000 )
                  (  0.0000000  1.0000000  0.0000000 )
                  (  0.0000000  0.0000000 -1.0000000 )


      isym = 27     inv. 180 deg rotation - cart. axis [0,1,0]   

 cryst.   s(27) = (     1          0          0      )
                  (     0         -1          0      )
                  (     0          0          1      )

 cart.    s(27) = (  1.0000000  0.0000000  0.0000000 )
                  (  0.0000000 -1.0000000  0.0000000 )
                  (  0.0000000  0.0000000  1.0000000 )


      isym = 28     inv. 180 deg rotation - cart. axis [1,0,0]   

 cryst.   s(28) = (    -1          0          0      )
                  (     0          1          0      )
                  (     0          0          1      )

 cart.    s(28) = ( -1.0000000  0.0000000  0.0000000 )
                  (  0.0000000  1.0000000  0.0000000 )
                  (  0.0000000  0.0000000  1.0000000 )


      isym = 29     inv. 180 deg rotation - cart. axis [1,1,0]   

 cryst.   s(29) = (     0         -1          0      )
                  (    -1          0          0      )
                  (     0          0          1      )

 cart.    s(29) = (  0.0000000 -1.0000000  0.0000000 )
                  ( -1.0000000  0.0000000  0.0000000 )
                  (  0.0000000  0.0000000  1.0000000 )


      isym = 30     inv. 180 deg rotation - cart. axis [1,-1,0]  

 cryst.   s(30) = (     0          1          0      )
                  (     1          0          0      )
                  (     0          0          1      )

 cart.    s(30) = (  0.0000000  1.0000000  0.0000000 )
                  (  1.0000000  0.0000000  0.0000000 )
                  (  0.0000000  0.0000000  1.0000000 )


      isym = 31     inv.  90 deg rotation - cart. axis [0,0,-1]  

 cryst.   s(31) = (     0          1          0      )
                  (    -1          0          0      )
                  (     0          0         -1      )

 cart.    s(31) = (  0.0000000 -1.0000000  0.0000000 )
                  (  1.0000000  0.0000000  0.0000000 )
                  (  0.0000000  0.0000000 -1.0000000 )


      isym = 32     inv.  90 deg rotation - cart. axis [0,0,1]   

 cryst.   s(32) = (     0         -1          0      )
                  (     1          0          0      )
                  (     0          0         -1      )

 cart.    s(32) = (  0.0000000  1.0000000  0.0000000 )
                  ( -1.0000000  0.0000000  0.0000000 )
                  (  0.0000000  0.0000000 -1.0000000 )


      isym = 33     inv. 180 deg rotation - cart. axis [1,0,1]   

 cryst.   s(33) = (     0          0         -1      )
                  (     0          1          0      )
                  (    -1          0          0      )

 cart.    s(33) = (  0.0000000  0.0000000 -1.0000000 )
                  (  0.0000000  1.0000000  0.0000000 )
                  ( -1.0000000  0.0000000  0.0000000 )


      isym = 34     inv. 180 deg rotation - cart. axis [-1,0,1]  

 cryst.   s(34) = (     0          0          1      )
                  (     0          1          0      )
                  (     1          0          0      )

 cart.    s(34) = (  0.0000000  0.0000000  1.0000000 )
                  (  0.0000000  1.0000000  0.0000000 )
                  (  1.0000000  0.0000000  0.0000000 )


      isym = 35     inv.  90 deg rotation - cart. axis [0,1,0]   

 cryst.   s(35) = (     0          0          1      )
                  (     0         -1          0      )
                  (    -1          0          0      )

 cart.    s(35) = (  0.0000000  0.0000000 -1.0000000 )
                  (  0.0000000 -1.0000000  0.0000000 )
                  (  1.0000000  0.0000000  0.0000000 )


      isym = 36     inv.  90 deg rotation - cart. axis [0,-1,0]  

 cryst.   s(36) = (     0          0         -1      )
                  (     0         -1          0      )
                  (     1          0          0      )

 cart.    s(36) = (  0.0000000  0.0000000  1.0000000 )
                  (  0.0000000 -1.0000000  0.0000000 )
                  ( -1.0000000  0.0000000  0.0000000 )


      isym = 37     inv. 180 deg rotation - cart. axis [0,1,1]   

 cryst.   s(37) = (     1          0          0      )
                  (     0          0         -1      )
                  (     0         -1          0      )

 cart.    s(37) = (  1.0000000  0.0000000  0.0000000 )
                  (  0.0000000  0.0000000 -1.0000000 )
                  (  0.0000000 -1.0000000  0.0000000 )


      isym = 38     inv. 180 deg rotation - cart. axis [0,1,-1]  

 cryst.   s(38) = (     1          0          0      )
                  (     0          0          1      )
                  (     0          1          0      )

 cart.    s(38) = (  1.0000000  0.0000000  0.0000000 )
                  (  0.0000000  0.0000000  1.0000000 )
                  (  0.0000000  1.0000000  0.0000000 )


      isym = 39     inv.  90 deg rotation - cart. axis [-1,0,0]  

 cryst.   s(39) = (    -1          0          0      )
                  (     0          0          1      )
                  (     0         -1          0      )

 cart.    s(39) = ( -1.0000000  0.0000000  0.0000000 )
                  (  0.0000000  0.0000000 -1.0000000 )
                  (  0.0000000  1.0000000  0.0000000 )


      isym = 40     inv.  90 deg rotation - cart. axis [1,0,0]   

 cryst.   s(40) = (    -1          0          0      )
                  (     0          0         -1      )
                  (     0          1          0      )

 cart.    s(40) = ( -1.0000000  0.0000000  0.0000000 )
                  (  0.0000000  0.0000000  1.0000000 )
                  (  0.0000000 -1.0000000  0.0000000 )


      isym = 41     inv. 120 deg rotation - cart. axis [-1,-1,-1]

 cryst.   s(41) = (     0          0         -1      )
                  (    -1          0          0      )
                  (     0         -1          0      )

 cart.    s(41) = (  0.0000000 -1.0000000  0.0000000 )
                  (  0.0000000  0.0000000 -1.0000000 )
                  ( -1.0000000  0.0000000  0.0000000 )


      isym = 42     inv. 120 deg rotation - cart. axis [-1,1,1]  

 cryst.   s(42) = (     0          0          1      )
                  (     1          0          0      )
                  (     0         -1          0      )

 cart.    s(42) = (  0.0000000  1.0000000  0.0000000 )
                  (  0.0000000  0.0000000 -1.0000000 )
                  (  1.0000000  0.0000000  0.0000000 )


      isym = 43     inv. 120 deg rotation - cart. axis [1,1,-1]  

 cryst.   s(43) = (     0          0          1      )
                  (    -1          0          0      )
                  (     0          1          0      )

 cart.    s(43) = (  0.0000000 -1.0000000  0.0000000 )
                  (  0.0000000  0.0000000  1.0000000 )
                  (  1.0000000  0.0000000  0.0000000 )


      isym = 44     inv. 120 deg rotation - cart. axis [1,-1,1]  

 cryst.   s(44) = (     0          0         -1      )
                  (     1          0          0      )
                  (     0          1          0      )

 cart.    s(44) = (  0.0000000  1.0000000  0.0000000 )
                  (  0.0000000  0.0000000  1.0000000 )
                  ( -1.0000000  0.0000000  0.0000000 )


      isym = 45     inv. 120 deg rotation - cart. axis [1,1,1]   

 cryst.   s(45) = (     0         -1          0      )
                  (     0          0         -1      )
                  (    -1          0          0      )

 cart.    s(45) = (  0.0000000  0.0000000 -1.0000000 )
                  ( -1.0000000  0.0000000  0.0000000 )
                  (  0.0000000 -1.0000000  0.0000000 )


      isym = 46     inv. 120 deg rotation - cart. axis [-1,1,-1] 

 cryst.   s(46) = (     0          1          0      )
                  (     0          0          1      )
                  (    -1          0          0      )

 cart.    s(46) = (  0.0000000  0.0000000 -1.0000000 )
                  (  1.0000000  0.0000000  0.0000000 )
                  (  0.0000000  1.0000000  0.0000000 )


      isym = 47     inv. 120 deg rotation - cart. axis [1,-1,-1] 

 cryst.   s(47) = (     0          1          0      )
                  (     0          0         -1      )
                  (     1          0          0      )

 cart.    s(47) = (  0.0000000  0.0000000  1.0000000 )
                  (  1.0000000  0.0000000  0.0000000 )
                  (  0.0000000 -1.0000000  0.0000000 )


      isym = 48     inv. 120 deg rotation - cart. axis [-1,-1,1] 

 cryst.   s(48) = (     0         -1          0      )
                  (     0          0          1      )
                  (     1          0          0      )

 cart.    s(48) = (  0.0000000  0.0000000  1.0000000 )
                  ( -1.0000000  0.0000000  0.0000000 )
                  (  0.0000000  1.0000000  0.0000000 )


   Cartesian axes

     site n.     atom                  positions (alat units)
         1           Cs  tau(   1) = (   0.0000000   0.0000000   0.0000000  )
         2           Cs  tau(   2) = (   0.0000000   0.5000000   0.5000000  )
         3           Cs  tau(   3) = (   0.5000000   0.0000000   0.5000000  )
         4           Cs  tau(   4) = (   0.5000000   0.5000000   0.0000000  )
         5           I   tau(   5) = (   0.5000000   0.0000000   0.0000000  )
         6           I   tau(   6) = (   0.5000000   0.5000000   0.5000000  )
         7           I   tau(   7) = (   0.0000000   0.0000000   0.5000000  )
         8           I   tau(   8) = (   0.0000000   0.5000000   0.0000000  )

   Crystallographic axes

     site n.     atom                  positions (cryst. coord.)
         1           Cs  tau(   1) = (  0.0000000  0.0000000  0.0000000  )
         2           Cs  tau(   2) = (  0.0000000  0.5000000  0.5000000  )
         3           Cs  tau(   3) = (  0.5000000  0.0000000  0.5000000  )
         4           Cs  tau(   4) = (  0.5000000  0.5000000  0.0000000  )
         5           I   tau(   5) = (  0.5000000  0.0000000  0.0000000  )
         6           I   tau(   6) = (  0.5000000  0.5000000  0.5000000  )
         7           I   tau(   7) = (  0.0000000  0.0000000  0.5000000  )
         8           I   tau(   8) = (  0.0000000  0.5000000  0.0000000  )

     number of k points=     4
                       cart. coord. in units 2pi/alat
        k(    1) = (   0.0000000   0.0000000   0.0000000), wk =   0.2500000
        k(    2) = (   0.0000000   0.0000000  -0.5000000), wk =   0.7500000
        k(    3) = (   0.0000000  -0.5000000  -0.5000000), wk =   0.7500000
        k(    4) = (  -0.5000000  -0.5000000  -0.5000000), wk =   0.2500000

                       cryst. coord.
        k(    1) = (   0.0000000   0.0000000   0.0000000), wk =   0.2500000
        k(    2) = (   0.0000000   0.0000000  -0.5000000), wk =   0.7500000
        k(    3) = (   0.0000000  -0.5000000  -0.5000000), wk =   0.7500000
        k(    4) = (  -0.5000000  -0.5000000  -0.5000000), wk =   0.2500000

     Dense  grid:   205453 G-vectors     FFT dimensions: (  75,  75,  75)

     Dynamical RAM for                 wfc:       0.66 MB

     Dynamical RAM for     wfc (w. buffer):       3.30 MB

     Dynamical RAM for           str. fact:       0.33 MB

     Dynamical RAM for           local pot:       0.00 MB

     Dynamical RAM for          nlocal pot:       4.21 MB

     Dynamical RAM for                qrad:      14.93 MB

     Dynamical RAM for          rho,v,vnew:       1.01 MB

     Dynamical RAM for               rhoin:       0.34 MB

     Dynamical RAM for            rho*nmix:       2.64 MB

     Dynamical RAM for           G-vectors:       0.70 MB

     Dynamical RAM for          h,s,v(r/c):       0.19 MB

     Dynamical RAM for          <psi|beta>:       0.10 MB

     Dynamical RAM for                 psi:       1.32 MB

     Dynamical RAM for                hpsi:       1.32 MB

     Dynamical RAM for                spsi:       1.32 MB

     Dynamical RAM for      wfcinit/wfcrot:       1.52 MB

     Dynamical RAM for           addusdens:      97.69 MB

     Dynamical RAM for          addusforce:      98.82 MB

     Dynamical RAM for         addusstress:     101.49 MB

     Estimated static dynamical RAM per process >      28.82 MB

     Estimated max dynamical RAM per process >     130.31 MB

     Estimated total dynamical RAM >       2.42 GB

     Initial potential from superposition of free atoms

     starting charge   63.84126, renormalised to   64.00000
     Starting wfcs are   36 randomized atomic wfcs
     Checking if some PAW data can be deallocated... 
       PAW data deallocated on    8 nodes for type:  1
       PAW data deallocated on   11 nodes for type:  2

     total cpu time spent up to now is        9.1 secs

     Self-consistent Calculation

     iteration #  1     ecut=    60.00 Ry     beta= 0.50
     Davidson diagonalization with overlap
     ethr =  1.00E-02,  avg # of iterations =  1.0

     Threshold (ethr) on eigenvalues was too large:
     Diagonalizing with lowered threshold

     Davidson diagonalization with overlap
     ethr =  4.21E-04,  avg # of iterations =  3.5

     total cpu time spent up to now is       18.5 secs

     total energy              =   -3179.51319435 Ry
     estimated scf accuracy    <       0.22373186 Ry

     iteration #  2     ecut=    60.00 Ry     beta= 0.50
     Davidson diagonalization with overlap
     ethr =  3.50E-04,  avg # of iterations =  4.8

     total cpu time spent up to now is       30.1 secs

     total energy              =   -3179.60449828 Ry
     estimated scf accuracy    <       0.01162003 Ry

     iteration #  3     ecut=    60.00 Ry     beta= 0.50
     Davidson diagonalization with overlap
     ethr =  1.82E-05,  avg # of iterations =  5.8

     total cpu time spent up to now is       44.5 secs

     total energy              =   -3179.61141657 Ry
     estimated scf accuracy    <       0.00430634 Ry

     iteration #  4     ecut=    60.00 Ry     beta= 0.50
     Davidson diagonalization with overlap
     ethr =  6.73E-06,  avg # of iterations =  5.2

     total cpu time spent up to now is       50.9 secs

     total energy              =   -3179.61301039 Ry
     estimated scf accuracy    <       0.00053873 Ry

     iteration #  5     ecut=    60.00 Ry     beta= 0.50
     Davidson diagonalization with overlap
     ethr =  8.42E-07,  avg # of iterations =  6.2

     total cpu time spent up to now is       58.9 secs

     total energy              =   -3179.61318513 Ry
     estimated scf accuracy    <       0.00021357 Ry

     iteration #  6     ecut=    60.00 Ry     beta= 0.50
     Davidson diagonalization with overlap
     ethr =  3.34E-07,  avg # of iterations =  5.5

     total cpu time spent up to now is       66.3 secs

     total energy              =   -3179.61327639 Ry
     estimated scf accuracy    <       0.00018050 Ry

     iteration #  7     ecut=    60.00 Ry     beta= 0.50
     Davidson diagonalization with overlap
     ethr =  2.82E-07,  avg # of iterations =  4.2

     total cpu time spent up to now is       72.2 secs

     total energy              =   -3179.61333391 Ry
     estimated scf accuracy    <       0.00000922 Ry

     iteration #  8     ecut=    60.00 Ry     beta= 0.50
     Davidson diagonalization with overlap
     ethr =  1.44E-08,  avg # of iterations =  7.0

     total cpu time spent up to now is       80.0 secs

     total energy              =   -3179.61334965 Ry
     estimated scf accuracy    <       0.00000237 Ry

     iteration #  9     ecut=    60.00 Ry     beta= 0.50
     Davidson diagonalization with overlap
     ethr =  3.71E-09,  avg # of iterations =  4.2

     total cpu time spent up to now is       84.6 secs

     total energy              =   -3179.61334815 Ry
     estimated scf accuracy    <       0.00000487 Ry

     iteration # 10     ecut=    60.00 Ry     beta= 0.50
     Davidson diagonalization with overlap
     ethr =  3.71E-09,  avg # of iterations =  2.5

     total cpu time spent up to now is       89.9 secs

     total energy              =   -3179.61334794 Ry
     estimated scf accuracy    <       0.00000130 Ry

     iteration # 11     ecut=    60.00 Ry     beta= 0.50
     Davidson diagonalization with overlap
     ethr =  2.04E-09,  avg # of iterations =  3.8

     total cpu time spent up to now is       95.6 secs

     End of self-consistent calculation

          k = 0.0000 0.0000 0.0000 ( 25677 PWs)   bands (ev):

   -19.0137 -19.0053 -19.0053 -19.0052  -9.1824  -9.1530  -9.1530  -9.1527
    -5.9528  -5.9528  -5.9528  -5.8659  -5.8659  -5.8659  -5.8659  -5.8659
    -5.8659  -5.8073  -5.8073  -5.8073   0.6926   0.6926   0.6926   0.8876
     0.8876   0.8876   0.8877   0.8877   0.8877   0.9849   0.9849   0.9849

     occupation numbers 
     1.0000   1.0000   1.0000   1.0000   1.0000   1.0000   1.0000   1.0000
     1.0000   1.0000   1.0000   1.0000   1.0000   1.0000   1.0000   1.0000
     1.0000   1.0000   1.0000   1.0000   1.0000   1.0000   1.0000   1.0000
     1.0000   1.0000   1.0000   1.0000   1.0000   1.0000   1.0000   1.0000

          k = 0.0000 0.0000-0.5000 ( 25628 PWs)   bands (ev):

   -19.0094 -19.0094 -19.0052 -19.0051  -9.1871  -9.1869  -9.1720  -9.1718
    -5.9093  -5.9093  -5.9093  -5.9093  -5.8364  -5.8364  -5.8363  -5.8363
    -5.8052  -5.8052  -5.7918  -5.7918   0.5193   0.5194   0.5878   0.5879
     0.7669   0.7669   0.7670   0.7670   0.9207   0.9207   0.9208   0.9208

     occupation numbers 
     1.0000   1.0000   1.0000   1.0000   1.0000   1.0000   1.0000   1.0000
     1.0000   1.0000   1.0000   1.0000   1.0000   1.0000   1.0000   1.0000
     1.0000   1.0000   1.0000   1.0000   1.0000   1.0000   1.0000   1.0000
     1.0000   1.0000   1.0000   1.0000   1.0000   1.0000   1.0000   1.0000

          k = 0.0000-0.5000-0.5000 ( 25708 PWs)   bands (ev):

   -19.0072 -19.0072 -19.0072 -19.0071  -9.1986  -9.1986  -9.1986  -9.1982
    -5.8727  -5.8727  -5.8727  -5.8726  -5.8116  -5.8116  -5.8116  -5.8116
    -5.7845  -5.7845  -5.7845  -5.7845   0.3956   0.3956   0.3957   0.3957
     0.6923   0.6923   0.6924   0.6924   0.8245   0.8245   0.8245   0.8248

     occupation numbers 
     1.0000   1.0000   1.0000   1.0000   1.0000   1.0000   1.0000   1.0000
     1.0000   1.0000   1.0000   1.0000   1.0000   1.0000   1.0000   1.0000
     1.0000   1.0000   1.0000   1.0000   1.0000   1.0000   1.0000   1.0000
     1.0000   1.0000   1.0000   1.0000   1.0000   1.0000   1.0000   1.0000

          k =-0.5000-0.5000-0.5000 ( 25768 PWs)   bands (ev):

   -19.0071 -19.0071 -19.0071 -19.0070  -9.2173  -9.2173  -9.2173  -9.2170
    -5.8111  -5.8111  -5.8111  -5.8111  -5.8111  -5.8111  -5.8111  -5.8111
    -5.7706  -5.7706  -5.7706  -5.7706   0.2457   0.2457   0.2457   0.2457
     0.6784   0.6784   0.6784   0.6784   0.6784   0.6785   0.6785   0.6785

     occupation numbers 
     1.0000   1.0000   1.0000   1.0000   1.0000   1.0000   1.0000   1.0000
     1.0000   1.0000   1.0000   1.0000   1.0000   1.0000   1.0000   1.0000
     1.0000   1.0000   1.0000   1.0000   1.0000   1.0000   1.0000   1.0000
     1.0000   1.0000   1.0000   1.0000   1.0000   1.0000   1.0000   1.0000

     highest occupied level (ev):     0.9849

!    total energy              =   -3179.61334819 Ry

     total all-electron energy =   -119228.277365 Ry
     estimated scf accuracy    <       0.00000011 Ry

     The total energy is the sum of the following terms:
     one-electron contribution =     -41.42797879 Ry
     hartree contribution      =      44.71032573 Ry
     xc contribution           =    -147.83361562 Ry
     ewald contribution        =    -197.50970197 Ry
     one-center paw contrib.   =   -2837.55237754 Ry
      -> PAW hartree energy AE =      25.67131954 Ry
      -> PAW hartree energy PS =     -25.56164555 Ry
      -> PAW xc energy AE      =    -383.53679249 Ry
      -> PAW xc energy PS      =      20.52066441 Ry
      -> total E_H with PAW    =      44.81999972 Ry
      -> total E_XC with PAW   =    -510.84974371 Ry

     convergence has been achieved in  11 iterations

     Forces acting on atoms (cartesian axes, Ry/au):

     atom    1 type  1   force =     0.00000000    0.00000000    0.00000000
     atom    2 type  1   force =     0.00000000    0.00000000    0.00000000
     atom    3 type  1   force =     0.00000000    0.00000000    0.00000000
     atom    4 type  1   force =     0.00000000    0.00000000    0.00000000
     atom    5 type  2   force =     0.00000000    0.00000000    0.00000000
     atom    6 type  2   force =     0.00000000    0.00000000    0.00000000
     atom    7 type  2   force =     0.00000000    0.00000000    0.00000000
     atom    8 type  2   force =     0.00000000    0.00000000    0.00000000
     The non-local contrib.  to forces
     atom    1 type  1   force =     0.00000000    0.00000000    0.00000000
     atom    2 type  1   force =     0.00000000    0.00000000    0.00000000
     atom    3 type  1   force =     0.00000000    0.00000000    0.00000000
     atom    4 type  1   force =     0.00000000    0.00000000    0.00000000
     atom    5 type  2   force =     0.00000000    0.00000000    0.00000000
     atom    6 type  2   force =     0.00000000    0.00000000    0.00000000
     atom    7 type  2   force =     0.00000000    0.00000000    0.00000000
     atom    8 type  2   force =     0.00000000    0.00000000    0.00000000
     The ionic contribution  to forces
     atom    1 type  1   force =    -0.00000000   -0.00000000   -0.00000000
     atom    2 type  1   force =    -0.00000000    0.00000000    0.00000000
     atom    3 type  1   force =     0.00000000   -0.00000000    0.00000000
     atom    4 type  1   force =     0.00000000    0.00000000   -0.00000000
     atom    5 type  2   force =     0.00000000   -0.00000000   -0.00000000
     atom    6 type  2   force =     0.00000000    0.00000000    0.00000000
     atom    7 type  2   force =    -0.00000000   -0.00000000    0.00000000
     atom    8 type  2   force =    -0.00000000    0.00000000   -0.00000000
     The local contribution  to forces
     atom    1 type  1   force =    -0.00000000   -0.00000000   -0.00000000
     atom    2 type  1   force =    -0.00000000    0.00000000    0.00000000
     atom    3 type  1   force =     0.00000000   -0.00000000    0.00000000
     atom    4 type  1   force =     0.00000000    0.00000000   -0.00000000
     atom    5 type  2   force =     0.00000000   -0.00000000   -0.00000000
     atom    6 type  2   force =     0.00000000    0.00000000    0.00000000
     atom    7 type  2   force =    -0.00000000   -0.00000000    0.00000000
     atom    8 type  2   force =    -0.00000000    0.00000000   -0.00000000
     The core correction contribution to forces
     atom    1 type  1   force =     0.00000000    0.00000000   -0.00000000
     atom    2 type  1   force =     0.00000000   -0.00000000    0.00000000
     atom    3 type  1   force =    -0.00000000    0.00000000    0.00000000
     atom    4 type  1   force =    -0.00000000   -0.00000000   -0.00000000
     atom    5 type  2   force =    -0.00000000    0.00000000   -0.00000000
     atom    6 type  2   force =    -0.00000000   -0.00000000    0.00000000
     atom    7 type  2   force =     0.00000000    0.00000000   -0.00000000
     atom    8 type  2   force =     0.00000000   -0.00000000   -0.00000000
     The Hubbard contrib.    to forces
     atom    1 type  1   force =     0.00000000    0.00000000    0.00000000
     atom    2 type  1   force =     0.00000000    0.00000000    0.00000000
     atom    3 type  1   force =     0.00000000    0.00000000    0.00000000
     atom    4 type  1   force =     0.00000000    0.00000000    0.00000000
     atom    5 type  2   force =     0.00000000    0.00000000    0.00000000
     atom    6 type  2   force =     0.00000000    0.00000000    0.00000000
     atom    7 type  2   force =     0.00000000    0.00000000    0.00000000
     atom    8 type  2   force =     0.00000000    0.00000000    0.00000000
     The SCF correction term to forces
     atom    1 type  1   force =     0.00000000    0.00000000    0.00000000
     atom    2 type  1   force =     0.00000000   -0.00000000   -0.00000000
     atom    3 type  1   force =     0.00000000   -0.00000000    0.00000000
     atom    4 type  1   force =    -0.00000000   -0.00000000    0.00000000
     atom    5 type  2   force =     0.00000000    0.00000000    0.00000000
     atom    6 type  2   force =    -0.00000000   -0.00000000    0.00000000
     atom    7 type  2   force =     0.00000000   -0.00000000    0.00000000
     atom    8 type  2   force =    -0.00000000    0.00000000    0.00000000

     Total force =     0.000000     Total SCF correction =     0.000000


     Computing stress (Cartesian axis) and pressure

          total   stress  (Ry/bohr**3)                   (kbar)     P=        0.66
   0.00000448   0.00000000   0.00000000            0.66        0.00        0.00
   0.00000000   0.00000448   0.00000000            0.00        0.66        0.00
   0.00000000   0.00000000   0.00000448            0.00        0.00        0.66

     kinetic stress (kbar)   2521.84      0.00      0.00
                                0.00   2521.84      0.00
                                0.00      0.00   2521.84

     local   stress (kbar)  -1291.86     -0.00     -0.00
                               -0.00  -1291.86     -0.00
                               -0.00     -0.00  -1291.86

     nonloc. stress (kbar)   2086.62      0.00      0.00
                                0.00   2086.62      0.00
                                0.00      0.00   2086.62

     hartree stress (kbar)    669.25     -0.00      0.00
                               -0.00    669.25      0.00
                                0.00      0.00    669.25

     exc-cor stress (kbar)   3650.79     -0.00     -0.00
                               -0.00   3650.79     -0.00
                               -0.00     -0.00   3650.79

     corecor stress (kbar)  -4679.55     -0.00      0.00
                               -0.00  -4679.55     -0.00
                                0.00     -0.00  -4679.55

     ewald   stress (kbar)  -2956.43      0.00     -0.00
                                0.00  -2956.43     -0.00
                               -0.00     -0.00  -2956.43

     hubbard stress (kbar)      0.00      0.00      0.00
                                0.00      0.00      0.00
                                0.00      0.00      0.00

     DFT-D   stress (kbar)      0.00      0.00      0.00
                                0.00      0.00      0.00
                                0.00      0.00      0.00

     XDM     stress (kbar)      0.00      0.00      0.00
                                0.00      0.00      0.00
                                0.00      0.00      0.00

     dft-nl  stress (kbar)      0.00      0.00      0.00
                                0.00      0.00      0.00
                                0.00      0.00      0.00

     TS-vdW  stress (kbar)      0.00      0.00      0.00
                                0.00      0.00      0.00
                                0.00      0.00      0.00



     BFGS Geometry Optimization
     Energy error            =      0.0E+00
     Gradient error          =      0.0E+00
     Cell gradient error     =      4.5E-06


     number of scf cycles    =   1
     number of bfgs steps    =   0

     enthalpy new            =   -3179.6133481900 Ry

     new trust radius        =       0.0012833094 bohr
     new conv_thr            =       0.0000010000 Ry

     new unit-cell volume =   3276.98182 a.u.^3 (   485.59861 Ang^3 )
     density =      3.55362 g/cm^3

CELL_PARAMETERS (angstrom)
   7.860059078   0.000000000   0.000000000
   0.000000000   7.860059078   0.000000000
   0.000000000   0.000000000   7.860059078

ATOMIC_POSITIONS (crystal)
Cs            0.0000000000        0.0000000000        0.0000000000
Cs            0.0000000000        0.5000000000        0.5000000000
Cs            0.5000000000        0.0000000000        0.5000000000
Cs            0.5000000000        0.5000000000        0.0000000000
I             0.5000000000        0.0000000000        0.0000000000
I             0.5000000000        0.5000000000        0.5000000000
I             0.0000000000        0.0000000000        0.5000000000
I             0.0000000000        0.5000000000        0.0000000000



     Writing output data file ./out/CsIhex.save/
     NEW-OLD atomic charge density approx. for the potential
     extrapolated charge   64.02147, renormalised to   64.00000

     total cpu time spent up to now is      112.5 secs

     Self-consistent Calculation

     iteration #  1     ecut=    60.00 Ry     beta= 0.50
     Davidson diagonalization with overlap
     ethr =  1.00E-06,  avg # of iterations =  2.0

     Threshold (ethr) on eigenvalues was too large:
     Diagonalizing with lowered threshold

     Davidson diagonalization with overlap
     ethr =  3.93E-09,  avg # of iterations =  1.2

     total cpu time spent up to now is      122.4 secs

     total energy              =   -3179.61334850 Ry
     estimated scf accuracy    <       0.00000266 Ry

     iteration #  2     ecut=    60.00 Ry     beta= 0.50
     Davidson diagonalization with overlap
     ethr =  4.16E-09,  avg # of iterations =  6.0

     total cpu time spent up to now is      131.3 secs

     total energy              =   -3179.61335293 Ry
     estimated scf accuracy    <       0.00000105 Ry

     iteration #  3     ecut=    60.00 Ry     beta= 0.50
     Davidson diagonalization with overlap
     ethr =  1.64E-09,  avg # of iterations =  2.0

     total cpu time spent up to now is      136.0 secs

     End of self-consistent calculation

          k = 0.0000 0.0000 0.0000 ( 25677 PWs)   bands (ev):

   -19.0178 -19.0095 -19.0094 -19.0094  -9.1851  -9.1556  -9.1556  -9.1556
    -5.9563  -5.9563  -5.9563  -5.8696  -5.8696  -5.8696  -5.8695  -5.8695
    -5.8695  -5.8110  -5.8110  -5.8110   0.6899   0.6899   0.6899   0.8849
     0.8849   0.8849   0.8849   0.8849   0.8849   0.9822   0.9822   0.9822

     occupation numbers 
     1.0000   1.0000   1.0000   1.0000   1.0000   1.0000   1.0000   1.0000
     1.0000   1.0000   1.0000   1.0000   1.0000   1.0000   1.0000   1.0000
     1.0000   1.0000   1.0000   1.0000   1.0000   1.0000   1.0000   1.0000
     1.0000   1.0000   1.0000   1.0000   1.0000   1.0000   1.0000   1.0000

          k = 0.0000 0.0000-0.4999 ( 25628 PWs)   bands (ev):

   -19.0136 -19.0135 -19.0094 -19.0093  -9.1897  -9.1897  -9.1746  -9.1746
    -5.9129  -5.9129  -5.9129  -5.9129  -5.8401  -5.8401  -5.8400  -5.8400
    -5.8090  -5.8090  -5.7956  -5.7956   0.5170   0.5170   0.5855   0.5855
     0.7643   0.7643   0.7643   0.7643   0.9180   0.9180   0.9180   0.9180

     occupation numbers 
     1.0000   1.0000   1.0000   1.0000   1.0000   1.0000   1.0000   1.0000
     1.0000   1.0000   1.0000   1.0000   1.0000   1.0000   1.0000   1.0000
     1.0000   1.0000   1.0000   1.0000   1.0000   1.0000   1.0000   1.0000
     1.0000   1.0000   1.0000   1.0000   1.0000   1.0000   1.0000   1.0000

          k = 0.0000-0.4999-0.4999 ( 25708 PWs)   bands (ev):

   -19.0114 -19.0113 -19.0113 -19.0113  -9.2012  -9.2011  -9.2011  -9.2011
    -5.8764  -5.8763  -5.8763  -5.8763  -5.8154  -5.8154  -5.8154  -5.8154
    -5.7883  -5.7883  -5.7883  -5.7883   0.3933   0.3933   0.3934   0.3934
     0.6899   0.6899   0.6899   0.6899   0.8219   0.8219   0.8219   0.8219

     occupation numbers 
     1.0000   1.0000   1.0000   1.0000   1.0000   1.0000   1.0000   1.0000
     1.0000   1.0000   1.0000   1.0000   1.0000   1.0000   1.0000   1.0000
     1.0000   1.0000   1.0000   1.0000   1.0000   1.0000   1.0000   1.0000
     1.0000   1.0000   1.0000   1.0000   1.0000   1.0000   1.0000   1.0000

          k =-0.4999-0.4999-0.4999 ( 25768 PWs)   bands (ev):

   -19.0113 -19.0112 -19.0112 -19.0112  -9.2199  -9.2199  -9.2199  -9.2199
    -5.8149  -5.8149  -5.8149  -5.8148  -5.8148  -5.8148  -5.8148  -5.8148
    -5.7745  -5.7745  -5.7745  -5.7745   0.2435   0.2435   0.2435   0.2436
     0.6760   0.6760   0.6760   0.6760   0.6760   0.6760   0.6760   0.6760

     occupation numbers 
     1.0000   1.0000   1.0000   1.0000   1.0000   1.0000   1.0000   1.0000
     1.0000   1.0000   1.0000   1.0000   1.0000   1.0000   1.0000   1.0000
     1.0000   1.0000   1.0000   1.0000   1.0000   1.0000   1.0000   1.0000
     1.0000   1.0000   1.0000   1.0000   1.0000   1.0000   1.0000   1.0000

     highest occupied level (ev):     0.9822

!    total energy              =   -3179.61335269 Ry

     total all-electron energy =   -119228.277370 Ry
     estimated scf accuracy    <       0.00000049 Ry

     The total energy is the sum of the following terms:
     one-electron contribution =     -41.46297230 Ry
     hartree contribution      =      44.72396889 Ry
     xc contribution           =    -147.83407812 Ry
     ewald contribution        =    -197.48756199 Ry
     one-center paw contrib.   =   -2837.55270916 Ry
      -> PAW hartree energy AE =      25.67791217 Ry
      -> PAW hartree energy PS =     -25.56823590 Ry
      -> PAW xc energy AE      =    -383.53776244 Ry
      -> PAW xc energy PS      =      20.52155476 Ry
      -> total E_H with PAW    =      44.83364515 Ry
      -> total E_XC with PAW   =    -510.85028580 Ry

     convergence has been achieved in   3 iterations

     Forces acting on atoms (cartesian axes, Ry/au):

     atom    1 type  1   force =     0.00000000    0.00000000    0.00000000
     atom    2 type  1   force =     0.00000000    0.00000000    0.00000000
     atom    3 type  1   force =     0.00000000    0.00000000    0.00000000
     atom    4 type  1   force =     0.00000000    0.00000000    0.00000000
     atom    5 type  2   force =     0.00000000    0.00000000    0.00000000
     atom    6 type  2   force =     0.00000000    0.00000000    0.00000000
     atom    7 type  2   force =     0.00000000    0.00000000    0.00000000
     atom    8 type  2   force =     0.00000000    0.00000000    0.00000000
     The non-local contrib.  to forces
     atom    1 type  1   force =     0.00000000    0.00000000    0.00000000
     atom    2 type  1   force =     0.00000000    0.00000000    0.00000000
     atom    3 type  1   force =     0.00000000    0.00000000    0.00000000
     atom    4 type  1   force =     0.00000000    0.00000000    0.00000000
     atom    5 type  2   force =     0.00000000    0.00000000    0.00000000
     atom    6 type  2   force =     0.00000000    0.00000000    0.00000000
     atom    7 type  2   force =     0.00000000    0.00000000    0.00000000
     atom    8 type  2   force =     0.00000000    0.00000000    0.00000000
     The ionic contribution  to forces
     atom    1 type  1   force =    -0.00000000   -0.00000000   -0.00000000
     atom    2 type  1   force =    -0.00000000    0.00000000    0.00000000
     atom    3 type  1   force =     0.00000000   -0.00000000    0.00000000
     atom    4 type  1   force =     0.00000000    0.00000000   -0.00000000
     atom    5 type  2   force =     0.00000000   -0.00000000   -0.00000000
     atom    6 type  2   force =     0.00000000    0.00000000    0.00000000
     atom    7 type  2   force =    -0.00000000   -0.00000000    0.00000000
     atom    8 type  2   force =    -0.00000000    0.00000000   -0.00000000
     The local contribution  to forces
     atom    1 type  1   force =    -0.00000000   -0.00000000   -0.00000000
     atom    2 type  1   force =    -0.00000000   -0.00000000   -0.00000000
     atom    3 type  1   force =    -0.00000000   -0.00000000   -0.00000000
     atom    4 type  1   force =    -0.00000000   -0.00000000   -0.00000000
     atom    5 type  2   force =    -0.00000000   -0.00000000   -0.00000000
     atom    6 type  2   force =    -0.00000000   -0.00000000   -0.00000000
     atom    7 type  2   force =    -0.00000000   -0.00000000   -0.00000000
     atom    8 type  2   force =    -0.00000000   -0.00000000   -0.00000000
     The core correction contribution to forces
     atom    1 type  1   force =     0.00000000    0.00000000    0.00000000
     atom    2 type  1   force =     0.00000000   -0.00000000   -0.00000000
     atom    3 type  1   force =    -0.00000000    0.00000000   -0.00000000
     atom    4 type  1   force =    -0.00000000   -0.00000000    0.00000000
     atom    5 type  2   force =    -0.00000000    0.00000000    0.00000000
     atom    6 type  2   force =    -0.00000000   -0.00000000   -0.00000000
     atom    7 type  2   force =     0.00000000    0.00000000   -0.00000000
     atom    8 type  2   force =     0.00000000   -0.00000000    0.00000000
     The Hubbard contrib.    to forces
     atom    1 type  1   force =     0.00000000    0.00000000    0.00000000
     atom    2 type  1   force =     0.00000000    0.00000000    0.00000000
     atom    3 type  1   force =     0.00000000    0.00000000    0.00000000
     atom    4 type  1   force =     0.00000000    0.00000000    0.00000000
     atom    5 type  2   force =     0.00000000    0.00000000    0.00000000
     atom    6 type  2   force =     0.00000000    0.00000000    0.00000000
     atom    7 type  2   force =     0.00000000    0.00000000    0.00000000
     atom    8 type  2   force =     0.00000000    0.00000000    0.00000000
     The SCF correction term to forces
     atom    1 type  1   force =    -0.00000000   -0.00000000   -0.00000000
     atom    2 type  1   force =    -0.00000000    0.00000000    0.00000000
     atom    3 type  1   force =     0.00000000   -0.00000000    0.00000000
     atom    4 type  1   force =     0.00000000    0.00000000   -0.00000000
     atom    5 type  2   force =     0.00000000   -0.00000000   -0.00000000
     atom    6 type  2   force =     0.00000000    0.00000000    0.00000000
     atom    7 type  2   force =    -0.00000000   -0.00000000    0.00000000
     atom    8 type  2   force =    -0.00000000    0.00000000   -0.00000000

     Total force =     0.000000     Total SCF correction =     0.000000


     Computing stress (Cartesian axis) and pressure

          total   stress  (Ry/bohr**3)                   (kbar)     P=        0.64
   0.00000436   0.00000000   0.00000000            0.64        0.00        0.00
   0.00000000   0.00000436   0.00000000            0.00        0.64        0.00
   0.00000000   0.00000000   0.00000436            0.00        0.00        0.64

     kinetic stress (kbar)   2521.00      0.00      0.00
                                0.00   2521.00      0.00
                                0.00      0.00   2521.00

     local   stress (kbar)  -1291.95     -0.00      0.00
                               -0.00  -1291.95      0.00
                                0.00      0.00  -1291.95

     nonloc. stress (kbar)   2085.88      0.00      0.00
                                0.00   2085.88      0.00
                                0.00      0.00   2085.88

     hartree stress (kbar)    669.23      0.00     -0.00
                                0.00    669.23     -0.00
                               -0.00     -0.00    669.23

     exc-cor stress (kbar)   3649.56      0.00     -0.00
                                0.00   3649.56      0.00
                               -0.00      0.00   3649.56

     corecor stress (kbar)  -4677.98      0.00      0.00
                                0.00  -4677.98      0.00
                                0.00      0.00  -4677.98

     ewald   stress (kbar)  -2955.10      0.00     -0.00
                                0.00  -2955.10     -0.00
                               -0.00     -0.00  -2955.10

     hubbard stress (kbar)      0.00      0.00      0.00
                                0.00      0.00      0.00
                                0.00      0.00      0.00

     DFT-D   stress (kbar)      0.00      0.00      0.00
                                0.00      0.00      0.00
                                0.00      0.00      0.00

     XDM     stress (kbar)      0.00      0.00      0.00
                                0.00      0.00      0.00
                                0.00      0.00      0.00

     dft-nl  stress (kbar)      0.00      0.00      0.00
                                0.00      0.00      0.00
                                0.00      0.00      0.00

     TS-vdW  stress (kbar)      0.00      0.00      0.00
                                0.00      0.00      0.00
                                0.00      0.00      0.00


     Energy error            =      4.5E-06
     Gradient error          =      0.0E+00
     Cell gradient error     =      4.4E-06


     number of scf cycles    =   2
     number of bfgs steps    =   1

     enthalpy old            =   -3179.6133481900 Ry
     enthalpy new            =   -3179.6133526859 Ry

     CASE: enthalpy_new < enthalpy_old


     WARNING: bfgs curvature condition failed, Theta= 0.823
     new trust radius        =       0.0014117195 bohr
     new conv_thr            =       0.0000000100 Ry

     new unit-cell volume =   3278.19418 a.u.^3 (   485.77826 Ang^3 )
     density =      3.55230 g/cm^3

CELL_PARAMETERS (angstrom)
   7.861028265   0.000000000   0.000000000
   0.000000000   7.861028265   0.000000000
   0.000000000   0.000000000   7.861028265

ATOMIC_POSITIONS (crystal)
Cs            0.0000000000        0.0000000000        0.0000000000
Cs            0.0000000000        0.5000000000        0.5000000000
Cs            0.5000000000        0.0000000000        0.5000000000
Cs            0.5000000000        0.5000000000        0.0000000000
I             0.5000000000        0.0000000000        0.0000000000
I             0.5000000000        0.5000000000        0.5000000000
I             0.0000000000        0.0000000000        0.5000000000
I             0.0000000000        0.5000000000        0.0000000000



     Writing output data file ./out/CsIhex.save/
     NEW-OLD atomic charge density approx. for the potential
     extrapolated charge   64.02361, renormalised to   64.00000

     total cpu time spent up to now is      154.4 secs

     Self-consistent Calculation

     iteration #  1     ecut=    60.00 Ry     beta= 0.50
     Davidson diagonalization with overlap
     ethr =  1.00E-06,  avg # of iterations =  2.0

     Threshold (ethr) on eigenvalues was too large:
     Diagonalizing with lowered threshold

     Davidson diagonalization with overlap
     ethr =  5.25E-09,  avg # of iterations =  1.2

     total cpu time spent up to now is      163.8 secs

     total energy              =   -3179.61335209 Ry
     estimated scf accuracy    <       0.00000375 Ry

     iteration #  2     ecut=    60.00 Ry     beta= 0.50
     Davidson diagonalization with overlap
     ethr =  5.86E-09,  avg # of iterations =  6.0

     total cpu time spent up to now is      171.4 secs

     total energy              =   -3179.61335748 Ry
     estimated scf accuracy    <       0.00000109 Ry

     iteration #  3     ecut=    60.00 Ry     beta= 0.50
     Davidson diagonalization with overlap
     ethr =  1.70E-09,  avg # of iterations =  5.5

     total cpu time spent up to now is      176.4 secs

     total energy              =   -3179.61335756 Ry
     estimated scf accuracy    <       0.00000056 Ry

     iteration #  4     ecut=    60.00 Ry     beta= 0.50
     Davidson diagonalization with overlap
     ethr =  8.73E-10,  avg # of iterations =  2.8

     total cpu time spent up to now is      180.5 secs

     total energy              =   -3179.61335748 Ry
     estimated scf accuracy    <       0.00000029 Ry

     iteration #  5     ecut=    60.00 Ry     beta= 0.50
     Davidson diagonalization with overlap
     ethr =  4.56E-10,  avg # of iterations =  4.2

     total cpu time spent up to now is      186.7 secs

     End of self-consistent calculation

          k = 0.0000 0.0000 0.0000 ( 25677 PWs)   bands (ev):

   -19.0192 -19.0108 -19.0108 -19.0108  -9.1855  -9.1561  -9.1561  -9.1561
    -5.9579  -5.9579  -5.9579  -5.8712  -5.8712  -5.8712  -5.8712  -5.8712
    -5.8712  -5.8128  -5.8128  -5.8128   0.6887   0.6887   0.6887   0.8837
     0.8837   0.8837   0.8838   0.8838   0.8838   0.9811   0.9811   0.9811

     occupation numbers 
     1.0000   1.0000   1.0000   1.0000   1.0000   1.0000   1.0000   1.0000
     1.0000   1.0000   1.0000   1.0000   1.0000   1.0000   1.0000   1.0000
     1.0000   1.0000   1.0000   1.0000   1.0000   1.0000   1.0000   1.0000
     1.0000   1.0000   1.0000   1.0000   1.0000   1.0000   1.0000   1.0000

          k = 0.0000 0.0000-0.4999 ( 25628 PWs)   bands (ev):

   -19.0149 -19.0149 -19.0107 -19.0107  -9.1902  -9.1902  -9.1751  -9.1751
    -5.9145  -5.9145  -5.9145  -5.9145  -5.8417  -5.8417  -5.8417  -5.8417
    -5.8107  -5.8107  -5.7974  -5.7974   0.5161   0.5161   0.5845   0.5846
     0.7631   0.7631   0.7631   0.7631   0.9169   0.9169   0.9169   0.9169

     occupation numbers 
     1.0000   1.0000   1.0000   1.0000   1.0000   1.0000   1.0000   1.0000
     1.0000   1.0000   1.0000   1.0000   1.0000   1.0000   1.0000   1.0000
     1.0000   1.0000   1.0000   1.0000   1.0000   1.0000   1.0000   1.0000
     1.0000   1.0000   1.0000   1.0000   1.0000   1.0000   1.0000   1.0000

          k = 0.0000-0.4999-0.4999 ( 25708 PWs)   bands (ev):

   -19.0128 -19.0128 -19.0128 -19.0128  -9.2016  -9.2016  -9.2016  -9.2016
    -5.8780  -5.8780  -5.8780  -5.8780  -5.8171  -5.8171  -5.8171  -5.8171
    -5.7901  -5.7901  -5.7901  -5.7901   0.3925   0.3925   0.3925   0.3925
     0.6890   0.6890   0.6890   0.6890   0.8208   0.8208   0.8208   0.8208

     occupation numbers 
     1.0000   1.0000   1.0000   1.0000   1.0000   1.0000   1.0000   1.0000
     1.0000   1.0000   1.0000   1.0000   1.0000   1.0000   1.0000   1.0000
     1.0000   1.0000   1.0000   1.0000   1.0000   1.0000   1.0000   1.0000
     1.0000   1.0000   1.0000   1.0000   1.0000   1.0000   1.0000   1.0000

          k =-0.4999-0.4999-0.4999 ( 25768 PWs)   bands (ev):

   -19.0127 -19.0127 -19.0127 -19.0127  -9.2203  -9.2203  -9.2203  -9.2203
    -5.8166  -5.8166  -5.8166  -5.8166  -5.8166  -5.8166  -5.8166  -5.8166
    -5.7763  -5.7763  -5.7763  -5.7763   0.2427   0.2427   0.2427   0.2427
     0.6751   0.6751   0.6751   0.6751   0.6751   0.6751   0.6751   0.6751

     occupation numbers 
     1.0000   1.0000   1.0000   1.0000   1.0000   1.0000   1.0000   1.0000
     1.0000   1.0000   1.0000   1.0000   1.0000   1.0000   1.0000   1.0000
     1.0000   1.0000   1.0000   1.0000   1.0000   1.0000   1.0000   1.0000
     1.0000   1.0000   1.0000   1.0000   1.0000   1.0000   1.0000   1.0000

     highest occupied level (ev):     0.9811

!    total energy              =   -3179.61335757 Ry

     total all-electron energy =   -119228.277375 Ry
     estimated scf accuracy    <          3.5E-09 Ry

     The total energy is the sum of the following terms:
     one-electron contribution =     -41.49978710 Ry
     hartree contribution      =      44.73437680 Ry
     xc contribution           =    -147.83249801 Ry
     ewald contribution        =    -197.46321375 Ry
     one-center paw contrib.   =   -2837.55223551 Ry
      -> PAW hartree energy AE =      25.67300491 Ry
      -> PAW hartree energy PS =     -25.56332382 Ry
      -> PAW xc energy AE      =    -383.53708762 Ry
      -> PAW xc energy PS      =      20.52091526 Ry
      -> total E_H with PAW    =      44.84405789 Ry
      -> total E_XC with PAW   =    -510.84867037 Ry

     convergence has been achieved in   5 iterations

     Forces acting on atoms (cartesian axes, Ry/au):

     atom    1 type  1   force =     0.00000000    0.00000000    0.00000000
     atom    2 type  1   force =     0.00000000    0.00000000    0.00000000
     atom    3 type  1   force =     0.00000000    0.00000000    0.00000000
     atom    4 type  1   force =     0.00000000    0.00000000    0.00000000
     atom    5 type  2   force =     0.00000000    0.00000000    0.00000000
     atom    6 type  2   force =     0.00000000    0.00000000    0.00000000
     atom    7 type  2   force =     0.00000000    0.00000000    0.00000000
     atom    8 type  2   force =     0.00000000    0.00000000    0.00000000
     The non-local contrib.  to forces
     atom    1 type  1   force =     0.00000000    0.00000000    0.00000000
     atom    2 type  1   force =     0.00000000    0.00000000    0.00000000
     atom    3 type  1   force =     0.00000000    0.00000000    0.00000000
     atom    4 type  1   force =     0.00000000    0.00000000    0.00000000
     atom    5 type  2   force =     0.00000000    0.00000000    0.00000000
     atom    6 type  2   force =     0.00000000    0.00000000    0.00000000
     atom    7 type  2   force =     0.00000000    0.00000000    0.00000000
     atom    8 type  2   force =     0.00000000    0.00000000    0.00000000
     The ionic contribution  to forces
     atom    1 type  1   force =     0.00000000    0.00000000    0.00000000
     atom    2 type  1   force =     0.00000000    0.00000000    0.00000000
     atom    3 type  1   force =     0.00000000    0.00000000    0.00000000
     atom    4 type  1   force =     0.00000000    0.00000000    0.00000000
     atom    5 type  2   force =     0.00000000    0.00000000    0.00000000
     atom    6 type  2   force =     0.00000000    0.00000000    0.00000000
     atom    7 type  2   force =     0.00000000    0.00000000    0.00000000
     atom    8 type  2   force =     0.00000000    0.00000000    0.00000000
     The local contribution  to forces
     atom    1 type  1   force =    -0.00000000   -0.00000000   -0.00000000
     atom    2 type  1   force =    -0.00000000   -0.00000000   -0.00000000
     atom    3 type  1   force =    -0.00000000   -0.00000000   -0.00000000
     atom    4 type  1   force =    -0.00000000   -0.00000000   -0.00000000
     atom    5 type  2   force =    -0.00000000   -0.00000000   -0.00000000
     atom    6 type  2   force =    -0.00000000   -0.00000000   -0.00000000
     atom    7 type  2   force =    -0.00000000   -0.00000000   -0.00000000
     atom    8 type  2   force =    -0.00000000   -0.00000000   -0.00000000
     The core correction contribution to forces
     atom    1 type  1   force =     0.00000000    0.00000000    0.00000000
     atom    2 type  1   force =     0.00000000   -0.00000000   -0.00000000
     atom    3 type  1   force =    -0.00000000    0.00000000   -0.00000000
     atom    4 type  1   force =    -0.00000000   -0.00000000    0.00000000
     atom    5 type  2   force =    -0.00000000    0.00000000    0.00000000
     atom    6 type  2   force =    -0.00000000   -0.00000000   -0.00000000
     atom    7 type  2   force =    -0.00000000    0.00000000   -0.00000000
     atom    8 type  2   force =     0.00000000   -0.00000000    0.00000000
     The Hubbard contrib.    to forces
     atom    1 type  1   force =     0.00000000    0.00000000    0.00000000
     atom    2 type  1   force =     0.00000000    0.00000000    0.00000000
     atom    3 type  1   force =     0.00000000    0.00000000    0.00000000
     atom    4 type  1   force =     0.00000000    0.00000000    0.00000000
     atom    5 type  2   force =     0.00000000    0.00000000    0.00000000
     atom    6 type  2   force =     0.00000000    0.00000000    0.00000000
     atom    7 type  2   force =     0.00000000    0.00000000    0.00000000
     atom    8 type  2   force =     0.00000000    0.00000000    0.00000000
     The SCF correction term to forces
     atom    1 type  1   force =    -0.00000000   -0.00000000   -0.00000000
     atom    2 type  1   force =    -0.00000000    0.00000000    0.00000000
     atom    3 type  1   force =     0.00000000   -0.00000000    0.00000000
     atom    4 type  1   force =     0.00000000    0.00000000   -0.00000000
     atom    5 type  2   force =     0.00000000   -0.00000000   -0.00000000
     atom    6 type  2   force =     0.00000000    0.00000000    0.00000000
     atom    7 type  2   force =    -0.00000000   -0.00000000    0.00000000
     atom    8 type  2   force =    -0.00000000    0.00000000   -0.00000000

     Total force =     0.000000     Total SCF correction =     0.000000


     Computing stress (Cartesian axis) and pressure

          total   stress  (Ry/bohr**3)                   (kbar)     P=        0.58
   0.00000393   0.00000000   0.00000000            0.58        0.00        0.00
   0.00000000   0.00000393   0.00000000            0.00        0.58        0.00
   0.00000000   0.00000000   0.00000393            0.00        0.00        0.58

     kinetic stress (kbar)   2520.01      0.00      0.00
                                0.00   2520.01      0.00
                                0.00      0.00   2520.01

     local   stress (kbar)  -1291.99      0.00      0.00
                                0.00  -1291.99     -0.00
                                0.00     -0.00  -1291.99

     nonloc. stress (kbar)   2085.09      0.00      0.00
                                0.00   2085.09      0.00
                                0.00      0.00   2085.09

     hartree stress (kbar)    669.13     -0.00     -0.00
                               -0.00    669.13     -0.00
                               -0.00     -0.00    669.13

     exc-cor stress (kbar)   3648.22     -0.00      0.00
                               -0.00   3648.22     -0.00
                                0.00     -0.00   3648.22

     corecor stress (kbar)  -4676.24     -0.00     -0.00
                               -0.00  -4676.24      0.00
                               -0.00      0.00  -4676.24

     ewald   stress (kbar)  -2953.64      0.00     -0.00
                                0.00  -2953.64     -0.00
                               -0.00     -0.00  -2953.64

     hubbard stress (kbar)      0.00      0.00      0.00
                                0.00      0.00      0.00
                                0.00      0.00      0.00

     DFT-D   stress (kbar)      0.00      0.00      0.00
                                0.00      0.00      0.00
                                0.00      0.00      0.00

     XDM     stress (kbar)      0.00      0.00      0.00
                                0.00      0.00      0.00
                                0.00      0.00      0.00

     dft-nl  stress (kbar)      0.00      0.00      0.00
                                0.00      0.00      0.00
                                0.00      0.00      0.00

     TS-vdW  stress (kbar)      0.00      0.00      0.00
                                0.00      0.00      0.00
                                0.00      0.00      0.00


     Energy error            =      4.9E-06
     Gradient error          =      0.0E+00
     Cell gradient error     =      3.9E-06


     number of scf cycles    =   3
     number of bfgs steps    =   2

     enthalpy old            =   -3179.6133526859 Ry
     enthalpy new            =   -3179.6133575736 Ry

     CASE: enthalpy_new < enthalpy_old

     new trust radius        =       0.0021177098 bohr
     new conv_thr            =       0.0000000100 Ry

     new unit-cell volume =   3280.01327 a.u.^3 (   486.04782 Ang^3 )
     density =      3.55033 g/cm^3

CELL_PARAMETERS (angstrom)
   7.862482044   0.000000000   0.000000000
   0.000000000   7.862482044   0.000000000
   0.000000000   0.000000000   7.862482044

ATOMIC_POSITIONS (crystal)
Cs            0.0000000000        0.0000000000        0.0000000000
Cs            0.0000000000        0.5000000000        0.5000000000
Cs            0.5000000000        0.0000000000        0.5000000000
Cs            0.5000000000        0.5000000000        0.0000000000
I             0.5000000000        0.0000000000        0.0000000000
I             0.5000000000        0.5000000000        0.5000000000
I             0.0000000000        0.0000000000        0.5000000000
I             0.0000000000        0.5000000000        0.0000000000



     Writing output data file ./out/CsIhex.save/
     NEW-OLD atomic charge density approx. for the potential
     extrapolated charge   64.03541, renormalised to   64.00000

     total cpu time spent up to now is      204.7 secs

     Self-consistent Calculation

     iteration #  1     ecut=    60.00 Ry     beta= 0.50
     Davidson diagonalization with overlap
     ethr =  1.00E-06,  avg # of iterations =  2.0

     Threshold (ethr) on eigenvalues was too large:
     Diagonalizing with lowered threshold

     Davidson diagonalization with overlap
     ethr =  9.27E-09,  avg # of iterations =  1.2

     total cpu time spent up to now is      214.1 secs

     total energy              =   -3179.61335270 Ry
     estimated scf accuracy    <       0.00000620 Ry

     iteration #  2     ecut=    60.00 Ry     beta= 0.50
     Davidson diagonalization with overlap
     ethr =  9.69E-09,  avg # of iterations =  5.5

     total cpu time spent up to now is      222.0 secs

     total energy              =   -3179.61336446 Ry
     estimated scf accuracy    <       0.00000336 Ry

     iteration #  3     ecut=    60.00 Ry     beta= 0.50
     Davidson diagonalization with overlap
     ethr =  5.25E-09,  avg # of iterations =  1.5

     total cpu time spent up to now is      226.8 secs

     total energy              =   -3179.61336355 Ry
     estimated scf accuracy    <       0.00000163 Ry

     iteration #  4     ecut=    60.00 Ry     beta= 0.50
     Davidson diagonalization with overlap
     ethr =  2.54E-09,  avg # of iterations =  3.2

     total cpu time spent up to now is      232.6 secs

     total energy              =   -3179.61336401 Ry
     estimated scf accuracy    <       0.00000001 Ry

     iteration #  5     ecut=    60.00 Ry     beta= 0.50
     Davidson diagonalization with overlap
     ethr =  1.82E-11,  avg # of iterations = 12.8

     total cpu time spent up to now is      246.9 secs

     total energy              =   -3179.61336420 Ry
     estimated scf accuracy    <       0.00000006 Ry

     iteration #  6     ecut=    60.00 Ry     beta= 0.50
     Davidson diagonalization with overlap
     ethr =  1.82E-11,  avg # of iterations =  6.8

     total cpu time spent up to now is      255.2 secs

     total energy              =   -3179.61336459 Ry
     estimated scf accuracy    <       0.00000035 Ry

     iteration #  7     ecut=    60.00 Ry     beta= 0.50
     Davidson diagonalization with overlap
     ethr =  1.82E-11,  avg # of iterations =  6.0

     total cpu time spent up to now is      264.0 secs

     total energy              =   -3179.61336407 Ry
     estimated scf accuracy    <       0.00000109 Ry

     iteration #  8     ecut=    60.00 Ry     beta= 0.50
     Davidson diagonalization with overlap
     ethr =  1.82E-11,  avg # of iterations =  7.2

     total cpu time spent up to now is      273.5 secs

     total energy              =   -3179.61336417 Ry
     estimated scf accuracy    <       0.00000005 Ry

     iteration #  9     ecut=    60.00 Ry     beta= 0.50
     Davidson diagonalization with overlap
     ethr =  1.82E-11,  avg # of iterations =  3.8

     total cpu time spent up to now is      279.3 secs

     total energy              =   -3179.61336417 Ry
     estimated scf accuracy    <       0.00000002 Ry

     iteration # 10     ecut=    60.00 Ry     beta= 0.50
     Davidson diagonalization with overlap
     ethr =  1.82E-11,  avg # of iterations =  2.0

     total cpu time spent up to now is      293.2 secs

     total energy              =   -3179.61336417 Ry
     estimated scf accuracy    <       0.00000001 Ry

     iteration # 11     ecut=    60.00 Ry     beta= 0.50
     Davidson diagonalization with overlap
     ethr =  1.82E-11,  avg # of iterations =  4.0

     total cpu time spent up to now is      298.8 secs

     End of self-consistent calculation

          k = 0.0000 0.0000 0.0000 ( 25677 PWs)   bands (ev):

   -19.0236 -19.0152 -19.0152 -19.0152  -9.1886  -9.1592  -9.1592  -9.1592
    -5.9619  -5.9619  -5.9619  -5.8754  -5.8754  -5.8754  -5.8754  -5.8754
    -5.8754  -5.8171  -5.8171  -5.8171   0.6853   0.6853   0.6853   0.8803
     0.8803   0.8803   0.8803   0.8803   0.8803   0.9776   0.9776   0.9776

     occupation numbers 
     1.0000   1.0000   1.0000   1.0000   1.0000   1.0000   1.0000   1.0000
     1.0000   1.0000   1.0000   1.0000   1.0000   1.0000   1.0000   1.0000
     1.0000   1.0000   1.0000   1.0000   1.0000   1.0000   1.0000   1.0000
     1.0000   1.0000   1.0000   1.0000   1.0000   1.0000   1.0000   1.0000

          k = 0.0000 0.0000-0.4998 ( 25628 PWs)   bands (ev):

   -19.0193 -19.0193 -19.0151 -19.0151  -9.1932  -9.1932  -9.1782  -9.1782
    -5.9186  -5.9186  -5.9186  -5.9186  -5.8460  -5.8460  -5.8460  -5.8460
    -5.8151  -5.8151  -5.8018  -5.8017   0.5132   0.5132   0.5816   0.5816
     0.7597   0.7597   0.7597   0.7597   0.9134   0.9134   0.9134   0.9134

     occupation numbers 
     1.0000   1.0000   1.0000   1.0000   1.0000   1.0000   1.0000   1.0000
     1.0000   1.0000   1.0000   1.0000   1.0000   1.0000   1.0000   1.0000
     1.0000   1.0000   1.0000   1.0000   1.0000   1.0000   1.0000   1.0000
     1.0000   1.0000   1.0000   1.0000   1.0000   1.0000   1.0000   1.0000

          k = 0.0000-0.4998-0.4998 ( 25708 PWs)   bands (ev):

   -19.0171 -19.0171 -19.0171 -19.0171  -9.2046  -9.2046  -9.2046  -9.2046
    -5.8821  -5.8821  -5.8821  -5.8821  -5.8214  -5.8214  -5.8214  -5.8214
    -5.7945  -5.7945  -5.7945  -5.7945   0.3897   0.3897   0.3897   0.3897
     0.6860   0.6860   0.6860   0.6860   0.8174   0.8174   0.8174   0.8174

     occupation numbers 
     1.0000   1.0000   1.0000   1.0000   1.0000   1.0000   1.0000   1.0000
     1.0000   1.0000   1.0000   1.0000   1.0000   1.0000   1.0000   1.0000
     1.0000   1.0000   1.0000   1.0000   1.0000   1.0000   1.0000   1.0000
     1.0000   1.0000   1.0000   1.0000   1.0000   1.0000   1.0000   1.0000

          k =-0.4998-0.4998-0.4998 ( 25768 PWs)   bands (ev):

   -19.0171 -19.0171 -19.0171 -19.0170  -9.2233  -9.2233  -9.2233  -9.2233
    -5.8209  -5.8209  -5.8209  -5.8209  -5.8209  -5.8209  -5.8209  -5.8209
    -5.7807  -5.7807  -5.7807  -5.7807   0.2400   0.2400   0.2400   0.2400
     0.6721   0.6721   0.6721   0.6721   0.6721   0.6721   0.6721   0.6721

     occupation numbers 
     1.0000   1.0000   1.0000   1.0000   1.0000   1.0000   1.0000   1.0000
     1.0000   1.0000   1.0000   1.0000   1.0000   1.0000   1.0000   1.0000
     1.0000   1.0000   1.0000   1.0000   1.0000   1.0000   1.0000   1.0000
     1.0000   1.0000   1.0000   1.0000   1.0000   1.0000   1.0000   1.0000

     highest occupied level (ev):     0.9776

!    total energy              =   -3179.61336417 Ry

     total all-electron energy =   -119228.277381 Ry
     estimated scf accuracy    <          3.6E-10 Ry

     The total energy is the sum of the following terms:
     one-electron contribution =     -41.55556411 Ry
     hartree contribution      =      44.75225002 Ry
     xc contribution           =    -147.83129453 Ry
     ewald contribution        =    -197.42670265 Ry
     one-center paw contrib.   =   -2837.55205291 Ry
      -> PAW hartree energy AE =      25.67123389 Ry
      -> PAW hartree energy PS =     -25.56155053 Ry
      -> PAW xc energy AE      =    -383.53681883 Ry
      -> PAW xc energy PS      =      20.52066082 Ry
      -> total E_H with PAW    =      44.86193338 Ry
      -> total E_XC with PAW   =    -510.84745254 Ry

     convergence has been achieved in  11 iterations

     Forces acting on atoms (cartesian axes, Ry/au):

     atom    1 type  1   force =     0.00000000    0.00000000    0.00000000
     atom    2 type  1   force =     0.00000000    0.00000000    0.00000000
     atom    3 type  1   force =     0.00000000    0.00000000    0.00000000
     atom    4 type  1   force =     0.00000000    0.00000000    0.00000000
     atom    5 type  2   force =     0.00000000    0.00000000    0.00000000
     atom    6 type  2   force =     0.00000000    0.00000000    0.00000000
     atom    7 type  2   force =     0.00000000    0.00000000    0.00000000
     atom    8 type  2   force =     0.00000000    0.00000000    0.00000000
     The non-local contrib.  to forces
     atom    1 type  1   force =     0.00000000    0.00000000    0.00000000
     atom    2 type  1   force =     0.00000000    0.00000000    0.00000000
     atom    3 type  1   force =     0.00000000    0.00000000    0.00000000
     atom    4 type  1   force =     0.00000000    0.00000000    0.00000000
     atom    5 type  2   force =     0.00000000    0.00000000    0.00000000
     atom    6 type  2   force =     0.00000000    0.00000000    0.00000000
     atom    7 type  2   force =     0.00000000    0.00000000    0.00000000
     atom    8 type  2   force =     0.00000000    0.00000000    0.00000000
     The ionic contribution  to forces
     atom    1 type  1   force =     0.00000000    0.00000000    0.00000000
[...]
     Initial potential from superposition of free atoms

     starting charge   63.84126, renormalised to   64.00000
     Starting wfcs are   36 randomized atomic wfcs
     Checking if some PAW data can be deallocated... 
       PAW data deallocated on    8 nodes for type:  1
       PAW data deallocated on   11 nodes for type:  2

     total cpu time spent up to now is      317.1 secs

     Self-consistent Calculation

     iteration #  1     ecut=    60.00 Ry     beta= 0.50
     Davidson diagonalization with overlap
     c_bands:  1 eigenvalues not converged
     ethr =  1.00E-06,  avg # of iterations = 18.5

     total cpu time spent up to now is      338.0 secs

     total energy              =   -3179.57802135 Ry
     estimated scf accuracy    <       0.16216255 Ry

     iteration #  2     ecut=    60.00 Ry     beta= 0.50
     Davidson diagonalization with overlap
     ethr =  2.53E-04,  avg # of iterations =  2.0

     total cpu time spent up to now is      343.4 secs

     total energy              =   -3179.60997382 Ry
     estimated scf accuracy    <       0.00989924 Ry

     iteration #  3     ecut=    60.00 Ry     beta= 0.50
     Davidson diagonalization with overlap
     ethr =  1.55E-05,  avg # of iterations =  3.2

     total cpu time spent up to now is      348.5 secs

     total energy              =   -3179.61222852 Ry
     estimated scf accuracy    <       0.00197329 Ry

     iteration #  4     ecut=    60.00 Ry     beta= 0.50
     Davidson diagonalization with overlap
     ethr =  3.08E-06,  avg # of iterations =  5.0

     total cpu time spent up to now is      355.1 secs

     total energy              =   -3179.61325665 Ry
     estimated scf accuracy    <       0.00014512 Ry

     iteration #  5     ecut=    60.00 Ry     beta= 0.50
     Davidson diagonalization with overlap
     ethr =  2.27E-07,  avg # of iterations =  6.2

     total cpu time spent up to now is      366.0 secs

     total energy              =   -3179.61345061 Ry
     estimated scf accuracy    <       0.00011211 Ry

     iteration #  6     ecut=    60.00 Ry     beta= 0.50
     Davidson diagonalization with overlap
     ethr =  1.75E-07,  avg # of iterations =  3.2

     total cpu time spent up to now is      390.9 secs

     total energy              =   -3179.61327367 Ry
     estimated scf accuracy    <       0.00030230 Ry

     iteration #  7     ecut=    60.00 Ry     beta= 0.50
     Davidson diagonalization with overlap
     ethr =  1.75E-07,  avg # of iterations =  4.8

     total cpu time spent up to now is      398.1 secs

     total energy              =   -3179.61335719 Ry
     estimated scf accuracy    <       0.00003197 Ry

     iteration #  8     ecut=    60.00 Ry     beta= 0.50
     Davidson diagonalization with overlap
     ethr =  5.00E-08,  avg # of iterations =  3.2

     total cpu time spent up to now is      407.6 secs

     total energy              =   -3179.61337004 Ry
     estimated scf accuracy    <       0.00000027 Ry

     iteration #  9     ecut=    60.00 Ry     beta= 0.50
     Davidson diagonalization with overlap
     ethr =  4.20E-10,  avg # of iterations = 17.0

     total cpu time spent up to now is      426.9 secs

     total energy              =   -3179.61336198 Ry
     estimated scf accuracy    <       0.00003361 Ry

     iteration # 10     ecut=    60.00 Ry     beta= 0.50
     Davidson diagonalization with overlap
     ethr =  4.20E-10,  avg # of iterations =  8.5

     total cpu time spent up to now is      434.4 secs

     total energy              =   -3179.61336887 Ry
     estimated scf accuracy    <       0.00000017 Ry

     iteration # 11     ecut=    60.00 Ry     beta= 0.50
     Davidson diagonalization with overlap
     ethr =  2.63E-10,  avg # of iterations =  5.5

     total cpu time spent up to now is      439.8 secs

     total energy              =   -3179.61336796 Ry
     estimated scf accuracy    <       0.00000180 Ry

     iteration # 12     ecut=    60.00 Ry     beta= 0.50
     Davidson diagonalization with overlap
     ethr =  2.63E-10,  avg # of iterations =  6.5

     total cpu time spent up to now is      445.6 secs

     total energy              =   -3179.61336833 Ry
     estimated scf accuracy    <       0.00000006 Ry

     iteration # 13     ecut=    60.00 Ry     beta= 0.50
     Davidson diagonalization with overlap
     ethr =  9.20E-11,  avg # of iterations =  5.2

     total cpu time spent up to now is      450.1 secs

     total energy              =   -3179.61336833 Ry
     estimated scf accuracy    <       0.00000012 Ry

     iteration # 14     ecut=    60.00 Ry     beta= 0.50
     Davidson diagonalization with overlap
     ethr =  9.20E-11,  avg # of iterations =  2.0

     total cpu time spent up to now is      453.9 secs

     total energy              =   -3179.61336834 Ry
     estimated scf accuracy    <       0.00000003 Ry

     iteration # 15     ecut=    60.00 Ry     beta= 0.50
     Davidson diagonalization with overlap
     ethr =  4.05E-11,  avg # of iterations =  1.2

     total cpu time spent up to now is      457.2 secs

     total energy              =   -3179.61336832 Ry
     estimated scf accuracy    <       0.00000004 Ry

     iteration # 16     ecut=    60.00 Ry     beta= 0.50
     Davidson diagonalization with overlap
     ethr =  4.05E-11,  avg # of iterations =  4.0

     total cpu time spent up to now is      461.4 secs

     End of self-consistent calculation

          k = 0.0000 0.0000 0.0000 ( 25677 PWs)   bands (ev):

   -19.0235 -19.0152 -19.0151 -19.0151  -9.1886  -9.1592  -9.1592  -9.1592
    -5.9618  -5.9618  -5.9618  -5.8753  -5.8753  -5.8753  -5.8753  -5.8753
    -5.8753  -5.8170  -5.8170  -5.8170   0.6853   0.6853   0.6853   0.8803
     0.8803   0.8803   0.8803   0.8803   0.8803   0.9776   0.9776   0.9776

     occupation numbers 
     1.0000   1.0000   1.0000   1.0000   1.0000   1.0000   1.0000   1.0000
     1.0000   1.0000   1.0000   1.0000   1.0000   1.0000   1.0000   1.0000
     1.0000   1.0000   1.0000   1.0000   1.0000   1.0000   1.0000   1.0000
     1.0000   1.0000   1.0000   1.0000   1.0000   1.0000   1.0000   1.0000

          k = 0.0000 0.0000-0.4998 ( 25796 PWs)   bands (ev):

   -19.0192 -19.0192 -19.0151 -19.0150  -9.1932  -9.1932  -9.1782  -9.1782
    -5.9185  -5.9185  -5.9185  -5.9185  -5.8459  -5.8459  -5.8459  -5.8459
    -5.8150  -5.8150  -5.8017  -5.8017   0.5132   0.5132   0.5816   0.5816
     0.7597   0.7597   0.7597   0.7597   0.9134   0.9134   0.9134   0.9134

     occupation numbers 
     1.0000   1.0000   1.0000   1.0000   1.0000   1.0000   1.0000   1.0000
     1.0000   1.0000   1.0000   1.0000   1.0000   1.0000   1.0000   1.0000
     1.0000   1.0000   1.0000   1.0000   1.0000   1.0000   1.0000   1.0000
     1.0000   1.0000   1.0000   1.0000   1.0000   1.0000   1.0000   1.0000

          k = 0.0000-0.4998-0.4998 ( 25788 PWs)   bands (ev):

   -19.0171 -19.0170 -19.0170 -19.0170  -9.2046  -9.2046  -9.2046  -9.2046
    -5.8821  -5.8821  -5.8821  -5.8821  -5.8214  -5.8214  -5.8213  -5.8213
    -5.7945  -5.7945  -5.7944  -5.7944   0.3897   0.3897   0.3897   0.3897
     0.6860   0.6860   0.6860   0.6860   0.8174   0.8174   0.8174   0.8174

     occupation numbers 
     1.0000   1.0000   1.0000   1.0000   1.0000   1.0000   1.0000   1.0000
     1.0000   1.0000   1.0000   1.0000   1.0000   1.0000   1.0000   1.0000
     1.0000   1.0000   1.0000   1.0000   1.0000   1.0000   1.0000   1.0000
     1.0000   1.0000   1.0000   1.0000   1.0000   1.0000   1.0000   1.0000

          k =-0.4998-0.4998-0.4998 ( 25768 PWs)   bands (ev):

   -19.0170 -19.0169 -19.0169 -19.0169  -9.2233  -9.2233  -9.2233  -9.2233
    -5.8208  -5.8208  -5.8208  -5.8208  -5.8208  -5.8208  -5.8208  -5.8208
    -5.7807  -5.7807  -5.7807  -5.7806   0.2400   0.2400   0.2400   0.2400
     0.6721   0.6721   0.6721   0.6721   0.6721   0.6721   0.6721   0.6721

     occupation numbers 
     1.0000   1.0000   1.0000   1.0000   1.0000   1.0000   1.0000   1.0000
     1.0000   1.0000   1.0000   1.0000   1.0000   1.0000   1.0000   1.0000
     1.0000   1.0000   1.0000   1.0000   1.0000   1.0000   1.0000   1.0000
     1.0000   1.0000   1.0000   1.0000   1.0000   1.0000   1.0000   1.0000

     highest occupied level (ev):     0.9776

!    total energy              =   -3179.61336833 Ry

     total all-electron energy =   -119228.277385 Ry
     estimated scf accuracy    <          3.4E-09 Ry

     The total energy is the sum of the following terms:
     one-electron contribution =     -41.55556745 Ry
     hartree contribution      =      44.75232269 Ry
     xc contribution           =    -147.83134416 Ry
     ewald contribution        =    -197.42670265 Ry
     one-center paw contrib.   =   -2837.55207676 Ry
      -> PAW hartree energy AE =      25.67057251 Ry
      -> PAW hartree energy PS =     -25.56088764 Ry
      -> PAW xc energy AE      =    -383.53672942 Ry
      -> PAW xc energy PS      =      20.52057286 Ry
      -> total E_H with PAW    =      44.86200755 Ry
      -> total E_XC with PAW   =    -510.84750072 Ry

     convergence has been achieved in  16 iterations

     Forces acting on atoms (cartesian axes, Ry/au):

     atom    1 type  1   force =     0.00000000    0.00000000    0.00000000
     atom    2 type  1   force =     0.00000000    0.00000000    0.00000000
     atom    3 type  1   force =     0.00000000    0.00000000    0.00000000
     atom    4 type  1   force =     0.00000000    0.00000000    0.00000000
     atom    5 type  2   force =     0.00000000    0.00000000    0.00000000
     atom    6 type  2   force =     0.00000000    0.00000000    0.00000000
     atom    7 type  2   force =     0.00000000    0.00000000    0.00000000
     atom    8 type  2   force =     0.00000000    0.00000000    0.00000000
     The non-local contrib.  to forces
     atom    1 type  1   force =     0.00000000    0.00000000    0.00000000
     atom    2 type  1   force =     0.00000000    0.00000000    0.00000000
     atom    3 type  1   force =     0.00000000    0.00000000    0.00000000
     atom    4 type  1   force =     0.00000000    0.00000000    0.00000000
     atom    5 type  2   force =     0.00000000    0.00000000    0.00000000
     atom    6 type  2   force =     0.00000000    0.00000000    0.00000000
     atom    7 type  2   force =     0.00000000    0.00000000    0.00000000
     atom    8 type  2   force =     0.00000000    0.00000000    0.00000000
     The ionic contribution  to forces
     atom    1 type  1   force =     0.00000000    0.00000000    0.00000000
     atom    2 type  1   force =     0.00000000   -0.00000000   -0.00000000
     atom    3 type  1   force =    -0.00000000    0.00000000   -0.00000000
     atom    4 type  1   force =    -0.00000000   -0.00000000    0.00000000
     atom    5 type  2   force =    -0.00000000    0.00000000    0.00000000
     atom    6 type  2   force =    -0.00000000   -0.00000000   -0.00000000
     atom    7 type  2   force =     0.00000000    0.00000000   -0.00000000
     atom    8 type  2   force =     0.00000000   -0.00000000    0.00000000
     The local contribution  to forces
     atom    1 type  1   force =    -0.00000000   -0.00000000   -0.00000000
     atom    2 type  1   force =    -0.00000000   -0.00000000   -0.00000000
     atom    3 type  1   force =    -0.00000000   -0.00000000   -0.00000000
     atom    4 type  1   force =    -0.00000000   -0.00000000    0.00000000
     atom    5 type  2   force =    -0.00000000   -0.00000000   -0.00000000
     atom    6 type  2   force =    -0.00000000   -0.00000000   -0.00000000
     atom    7 type  2   force =    -0.00000000   -0.00000000   -0.00000000
     atom    8 type  2   force =    -0.00000000   -0.00000000   -0.00000000
     The core correction contribution to forces
     atom    1 type  1   force =    -0.00000000   -0.00000000   -0.00000000
     atom    2 type  1   force =    -0.00000000    0.00000000    0.00000000
     atom    3 type  1   force =     0.00000000   -0.00000000    0.00000000
     atom    4 type  1   force =     0.00000000    0.00000000   -0.00000000
     atom    5 type  2   force =     0.00000000   -0.00000000   -0.00000000
     atom    6 type  2   force =     0.00000000    0.00000000    0.00000000
     atom    7 type  2   force =    -0.00000000   -0.00000000    0.00000000
     atom    8 type  2   force =    -0.00000000    0.00000000   -0.00000000
     The Hubbard contrib.    to forces
     atom    1 type  1   force =     0.00000000    0.00000000    0.00000000
     atom    2 type  1   force =     0.00000000    0.00000000    0.00000000
     atom    3 type  1   force =     0.00000000    0.00000000    0.00000000
     atom    4 type  1   force =     0.00000000    0.00000000    0.00000000
     atom    5 type  2   force =     0.00000000    0.00000000    0.00000000
     atom    6 type  2   force =     0.00000000    0.00000000    0.00000000
     atom    7 type  2   force =     0.00000000    0.00000000    0.00000000
     atom    8 type  2   force =     0.00000000    0.00000000    0.00000000
     The SCF correction term to forces
     atom    1 type  1   force =     0.00000000    0.00000000   -0.00000000
     atom    2 type  1   force =    -0.00000000    0.00000000   -0.00000000
     atom    3 type  1   force =     0.00000000   -0.00000000   -0.00000000
     atom    4 type  1   force =     0.00000000    0.00000000   -0.00000000
     atom    5 type  2   force =     0.00000000    0.00000000   -0.00000000
     atom    6 type  2   force =    -0.00000000   -0.00000000   -0.00000000
     atom    7 type  2   force =    -0.00000000   -0.00000000   -0.00000000
     atom    8 type  2   force =    -0.00000000    0.00000000   -0.00000000

     Total force =     0.000000     Total SCF correction =     0.000000


     Computing stress (Cartesian axis) and pressure

          total   stress  (Ry/bohr**3)                   (kbar)     P=        0.51
   0.00000348   0.00000000   0.00000000            0.51        0.00        0.00
   0.00000000   0.00000348   0.00000000            0.00        0.51        0.00
   0.00000000   0.00000000   0.00000348            0.00        0.00        0.51

     kinetic stress (kbar)   2518.54      0.00      0.00
                                0.00   2518.54      0.00
                                0.00      0.00   2518.54

     local   stress (kbar)  -1292.08      0.00     -0.00
                                0.00  -1292.08      0.00
                               -0.00      0.00  -1292.08

     nonloc. stress (kbar)   2083.91      0.00      0.00
                                0.00   2083.91      0.00
                                0.00      0.00   2083.91

     hartree stress (kbar)    669.03      0.00      0.00
                                0.00    669.03     -0.00
                                0.00     -0.00    669.03

     exc-cor stress (kbar)   3646.21      0.00      0.00
                                0.00   3646.21      0.00
                                0.00      0.00   3646.21

     corecor stress (kbar)  -4673.64      0.00      0.00
                                0.00  -4673.64     -0.00
                                0.00     -0.00  -4673.64

     ewald   stress (kbar)  -2951.46      0.00     -0.00
                                0.00  -2951.46     -0.00
                               -0.00     -0.00  -2951.46

     hubbard stress (kbar)      0.00      0.00      0.00
                                0.00      0.00      0.00
                                0.00      0.00      0.00

     DFT-D   stress (kbar)      0.00      0.00      0.00
                                0.00      0.00      0.00
                                0.00      0.00      0.00

     XDM     stress (kbar)      0.00      0.00      0.00
                                0.00      0.00      0.00
                                0.00      0.00      0.00

     dft-nl  stress (kbar)      0.00      0.00      0.00
                                0.00      0.00      0.00
                                0.00      0.00      0.00

     TS-vdW  stress (kbar)      0.00      0.00      0.00
                                0.00      0.00      0.00
                                0.00      0.00      0.00



     Writing output data file ./out/CsIhex.save/

     init_run     :     11.05s CPU     11.66s WALL (       2 calls)
     electrons    :    359.09s CPU    381.30s WALL (       5 calls)
     update_pot   :     11.11s CPU     11.16s WALL (       3 calls)
     forces       :     17.61s CPU     17.89s WALL (       5 calls)
     stress       :     41.86s CPU     42.52s WALL (       5 calls)

     Called by init_run:
     wfcinit      :      2.66s CPU      2.71s WALL (       2 calls)
     wfcinit:atom :      0.01s CPU      0.01s WALL (       8 calls)
     wfcinit:wfcr :      2.54s CPU      2.56s WALL (       8 calls)
     potinit      :      2.80s CPU      2.88s WALL (       2 calls)
     hinit0       :      3.54s CPU      3.57s WALL (       2 calls)

     Called by electrons:
     c_bands      :    259.81s CPU    272.36s WALL (      50 calls)
     sum_band     :     47.55s CPU     53.27s WALL (      50 calls)
     v_of_rho     :      2.75s CPU      3.04s WALL (      51 calls)
     v_h          :      0.28s CPU      0.31s WALL (      51 calls)
     v_xc         :      2.86s CPU      3.12s WALL (      61 calls)
     newd         :     22.59s CPU     25.20s WALL (      51 calls)
     PAW_pot      :     32.06s CPU     32.72s WALL (      54 calls)
     mix_rho      :      0.96s CPU      1.17s WALL (      50 calls)

     Called by c_bands:
     init_us_2    :      1.97s CPU      2.02s WALL (     460 calls)
     cegterg      :    252.32s CPU    264.36s WALL (     200 calls)

     Called by sum_band:
     sum_band:wei :      0.00s CPU      0.00s WALL (      50 calls)
     sum_band:loo :     26.42s CPU     29.37s WALL (      50 calls)
     sum_band:buf :      0.10s CPU      0.11s WALL (     200 calls)
     sum_band:ini :      0.88s CPU      0.90s WALL (     200 calls)
     sum_band:cal :     11.34s CPU     11.47s WALL (     212 calls)
     sum_band:bec :      0.10s CPU      0.10s WALL (     212 calls)
     addusdens    :     18.97s CPU     21.41s WALL (      50 calls)
     addusd:skk   :      0.04s CPU      0.05s WALL (     100 calls)
     addusd:dgemm :      7.28s CPU      9.50s WALL (     100 calls)
     addusd:qvan2 :      9.65s CPU      9.70s WALL (     100 calls)

     Called by *egterg:
     cdiaghg      :      2.89s CPU      2.90s WALL (    1128 calls)
     cegterg:over :     13.55s CPU     13.96s WALL (     956 calls)
     cegterg:upda :      5.72s CPU      5.76s WALL (     956 calls)
     cegterg:last :     15.40s CPU     15.54s WALL (     692 calls)
     h_psi        :    174.97s CPU    185.96s WALL (    1164 calls)
     s_psi        :     36.91s CPU     37.17s WALL (    1164 calls)
     g_psi        :      0.30s CPU      0.31s WALL (     956 calls)

     Called by h_psi:
     h_psi:calbec :     40.74s CPU     41.22s WALL (    1164 calls)
     vloc_psi     :     96.14s CPU    106.43s WALL (    1164 calls)
     add_vuspsi   :     37.79s CPU     38.02s WALL (    1164 calls)

     General routines
     calbec       :     57.08s CPU     57.72s WALL (    1476 calls)
     fft          :      2.54s CPU      2.75s WALL (     693 calls)
     ffts         :      0.14s CPU      0.19s WALL (      50 calls)
     fftw         :    105.43s CPU    118.46s WALL (   57080 calls)

     Parallel routines
     fft_scatt_xy :      8.16s CPU      8.25s WALL (   57823 calls)
     fft_scatt_yz :     48.99s CPU     61.54s WALL (   57823 calls)

     PAW routines
     PAW_pot      :     32.06s CPU     32.72s WALL (      54 calls)
     PAW_symme    :      0.45s CPU      0.52s WALL (     104 calls)

     PWSCF        :   7m25.82s CPU   7m52.25s WALL


   This run was terminated on:  12:53:14  14Jan2021            

=------------------------------------------------------------------------------=
   JOB DONE.
=------------------------------------------------------------------------------=
