
     Program PWSCF v.6.6 starts on 30Jan2021 at 10:33:48 

     This program is part of the open-source Quantum ESPRESSO suite
     for quantum simulation of materials; please cite
         "P. Giannozzi et al., J. Phys.:Condens. Matter 21 395502 (2009);
         "P. Giannozzi et al., J. Phys.:Condens. Matter 29 465901 (2017);
          URL http://www.quantum-espresso.org", 
     in publications or presentations arising from this work. More details at
     http://www.quantum-espresso.org/quote

     Parallel version (MPI), running on    32 processors

     MPI processes distributed on     1 nodes
     R & G space division:  proc/nbgrp/npool/nimage =      32
     Fft bands division:     nmany     =       1
     Waiting for input...
     Reading input from standard input

     Current dimensions of program PWSCF are:
     Max number of different atomic species (ntypx) = 10
     Max number of k-points (npk) =  40000
     Max angular momentum in pseudopotentials (lmaxx) =  3
     file Cs.rel-pbe-spn-rrkjus_psl.1.0.0.UPF: wavefunction(s)  5S 6S renormalized

     Subspace diagonalization in iterative solution of the eigenvalue problem:
     a serial algorithm will be used

 
     Parallelization info
     --------------------
     sticks:   dense  smooth     PW     G-vecs:    dense   smooth      PW
     Min          54      54     15                 1696     1696     249
     Max          55      55     16                 1699     1699     254
     Sum        1741    1741    489                54339    54339    8025
 

     Title: 
     CsIsalt                                                                    


     bravais-lattice index     =            1
     lattice parameter (alat)  =       8.8160  a.u.
     unit-cell volume          =     685.1896 (a.u.)^3
     number of atoms/cell      =            2
     number of atomic types    =            2
     number of electrons       =        16.00
     number of Kohn-Sham states=           16
     kinetic-energy cutoff     =      70.0000  Ry
     charge density cutoff     =     280.0000  Ry
     convergence threshold     =      1.0E-06
     mixing beta               =       0.6000
     number of iterations used =            8  plain     mixing
     Exchange-correlation= PBE
                           (   1   4   3   4   0   0   0)
     Non magnetic calculation with spin-orbit


     celldm(1)=   8.815973  celldm(2)=   0.000000  celldm(3)=   0.000000
     celldm(4)=   0.000000  celldm(5)=   0.000000  celldm(6)=   0.000000

     crystal axes: (cart. coord. in units of alat)
               a(1) = (   1.000000   0.000000   0.000000 )  
               a(2) = (   0.000000   1.000000   0.000000 )  
               a(3) = (   0.000000   0.000000   1.000000 )  

     reciprocal axes: (cart. coord. in units 2 pi/alat)
               b(1) = (  1.000000  0.000000  0.000000 )  
               b(2) = (  0.000000  1.000000  0.000000 )  
               b(3) = (  0.000000  0.000000  1.000000 )  


     PseudoPot. # 1 for I  read from file:
     /scratch/afiorent/degironcoli/pseudo/pseudo-usp/I.rel-pbe-n-rrkjus_psl.0.2.2.UPF
     MD5 check sum: b9024a078df971004264c9bcc9ff756e
     Pseudo is Ultrasoft + core correction, Zval =  7.0
     Generated using "atomic" code by A. Dal Corso v.5.0.2 svn rev. 9415
     Using radial grid of 1247 points,  6 beta functions with: 
                l(1) =   0
                l(2) =   0
                l(3) =   1
                l(4) =   1
                l(5) =   1
                l(6) =   1
     Q(r) pseudized with 0 coefficients 


     PseudoPot. # 2 for Cs read from file:
     /scratch/afiorent/degironcoli/pseudo/pseudo-usp/Cs.rel-pbe-spn-rrkjus_psl.1.0.0.UPF
     MD5 check sum: 92f45d5fced885c1284380ec35df8368
     Pseudo is Ultrasoft + core correction, Zval =  9.0
     Generated using "atomic" code by A. Dal Corso v.6.4.1
     Using radial grid of 1251 points, 15 beta functions with: 
                l(1) =   0
                l(2) =   0
                l(3) =   0
                l(4) =   1
                l(5) =   1
                l(6) =   1
                l(7) =   1
                l(8) =   2
                l(9) =   2
               l(10) =   2
               l(11) =   2
               l(12) =   3
               l(13) =   3
               l(14) =   3
               l(15) =   3
     Q(r) pseudized with 0 coefficients 


     atomic species   valence    mass     pseudopotential
        I              7.00   126.90000     I ( 1.00)
        Cs             9.00   132.90000     Cs( 1.00)

     48 Sym. Ops., with inversion, found


                                    s                        frac. trans.

      isym =  1     identity                                     

 cryst.   s( 1) = (     1          0          0      )
                  (     0          1          0      )
                  (     0          0          1      )

 cart.    s( 1) = (  1.0000000  0.0000000  0.0000000 )
                  (  0.0000000  1.0000000  0.0000000 )
                  (  0.0000000  0.0000000  1.0000000 )


      isym =  2     180 deg rotation - cart. axis [0,0,1]        

 cryst.   s( 2) = (    -1          0          0      )
                  (     0         -1          0      )
                  (     0          0          1      )

 cart.    s( 2) = ( -1.0000000  0.0000000  0.0000000 )
                  (  0.0000000 -1.0000000  0.0000000 )
                  (  0.0000000  0.0000000  1.0000000 )


      isym =  3     180 deg rotation - cart. axis [0,1,0]        

 cryst.   s( 3) = (    -1          0          0      )
                  (     0          1          0      )
                  (     0          0         -1      )

 cart.    s( 3) = ( -1.0000000  0.0000000  0.0000000 )
                  (  0.0000000  1.0000000  0.0000000 )
                  (  0.0000000  0.0000000 -1.0000000 )


      isym =  4     180 deg rotation - cart. axis [1,0,0]        

 cryst.   s( 4) = (     1          0          0      )
                  (     0         -1          0      )
                  (     0          0         -1      )

 cart.    s( 4) = (  1.0000000  0.0000000  0.0000000 )
                  (  0.0000000 -1.0000000  0.0000000 )
                  (  0.0000000  0.0000000 -1.0000000 )


      isym =  5     180 deg rotation - cart. axis [1,1,0]        

 cryst.   s( 5) = (     0          1          0      )
                  (     1          0          0      )
                  (     0          0         -1      )

 cart.    s( 5) = (  0.0000000  1.0000000  0.0000000 )
                  (  1.0000000  0.0000000  0.0000000 )
                  (  0.0000000  0.0000000 -1.0000000 )


      isym =  6     180 deg rotation - cart. axis [1,-1,0]       

 cryst.   s( 6) = (     0         -1          0      )
                  (    -1          0          0      )
                  (     0          0         -1      )

 cart.    s( 6) = (  0.0000000 -1.0000000  0.0000000 )
                  ( -1.0000000  0.0000000  0.0000000 )
                  (  0.0000000  0.0000000 -1.0000000 )


      isym =  7      90 deg rotation - cart. axis [0,0,-1]       

 cryst.   s( 7) = (     0         -1          0      )
                  (     1          0          0      )
                  (     0          0          1      )

 cart.    s( 7) = (  0.0000000  1.0000000  0.0000000 )
                  ( -1.0000000  0.0000000  0.0000000 )
                  (  0.0000000  0.0000000  1.0000000 )


      isym =  8      90 deg rotation - cart. axis [0,0,1]        

 cryst.   s( 8) = (     0          1          0      )
                  (    -1          0          0      )
                  (     0          0          1      )

 cart.    s( 8) = (  0.0000000 -1.0000000  0.0000000 )
                  (  1.0000000  0.0000000  0.0000000 )
                  (  0.0000000  0.0000000  1.0000000 )


      isym =  9     180 deg rotation - cart. axis [1,0,1]        

 cryst.   s( 9) = (     0          0          1      )
                  (     0         -1          0      )
                  (     1          0          0      )

 cart.    s( 9) = (  0.0000000  0.0000000  1.0000000 )
                  (  0.0000000 -1.0000000  0.0000000 )
                  (  1.0000000  0.0000000  0.0000000 )


      isym = 10     180 deg rotation - cart. axis [-1,0,1]       

 cryst.   s(10) = (     0          0         -1      )
                  (     0         -1          0      )
                  (    -1          0          0      )

 cart.    s(10) = (  0.0000000  0.0000000 -1.0000000 )
                  (  0.0000000 -1.0000000  0.0000000 )
                  ( -1.0000000  0.0000000  0.0000000 )


      isym = 11      90 deg rotation - cart. axis [0,1,0]        

 cryst.   s(11) = (     0          0         -1      )
                  (     0          1          0      )
                  (     1          0          0      )

 cart.    s(11) = (  0.0000000  0.0000000  1.0000000 )
                  (  0.0000000  1.0000000  0.0000000 )
                  ( -1.0000000  0.0000000  0.0000000 )


      isym = 12      90 deg rotation - cart. axis [0,-1,0]       

 cryst.   s(12) = (     0          0          1      )
                  (     0          1          0      )
                  (    -1          0          0      )

 cart.    s(12) = (  0.0000000  0.0000000 -1.0000000 )
                  (  0.0000000  1.0000000  0.0000000 )
                  (  1.0000000  0.0000000  0.0000000 )


      isym = 13     180 deg rotation - cart. axis [0,1,1]        

 cryst.   s(13) = (    -1          0          0      )
                  (     0          0          1      )
                  (     0          1          0      )

 cart.    s(13) = ( -1.0000000  0.0000000  0.0000000 )
                  (  0.0000000  0.0000000  1.0000000 )
                  (  0.0000000  1.0000000  0.0000000 )


      isym = 14     180 deg rotation - cart. axis [0,1,-1]       

 cryst.   s(14) = (    -1          0          0      )
                  (     0          0         -1      )
                  (     0         -1          0      )

 cart.    s(14) = ( -1.0000000  0.0000000  0.0000000 )
                  (  0.0000000  0.0000000 -1.0000000 )
                  (  0.0000000 -1.0000000  0.0000000 )


      isym = 15      90 deg rotation - cart. axis [-1,0,0]       

 cryst.   s(15) = (     1          0          0      )
                  (     0          0         -1      )
                  (     0          1          0      )

 cart.    s(15) = (  1.0000000  0.0000000  0.0000000 )
                  (  0.0000000  0.0000000  1.0000000 )
                  (  0.0000000 -1.0000000  0.0000000 )


      isym = 16      90 deg rotation - cart. axis [1,0,0]        

 cryst.   s(16) = (     1          0          0      )
                  (     0          0          1      )
                  (     0         -1          0      )

 cart.    s(16) = (  1.0000000  0.0000000  0.0000000 )
                  (  0.0000000  0.0000000 -1.0000000 )
                  (  0.0000000  1.0000000  0.0000000 )


      isym = 17     120 deg rotation - cart. axis [-1,-1,-1]     

 cryst.   s(17) = (     0          0          1      )
                  (     1          0          0      )
                  (     0          1          0      )

 cart.    s(17) = (  0.0000000  1.0000000  0.0000000 )
                  (  0.0000000  0.0000000  1.0000000 )
                  (  1.0000000  0.0000000  0.0000000 )


      isym = 18     120 deg rotation - cart. axis [-1,1,1]       

 cryst.   s(18) = (     0          0         -1      )
                  (    -1          0          0      )
                  (     0          1          0      )

 cart.    s(18) = (  0.0000000 -1.0000000  0.0000000 )
                  (  0.0000000  0.0000000  1.0000000 )
                  ( -1.0000000  0.0000000  0.0000000 )


      isym = 19     120 deg rotation - cart. axis [1,1,-1]       

 cryst.   s(19) = (     0          0         -1      )
                  (     1          0          0      )
                  (     0         -1          0      )

 cart.    s(19) = (  0.0000000  1.0000000  0.0000000 )
                  (  0.0000000  0.0000000 -1.0000000 )
                  ( -1.0000000  0.0000000  0.0000000 )


      isym = 20     120 deg rotation - cart. axis [1,-1,1]       

 cryst.   s(20) = (     0          0          1      )
                  (    -1          0          0      )
                  (     0         -1          0      )

 cart.    s(20) = (  0.0000000 -1.0000000  0.0000000 )
                  (  0.0000000  0.0000000 -1.0000000 )
                  (  1.0000000  0.0000000  0.0000000 )


      isym = 21     120 deg rotation - cart. axis [1,1,1]        

 cryst.   s(21) = (     0          1          0      )
                  (     0          0          1      )
                  (     1          0          0      )

 cart.    s(21) = (  0.0000000  0.0000000  1.0000000 )
                  (  1.0000000  0.0000000  0.0000000 )
                  (  0.0000000  1.0000000  0.0000000 )


      isym = 22     120 deg rotation - cart. axis [-1,1,-1]      

 cryst.   s(22) = (     0         -1          0      )
                  (     0          0         -1      )
                  (     1          0          0      )

 cart.    s(22) = (  0.0000000  0.0000000  1.0000000 )
                  ( -1.0000000  0.0000000  0.0000000 )
                  (  0.0000000 -1.0000000  0.0000000 )


      isym = 23     120 deg rotation - cart. axis [1,-1,-1]      

 cryst.   s(23) = (     0         -1          0      )
                  (     0          0          1      )
                  (    -1          0          0      )

 cart.    s(23) = (  0.0000000  0.0000000 -1.0000000 )
                  ( -1.0000000  0.0000000  0.0000000 )
                  (  0.0000000  1.0000000  0.0000000 )


      isym = 24     120 deg rotation - cart. axis [-1,-1,1]      

 cryst.   s(24) = (     0          1          0      )
                  (     0          0         -1      )
                  (    -1          0          0      )

 cart.    s(24) = (  0.0000000  0.0000000 -1.0000000 )
                  (  1.0000000  0.0000000  0.0000000 )
                  (  0.0000000 -1.0000000  0.0000000 )


      isym = 25     inversion                                    

 cryst.   s(25) = (    -1          0          0      )
                  (     0         -1          0      )
                  (     0          0         -1      )

 cart.    s(25) = ( -1.0000000  0.0000000  0.0000000 )
                  (  0.0000000 -1.0000000  0.0000000 )
                  (  0.0000000  0.0000000 -1.0000000 )


      isym = 26     inv. 180 deg rotation - cart. axis [0,0,1]   

 cryst.   s(26) = (     1          0          0      )
                  (     0          1          0      )
                  (     0          0         -1      )

 cart.    s(26) = (  1.0000000  0.0000000  0.0000000 )
                  (  0.0000000  1.0000000  0.0000000 )
                  (  0.0000000  0.0000000 -1.0000000 )


      isym = 27     inv. 180 deg rotation - cart. axis [0,1,0]   

 cryst.   s(27) = (     1          0          0      )
                  (     0         -1          0      )
                  (     0          0          1      )

 cart.    s(27) = (  1.0000000  0.0000000  0.0000000 )
                  (  0.0000000 -1.0000000  0.0000000 )
                  (  0.0000000  0.0000000  1.0000000 )


      isym = 28     inv. 180 deg rotation - cart. axis [1,0,0]   

 cryst.   s(28) = (    -1          0          0      )
                  (     0          1          0      )
                  (     0          0          1      )

 cart.    s(28) = ( -1.0000000  0.0000000  0.0000000 )
                  (  0.0000000  1.0000000  0.0000000 )
                  (  0.0000000  0.0000000  1.0000000 )


      isym = 29     inv. 180 deg rotation - cart. axis [1,1,0]   

 cryst.   s(29) = (     0         -1          0      )
                  (    -1          0          0      )
                  (     0          0          1      )

 cart.    s(29) = (  0.0000000 -1.0000000  0.0000000 )
                  ( -1.0000000  0.0000000  0.0000000 )
                  (  0.0000000  0.0000000  1.0000000 )


      isym = 30     inv. 180 deg rotation - cart. axis [1,-1,0]  

 cryst.   s(30) = (     0          1          0      )
                  (     1          0          0      )
                  (     0          0          1      )

 cart.    s(30) = (  0.0000000  1.0000000  0.0000000 )
                  (  1.0000000  0.0000000  0.0000000 )
                  (  0.0000000  0.0000000  1.0000000 )


      isym = 31     inv.  90 deg rotation - cart. axis [0,0,-1]  

 cryst.   s(31) = (     0          1          0      )
                  (    -1          0          0      )
                  (     0          0         -1      )

 cart.    s(31) = (  0.0000000 -1.0000000  0.0000000 )
                  (  1.0000000  0.0000000  0.0000000 )
                  (  0.0000000  0.0000000 -1.0000000 )


      isym = 32     inv.  90 deg rotation - cart. axis [0,0,1]   

 cryst.   s(32) = (     0         -1          0      )
                  (     1          0          0      )
                  (     0          0         -1      )

 cart.    s(32) = (  0.0000000  1.0000000  0.0000000 )
                  ( -1.0000000  0.0000000  0.0000000 )
                  (  0.0000000  0.0000000 -1.0000000 )


      isym = 33     inv. 180 deg rotation - cart. axis [1,0,1]   

 cryst.   s(33) = (     0          0         -1      )
                  (     0          1          0      )
                  (    -1          0          0      )

 cart.    s(33) = (  0.0000000  0.0000000 -1.0000000 )
                  (  0.0000000  1.0000000  0.0000000 )
                  ( -1.0000000  0.0000000  0.0000000 )


      isym = 34     inv. 180 deg rotation - cart. axis [-1,0,1]  

 cryst.   s(34) = (     0          0          1      )
                  (     0          1          0      )
                  (     1          0          0      )

 cart.    s(34) = (  0.0000000  0.0000000  1.0000000 )
                  (  0.0000000  1.0000000  0.0000000 )
                  (  1.0000000  0.0000000  0.0000000 )


      isym = 35     inv.  90 deg rotation - cart. axis [0,1,0]   

 cryst.   s(35) = (     0          0          1      )
                  (     0         -1          0      )
                  (    -1          0          0      )

 cart.    s(35) = (  0.0000000  0.0000000 -1.0000000 )
                  (  0.0000000 -1.0000000  0.0000000 )
                  (  1.0000000  0.0000000  0.0000000 )


      isym = 36     inv.  90 deg rotation - cart. axis [0,-1,0]  

 cryst.   s(36) = (     0          0         -1      )
                  (     0         -1          0      )
                  (     1          0          0      )

 cart.    s(36) = (  0.0000000  0.0000000  1.0000000 )
                  (  0.0000000 -1.0000000  0.0000000 )
                  ( -1.0000000  0.0000000  0.0000000 )


      isym = 37     inv. 180 deg rotation - cart. axis [0,1,1]   

 cryst.   s(37) = (     1          0          0      )
                  (     0          0         -1      )
                  (     0         -1          0      )

 cart.    s(37) = (  1.0000000  0.0000000  0.0000000 )
                  (  0.0000000  0.0000000 -1.0000000 )
                  (  0.0000000 -1.0000000  0.0000000 )


      isym = 38     inv. 180 deg rotation - cart. axis [0,1,-1]  

 cryst.   s(38) = (     1          0          0      )
                  (     0          0          1      )
                  (     0          1          0      )

 cart.    s(38) = (  1.0000000  0.0000000  0.0000000 )
                  (  0.0000000  0.0000000  1.0000000 )
                  (  0.0000000  1.0000000  0.0000000 )


      isym = 39     inv.  90 deg rotation - cart. axis [-1,0,0]  

 cryst.   s(39) = (    -1          0          0      )
                  (     0          0          1      )
                  (     0         -1          0      )

 cart.    s(39) = ( -1.0000000  0.0000000  0.0000000 )
                  (  0.0000000  0.0000000 -1.0000000 )
                  (  0.0000000  1.0000000  0.0000000 )


      isym = 40     inv.  90 deg rotation - cart. axis [1,0,0]   

 cryst.   s(40) = (    -1          0          0      )
                  (     0          0         -1      )
                  (     0          1          0      )

 cart.    s(40) = ( -1.0000000  0.0000000  0.0000000 )
                  (  0.0000000  0.0000000  1.0000000 )
                  (  0.0000000 -1.0000000  0.0000000 )


      isym = 41     inv. 120 deg rotation - cart. axis [-1,-1,-1]

 cryst.   s(41) = (     0          0         -1      )
                  (    -1          0          0      )
                  (     0         -1          0      )

 cart.    s(41) = (  0.0000000 -1.0000000  0.0000000 )
                  (  0.0000000  0.0000000 -1.0000000 )
                  ( -1.0000000  0.0000000  0.0000000 )


      isym = 42     inv. 120 deg rotation - cart. axis [-1,1,1]  

 cryst.   s(42) = (     0          0          1      )
                  (     1          0          0      )
                  (     0         -1          0      )

 cart.    s(42) = (  0.0000000  1.0000000  0.0000000 )
                  (  0.0000000  0.0000000 -1.0000000 )
                  (  1.0000000  0.0000000  0.0000000 )


      isym = 43     inv. 120 deg rotation - cart. axis [1,1,-1]  

 cryst.   s(43) = (     0          0          1      )
                  (    -1          0          0      )
                  (     0          1          0      )

 cart.    s(43) = (  0.0000000 -1.0000000  0.0000000 )
                  (  0.0000000  0.0000000  1.0000000 )
                  (  1.0000000  0.0000000  0.0000000 )


      isym = 44     inv. 120 deg rotation - cart. axis [1,-1,1]  

 cryst.   s(44) = (     0          0         -1      )
                  (     1          0          0      )
                  (     0          1          0      )

 cart.    s(44) = (  0.0000000  1.0000000  0.0000000 )
                  (  0.0000000  0.0000000  1.0000000 )
                  ( -1.0000000  0.0000000  0.0000000 )


      isym = 45     inv. 120 deg rotation - cart. axis [1,1,1]   

 cryst.   s(45) = (     0         -1          0      )
                  (     0          0         -1      )
                  (    -1          0          0      )

 cart.    s(45) = (  0.0000000  0.0000000 -1.0000000 )
                  ( -1.0000000  0.0000000  0.0000000 )
                  (  0.0000000 -1.0000000  0.0000000 )


      isym = 46     inv. 120 deg rotation - cart. axis [-1,1,-1] 

 cryst.   s(46) = (     0          1          0      )
                  (     0          0          1      )
                  (    -1          0          0      )

 cart.    s(46) = (  0.0000000  0.0000000 -1.0000000 )
                  (  1.0000000  0.0000000  0.0000000 )
                  (  0.0000000  1.0000000  0.0000000 )


      isym = 47     inv. 120 deg rotation - cart. axis [1,-1,-1] 

 cryst.   s(47) = (     0          1          0      )
                  (     0          0         -1      )
                  (     1          0          0      )

 cart.    s(47) = (  0.0000000  0.0000000  1.0000000 )
                  (  1.0000000  0.0000000  0.0000000 )
                  (  0.0000000 -1.0000000  0.0000000 )


      isym = 48     inv. 120 deg rotation - cart. axis [-1,-1,1] 

 cryst.   s(48) = (     0         -1          0      )
                  (     0          0          1      )
                  (     1          0          0      )

 cart.    s(48) = (  0.0000000  0.0000000  1.0000000 )
                  ( -1.0000000  0.0000000  0.0000000 )
                  (  0.0000000  1.0000000  0.0000000 )


     double point group O_h (m-3m) 
     there are 16 classes and  6 irreducible representations
     the character table:

       E     -E    8C3   -8C3   3C2  6C4   -6C4   6C2' i     -i    8S6   -8S6 
                               -3C2              -6C2'                        
G_6+   2.00 -2.00  1.00 -1.00  0.00  1.41 -1.41  0.00  2.00 -2.00  1.00 -1.00
G_7+   2.00 -2.00  1.00 -1.00  0.00 -1.41  1.41  0.00  2.00 -2.00  1.00 -1.00
G_8+   4.00 -4.00 -1.00  1.00  0.00  0.00  0.00  0.00  4.00 -4.00 -1.00  1.00
G_6-   2.00 -2.00  1.00 -1.00  0.00  1.41 -1.41  0.00 -2.00  2.00 -1.00  1.00
G_7-   2.00 -2.00  1.00 -1.00  0.00 -1.41  1.41  0.00 -2.00  2.00 -1.00  1.00
G_8-   4.00 -4.00 -1.00  1.00  0.00  0.00  0.00  0.00 -4.00  4.00  1.00 -1.00

        3s_h 6S4   -6S4   6s_d
       -3s_h             -6s_d
G_6+   0.00  1.41 -1.41  0.00
G_7+   0.00 -1.41  1.41  0.00
G_8+   0.00  0.00  0.00  0.00
G_6-   0.00 -1.41  1.41  0.00
G_7-   0.00  1.41 -1.41  0.00
G_8-   0.00  0.00  0.00  0.00

     the symmetry operations in each class and the name of the first element:

     E             1
          identity                                               
     -E           -1
          identity E                                             
     8C3          17   19   20   18   24   21   22   23
          120 deg rotation - cart. axis [-1,-1,-1]               
     -8C3        -17  -19  -20  -18  -24  -21  -22  -23
          120 deg rotation - cart. axis [-1,-1,-1] E             
      3C2 -3C2     2   -2    4   -4    3   -3
          180 deg rotation - cart. axis [0,0,1]                  
     6C4           7    8   15   16   12   11
           90 deg rotation - cart. axis [0,0,-1]                 
     -6C4         -7   -8  -15  -16  -12  -11
           90 deg rotation - cart. axis [0,0,-1] E               
      6C2'-6C2'    5   -5   -6    6   14  -13  -14   13   10   -9  -10    9
          180 deg rotation - cart. axis [1,1,0]                  
     i            25
          inversion                                              
     -i          -25
          inversion E                                            
     8S6          41   43   44   42   48   45   46   47
          inv. 120 deg rotation - cart. axis [-1,-1,-1]          
     -8S6        -41  -43  -44  -42  -48  -45  -46  -47
          inv. 120 deg rotation - cart. axis [-1,-1,-1] E        
      3s_h-3s_h   26  -26   28  -28   27  -27
          inv. 180 deg rotation - cart. axis [0,0,1]             
     6S4          31   32   39   40   36   35
          inv.  90 deg rotation - cart. axis [0,0,-1]            
     -6S4        -31  -32  -39  -40  -36  -35
          inv.  90 deg rotation - cart. axis [0,0,-1] E          
      6s_d-6s_d   29  -29  -30   30   38  -37  -38   37   34  -33  -34   33
          inv. 180 deg rotation - cart. axis [1,1,0]             

   Cartesian axes

     site n.     atom                  positions (alat units)
         1           Cs  tau(   1) = (   0.0000000   0.0000000   0.0000000  )
         2           I   tau(   2) = (   0.5000000   0.5000000   0.5000000  )

   Crystallographic axes

     site n.     atom                  positions (cryst. coord.)
         1           Cs  tau(   1) = (  0.0000000  0.0000000  0.0000000  )
         2           I   tau(   2) = (  0.5000000  0.5000000  0.5000000  )

     number of k points=     4
                       cart. coord. in units 2pi/alat
        k(    1) = (   0.1250000   0.1250000   0.1250000), wk =   0.1250000
        k(    2) = (   0.1250000   0.1250000   0.3750000), wk =   0.3750000
        k(    3) = (   0.1250000   0.3750000   0.3750000), wk =   0.3750000
        k(    4) = (   0.3750000   0.3750000   0.3750000), wk =   0.1250000

                       cryst. coord.
        k(    1) = (   0.1250000   0.1250000   0.1250000), wk =   0.1250000
        k(    2) = (   0.1250000   0.1250000   0.3750000), wk =   0.3750000
        k(    3) = (   0.1250000   0.3750000   0.3750000), wk =   0.3750000
        k(    4) = (   0.3750000   0.3750000   0.3750000), wk =   0.1250000

     Dense  grid:    54339 G-vectors     FFT dimensions: (  48,  48,  48)

     Dynamical RAM for                 wfc:       0.10 MB

     Dynamical RAM for     wfc (w. buffer):       0.52 MB

     Dynamical RAM for           str. fact:       0.05 MB

     Dynamical RAM for           local pot:       0.00 MB

     Dynamical RAM for          nlocal pot:       0.25 MB

     Dynamical RAM for                qrad:      21.49 MB

     Dynamical RAM for          rho,v,vnew:       0.73 MB

     Dynamical RAM for               rhoin:       0.24 MB

     Dynamical RAM for            rho*nmix:       1.66 MB

     Dynamical RAM for           G-vectors:       0.11 MB

     Dynamical RAM for          h,s,v(r/c):       0.05 MB

     Dynamical RAM for          <psi|beta>:       0.04 MB

     Dynamical RAM for                 psi:       0.21 MB

     Dynamical RAM for                hpsi:       0.21 MB

     Dynamical RAM for                spsi:       0.21 MB

     Dynamical RAM for      wfcinit/wfcrot:       0.18 MB

     Dynamical RAM for           addusdens:      52.96 MB

     Dynamical RAM for          addusforce:      53.02 MB

     Dynamical RAM for         addusstress:      53.71 MB

     Estimated static dynamical RAM per process >      25.41 MB

     Estimated max dynamical RAM per process >      79.12 MB

     Estimated total dynamical RAM >       2.47 GB

     Initial potential from superposition of free atoms

     starting charge   15.96027, renormalised to   16.00000
     Starting wfcs are   18 randomized atomic wfcs

     total cpu time spent up to now is      411.6 secs

     Self-consistent Calculation

     iteration #  1     ecut=    70.00 Ry     beta= 0.60
     Davidson diagonalization with overlap
     ethr =  1.00E-02,  avg # of iterations =  1.0

     Threshold (ethr) on eigenvalues was too large:
     Diagonalizing with lowered threshold

     Davidson diagonalization with overlap
     ethr =  3.74E-04,  avg # of iterations =  4.5

     total cpu time spent up to now is      456.4 secs

     total energy              =    -113.23900869 Ry
     estimated scf accuracy    <       0.03535665 Ry

     iteration #  2     ecut=    70.00 Ry     beta= 0.60
     Davidson diagonalization with overlap
     ethr =  2.21E-04,  avg # of iterations =  4.2

     total cpu time spent up to now is      459.3 secs

     total energy              =    -113.25245674 Ry
     estimated scf accuracy    <       0.00307292 Ry

     iteration #  3     ecut=    70.00 Ry     beta= 0.60
     Davidson diagonalization with overlap
     ethr =  1.92E-05,  avg # of iterations =  3.0

     total cpu time spent up to now is      460.8 secs

     total energy              =    -113.25325020 Ry
     estimated scf accuracy    <       0.00055348 Ry

     iteration #  4     ecut=    70.00 Ry     beta= 0.60
     Davidson diagonalization with overlap
     ethr =  3.46E-06,  avg # of iterations =  5.2

     total cpu time spent up to now is      462.2 secs

     total energy              =    -113.25367843 Ry
     estimated scf accuracy    <       0.00013169 Ry

     iteration #  5     ecut=    70.00 Ry     beta= 0.60
     Davidson diagonalization with overlap
     ethr =  8.23E-07,  avg # of iterations =  5.2

     total cpu time spent up to now is      463.8 secs

     total energy              =    -113.25375695 Ry
     estimated scf accuracy    <       0.00004591 Ry

     iteration #  6     ecut=    70.00 Ry     beta= 0.60
     Davidson diagonalization with overlap
     ethr =  2.87E-07,  avg # of iterations =  3.2

     total cpu time spent up to now is      465.6 secs

     total energy              =    -113.25376589 Ry
     estimated scf accuracy    <       0.00000324 Ry

     iteration #  7     ecut=    70.00 Ry     beta= 0.60
     Davidson diagonalization with overlap
     ethr =  2.02E-08,  avg # of iterations = 10.5

     total cpu time spent up to now is      467.3 secs

     total energy              =    -113.25377485 Ry
     estimated scf accuracy    <       0.00001584 Ry

     iteration #  8     ecut=    70.00 Ry     beta= 0.60
     Davidson diagonalization with overlap
     ethr =  2.02E-08,  avg # of iterations =  2.0

     total cpu time spent up to now is      468.5 secs

     total energy              =    -113.25377307 Ry
     estimated scf accuracy    <       0.00000467 Ry

     iteration #  9     ecut=    70.00 Ry     beta= 0.60
     Davidson diagonalization with overlap
     ethr =  2.02E-08,  avg # of iterations =  4.2

     total cpu time spent up to now is      469.7 secs

     End of self-consistent calculation

          k = 0.1250 0.1250 0.1250 (  6805 PWs)   bands (ev):

   -17.8056 -17.8056  -7.9233  -7.9233  -5.6949  -5.6949  -4.0873  -4.0873
    -4.0421  -4.0421   1.6195   1.6195   2.4978   2.4978   2.6655   2.6655

     occupation numbers 
     1.0000   1.0000   1.0000   1.0000   1.0000   1.0000   1.0000   1.0000
     1.0000   1.0000   1.0000   1.0000   1.0000   1.0000   1.0000   1.0000

          k = 0.1250 0.1250 0.3750 (  6779 PWs)   bands (ev):

   -17.7929 -17.7929  -7.9012  -7.9012  -5.7176  -5.7176  -4.1627  -4.1627
    -4.0449  -4.0449   1.2556   1.2556   2.1781   2.1781   2.6183   2.6183

     occupation numbers 
     1.0000   1.0000   1.0000   1.0000   1.0000   1.0000   1.0000   1.0000
     1.0000   1.0000   1.0000   1.0000   1.0000   1.0000   1.0000   1.0000

          k = 0.1250 0.3750 0.3750 (  6797 PWs)   bands (ev):

   -17.7809 -17.7809  -7.8149  -7.8149  -5.7961  -5.7961  -4.2990  -4.2990
    -4.1030  -4.1030   1.3328   1.3328   2.0068   2.0068   2.5262   2.5262

     occupation numbers 
     1.0000   1.0000   1.0000   1.0000   1.0000   1.0000   1.0000   1.0000
     1.0000   1.0000   1.0000   1.0000   1.0000   1.0000   1.0000   1.0000

          k = 0.3750 0.3750 0.3750 (  6791 PWs)   bands (ev):

   -17.7694 -17.7694  -7.7435  -7.7435  -5.8346  -5.8346  -4.2605  -4.2605
    -4.2522  -4.2522   1.1095   1.1095   1.8695   1.8695   1.9467   1.9467

     occupation numbers 
     1.0000   1.0000   1.0000   1.0000   1.0000   1.0000   1.0000   1.0000
     1.0000   1.0000   1.0000   1.0000   1.0000   1.0000   1.0000   1.0000

     highest occupied level (ev):     2.6655

!    total energy              =    -113.25377435 Ry
     estimated scf accuracy    <       0.00000001 Ry

     The total energy is the sum of the following terms:
     one-electron contribution =      -5.75497975 Ry
     hartree contribution      =       8.72164705 Ry
     xc contribution           =     -62.92030055 Ry
     ewald contribution        =     -53.30014111 Ry

     convergence has been achieved in   9 iterations

     Forces acting on atoms (cartesian axes, Ry/au):

     atom    1 type  2   force =     0.00000000    0.00000000    0.00000000
     atom    2 type  1   force =     0.00000000    0.00000000    0.00000000
     The non-local contrib.  to forces
     atom    1 type  2   force =     0.00000000    0.00000000    0.00000000
     atom    2 type  1   force =     0.00000000    0.00000000    0.00000000
     The ionic contribution  to forces
     atom    1 type  2   force =    -0.00000000   -0.00000000   -0.00000000
     atom    2 type  1   force =     0.00000000    0.00000000    0.00000000
     The local contribution  to forces
     atom    1 type  2   force =     0.00000000    0.00000000   -0.00000000
     atom    2 type  1   force =     0.00000000    0.00000000    0.00000000
     The core correction contribution to forces
     atom    1 type  2   force =     0.00000000   -0.00000000    0.00000000
     atom    2 type  1   force =    -0.00000000   -0.00000000    0.00000000
     The Hubbard contrib.    to forces
     atom    1 type  2   force =     0.00000000    0.00000000    0.00000000
     atom    2 type  1   force =     0.00000000    0.00000000    0.00000000
     The SCF correction term to forces
     atom    1 type  2   force =    -0.00000000    0.00000000   -0.00000000
     atom    2 type  1   force =     0.00000000    0.00000000    0.00000000

     Total force =     0.000000     Total SCF correction =     0.000000


     Computing stress (Cartesian axis) and pressure

          total   stress  (Ry/bohr**3)                   (kbar)     P=       -0.13
  -0.00000091   0.00000000   0.00000000           -0.13        0.00        0.00
   0.00000000  -0.00000091   0.00000000            0.00       -0.13        0.00
   0.00000000   0.00000000  -0.00000091            0.00        0.00       -0.13

     kinetic stress (kbar)   2974.28      0.00      0.00
                                0.00   2974.28      0.00
                                0.00      0.00   2974.28

     local   stress (kbar)    450.24      0.00     -0.00
                                0.00    450.24     -0.00
                               -0.00     -0.00    450.24

     nonloc. stress (kbar)   1032.34      0.00      0.00
                                0.00   1032.34      0.00
                                0.00      0.00   1032.34

     hartree stress (kbar)    624.16      0.00      0.00
                                0.00    624.16     -0.00
                                0.00     -0.00    624.16

     exc-cor stress (kbar)   9789.84      0.00      0.00
                                0.00   9789.84      0.00
                                0.00      0.00   9789.84

     corecor stress (kbar) -11056.61      0.00      0.00
                                0.00 -11056.61     -0.00
                                0.00     -0.00 -11056.61

     ewald   stress (kbar)  -3814.38      0.00      0.00
                                0.00  -3814.38      0.00
                                0.00      0.00  -3814.38

     hubbard stress (kbar)      0.00      0.00      0.00
                                0.00      0.00      0.00
                                0.00      0.00      0.00

     DFT-D   stress (kbar)      0.00      0.00      0.00
                                0.00      0.00      0.00
                                0.00      0.00      0.00

     XDM     stress (kbar)      0.00      0.00      0.00
                                0.00      0.00      0.00
                                0.00      0.00      0.00

     dft-nl  stress (kbar)      0.00      0.00      0.00
                                0.00      0.00      0.00
                                0.00      0.00      0.00

     TS-vdW  stress (kbar)      0.00      0.00      0.00
                                0.00      0.00      0.00
                                0.00      0.00      0.00



     Writing output data file ./out/CsIsalt.save/
 
     init_run     :      2.30s CPU    165.66s WALL (       1 calls)
     electrons    :     11.40s CPU     61.85s WALL (       1 calls)
     forces       :      0.57s CPU     11.16s WALL (       1 calls)
     stress       :      1.33s CPU     19.42s WALL (       1 calls)

     Called by init_run:
     wfcinit      :      0.27s CPU     18.27s WALL (       1 calls)
     wfcinit:atom :      0.00s CPU      2.40s WALL (       4 calls)
     wfcinit:wfcr :      0.26s CPU     10.39s WALL (       4 calls)
     potinit      :      0.31s CPU     24.30s WALL (       1 calls)
     hinit0       :      0.74s CPU     35.99s WALL (       1 calls)

     Called by electrons:
     c_bands      :      3.63s CPU     13.24s WALL (      10 calls)
     sum_band     :      2.99s CPU     20.61s WALL (      10 calls)
     v_of_rho     :      0.40s CPU     19.92s WALL (      10 calls)
     v_h          :      0.05s CPU      1.61s WALL (      10 calls)
     v_xc         :      0.44s CPU     15.72s WALL (      12 calls)
     newd         :      4.72s CPU      8.99s WALL (      10 calls)
     mix_rho      :      0.16s CPU      6.26s WALL (      10 calls)

     Called by c_bands:
     init_us_2    :      0.06s CPU      0.39s WALL (      92 calls)
     cegterg      :      2.87s CPU      7.84s WALL (      40 calls)

     Called by sum_band:
     sum_band:wei :      0.00s CPU      1.23s WALL (      10 calls)
     sum_band:loo :      1.24s CPU      9.90s WALL (      10 calls)
     sum_band:buf :      0.01s CPU      0.01s WALL (      40 calls)
     sum_band:ini :      0.03s CPU      0.03s WALL (      40 calls)
     sum_band:cal :      0.10s CPU      2.36s WALL (      40 calls)
     sum_band:bec :      0.56s CPU      3.25s WALL (      40 calls)
     addusdens    :      1.52s CPU      3.82s WALL (      10 calls)
     addusd:skk   :      0.00s CPU      0.98s WALL (      20 calls)
     addusd:dgemm :      0.69s CPU      1.47s WALL (      20 calls)
     addusd:qvan2 :      0.79s CPU      0.80s WALL (      20 calls)

     Called by *egterg:
     cdiaghg      :      0.10s CPU      0.97s WALL (     209 calls)
     cegterg:over :      0.12s CPU      0.71s WALL (     173 calls)
     cegterg:upda :      0.03s CPU      0.60s WALL (     173 calls)
     cegterg:last :      0.06s CPU      0.06s WALL (     137 calls)
     h_psi        :      2.48s CPU      7.10s WALL (     217 calls)
     s_psi        :      0.22s CPU      1.85s WALL (     217 calls)
     g_psi        :      0.01s CPU      0.01s WALL (     173 calls)

     Called by h_psi:
     h_psi:calbec :      0.18s CPU      1.21s WALL (     217 calls)
     vloc_psi     :      2.07s CPU      3.57s WALL (     217 calls)
     add_vuspsi   :      0.22s CPU      0.84s WALL (     217 calls)

     General routines
     calbec       :      0.49s CPU      0.53s WALL (     277 calls)
     fft          :      0.43s CPU      8.92s WALL (     166 calls)
     ffts         :      0.05s CPU      0.06s WALL (      40 calls)
     fftw         :      2.44s CPU      2.69s WALL (   11128 calls)
 
     Parallel routines
     fft_scatt_xy :      0.13s CPU      1.01s WALL (   11334 calls)
     fft_scatt_yz :      1.93s CPU      3.94s WALL (   11334 calls)
 
     PWSCF        :     26.08s CPU   9m 1.29s WALL

 
   This run was terminated on:  10:42:42  30Jan2021            

=------------------------------------------------------------------------------=
   JOB DONE.
=------------------------------------------------------------------------------=
