
     Program PWSCF v.6.7MaX starts on 15Jan2021 at 14: 7:32 

     This program is part of the open-source Quantum ESPRESSO suite
     for quantum simulation of materials; please cite
         "P. Giannozzi et al., J. Phys.:Condens. Matter 21 395502 (2009);
         "P. Giannozzi et al., J. Phys.:Condens. Matter 29 465901 (2017);
          URL http://www.quantum-espresso.org", 
     in publications or presentations arising from this work. More details at
     http://www.quantum-espresso.org/quote

     Parallel version (MPI), running on    19 processors

     MPI processes distributed on     1 nodes
     R & G space division:  proc/nbgrp/npool/nimage =      19
     Waiting for input...
     Reading input from standard input

     Current dimensions of program PWSCF are:
     Max number of different atomic species (ntypx) = 10
     Max number of k-points (npk) =  40000
     Max angular momentum in pseudopotentials (lmaxx) =  3
     file Sn.pbe-dn-kjpaw_psl.1.0.0.UPF: wavefunction(s)  5S 5P 4D renormalized
     file I.pbe-n-kjpaw_psl.1.0.0.UPF: wavefunction(s)  5S renormalized

     Subspace diagonalization in iterative solution of the eigenvalue problem:
     a serial algorithm will be used

     Message from routine setup:
     using ibrav=0 with symmetry is DISCOURAGED, use correct ibrav instead

     Parallelization info
     --------------------
     sticks:   dense  smooth     PW     G-vecs:    dense   smooth      PW
     Min         187     187     51                 8403     8403    1203
     Max         188     188     52                 8406     8406    1206
     Sum        3569    3569    973               159699   159699   22887


     Title: 
     SnI4un                                                                     


     bravais-lattice index     =            0
     lattice parameter (alat)  =      12.6355  a.u.
     unit-cell volume          =    2017.3401 (a.u.)^3
     number of atoms/cell      =            5
     number of atomic types    =            2
     number of electrons       =        42.00
     number of Kohn-Sham states=           23
     kinetic-energy cutoff     =      70.0000  Ry
     charge density cutoff     =     280.0000  Ry
     scf convergence threshold =      1.0E-06
     mixing beta               =       0.7000
     number of iterations used =            8  plain     mixing
     Exchange-correlation= SLA  PW   PBX  PBC
                           (   1   4   3   4   0   0   0)

     celldm(1)=  12.635518  celldm(2)=   0.000000  celldm(3)=   0.000000
     celldm(4)=   0.000000  celldm(5)=   0.000000  celldm(6)=   0.000000

     crystal axes: (cart. coord. in units of alat)
               a(1) = (   1.000000   0.000000   0.000000 )  
               a(2) = (   0.000000   1.000000   0.000000 )  
               a(3) = (   0.000000   0.000000   1.000000 )  

     reciprocal axes: (cart. coord. in units 2 pi/alat)
               b(1) = (  1.000000  0.000000  0.000000 )  
               b(2) = (  0.000000  1.000000  0.000000 )  
               b(3) = (  0.000000  0.000000  1.000000 )  


     PseudoPot. # 1 for Sn read from file:
     ../../../pseudo/Sn.pbe-dn-kjpaw_psl.1.0.0.UPF
     MD5 check sum: 67f11dec737d427557dc41ea34975807
     Pseudo is Projector augmented-wave + core cor, Zval = 14.0
     Generated using &quot;atomic&quot; code by A. Dal Corso  v.6.3
     Shape of augmentation charge: PSQ
     Using radial grid of 1243 points,  6 beta functions with: 
                l(1) =   0
                l(2) =   0
                l(3) =   1
                l(4) =   1
                l(5) =   2
                l(6) =   2
     Q(r) pseudized with 0 coefficients 


     PseudoPot. # 2 for I  read from file:
     ../../../pseudo/I.pbe-n-kjpaw_psl.1.0.0.UPF
     MD5 check sum: cd3d296c3308a581e1559a0c8a554cb5
     Pseudo is Projector augmented-wave + core cor, Zval =  7.0
     Generated using &quot;atomic&quot; code by A. Dal Corso  v.6.3
     Shape of augmentation charge: PSQ
     Using radial grid of 1247 points,  6 beta functions with: 
                l(1) =   0
                l(2) =   0
                l(3) =   1
                l(4) =   1
                l(5) =   2
                l(6) =   2
     Q(r) pseudized with 0 coefficients 


     atomic species   valence    mass     pseudopotential
        Sn            14.00   118.70000     Sn( 1.00)
        I              7.00   126.90000     I ( 1.00)

     24 Sym. Ops. (no inversion) found


                                    s                        frac. trans.

      isym =  1     identity                                     

 cryst.   s( 1) = (     1          0          0      )
                  (     0          1          0      )
                  (     0          0          1      )

 cart.    s( 1) = (  1.0000000  0.0000000  0.0000000 )
                  (  0.0000000  1.0000000  0.0000000 )
                  (  0.0000000  0.0000000  1.0000000 )


      isym =  2     180 deg rotation - cart. axis [0,0,1]        

 cryst.   s( 2) = (    -1          0          0      )
                  (     0         -1          0      )
                  (     0          0          1      )

 cart.    s( 2) = ( -1.0000000  0.0000000  0.0000000 )
                  (  0.0000000 -1.0000000  0.0000000 )
                  (  0.0000000  0.0000000  1.0000000 )


      isym =  3     180 deg rotation - cart. axis [0,1,0]        

 cryst.   s( 3) = (    -1          0          0      )
                  (     0          1          0      )
                  (     0          0         -1      )

 cart.    s( 3) = ( -1.0000000  0.0000000  0.0000000 )
                  (  0.0000000  1.0000000  0.0000000 )
                  (  0.0000000  0.0000000 -1.0000000 )


      isym =  4     180 deg rotation - cart. axis [1,0,0]        

 cryst.   s( 4) = (     1          0          0      )
                  (     0         -1          0      )
                  (     0          0         -1      )

 cart.    s( 4) = (  1.0000000  0.0000000  0.0000000 )
                  (  0.0000000 -1.0000000  0.0000000 )
                  (  0.0000000  0.0000000 -1.0000000 )


      isym =  5     120 deg rotation - cart. axis [-1,-1,-1]     

 cryst.   s( 5) = (     0          0          1      )
                  (     1          0          0      )
                  (     0          1          0      )

 cart.    s( 5) = (  0.0000000  1.0000000  0.0000000 )
                  (  0.0000000  0.0000000  1.0000000 )
                  (  1.0000000  0.0000000  0.0000000 )


      isym =  6     120 deg rotation - cart. axis [-1,1,1]       

 cryst.   s( 6) = (     0          0         -1      )
                  (    -1          0          0      )
                  (     0          1          0      )

 cart.    s( 6) = (  0.0000000 -1.0000000  0.0000000 )
                  (  0.0000000  0.0000000  1.0000000 )
                  ( -1.0000000  0.0000000  0.0000000 )


      isym =  7     120 deg rotation - cart. axis [1,1,-1]       

 cryst.   s( 7) = (     0          0         -1      )
                  (     1          0          0      )
                  (     0         -1          0      )

 cart.    s( 7) = (  0.0000000  1.0000000  0.0000000 )
                  (  0.0000000  0.0000000 -1.0000000 )
                  ( -1.0000000  0.0000000  0.0000000 )


      isym =  8     120 deg rotation - cart. axis [1,-1,1]       

 cryst.   s( 8) = (     0          0          1      )
                  (    -1          0          0      )
                  (     0         -1          0      )

 cart.    s( 8) = (  0.0000000 -1.0000000  0.0000000 )
                  (  0.0000000  0.0000000 -1.0000000 )
                  (  1.0000000  0.0000000  0.0000000 )


      isym =  9     120 deg rotation - cart. axis [1,1,1]        

 cryst.   s( 9) = (     0          1          0      )
                  (     0          0          1      )
                  (     1          0          0      )

 cart.    s( 9) = (  0.0000000  0.0000000  1.0000000 )
                  (  1.0000000  0.0000000  0.0000000 )
                  (  0.0000000  1.0000000  0.0000000 )


      isym = 10     120 deg rotation - cart. axis [-1,1,-1]      

 cryst.   s(10) = (     0         -1          0      )
                  (     0          0         -1      )
                  (     1          0          0      )

 cart.    s(10) = (  0.0000000  0.0000000  1.0000000 )
                  ( -1.0000000  0.0000000  0.0000000 )
                  (  0.0000000 -1.0000000  0.0000000 )


      isym = 11     120 deg rotation - cart. axis [1,-1,-1]      

 cryst.   s(11) = (     0         -1          0      )
                  (     0          0          1      )
                  (    -1          0          0      )

 cart.    s(11) = (  0.0000000  0.0000000 -1.0000000 )
                  ( -1.0000000  0.0000000  0.0000000 )
                  (  0.0000000  1.0000000  0.0000000 )


      isym = 12     120 deg rotation - cart. axis [-1,-1,1]      

 cryst.   s(12) = (     0          1          0      )
                  (     0          0         -1      )
                  (    -1          0          0      )

 cart.    s(12) = (  0.0000000  0.0000000 -1.0000000 )
                  (  1.0000000  0.0000000  0.0000000 )
                  (  0.0000000 -1.0000000  0.0000000 )


      isym = 13     inv. 180 deg rotation - cart. axis [1,1,0]   

 cryst.   s(13) = (     0         -1          0      )
                  (    -1          0          0      )
                  (     0          0          1      )

 cart.    s(13) = (  0.0000000 -1.0000000  0.0000000 )
                  ( -1.0000000  0.0000000  0.0000000 )
                  (  0.0000000  0.0000000  1.0000000 )


      isym = 14     inv. 180 deg rotation - cart. axis [1,-1,0]  

 cryst.   s(14) = (     0          1          0      )
                  (     1          0          0      )
                  (     0          0          1      )

 cart.    s(14) = (  0.0000000  1.0000000  0.0000000 )
                  (  1.0000000  0.0000000  0.0000000 )
                  (  0.0000000  0.0000000  1.0000000 )


      isym = 15     inv.  90 deg rotation - cart. axis [0,0,-1]  

 cryst.   s(15) = (     0          1          0      )
                  (    -1          0          0      )
                  (     0          0         -1      )

 cart.    s(15) = (  0.0000000 -1.0000000  0.0000000 )
                  (  1.0000000  0.0000000  0.0000000 )
                  (  0.0000000  0.0000000 -1.0000000 )


      isym = 16     inv.  90 deg rotation - cart. axis [0,0,1]   

 cryst.   s(16) = (     0         -1          0      )
                  (     1          0          0      )
                  (     0          0         -1      )

 cart.    s(16) = (  0.0000000  1.0000000  0.0000000 )
                  ( -1.0000000  0.0000000  0.0000000 )
                  (  0.0000000  0.0000000 -1.0000000 )


      isym = 17     inv. 180 deg rotation - cart. axis [1,0,1]   

 cryst.   s(17) = (     0          0         -1      )
                  (     0          1          0      )
                  (    -1          0          0      )

 cart.    s(17) = (  0.0000000  0.0000000 -1.0000000 )
                  (  0.0000000  1.0000000  0.0000000 )
                  ( -1.0000000  0.0000000  0.0000000 )


      isym = 18     inv. 180 deg rotation - cart. axis [-1,0,1]  

 cryst.   s(18) = (     0          0          1      )
                  (     0          1          0      )
                  (     1          0          0      )

 cart.    s(18) = (  0.0000000  0.0000000  1.0000000 )
                  (  0.0000000  1.0000000  0.0000000 )
                  (  1.0000000  0.0000000  0.0000000 )


      isym = 19     inv.  90 deg rotation - cart. axis [0,1,0]   

 cryst.   s(19) = (     0          0          1      )
                  (     0         -1          0      )
                  (    -1          0          0      )

 cart.    s(19) = (  0.0000000  0.0000000 -1.0000000 )
                  (  0.0000000 -1.0000000  0.0000000 )
                  (  1.0000000  0.0000000  0.0000000 )


      isym = 20     inv.  90 deg rotation - cart. axis [0,-1,0]  

 cryst.   s(20) = (     0          0         -1      )
                  (     0         -1          0      )
                  (     1          0          0      )

 cart.    s(20) = (  0.0000000  0.0000000  1.0000000 )
                  (  0.0000000 -1.0000000  0.0000000 )
                  ( -1.0000000  0.0000000  0.0000000 )


      isym = 21     inv. 180 deg rotation - cart. axis [0,1,1]   

 cryst.   s(21) = (     1          0          0      )
                  (     0          0         -1      )
                  (     0         -1          0      )

 cart.    s(21) = (  1.0000000  0.0000000  0.0000000 )
                  (  0.0000000  0.0000000 -1.0000000 )
                  (  0.0000000 -1.0000000  0.0000000 )


      isym = 22     inv. 180 deg rotation - cart. axis [0,1,-1]  

 cryst.   s(22) = (     1          0          0      )
                  (     0          0          1      )
                  (     0          1          0      )

 cart.    s(22) = (  1.0000000  0.0000000  0.0000000 )
                  (  0.0000000  0.0000000  1.0000000 )
                  (  0.0000000  1.0000000  0.0000000 )


      isym = 23     inv.  90 deg rotation - cart. axis [-1,0,0]  

 cryst.   s(23) = (    -1          0          0      )
                  (     0          0          1      )
                  (     0         -1          0      )

 cart.    s(23) = ( -1.0000000  0.0000000  0.0000000 )
                  (  0.0000000  0.0000000 -1.0000000 )
                  (  0.0000000  1.0000000  0.0000000 )


      isym = 24     inv.  90 deg rotation - cart. axis [1,0,0]   

 cryst.   s(24) = (    -1          0          0      )
                  (     0          0         -1      )
                  (     0          1          0      )

 cart.    s(24) = ( -1.0000000  0.0000000  0.0000000 )
                  (  0.0000000  0.0000000  1.0000000 )
                  (  0.0000000 -1.0000000  0.0000000 )


   Cartesian axes

     site n.     atom                  positions (alat units)
         1           Sn  tau(   1) = (   0.0000000   0.0000000   0.0000000  )
         2           I   tau(   2) = (   0.2339030   0.7660970   0.7660970  )
         3           I   tau(   3) = (   0.7660970   0.2339030   0.7660970  )
         4           I   tau(   4) = (   0.7660970   0.7660970   0.2339030  )
         5           I   tau(   5) = (   0.2339030   0.2339030   0.2339030  )

   Crystallographic axes

     site n.     atom                  positions (cryst. coord.)
         1           Sn  tau(   1) = (  0.0000000  0.0000000  0.0000000  )
         2           I   tau(   2) = (  0.2339030  0.7660970  0.7660970  )
         3           I   tau(   3) = (  0.7660970  0.2339030  0.7660970  )
         4           I   tau(   4) = (  0.7660970  0.7660970  0.2339030  )
         5           I   tau(   5) = (  0.2339030  0.2339030  0.2339030  )

     number of k points=    35
                       cart. coord. in units 2pi/alat
        k(    1) = (   0.0000000   0.0000000   0.0000000), wk =   0.0027435
        k(    2) = (   0.0000000   0.0000000   0.1111111), wk =   0.0164609
        k(    3) = (   0.0000000   0.0000000   0.2222222), wk =   0.0164609
        k(    4) = (   0.0000000   0.0000000   0.3333333), wk =   0.0164609
        k(    5) = (   0.0000000   0.0000000   0.4444444), wk =   0.0164609
        k(    6) = (   0.0000000   0.1111111   0.1111111), wk =   0.0329218
        k(    7) = (   0.0000000   0.1111111   0.2222222), wk =   0.0658436
        k(    8) = (   0.0000000   0.1111111   0.3333333), wk =   0.0658436
        k(    9) = (   0.0000000   0.1111111   0.4444444), wk =   0.0658436
        k(   10) = (   0.0000000   0.2222222   0.2222222), wk =   0.0329218
        k(   11) = (   0.0000000   0.2222222   0.3333333), wk =   0.0658436
        k(   12) = (   0.0000000   0.2222222   0.4444444), wk =   0.0658436
        k(   13) = (   0.0000000   0.3333333   0.3333333), wk =   0.0329218
        k(   14) = (   0.0000000   0.3333333   0.4444444), wk =   0.0658436
        k(   15) = (   0.0000000   0.4444444   0.4444444), wk =   0.0329218
        k(   16) = (   0.1111111   0.1111111   0.1111111), wk =   0.0219479
        k(   17) = (   0.1111111   0.1111111   0.2222222), wk =   0.0658436
        k(   18) = (   0.1111111   0.1111111   0.3333333), wk =   0.0658436
        k(   19) = (   0.1111111   0.1111111   0.4444444), wk =   0.0658436
        k(   20) = (   0.1111111   0.2222222   0.2222222), wk =   0.0658436
        k(   21) = (   0.1111111   0.2222222   0.3333333), wk =   0.1316872
        k(   22) = (   0.1111111   0.2222222   0.4444444), wk =   0.1316872
        k(   23) = (   0.1111111   0.3333333   0.3333333), wk =   0.0658436
        k(   24) = (   0.1111111   0.3333333   0.4444444), wk =   0.1316872
        k(   25) = (   0.1111111   0.4444444   0.4444444), wk =   0.0658436
        k(   26) = (   0.2222222   0.2222222   0.2222222), wk =   0.0219479
        k(   27) = (   0.2222222   0.2222222   0.3333333), wk =   0.0658436
        k(   28) = (   0.2222222   0.2222222   0.4444444), wk =   0.0658436
        k(   29) = (   0.2222222   0.3333333   0.3333333), wk =   0.0658436
        k(   30) = (   0.2222222   0.3333333   0.4444444), wk =   0.1316872
        k(   31) = (   0.2222222   0.4444444   0.4444444), wk =   0.0658436
        k(   32) = (   0.3333333   0.3333333   0.3333333), wk =   0.0219479
        k(   33) = (   0.3333333   0.3333333   0.4444444), wk =   0.0658436
        k(   34) = (   0.3333333   0.4444444   0.4444444), wk =   0.0658436
        k(   35) = (   0.4444444   0.4444444   0.4444444), wk =   0.0219479

                       cryst. coord.
        k(    1) = (   0.0000000   0.0000000   0.0000000), wk =   0.0027435
        k(    2) = (   0.0000000   0.0000000   0.1111111), wk =   0.0164609
        k(    3) = (   0.0000000   0.0000000   0.2222222), wk =   0.0164609
        k(    4) = (   0.0000000   0.0000000   0.3333333), wk =   0.0164609
        k(    5) = (   0.0000000   0.0000000   0.4444444), wk =   0.0164609
        k(    6) = (   0.0000000   0.1111111   0.1111111), wk =   0.0329218
        k(    7) = (   0.0000000   0.1111111   0.2222222), wk =   0.0658436
        k(    8) = (   0.0000000   0.1111111   0.3333333), wk =   0.0658436
        k(    9) = (   0.0000000   0.1111111   0.4444444), wk =   0.0658436
        k(   10) = (   0.0000000   0.2222222   0.2222222), wk =   0.0329218
        k(   11) = (   0.0000000   0.2222222   0.3333333), wk =   0.0658436
        k(   12) = (   0.0000000   0.2222222   0.4444444), wk =   0.0658436
        k(   13) = (   0.0000000   0.3333333   0.3333333), wk =   0.0329218
        k(   14) = (   0.0000000   0.3333333   0.4444444), wk =   0.0658436
        k(   15) = (   0.0000000   0.4444444   0.4444444), wk =   0.0329218
        k(   16) = (   0.1111111   0.1111111   0.1111111), wk =   0.0219479
        k(   17) = (   0.1111111   0.1111111   0.2222222), wk =   0.0658436
        k(   18) = (   0.1111111   0.1111111   0.3333333), wk =   0.0658436
        k(   19) = (   0.1111111   0.1111111   0.4444444), wk =   0.0658436
        k(   20) = (   0.1111111   0.2222222   0.2222222), wk =   0.0658436
        k(   21) = (   0.1111111   0.2222222   0.3333333), wk =   0.1316872
        k(   22) = (   0.1111111   0.2222222   0.4444444), wk =   0.1316872
        k(   23) = (   0.1111111   0.3333333   0.3333333), wk =   0.0658436
        k(   24) = (   0.1111111   0.3333333   0.4444444), wk =   0.1316872
        k(   25) = (   0.1111111   0.4444444   0.4444444), wk =   0.0658436
        k(   26) = (   0.2222222   0.2222222   0.2222222), wk =   0.0219479
        k(   27) = (   0.2222222   0.2222222   0.3333333), wk =   0.0658436
        k(   28) = (   0.2222222   0.2222222   0.4444444), wk =   0.0658436
        k(   29) = (   0.2222222   0.3333333   0.3333333), wk =   0.0658436
        k(   30) = (   0.2222222   0.3333333   0.4444444), wk =   0.1316872
        k(   31) = (   0.2222222   0.4444444   0.4444444), wk =   0.0658436
        k(   32) = (   0.3333333   0.3333333   0.3333333), wk =   0.0219479
        k(   33) = (   0.3333333   0.3333333   0.4444444), wk =   0.0658436
        k(   34) = (   0.3333333   0.4444444   0.4444444), wk =   0.0658436
        k(   35) = (   0.4444444   0.4444444   0.4444444), wk =   0.0219479

     Dense  grid:   159699 G-vectors     FFT dimensions: (  72,  72,  72)

     Dynamical RAM for                 wfc:       0.37 MB

     Dynamical RAM for     wfc (w. buffer):      13.27 MB

     Dynamical RAM for           str. fact:       0.26 MB

     Dynamical RAM for           local pot:       0.00 MB

     Dynamical RAM for          nlocal pot:       1.44 MB

     Dynamical RAM for                qrad:       2.69 MB

     Dynamical RAM for          rho,v,vnew:       0.86 MB

     Dynamical RAM for               rhoin:       0.29 MB

     Dynamical RAM for            rho*nmix:       2.05 MB

     Dynamical RAM for           G-vectors:       0.55 MB

     Dynamical RAM for          h,s,v(r/c):       0.10 MB

     Dynamical RAM for          <psi|beta>:       0.03 MB

     Dynamical RAM for                 psi:       0.74 MB

     Dynamical RAM for                hpsi:       0.74 MB

     Dynamical RAM for                spsi:       0.74 MB

     Dynamical RAM for      wfcinit/wfcrot:       0.82 MB

     Dynamical RAM for           addusdens:      24.37 MB

     Dynamical RAM for          addusforce:      25.22 MB

     Dynamical RAM for         addusstress:      25.78 MB

     Estimated static dynamical RAM per process >      22.57 MB

     Estimated max dynamical RAM per process >      48.35 MB

     Estimated total dynamical RAM >     918.68 MB

     Initial potential from superposition of free atoms

     starting charge   41.99831, renormalised to   42.00000
     Starting wfcs are   25 randomized atomic wfcs
     Checking if some PAW data can be deallocated... 
       PAW data deallocated on   15 nodes for type:  1
       PAW data deallocated on    4 nodes for type:  2

     total cpu time spent up to now is        4.7 secs

     Self-consistent Calculation

     iteration #  1     ecut=    70.00 Ry     beta= 0.70
     Davidson diagonalization with overlap
     ethr =  1.00E-02,  avg # of iterations =  2.1

     Threshold (ethr) on eigenvalues was too large:
     Diagonalizing with lowered threshold

     Davidson diagonalization with overlap
     ethr =  3.50E-04,  avg # of iterations =  3.7

     total cpu time spent up to now is       21.2 secs

     total energy              =   -1957.79663216 Ry
     estimated scf accuracy    <       0.12061868 Ry

     iteration #  2     ecut=    70.00 Ry     beta= 0.70
     Davidson diagonalization with overlap
     ethr =  2.87E-04,  avg # of iterations =  3.1

     total cpu time spent up to now is       31.7 secs

     total energy              =   -1957.81448674 Ry
     estimated scf accuracy    <       0.10752507 Ry

     iteration #  3     ecut=    70.00 Ry     beta= 0.70
     Davidson diagonalization with overlap
     ethr =  2.56E-04,  avg # of iterations =  2.2

     total cpu time spent up to now is       40.7 secs

     total energy              =   -1957.83982771 Ry
     estimated scf accuracy    <       0.00380875 Ry

     iteration #  4     ecut=    70.00 Ry     beta= 0.70
     Davidson diagonalization with overlap
     ethr =  9.07E-06,  avg # of iterations =  3.1

     total cpu time spent up to now is       49.8 secs

     total energy              =   -1957.84070460 Ry
     estimated scf accuracy    <       0.00021253 Ry

     iteration #  5     ecut=    70.00 Ry     beta= 0.70
     Davidson diagonalization with overlap
     ethr =  5.06E-07,  avg # of iterations =  5.6

     total cpu time spent up to now is       59.9 secs

     total energy              =   -1957.84077556 Ry
     estimated scf accuracy    <       0.00000734 Ry

     iteration #  6     ecut=    70.00 Ry     beta= 0.70
     Davidson diagonalization with overlap
     ethr =  1.75E-08,  avg # of iterations =  3.9

     total cpu time spent up to now is       70.9 secs

     End of self-consistent calculation

          k = 0.0000 0.0000 0.0000 ( 20005 PWs)   bands (ev):

   -21.3210 -21.3210 -21.3210 -21.2655 -21.2655 -11.8502 -11.1184 -11.1184
   -11.1184  -6.2866  -2.4222  -2.4222  -2.4222  -1.3499  -1.3499  -0.4683
    -0.4683  -0.4683  -0.2572  -0.2572  -0.2572   1.4102   4.1417

     occupation numbers 
     1.0000   1.0000   1.0000   1.0000   1.0000   1.0000   1.0000   1.0000
     1.0000   1.0000   1.0000   1.0000   1.0000   1.0000   1.0000   1.0000
     1.0000   1.0000   1.0000   1.0000   1.0000   0.0000   0.0000

          k = 0.0000 0.0000 0.1111 ( 19941 PWs)   bands (ev):

   -21.3209 -21.3209 -21.3209 -21.2654 -21.2654 -11.8443 -11.1266 -11.1182
   -11.1182  -6.2797  -2.4412  -2.4258  -2.4258  -1.3315  -1.3242  -0.4964
    -0.4729  -0.4729  -0.3125  -0.2583  -0.2583   1.4746   4.1385

     occupation numbers 
     1.0000   1.0000   1.0000   1.0000   1.0000   1.0000   1.0000   1.0000
     1.0000   1.0000   1.0000   1.0000   1.0000   1.0000   1.0000   1.0000
     1.0000   1.0000   1.0000   1.0000   1.0000   0.0000   0.0000

          k = 0.0000 0.0000 0.2222 ( 19930 PWs)   bands (ev):

   -21.3209 -21.3209 -21.3209 -21.2654 -21.2654 -11.8288 -11.1480 -11.1177
   -11.1177  -6.2621  -2.4880  -2.4349  -2.4349  -1.2788  -1.2509  -0.5731
    -0.4813  -0.4813  -0.4529  -0.2642  -0.2642   1.6348   4.1082

     occupation numbers 
     1.0000   1.0000   1.0000   1.0000   1.0000   1.0000   1.0000   1.0000
     1.0000   1.0000   1.0000   1.0000   1.0000   1.0000   1.0000   1.0000
     1.0000   1.0000   1.0000   1.0000   1.0000   0.0000   0.0000

          k = 0.0000 0.0000 0.3333 ( 19950 PWs)   bands (ev):

   -21.3210 -21.3209 -21.3209 -21.2654 -21.2654 -11.8099 -11.1735 -11.1171
   -11.1171  -6.2420  -2.5391  -2.4453  -2.4453  -1.2018  -1.1383  -0.6769
    -0.6323  -0.4858  -0.4858  -0.2758  -0.2758   1.8186   4.0553

     occupation numbers 
     1.0000   1.0000   1.0000   1.0000   1.0000   1.0000   1.0000   1.0000
     1.0000   1.0000   1.0000   1.0000   1.0000   1.0000   1.0000   1.0000
     1.0000   1.0000   1.0000   1.0000   1.0000   0.0000   0.0000

          k = 0.0000 0.0000 0.4444 ( 19990 PWs)   bands (ev):

   -21.3210 -21.3210 -21.3210 -21.2654 -21.2654 -11.7968 -11.1909 -11.1168
   -11.1168  -6.2287  -2.5715  -2.4521  -2.4521  -1.1302  -0.9957  -0.8145
    -0.7656  -0.4858  -0.4858  -0.2863  -0.2863   1.9438   4.0040

     occupation numbers 
     1.0000   1.0000   1.0000   1.0000   1.0000   1.0000   1.0000   1.0000
     1.0000   1.0000   1.0000   1.0000   1.0000   1.0000   1.0000   1.0000
     1.0000   1.0000   1.0000   1.0000   1.0000   0.0000   0.0000

          k = 0.0000 0.1111 0.1111 ( 19930 PWs)   bands (ev):

   -21.3209 -21.3209 -21.3209 -21.2654 -21.2654 -11.8386 -11.1281 -11.1242
   -11.1182  -6.2735  -2.4623  -2.4294  -2.4266  -1.3088  -1.3041  -0.5291
    -0.4754  -0.4648  -0.3764  -0.2645  -0.2421   1.5291   4.1636

     occupation numbers 
     1.0000   1.0000   1.0000   1.0000   1.0000   1.0000   1.0000   1.0000
     1.0000   1.0000   1.0000   1.0000   1.0000   1.0000   1.0000   1.0000
     1.0000   1.0000   1.0000   1.0000   1.0000   0.0000   0.0000

          k = 0.0000 0.1111 0.2222 ( 19934 PWs)   bands (ev):

   -21.3209 -21.3209 -21.3209 -21.2654 -21.2654 -11.8234 -11.1475 -11.1246
   -11.1182  -6.2578  -2.5089  -2.4385  -2.4343  -1.2555  -1.2364  -0.5993
    -0.5093  -0.4775  -0.4630  -0.2779  -0.2398   1.6680   4.1454

     occupation numbers 
     1.0000   1.0000   1.0000   1.0000   1.0000   1.0000   1.0000   1.0000
     1.0000   1.0000   1.0000   1.0000   1.0000   1.0000   1.0000   1.0000
     1.0000   1.0000   1.0000   1.0000   1.0000   0.0000   0.0000

          k = 0.0000 0.1111 0.3333 ( 19947 PWs)   bands (ev):

   -21.3210 -21.3209 -21.3209 -21.2654 -21.2654 -11.8051 -11.1720 -11.1234
   -11.1183  -6.2398  -2.5584  -2.4484  -2.4449  -1.1808  -1.1317  -0.7023
    -0.6544  -0.4771  -0.4693  -0.2914  -0.2531   1.8314   4.0907

     occupation numbers 
     1.0000   1.0000   1.0000   1.0000   1.0000   1.0000   1.0000   1.0000
     1.0000   1.0000   1.0000   1.0000   1.0000   1.0000   1.0000   1.0000
     1.0000   1.0000   1.0000   1.0000   1.0000   0.0000   0.0000

          k = 0.0000 0.1111 0.4444 ( 19963 PWs)   bands (ev):

   -21.3210 -21.3210 -21.3209 -21.2654 -21.2654 -11.7923 -11.1889 -11.1225
   -11.1185  -6.2279  -2.5896  -2.4543  -2.4524  -1.1119  -1.0026  -0.8427
    -0.7543  -0.4733  -0.4715  -0.2997  -0.2680   1.9445   4.0388

     occupation numbers 
     1.0000   1.0000   1.0000   1.0000   1.0000   1.0000   1.0000   1.0000
     1.0000   1.0000   1.0000   1.0000   1.0000   1.0000   1.0000   1.0000
     1.0000   1.0000   1.0000   1.0000   1.0000   0.0000   0.0000

          k = 0.0000 0.2222 0.2222 ( 19930 PWs)   bands (ev):

   -21.3209 -21.3209 -21.3209 -21.2654 -21.2654 -11.8094 -11.1496 -11.1389
   -11.1195  -6.2467  -2.5551  -2.4470  -2.4387  -1.1981  -1.1891  -0.6829
    -0.5800  -0.4748  -0.4449  -0.3094  -0.2122   1.7564   4.1943

     occupation numbers 
     1.0000   1.0000   1.0000   1.0000   1.0000   1.0000   1.0000   1.0000
     1.0000   1.0000   1.0000   1.0000   1.0000   1.0000   1.0000   1.0000
     1.0000   1.0000   1.0000   1.0000   1.0000   0.0000   0.0000

          k = 0.0000 0.2222 0.3333 ( 19938 PWs)   bands (ev):

   -21.3210 -21.3209 -21.3209 -21.2654 -21.2654 -11.7924 -11.1682 -11.1395
   -11.1215  -6.2341  -2.6026  -2.4553  -2.4474  -1.1367  -1.1011  -0.7978
    -0.6527  -0.4659  -0.4368  -0.3319  -0.2079   1.8665   4.1620

     occupation numbers 
     1.0000   1.0000   1.0000   1.0000   1.0000   1.0000   1.0000   1.0000
     1.0000   1.0000   1.0000   1.0000   1.0000   1.0000   1.0000   1.0000
     1.0000   1.0000   1.0000   1.0000   1.0000   0.0000   0.0000

          k = 0.0000 0.2222 0.4444 ( 19945 PWs)   bands (ev):

   -21.3210 -21.3209 -21.3209 -21.2654 -21.2654 -11.7806 -11.1830 -11.1374
   -11.1233  -6.2259  -2.6318  -2.4591  -2.4551  -1.0732  -1.0151  -0.9034
    -0.7165  -0.4586  -0.4419  -0.3328  -0.2165   1.9455   4.1135

     occupation numbers 
     1.0000   1.0000   1.0000   1.0000   1.0000   1.0000   1.0000   1.0000
     1.0000   1.0000   1.0000   1.0000   1.0000   1.0000   1.0000   1.0000
     1.0000   1.0000   1.0000   1.0000   1.0000   0.0000   0.0000

          k = 0.0000 0.3333 0.3333 ( 19938 PWs)   bands (ev):

   -21.3209 -21.3209 -21.3209 -21.2654 -21.2654 -11.7771 -11.1660 -11.1554
   -11.1262  -6.2277  -2.6480  -2.4614  -2.4539  -1.1028  -1.0365  -0.8917
    -0.6660  -0.4520  -0.4008  -0.3771  -0.1741   1.9118   4.1788

     occupation numbers 
     1.0000   1.0000   1.0000   1.0000   1.0000   1.0000   1.0000   1.0000
     1.0000   1.0000   1.0000   1.0000   1.0000   1.0000   1.0000   1.0000
     1.0000   1.0000   1.0000   1.0000   1.0000   0.0000   0.0000

          k = 0.0000 0.3333 0.4444 ( 19957 PWs)   bands (ev):

   -21.3209 -21.3209 -21.3209 -21.2654 -21.2654 -11.7666 -11.1749 -11.1549
   -11.1303  -6.2235  -2.6757  -2.4637  -2.4602  -1.0617  -1.0148  -0.9354
    -0.6879  -0.4405  -0.4157  -0.3674  -0.1602   1.9453   4.1498

     occupation numbers 
     1.0000   1.0000   1.0000   1.0000   1.0000   1.0000   1.0000   1.0000
     1.0000   1.0000   1.0000   1.0000   1.0000   1.0000   1.0000   1.0000
     1.0000   1.0000   1.0000   1.0000   1.0000   0.0000   0.0000

          k = 0.0000 0.4444 0.4444 ( 19960 PWs)   bands (ev):

   -21.3210 -21.3210 -21.3209 -21.2654 -21.2654 -11.7571 -11.1684 -11.1662
   -11.1368  -6.2220  -2.7025  -2.4659  -2.4646  -1.0586  -1.0401  -0.9173
    -0.6837  -0.4191  -0.4099  -0.3796  -0.1269   1.9446   4.1365

     occupation numbers 
     1.0000   1.0000   1.0000   1.0000   1.0000   1.0000   1.0000   1.0000
     1.0000   1.0000   1.0000   1.0000   1.0000   1.0000   1.0000   1.0000
     1.0000   1.0000   1.0000   1.0000   1.0000   0.0000   0.0000

          k = 0.1111 0.1111 0.1111 ( 19942 PWs)   bands (ev):

   -21.3209 -21.3209 -21.3209 -21.2654 -21.2654 -11.8330 -11.1298 -11.1240
   -11.1240  -6.2681  -2.4791  -2.4323  -2.4323  -1.2859  -1.2859  -0.5254
    -0.5254  -0.4379  -0.4353  -0.2484  -0.2484   1.5743   4.1893

     occupation numbers 
     1.0000   1.0000   1.0000   1.0000   1.0000   1.0000   1.0000   1.0000
     1.0000   1.0000   1.0000   1.0000   1.0000   1.0000   1.0000   1.0000
     1.0000   1.0000   1.0000   1.0000   1.0000   0.0000   0.0000

          k = 0.1111 0.1111 0.2222 ( 19938 PWs)   bands (ev):

   -21.3210 -21.3209 -21.3209 -21.2654 -21.2654 -11.8182 -11.1472 -11.1261
   -11.1235  -6.2542  -2.5217  -2.4466  -2.4378  -1.2344  -1.2216  -0.5953
    -0.5702  -0.5070  -0.4269  -0.2600  -0.2453   1.6922   4.1800

     occupation numbers 
     1.0000   1.0000   1.0000   1.0000   1.0000   1.0000   1.0000   1.0000
     1.0000   1.0000   1.0000   1.0000   1.0000   1.0000   1.0000   1.0000
     1.0000   1.0000   1.0000   1.0000   1.0000   0.0000   0.0000

          k = 0.1111 0.1111 0.3333 ( 19941 PWs)   bands (ev):

   -21.3209 -21.3209 -21.3209 -21.2654 -21.2654 -11.8004 -11.1707 -11.1257
   -11.1229  -6.2383  -2.5688  -2.4627  -2.4432  -1.1614  -1.1256  -0.7152
    -0.6769  -0.4909  -0.4342  -0.2690  -0.2645   1.8350   4.1258

     occupation numbers 
     1.0000   1.0000   1.0000   1.0000   1.0000   1.0000   1.0000   1.0000
     1.0000   1.0000   1.0000   1.0000   1.0000   1.0000   1.0000   1.0000
     1.0000   1.0000   1.0000   1.0000   1.0000   0.0000   0.0000

          k = 0.1111 0.1111 0.4444 ( 19961 PWs)   bands (ev):

   -21.3210 -21.3209 -21.3209 -21.2654 -21.2654 -11.7880 -11.1869 -11.1254
   -11.1226  -6.2279  -2.5986  -2.4731  -2.4465  -1.0962  -1.0092  -0.8596
    -0.7465  -0.4749  -0.4408  -0.2862  -0.2744   1.9354   4.0734

     occupation numbers 
     1.0000   1.0000   1.0000   1.0000   1.0000   1.0000   1.0000   1.0000
     1.0000   1.0000   1.0000   1.0000   1.0000   1.0000   1.0000   1.0000
     1.0000   1.0000   1.0000   1.0000   1.0000   0.0000   0.0000

          k = 0.1111 0.2222 0.2222 ( 19943 PWs)   bands (ev):

   -21.3210 -21.3209 -21.3209 -21.2654 -21.2654 -11.8046 -11.1498 -11.1387
   -11.1253  -6.2451  -2.5580  -2.4582  -2.4496  -1.1815  -1.1754  -0.6870
    -0.6036  -0.5206  -0.3970  -0.2815  -0.2229   1.7597   4.2256

     occupation numbers 
     1.0000   1.0000   1.0000   1.0000   1.0000   1.0000   1.0000   1.0000
     1.0000   1.0000   1.0000   1.0000   1.0000   1.0000   1.0000   1.0000
     1.0000   1.0000   1.0000   1.0000   1.0000   0.0000   0.0000

          k = 0.1111 0.2222 0.3333 ( 19946 PWs)   bands (ev):

   -21.3210 -21.3209 -21.3209 -21.2654 -21.2654 -11.7881 -11.1674 -11.1402
   -11.1266  -6.2347  -2.6006  -2.4748  -2.4552  -1.1212  -1.0975  -0.8059
    -0.6550  -0.4905  -0.3935  -0.3024  -0.2187   1.8481   4.1945

     occupation numbers 
     1.0000   1.0000   1.0000   1.0000   1.0000   1.0000   1.0000   1.0000
     1.0000   1.0000   1.0000   1.0000   1.0000   1.0000   1.0000   1.0000
     1.0000   1.0000   1.0000   1.0000   1.0000   0.0000   0.0000

          k = 0.1111 0.2222 0.4444 ( 19966 PWs)   bands (ev):

   -21.3210 -21.3210 -21.3209 -21.2654 -21.2654 -11.7767 -11.1816 -11.1387
   -11.1277  -6.2280  -2.6280  -2.4870  -2.4564  -1.0632  -1.0210  -0.9092
    -0.7016  -0.4616  -0.4041  -0.3113  -0.2258   1.9135   4.1481

     occupation numbers 
     1.0000   1.0000   1.0000   1.0000   1.0000   1.0000   1.0000   1.0000
     1.0000   1.0000   1.0000   1.0000   1.0000   1.0000   1.0000   1.0000
     1.0000   1.0000   1.0000   1.0000   1.0000   0.0000   0.0000

          k = 0.1111 0.3333 0.3333 ( 19958 PWs)   bands (ev):

   -21.3210 -21.3210 -21.3209 -21.2654 -21.2654 -11.7734 -11.1658 -11.1552
   -11.1305  -6.2306  -2.6403  -2.4797  -2.4708  -1.0898  -1.0416  -0.8947
    -0.6474  -0.4645  -0.3669  -0.3427  -0.1826   1.8708   4.2130

     occupation numbers 
     1.0000   1.0000   1.0000   1.0000   1.0000   1.0000   1.0000   1.0000
     1.0000   1.0000   1.0000   1.0000   1.0000   1.0000   1.0000   1.0000
     1.0000   1.0000   1.0000   1.0000   1.0000   0.0000   0.0000

          k = 0.1111 0.3333 0.4444 ( 19954 PWs)   bands (ev):

   -21.3210 -21.3209 -21.3209 -21.2654 -21.2654 -11.7633 -11.1741 -11.1553
   -11.1341  -6.2280  -2.6663  -2.4886  -2.4735  -1.0519  -1.0173  -0.9474
    -0.6516  -0.4356  -0.3817  -0.3452  -0.1670   1.8906   4.1869

     occupation numbers 
     1.0000   1.0000   1.0000   1.0000   1.0000   1.0000   1.0000   1.0000
     1.0000   1.0000   1.0000   1.0000   1.0000   1.0000   1.0000   1.0000
     1.0000   1.0000   1.0000   1.0000   1.0000   0.0000   0.0000

          k = 0.1111 0.4444 0.4444 ( 19940 PWs)   bands (ev):

   -21.3209 -21.3209 -21.3209 -21.2654 -21.2654 -11.7541 -11.1681 -11.1659
   -11.1400  -6.2280  -2.6917  -2.4869  -2.4854  -1.0471  -1.0319  -0.9485
    -0.6255  -0.4028  -0.3807  -0.3649  -0.1320   1.8766   4.1759

     occupation numbers 
     1.0000   1.0000   1.0000   1.0000   1.0000   1.0000   1.0000   1.0000
     1.0000   1.0000   1.0000   1.0000   1.0000   1.0000   1.0000   1.0000
     1.0000   1.0000   1.0000   1.0000   1.0000   0.0000   0.0000

          k = 0.2222 0.2222 0.2222 ( 19978 PWs)   bands (ev):

   -21.3210 -21.3210 -21.3210 -21.2654 -21.2654 -11.7920 -11.1526 -11.1381
   -11.1381  -6.2410  -2.5733  -2.4767  -2.4767  -1.1374  -1.1374  -0.7634
    -0.5703  -0.5703  -0.3491  -0.2459  -0.2459   1.7758   4.2736

     occupation numbers 
     1.0000   1.0000   1.0000   1.0000   1.0000   1.0000   1.0000   1.0000
     1.0000   1.0000   1.0000   1.0000   1.0000   1.0000   1.0000   1.0000
     1.0000   1.0000   1.0000   1.0000   1.0000   0.0000   0.0000

          k = 0.2222 0.2222 0.3333 ( 19950 PWs)   bands (ev):

   -21.3209 -21.3209 -21.3209 -21.2654 -21.2654 -11.7770 -11.1655 -11.1437
   -11.1375  -6.2363  -2.6030  -2.5064  -2.4827  -1.0843  -1.0816  -0.8605
    -0.6115  -0.5035  -0.3373  -0.2524  -0.2420   1.8081   4.2610

     occupation numbers 
     1.0000   1.0000   1.0000   1.0000   1.0000   1.0000   1.0000   1.0000
     1.0000   1.0000   1.0000   1.0000   1.0000   1.0000   1.0000   1.0000
     1.0000   1.0000   1.0000   1.0000   1.0000   0.0000   0.0000

          k = 0.2222 0.2222 0.4444 ( 19951 PWs)   bands (ev):

   -21.3210 -21.3210 -21.3209 -21.2654 -21.2654 -11.7666 -11.1775 -11.1443
   -11.1371  -6.2332  -2.6260  -2.5252  -2.4814  -1.0397  -1.0288  -0.9383
    -0.6391  -0.4488  -0.3493  -0.2613  -0.2426   1.8376   4.2238

     occupation numbers 
     1.0000   1.0000   1.0000   1.0000   1.0000   1.0000   1.0000   1.0000
     1.0000   1.0000   1.0000   1.0000   1.0000   1.0000   1.0000   1.0000
     1.0000   1.0000   1.0000   1.0000   1.0000   0.0000   0.0000

          k = 0.2222 0.3333 0.3333 ( 19963 PWs)   bands (ev):

   -21.3210 -21.3210 -21.3209 -21.2654 -21.2654 -11.7637 -11.1655 -11.1546
   -11.1417  -6.2380  -2.6235  -2.5220  -2.5118  -1.0583  -1.0399  -0.9272
    -0.5698  -0.4719  -0.3042  -0.2778  -0.2054   1.7744   4.2893

     occupation numbers 
     1.0000   1.0000   1.0000   1.0000   1.0000   1.0000   1.0000   1.0000
     1.0000   1.0000   1.0000   1.0000   1.0000   1.0000   1.0000   1.0000
     1.0000   1.0000   1.0000   1.0000   1.0000   0.0000   0.0000

          k = 0.2222 0.3333 0.4444 ( 19953 PWs)   bands (ev):

   -21.3210 -21.3209 -21.3209 -21.2654 -21.2654 -11.7546 -11.1719 -11.1565
   -11.1435  -6.2391  -2.6444  -2.5392  -2.5140  -1.0304  -1.0168  -0.9713
    -0.5599  -0.4190  -0.3152  -0.2840  -0.1855   1.7592   4.2714

     occupation numbers 
     1.0000   1.0000   1.0000   1.0000   1.0000   1.0000   1.0000   1.0000
     1.0000   1.0000   1.0000   1.0000   1.0000   1.0000   1.0000   1.0000
     1.0000   1.0000   1.0000   1.0000   1.0000   0.0000   0.0000

          k = 0.2222 0.4444 0.4444 ( 19960 PWs)   bands (ev):

   -21.3210 -21.3210 -21.3209 -21.2654 -21.2654 -11.7465 -11.1674 -11.1652
   -11.1480  -6.2429  -2.6659  -2.5370  -2.5350  -1.0221  -1.0148  -0.9850
    -0.5130  -0.3792  -0.3087  -0.3073  -0.1459   1.7122   4.2666

     occupation numbers 
     1.0000   1.0000   1.0000   1.0000   1.0000   1.0000   1.0000   1.0000
     1.0000   1.0000   1.0000   1.0000   1.0000   1.0000   1.0000   1.0000
     1.0000   1.0000   1.0000   1.0000   1.0000   0.0000   0.0000

          k = 0.3333 0.3333 0.3333 ( 19976 PWs)   bands (ev):

   -21.3210 -21.3210 -21.3210 -21.2654 -21.2654 -11.7522 -11.1660 -11.1539
   -11.1539  -6.2462  -2.6164  -2.5556  -2.5556  -1.0250  -1.0250  -0.9678
    -0.4672  -0.4672  -0.2461  -0.2315  -0.2315   1.6770   4.3475

     occupation numbers 
     1.0000   1.0000   1.0000   1.0000   1.0000   1.0000   1.0000   1.0000
     1.0000   1.0000   1.0000   1.0000   1.0000   1.0000   1.0000   1.0000
     1.0000   1.0000   1.0000   1.0000   1.0000   0.0000   0.0000

          k = 0.3333 0.3333 0.4444 ( 19960 PWs)   bands (ev):

   -21.3210 -21.3210 -21.3209 -21.2654 -21.2654 -11.7444 -11.1690 -11.1595
   -11.1534  -6.2515  -2.6288  -2.5828  -2.5595  -1.0133  -1.0043  -0.9883
    -0.4593  -0.3940  -0.2581  -0.2178  -0.2037   1.6202   4.3479

     occupation numbers 
     1.0000   1.0000   1.0000   1.0000   1.0000   1.0000   1.0000   1.0000
     1.0000   1.0000   1.0000   1.0000   1.0000   1.0000   1.0000   1.0000
     1.0000   1.0000   1.0000   1.0000   1.0000   0.0000   0.0000

          k = 0.3333 0.4444 0.4444 ( 19959 PWs)   bands (ev):

   -21.3210 -21.3210 -21.3209 -21.2654 -21.2654 -11.7375 -11.1666 -11.1645
   -11.1575  -6.2595  -2.6398  -2.5897  -2.5873  -1.0000  -0.9989  -0.9917
    -0.4072  -0.3588  -0.2302  -0.2299  -0.1640   1.5342   4.3575

     occupation numbers 
     1.0000   1.0000   1.0000   1.0000   1.0000   1.0000   1.0000   1.0000
     1.0000   1.0000   1.0000   1.0000   1.0000   1.0000   1.0000   1.0000
     1.0000   1.0000   1.0000   1.0000   1.0000   0.0000   0.0000

          k = 0.4444 0.4444 0.4444 ( 19946 PWs)   bands (ev):

   -21.3210 -21.3209 -21.3209 -21.2654 -21.2654 -11.7315 -11.1660 -11.1640
   -11.1640  -6.2702  -2.6272  -2.6193  -2.6193  -0.9889  -0.9861  -0.9861
    -0.3443  -0.3443  -0.1801  -0.1801  -0.1757   1.4213   4.4186

     occupation numbers 
     1.0000   1.0000   1.0000   1.0000   1.0000   1.0000   1.0000   1.0000
     1.0000   1.0000   1.0000   1.0000   1.0000   1.0000   1.0000   1.0000
     1.0000   1.0000   1.0000   1.0000   1.0000   0.0000   0.0000

     highest occupied, lowest unoccupied level (ev):    -0.1269    1.4102

!    total energy              =   -1957.84077946 Ry

     total all-electron energy =    -69286.458341 Ry
     estimated scf accuracy    <       0.00000036 Ry

     The total energy is the sum of the following terms:
     one-electron contribution =    -155.27117790 Ry
     hartree contribution      =      94.72502528 Ry
     xc contribution           =    -110.98848346 Ry
     ewald contribution        =    -119.43299796 Ry
     one-center paw contrib.   =   -1666.87314542 Ry
      -> PAW hartree energy AE =     109.61294011 Ry
      -> PAW hartree energy PS =    -108.86800503 Ry
      -> PAW xc energy AE      =    -329.04158627 Ry
      -> PAW xc energy PS      =      47.34434726 Ry
      -> total E_H with PAW    =      95.46996036 Ry
      -> total E_XC with PAW   =    -392.68572246 Ry

     convergence has been achieved in   6 iterations

     Forces acting on atoms (cartesian axes, Ry/au):

     atom    1 type  1   force =     0.00000000    0.00000000    0.00000000
     atom    2 type  2   force =    -0.00044499    0.00044499    0.00044499
     atom    3 type  2   force =     0.00044499   -0.00044499    0.00044499
     atom    4 type  2   force =     0.00044499    0.00044499   -0.00044499
     atom    5 type  2   force =    -0.00044499   -0.00044499   -0.00044499
     The non-local contrib.  to forces
     atom    1 type  1   force =     0.00000000    0.00000000    0.00000000
     atom    2 type  2   force =    -0.09030583    0.09030583    0.09030583
     atom    3 type  2   force =     0.09030583   -0.09030583    0.09030583
     atom    4 type  2   force =     0.09030583    0.09030583   -0.09030583
     atom    5 type  2   force =    -0.09030583   -0.09030583   -0.09030583
     The ionic contribution  to forces
     atom    1 type  1   force =    -0.00000000   -0.00000000   -0.00000000
     atom    2 type  2   force =     3.79412130   -3.79412130   -3.79412130
     atom    3 type  2   force =    -3.79412130    3.79412130   -3.79412130
     atom    4 type  2   force =    -3.79412130   -3.79412130    3.79412130
     atom    5 type  2   force =     3.79412130    3.79412130    3.79412130
     The local contribution  to forces
     atom    1 type  1   force =     0.00000000    0.00000000   -0.00000000
     atom    2 type  2   force =    -3.71533695    3.71533695    3.71533695
     atom    3 type  2   force =     3.71533695   -3.71533695    3.71533695
     atom    4 type  2   force =     3.71533695    3.71533695   -3.71533695
     atom    5 type  2   force =    -3.71533695   -3.71533695   -3.71533695
     The core correction contribution to forces
     atom    1 type  1   force =     0.00000000    0.00000000   -0.00000000
     atom    2 type  2   force =     0.01133265   -0.01133265   -0.01133265
     atom    3 type  2   force =    -0.01133265    0.01133265   -0.01133265
     atom    4 type  2   force =    -0.01133265   -0.01133265    0.01133265
     atom    5 type  2   force =     0.01133265    0.01133265    0.01133265
     The Hubbard contrib.    to forces
     atom    1 type  1   force =     0.00000000    0.00000000    0.00000000
     atom    2 type  2   force =     0.00000000    0.00000000    0.00000000
     atom    3 type  2   force =     0.00000000    0.00000000    0.00000000
     atom    4 type  2   force =     0.00000000    0.00000000    0.00000000
     atom    5 type  2   force =     0.00000000    0.00000000    0.00000000
     The SCF correction term to forces
     atom    1 type  1   force =     0.00000000   -0.00000000   -0.00000000
     atom    2 type  2   force =    -0.00025617    0.00025617    0.00025617
     atom    3 type  2   force =     0.00025617   -0.00025617    0.00025617
     atom    4 type  2   force =     0.00025617    0.00025617   -0.00025617
     atom    5 type  2   force =    -0.00025617   -0.00025617   -0.00025617

     Total force =     0.001542     Total SCF correction =     0.000887
     SCF correction compared to forces is large: reduce conv_thr to get better values


     Computing stress (Cartesian axis) and pressure

          total   stress  (Ry/bohr**3)                   (kbar)     P=        0.67
   0.00000457   0.00000000   0.00000000            0.67        0.00        0.00
   0.00000000   0.00000457   0.00000000            0.00        0.67        0.00
   0.00000000   0.00000000   0.00000457            0.00        0.00        0.67

     kinetic stress (kbar)   4002.75      0.00      0.00
                                0.00   4002.75      0.00
                                0.00      0.00   4002.75

     local   stress (kbar)  -2877.77      0.00     -0.00
                                0.00  -2877.77     -0.00
                               -0.00     -0.00  -2877.77

     nonloc. stress (kbar)    795.08      0.00      0.00
                                0.00    795.08      0.00
                                0.00      0.00    795.08

     hartree stress (kbar)   2302.46     -0.00     -0.00
                               -0.00   2302.46     -0.00
                               -0.00     -0.00   2302.46

     exc-cor stress (kbar)   4100.23      0.00      0.00
                                0.00   4100.23      0.00
                                0.00      0.00   4100.23

     corecor stress (kbar)  -5419.05     -0.00     -0.00
                               -0.00  -5419.05     -0.00
                               -0.00     -0.00  -5419.05

     ewald   stress (kbar)  -2903.03     -0.00     -0.00
                               -0.00  -2903.03     -0.00
                               -0.00     -0.00  -2903.03

     hubbard stress (kbar)      0.00      0.00      0.00
                                0.00      0.00      0.00
                                0.00      0.00      0.00

     DFT-D   stress (kbar)      0.00      0.00      0.00
                                0.00      0.00      0.00
                                0.00      0.00      0.00

     XDM     stress (kbar)      0.00      0.00      0.00
                                0.00      0.00      0.00
                                0.00      0.00      0.00

     dft-nl  stress (kbar)      0.00      0.00      0.00
                                0.00      0.00      0.00
                                0.00      0.00      0.00

     TS-vdW  stress (kbar)      0.00      0.00      0.00
                                0.00      0.00      0.00
                                0.00      0.00      0.00



     Writing output data file ./out/SnI4un.save/

     init_run     :      3.77s CPU      3.87s WALL (       1 calls)
     electrons    :     64.94s CPU     66.30s WALL (       1 calls)
     forces       :      1.66s CPU      1.78s WALL (       1 calls)
     stress       :      3.28s CPU      3.40s WALL (       1 calls)

     Called by init_run:
     wfcinit      :      2.86s CPU      2.88s WALL (       1 calls)
     wfcinit:atom :      0.03s CPU      0.04s WALL (      35 calls)
     wfcinit:wfcr :      2.64s CPU      2.66s WALL (      35 calls)
     potinit      :      0.27s CPU      0.31s WALL (       1 calls)
     hinit0       :      0.29s CPU      0.30s WALL (       1 calls)

     Called by electrons:
     c_bands      :     54.61s CPU     55.55s WALL (       7 calls)
     sum_band     :      8.47s CPU      8.60s WALL (       7 calls)
     v_of_rho     :      0.26s CPU      0.27s WALL (       7 calls)
     v_h          :      0.02s CPU      0.02s WALL (       7 calls)
     v_xc         :      0.32s CPU      0.33s WALL (       9 calls)
     newd         :      0.82s CPU      0.85s WALL (       7 calls)
     PAW_pot      :      1.01s CPU      1.04s WALL (       7 calls)
     mix_rho      :      0.03s CPU      0.08s WALL (       7 calls)

     Called by c_bands:
     init_us_2    :      0.83s CPU      0.88s WALL (     595 calls)
     cegterg      :     52.42s CPU     52.84s WALL (     245 calls)

     Called by sum_band:
     sum_band:wei :      0.00s CPU      0.00s WALL (       7 calls)
     sum_band:loo :      7.66s CPU      7.72s WALL (       7 calls)
     sum_band:buf :      0.07s CPU      0.07s WALL (     245 calls)
     sum_band:ini :      0.33s CPU      0.33s WALL (     245 calls)
     sum_band:cal :      1.91s CPU      1.91s WALL (     245 calls)
     sum_band:bec :      0.03s CPU      0.03s WALL (     245 calls)
     addusdens    :      0.76s CPU      0.78s WALL (       7 calls)
     addusd:skk   :      0.00s CPU      0.00s WALL (      14 calls)
     addusd:dgemm :      0.30s CPU      0.31s WALL (      14 calls)
     addusd:qvan2 :      0.37s CPU      0.37s WALL (      14 calls)

     Called by *egterg:
     cdiaghg      :      1.18s CPU      1.19s WALL (    1046 calls)
     cegterg:over :      3.02s CPU      3.04s WALL (     836 calls)
     cegterg:upda :      1.54s CPU      1.54s WALL (     836 calls)
     cegterg:last :      3.77s CPU      3.78s WALL (     538 calls)
     h_psi        :     39.01s CPU     39.39s WALL (    1116 calls)
     s_psi        :      4.72s CPU      4.74s WALL (    1116 calls)
     g_psi        :      0.13s CPU      0.13s WALL (     836 calls)

     Called by h_psi:
     h_psi:calbec :      5.80s CPU      5.82s WALL (    1116 calls)
     vloc_psi     :     28.31s CPU     28.65s WALL (    1116 calls)
     add_vuspsi   :      4.77s CPU      4.78s WALL (    1116 calls)

     General routines
     calbec       :      8.99s CPU      9.02s WALL (    1536 calls)
     fft          :      0.23s CPU      0.24s WALL (     103 calls)
     ffts         :      0.01s CPU      0.01s WALL (       7 calls)
     fftw         :     31.31s CPU     31.67s WALL (   37899 calls)

     Parallel routines
     fft_scatt_xy :      2.30s CPU      2.33s WALL (   38009 calls)
     fft_scatt_yz :      5.13s CPU      5.19s WALL (   38009 calls)

     PAW routines
     PAW_pot      :      1.01s CPU      1.04s WALL (       7 calls)
     PAW_symme    :      0.01s CPU      0.01s WALL (      14 calls)

     PWSCF        :   1m14.77s CPU   1m18.59s WALL


   This run was terminated on:  14: 8:50  15Jan2021            

=------------------------------------------------------------------------------=
   JOB DONE.
=------------------------------------------------------------------------------=
