
     Program PWSCF v.6.7MaX starts on 14Jan2021 at 15:33:27 

     This program is part of the open-source Quantum ESPRESSO suite
     for quantum simulation of materials; please cite
         "P. Giannozzi et al., J. Phys.:Condens. Matter 21 395502 (2009);
         "P. Giannozzi et al., J. Phys.:Condens. Matter 29 465901 (2017);
          URL http://www.quantum-espresso.org", 
     in publications or presentations arising from this work. More details at
     http://www.quantum-espresso.org/quote

     Parallel version (MPI), running on    19 processors

     MPI processes distributed on     1 nodes
     R & G space division:  proc/nbgrp/npool/nimage =      19
     Waiting for input...
     Reading input from standard input

     Current dimensions of program PWSCF are:
     Max number of different atomic species (ntypx) = 10
     Max number of k-points (npk) =  40000
     Max angular momentum in pseudopotentials (lmaxx) =  3
     file Sn.pbe-dn-kjpaw_psl.1.0.0.UPF: wavefunction(s)  5S 5P 4D renormalized
     file I.pbe-n-kjpaw_psl.1.0.0.UPF: wavefunction(s)  5S renormalized

     Subspace diagonalization in iterative solution of the eigenvalue problem:
     a serial algorithm will be used

     Message from routine setup:
     using ibrav=0 with symmetry is DISCOURAGED, use correct ibrav instead

     Parallelization info
     --------------------
     sticks:   dense  smooth     PW     G-vecs:    dense   smooth      PW
     Min         220     220     59                10744    10744    1519
     Max         221     221     60                10749    10749    1522
     Sum        4197    4197   1137               204205   204205   28887


     Title: 
     SnI4un                                                                     


     bravais-lattice index     =            0
     lattice parameter (alat)  =      13.7130  a.u.
     unit-cell volume          =    2578.6558 (a.u.)^3
     number of atoms/cell      =            5
     number of atomic types    =            2
     number of electrons       =        42.00
     number of Kohn-Sham states=           21
     kinetic-energy cutoff     =      70.0000  Ry
     charge density cutoff     =     280.0000  Ry
     scf convergence threshold =      1.0E-06
     mixing beta               =       0.7000
     number of iterations used =            8  plain     mixing
     Exchange-correlation= SLA  PW   PBX  PBC
                           (   1   4   3   4   0   0   0)

     celldm(1)=  13.712957  celldm(2)=   0.000000  celldm(3)=   0.000000
     celldm(4)=   0.000000  celldm(5)=   0.000000  celldm(6)=   0.000000

     crystal axes: (cart. coord. in units of alat)
               a(1) = (   1.000000   0.000000   0.000000 )  
               a(2) = (   0.000000   1.000000   0.000000 )  
               a(3) = (   0.000000   0.000000   1.000000 )  

     reciprocal axes: (cart. coord. in units 2 pi/alat)
               b(1) = (  1.000000  0.000000  0.000000 )  
               b(2) = (  0.000000  1.000000  0.000000 )  
               b(3) = (  0.000000  0.000000  1.000000 )  


     PseudoPot. # 1 for Sn read from file:
     ../../../pseudo/Sn.pbe-dn-kjpaw_psl.1.0.0.UPF
     MD5 check sum: 67f11dec737d427557dc41ea34975807
     Pseudo is Projector augmented-wave + core cor, Zval = 14.0
     Generated using &quot;atomic&quot; code by A. Dal Corso  v.6.3
     Shape of augmentation charge: PSQ
     Using radial grid of 1243 points,  6 beta functions with: 
                l(1) =   0
                l(2) =   0
                l(3) =   1
                l(4) =   1
                l(5) =   2
                l(6) =   2
     Q(r) pseudized with 0 coefficients 


     PseudoPot. # 2 for I  read from file:
     ../../../pseudo/I.pbe-n-kjpaw_psl.1.0.0.UPF
     MD5 check sum: cd3d296c3308a581e1559a0c8a554cb5
     Pseudo is Projector augmented-wave + core cor, Zval =  7.0
     Generated using &quot;atomic&quot; code by A. Dal Corso  v.6.3
     Shape of augmentation charge: PSQ
     Using radial grid of 1247 points,  6 beta functions with: 
                l(1) =   0
                l(2) =   0
                l(3) =   1
                l(4) =   1
                l(5) =   2
                l(6) =   2
     Q(r) pseudized with 0 coefficients 


     atomic species   valence    mass     pseudopotential
        Sn            14.00   118.70000     Sn( 1.00)
        I              7.00   126.90000     I ( 1.00)

     24 Sym. Ops. (no inversion) found


                                    s                        frac. trans.

      isym =  1     identity                                     

 cryst.   s( 1) = (     1          0          0      )
                  (     0          1          0      )
                  (     0          0          1      )

 cart.    s( 1) = (  1.0000000  0.0000000  0.0000000 )
                  (  0.0000000  1.0000000  0.0000000 )
                  (  0.0000000  0.0000000  1.0000000 )


      isym =  2     180 deg rotation - cart. axis [0,0,1]        

 cryst.   s( 2) = (    -1          0          0      )
                  (     0         -1          0      )
                  (     0          0          1      )

 cart.    s( 2) = ( -1.0000000  0.0000000  0.0000000 )
                  (  0.0000000 -1.0000000  0.0000000 )
                  (  0.0000000  0.0000000  1.0000000 )


      isym =  3     180 deg rotation - cart. axis [0,1,0]        

 cryst.   s( 3) = (    -1          0          0      )
                  (     0          1          0      )
                  (     0          0         -1      )

 cart.    s( 3) = ( -1.0000000  0.0000000  0.0000000 )
                  (  0.0000000  1.0000000  0.0000000 )
                  (  0.0000000  0.0000000 -1.0000000 )


      isym =  4     180 deg rotation - cart. axis [1,0,0]        

 cryst.   s( 4) = (     1          0          0      )
                  (     0         -1          0      )
                  (     0          0         -1      )

 cart.    s( 4) = (  1.0000000  0.0000000  0.0000000 )
                  (  0.0000000 -1.0000000  0.0000000 )
                  (  0.0000000  0.0000000 -1.0000000 )


      isym =  5     120 deg rotation - cart. axis [-1,-1,-1]     

 cryst.   s( 5) = (     0          0          1      )
                  (     1          0          0      )
                  (     0          1          0      )

 cart.    s( 5) = (  0.0000000  1.0000000  0.0000000 )
                  (  0.0000000  0.0000000  1.0000000 )
                  (  1.0000000  0.0000000  0.0000000 )


      isym =  6     120 deg rotation - cart. axis [-1,1,1]       

 cryst.   s( 6) = (     0          0         -1      )
                  (    -1          0          0      )
                  (     0          1          0      )

 cart.    s( 6) = (  0.0000000 -1.0000000  0.0000000 )
                  (  0.0000000  0.0000000  1.0000000 )
                  ( -1.0000000  0.0000000  0.0000000 )


      isym =  7     120 deg rotation - cart. axis [1,1,-1]       

 cryst.   s( 7) = (     0          0         -1      )
                  (     1          0          0      )
                  (     0         -1          0      )

 cart.    s( 7) = (  0.0000000  1.0000000  0.0000000 )
                  (  0.0000000  0.0000000 -1.0000000 )
                  ( -1.0000000  0.0000000  0.0000000 )


      isym =  8     120 deg rotation - cart. axis [1,-1,1]       

 cryst.   s( 8) = (     0          0          1      )
                  (    -1          0          0      )
                  (     0         -1          0      )

 cart.    s( 8) = (  0.0000000 -1.0000000  0.0000000 )
                  (  0.0000000  0.0000000 -1.0000000 )
                  (  1.0000000  0.0000000  0.0000000 )


      isym =  9     120 deg rotation - cart. axis [1,1,1]        

 cryst.   s( 9) = (     0          1          0      )
                  (     0          0          1      )
                  (     1          0          0      )

 cart.    s( 9) = (  0.0000000  0.0000000  1.0000000 )
                  (  1.0000000  0.0000000  0.0000000 )
                  (  0.0000000  1.0000000  0.0000000 )


      isym = 10     120 deg rotation - cart. axis [-1,1,-1]      

 cryst.   s(10) = (     0         -1          0      )
                  (     0          0         -1      )
                  (     1          0          0      )

 cart.    s(10) = (  0.0000000  0.0000000  1.0000000 )
                  ( -1.0000000  0.0000000  0.0000000 )
                  (  0.0000000 -1.0000000  0.0000000 )


      isym = 11     120 deg rotation - cart. axis [1,-1,-1]      

 cryst.   s(11) = (     0         -1          0      )
                  (     0          0          1      )
                  (    -1          0          0      )

 cart.    s(11) = (  0.0000000  0.0000000 -1.0000000 )
                  ( -1.0000000  0.0000000  0.0000000 )
                  (  0.0000000  1.0000000  0.0000000 )


      isym = 12     120 deg rotation - cart. axis [-1,-1,1]      

 cryst.   s(12) = (     0          1          0      )
                  (     0          0         -1      )
                  (    -1          0          0      )

 cart.    s(12) = (  0.0000000  0.0000000 -1.0000000 )
                  (  1.0000000  0.0000000  0.0000000 )
                  (  0.0000000 -1.0000000  0.0000000 )


      isym = 13     inv. 180 deg rotation - cart. axis [1,1,0]   

 cryst.   s(13) = (     0         -1          0      )
                  (    -1          0          0      )
                  (     0          0          1      )

 cart.    s(13) = (  0.0000000 -1.0000000  0.0000000 )
                  ( -1.0000000  0.0000000  0.0000000 )
                  (  0.0000000  0.0000000  1.0000000 )


      isym = 14     inv. 180 deg rotation - cart. axis [1,-1,0]  

 cryst.   s(14) = (     0          1          0      )
                  (     1          0          0      )
                  (     0          0          1      )

 cart.    s(14) = (  0.0000000  1.0000000  0.0000000 )
                  (  1.0000000  0.0000000  0.0000000 )
                  (  0.0000000  0.0000000  1.0000000 )


      isym = 15     inv.  90 deg rotation - cart. axis [0,0,-1]  

 cryst.   s(15) = (     0          1          0      )
                  (    -1          0          0      )
                  (     0          0         -1      )

 cart.    s(15) = (  0.0000000 -1.0000000  0.0000000 )
                  (  1.0000000  0.0000000  0.0000000 )
                  (  0.0000000  0.0000000 -1.0000000 )


      isym = 16     inv.  90 deg rotation - cart. axis [0,0,1]   

 cryst.   s(16) = (     0         -1          0      )
                  (     1          0          0      )
                  (     0          0         -1      )

 cart.    s(16) = (  0.0000000  1.0000000  0.0000000 )
                  ( -1.0000000  0.0000000  0.0000000 )
                  (  0.0000000  0.0000000 -1.0000000 )


      isym = 17     inv. 180 deg rotation - cart. axis [1,0,1]   

 cryst.   s(17) = (     0          0         -1      )
                  (     0          1          0      )
                  (    -1          0          0      )

 cart.    s(17) = (  0.0000000  0.0000000 -1.0000000 )
                  (  0.0000000  1.0000000  0.0000000 )
                  ( -1.0000000  0.0000000  0.0000000 )


      isym = 18     inv. 180 deg rotation - cart. axis [-1,0,1]  

 cryst.   s(18) = (     0          0          1      )
                  (     0          1          0      )
                  (     1          0          0      )

 cart.    s(18) = (  0.0000000  0.0000000  1.0000000 )
                  (  0.0000000  1.0000000  0.0000000 )
                  (  1.0000000  0.0000000  0.0000000 )


      isym = 19     inv.  90 deg rotation - cart. axis [0,1,0]   

 cryst.   s(19) = (     0          0          1      )
                  (     0         -1          0      )
                  (    -1          0          0      )

 cart.    s(19) = (  0.0000000  0.0000000 -1.0000000 )
                  (  0.0000000 -1.0000000  0.0000000 )
                  (  1.0000000  0.0000000  0.0000000 )


      isym = 20     inv.  90 deg rotation - cart. axis [0,-1,0]  

 cryst.   s(20) = (     0          0         -1      )
                  (     0         -1          0      )
                  (     1          0          0      )

 cart.    s(20) = (  0.0000000  0.0000000  1.0000000 )
                  (  0.0000000 -1.0000000  0.0000000 )
                  ( -1.0000000  0.0000000  0.0000000 )


      isym = 21     inv. 180 deg rotation - cart. axis [0,1,1]   

 cryst.   s(21) = (     1          0          0      )
                  (     0          0         -1      )
                  (     0         -1          0      )

 cart.    s(21) = (  1.0000000  0.0000000  0.0000000 )
                  (  0.0000000  0.0000000 -1.0000000 )
                  (  0.0000000 -1.0000000  0.0000000 )


      isym = 22     inv. 180 deg rotation - cart. axis [0,1,-1]  

 cryst.   s(22) = (     1          0          0      )
                  (     0          0          1      )
                  (     0          1          0      )

 cart.    s(22) = (  1.0000000  0.0000000  0.0000000 )
                  (  0.0000000  0.0000000  1.0000000 )
                  (  0.0000000  1.0000000  0.0000000 )


      isym = 23     inv.  90 deg rotation - cart. axis [-1,0,0]  

 cryst.   s(23) = (    -1          0          0      )
                  (     0          0          1      )
                  (     0         -1          0      )

 cart.    s(23) = ( -1.0000000  0.0000000  0.0000000 )
                  (  0.0000000  0.0000000 -1.0000000 )
                  (  0.0000000  1.0000000  0.0000000 )


      isym = 24     inv.  90 deg rotation - cart. axis [1,0,0]   

 cryst.   s(24) = (    -1          0          0      )
                  (     0          0         -1      )
                  (     0          1          0      )

 cart.    s(24) = ( -1.0000000  0.0000000  0.0000000 )
                  (  0.0000000  0.0000000  1.0000000 )
                  (  0.0000000 -1.0000000  0.0000000 )


   Cartesian axes

     site n.     atom                  positions (alat units)
         1           Sn  tau(   1) = (   0.0000000   0.0000000   0.0000000  )
         2           I   tau(   2) = (   0.2339030   0.7660970   0.7660970  )
         3           I   tau(   3) = (   0.7660970   0.2339030   0.7660970  )
         4           I   tau(   4) = (   0.7660970   0.7660970   0.2339030  )
         5           I   tau(   5) = (   0.2339030   0.2339030   0.2339030  )

   Crystallographic axes

     site n.     atom                  positions (cryst. coord.)
         1           Sn  tau(   1) = (  0.0000000  0.0000000  0.0000000  )
         2           I   tau(   2) = (  0.2339030  0.7660970  0.7660970  )
         3           I   tau(   3) = (  0.7660970  0.2339030  0.7660970  )
         4           I   tau(   4) = (  0.7660970  0.7660970  0.2339030  )
         5           I   tau(   5) = (  0.2339030  0.2339030  0.2339030  )

     number of k points=    35
                       cart. coord. in units 2pi/alat
        k(    1) = (   0.0000000   0.0000000   0.0000000), wk =   0.0027435
        k(    2) = (   0.0000000   0.0000000   0.1111111), wk =   0.0164609
        k(    3) = (   0.0000000   0.0000000   0.2222222), wk =   0.0164609
        k(    4) = (   0.0000000   0.0000000   0.3333333), wk =   0.0164609
        k(    5) = (   0.0000000   0.0000000   0.4444444), wk =   0.0164609
        k(    6) = (   0.0000000   0.1111111   0.1111111), wk =   0.0329218
        k(    7) = (   0.0000000   0.1111111   0.2222222), wk =   0.0658436
        k(    8) = (   0.0000000   0.1111111   0.3333333), wk =   0.0658436
        k(    9) = (   0.0000000   0.1111111   0.4444444), wk =   0.0658436
        k(   10) = (   0.0000000   0.2222222   0.2222222), wk =   0.0329218
        k(   11) = (   0.0000000   0.2222222   0.3333333), wk =   0.0658436
        k(   12) = (   0.0000000   0.2222222   0.4444444), wk =   0.0658436
        k(   13) = (   0.0000000   0.3333333   0.3333333), wk =   0.0329218
        k(   14) = (   0.0000000   0.3333333   0.4444444), wk =   0.0658436
        k(   15) = (   0.0000000   0.4444444   0.4444444), wk =   0.0329218
        k(   16) = (   0.1111111   0.1111111   0.1111111), wk =   0.0219479
        k(   17) = (   0.1111111   0.1111111   0.2222222), wk =   0.0658436
        k(   18) = (   0.1111111   0.1111111   0.3333333), wk =   0.0658436
        k(   19) = (   0.1111111   0.1111111   0.4444444), wk =   0.0658436
        k(   20) = (   0.1111111   0.2222222   0.2222222), wk =   0.0658436
        k(   21) = (   0.1111111   0.2222222   0.3333333), wk =   0.1316872
        k(   22) = (   0.1111111   0.2222222   0.4444444), wk =   0.1316872
        k(   23) = (   0.1111111   0.3333333   0.3333333), wk =   0.0658436
        k(   24) = (   0.1111111   0.3333333   0.4444444), wk =   0.1316872
        k(   25) = (   0.1111111   0.4444444   0.4444444), wk =   0.0658436
        k(   26) = (   0.2222222   0.2222222   0.2222222), wk =   0.0219479
        k(   27) = (   0.2222222   0.2222222   0.3333333), wk =   0.0658436
        k(   28) = (   0.2222222   0.2222222   0.4444444), wk =   0.0658436
        k(   29) = (   0.2222222   0.3333333   0.3333333), wk =   0.0658436
        k(   30) = (   0.2222222   0.3333333   0.4444444), wk =   0.1316872
        k(   31) = (   0.2222222   0.4444444   0.4444444), wk =   0.0658436
        k(   32) = (   0.3333333   0.3333333   0.3333333), wk =   0.0219479
        k(   33) = (   0.3333333   0.3333333   0.4444444), wk =   0.0658436
        k(   34) = (   0.3333333   0.4444444   0.4444444), wk =   0.0658436
        k(   35) = (   0.4444444   0.4444444   0.4444444), wk =   0.0219479

                       cryst. coord.
        k(    1) = (   0.0000000   0.0000000   0.0000000), wk =   0.0027435
        k(    2) = (   0.0000000   0.0000000   0.1111111), wk =   0.0164609
        k(    3) = (   0.0000000   0.0000000   0.2222222), wk =   0.0164609
        k(    4) = (   0.0000000   0.0000000   0.3333333), wk =   0.0164609
        k(    5) = (   0.0000000   0.0000000   0.4444444), wk =   0.0164609
        k(    6) = (   0.0000000   0.1111111   0.1111111), wk =   0.0329218
        k(    7) = (   0.0000000   0.1111111   0.2222222), wk =   0.0658436
        k(    8) = (   0.0000000   0.1111111   0.3333333), wk =   0.0658436
        k(    9) = (   0.0000000   0.1111111   0.4444444), wk =   0.0658436
        k(   10) = (   0.0000000   0.2222222   0.2222222), wk =   0.0329218
        k(   11) = (   0.0000000   0.2222222   0.3333333), wk =   0.0658436
        k(   12) = (   0.0000000   0.2222222   0.4444444), wk =   0.0658436
        k(   13) = (   0.0000000   0.3333333   0.3333333), wk =   0.0329218
        k(   14) = (   0.0000000   0.3333333   0.4444444), wk =   0.0658436
        k(   15) = (   0.0000000   0.4444444   0.4444444), wk =   0.0329218
        k(   16) = (   0.1111111   0.1111111   0.1111111), wk =   0.0219479
        k(   17) = (   0.1111111   0.1111111   0.2222222), wk =   0.0658436
        k(   18) = (   0.1111111   0.1111111   0.3333333), wk =   0.0658436
        k(   19) = (   0.1111111   0.1111111   0.4444444), wk =   0.0658436
        k(   20) = (   0.1111111   0.2222222   0.2222222), wk =   0.0658436
        k(   21) = (   0.1111111   0.2222222   0.3333333), wk =   0.1316872
        k(   22) = (   0.1111111   0.2222222   0.4444444), wk =   0.1316872
        k(   23) = (   0.1111111   0.3333333   0.3333333), wk =   0.0658436
        k(   24) = (   0.1111111   0.3333333   0.4444444), wk =   0.1316872
        k(   25) = (   0.1111111   0.4444444   0.4444444), wk =   0.0658436
        k(   26) = (   0.2222222   0.2222222   0.2222222), wk =   0.0219479
        k(   27) = (   0.2222222   0.2222222   0.3333333), wk =   0.0658436
        k(   28) = (   0.2222222   0.2222222   0.4444444), wk =   0.0658436
        k(   29) = (   0.2222222   0.3333333   0.3333333), wk =   0.0658436
        k(   30) = (   0.2222222   0.3333333   0.4444444), wk =   0.1316872
        k(   31) = (   0.2222222   0.4444444   0.4444444), wk =   0.0658436
        k(   32) = (   0.3333333   0.3333333   0.3333333), wk =   0.0219479
        k(   33) = (   0.3333333   0.3333333   0.4444444), wk =   0.0658436
        k(   34) = (   0.3333333   0.4444444   0.4444444), wk =   0.0658436
        k(   35) = (   0.4444444   0.4444444   0.4444444), wk =   0.0219479

     Dense  grid:   204205 G-vectors     FFT dimensions: (  75,  75,  75)

     Dynamical RAM for                 wfc:       0.43 MB

     Dynamical RAM for     wfc (w. buffer):      15.48 MB

     Dynamical RAM for           str. fact:       0.33 MB

     Dynamical RAM for           local pot:       0.00 MB

     Dynamical RAM for          nlocal pot:       1.84 MB

     Dynamical RAM for                qrad:       2.69 MB

     Dynamical RAM for          rho,v,vnew:       1.01 MB

     Dynamical RAM for               rhoin:       0.34 MB

     Dynamical RAM for            rho*nmix:       2.62 MB

     Dynamical RAM for           G-vectors:       0.70 MB

     Dynamical RAM for          h,s,v(r/c):       0.08 MB

     Dynamical RAM for          <psi|beta>:       0.03 MB

     Dynamical RAM for                 psi:       0.86 MB

     Dynamical RAM for                hpsi:       0.86 MB

     Dynamical RAM for                spsi:       0.86 MB

     Dynamical RAM for      wfcinit/wfcrot:       1.04 MB

     Dynamical RAM for           addusdens:      31.16 MB

     Dynamical RAM for          addusforce:      32.24 MB

     Dynamical RAM for         addusstress:      32.97 MB

     Estimated static dynamical RAM per process >      26.35 MB

     Estimated max dynamical RAM per process >      59.32 MB

     Estimated total dynamical RAM >       1.10 GB

     Initial potential from superposition of free atoms

     starting charge   41.99831, renormalised to   42.00000
     Starting wfcs are   25 randomized atomic wfcs
     Checking if some PAW data can be deallocated... 
       PAW data deallocated on   15 nodes for type:  1
       PAW data deallocated on    4 nodes for type:  2

     total cpu time spent up to now is        7.6 secs

     Self-consistent Calculation

     iteration #  1     ecut=    70.00 Ry     beta= 0.70
     Davidson diagonalization with overlap
     ethr =  1.00E-02,  avg # of iterations =  1.0

     Threshold (ethr) on eigenvalues was too large:
     Diagonalizing with lowered threshold

     Davidson diagonalization with overlap
     ethr =  5.04E-04,  avg # of iterations =  2.0

     total cpu time spent up to now is       33.0 secs

     total energy              =   -1957.70909211 Ry
     estimated scf accuracy    <       0.18689286 Ry

     iteration #  2     ecut=    70.00 Ry     beta= 0.70
     Davidson diagonalization with overlap
     ethr =  4.45E-04,  avg # of iterations =  3.7

     total cpu time spent up to now is       50.6 secs

     total energy              =   -1957.74125396 Ry
     estimated scf accuracy    <       0.25268862 Ry

     iteration #  3     ecut=    70.00 Ry     beta= 0.70
     Davidson diagonalization with overlap
     ethr =  4.45E-04,  avg # of iterations =  3.9

     total cpu time spent up to now is       67.0 secs

     total energy              =   -1957.78882092 Ry
     estimated scf accuracy    <       0.00180591 Ry

     iteration #  4     ecut=    70.00 Ry     beta= 0.70
     Davidson diagonalization with overlap
     ethr =  4.30E-06,  avg # of iterations =  5.5

     total cpu time spent up to now is       85.8 secs

     total energy              =   -1957.78978565 Ry
     estimated scf accuracy    <       0.00080386 Ry

     iteration #  5     ecut=    70.00 Ry     beta= 0.70
     Davidson diagonalization with overlap
     ethr =  1.91E-06,  avg # of iterations =  2.3

     total cpu time spent up to now is       99.4 secs

     total energy              =   -1957.78983548 Ry
     estimated scf accuracy    <       0.00009239 Ry

     iteration #  6     ecut=    70.00 Ry     beta= 0.70
     Davidson diagonalization with overlap
     ethr =  2.20E-07,  avg # of iterations =  5.0

     total cpu time spent up to now is      117.2 secs

     total energy              =   -1957.78988446 Ry
     estimated scf accuracy    <       0.00002821 Ry

     iteration #  7     ecut=    70.00 Ry     beta= 0.70
     Davidson diagonalization with overlap
     ethr =  6.72E-08,  avg # of iterations =  1.8

     total cpu time spent up to now is      129.2 secs

     total energy              =   -1957.78988041 Ry
     estimated scf accuracy    <       0.00000923 Ry

     iteration #  8     ecut=    70.00 Ry     beta= 0.70
     Davidson diagonalization with overlap
     ethr =  2.20E-08,  avg # of iterations =  5.0

     total cpu time spent up to now is      147.1 secs

     total energy              =   -1957.78988509 Ry
     estimated scf accuracy    <       0.00000506 Ry

     iteration #  9     ecut=    70.00 Ry     beta= 0.70
     Davidson diagonalization with overlap
     ethr =  1.20E-08,  avg # of iterations =  2.0

     total cpu time spent up to now is      160.6 secs

     total energy              =   -1957.78988474 Ry
     estimated scf accuracy    <       0.00000171 Ry

     iteration # 10     ecut=    70.00 Ry     beta= 0.70
     Davidson diagonalization with overlap
     ethr =  4.07E-09,  avg # of iterations =  4.1

     total cpu time spent up to now is      175.6 secs

     End of self-consistent calculation

          k = 0.0000 0.0000 0.0000 ( 25533 PWs)   bands (ev):

   -22.8869 -22.8869 -22.8869 -22.8681 -22.8681 -12.7139 -12.3720 -12.3720
   -12.3720  -7.5666  -3.4774  -3.4774  -3.4774  -2.3456  -2.3456  -1.8103
    -1.8103  -1.8103  -1.7262  -1.7262  -1.7262

     occupation numbers 
     1.0000   1.0000   1.0000   1.0000   1.0000   1.0000   1.0000   1.0000
     1.0000   1.0000   1.0000   1.0000   1.0000   1.0000   1.0000   1.0000
     1.0000   1.0000   1.0000   1.0000   1.0000

          k = 0.0000 0.0000 0.1111 ( 25509 PWs)   bands (ev):

   -22.8869 -22.8869 -22.8869 -22.8682 -22.8682 -12.7110 -12.3754 -12.3720
   -12.3720  -7.5648  -3.4878  -3.4788  -3.4788  -2.3338  -2.3308  -1.8259
    -1.8174  -1.8174  -1.7553  -1.7221  -1.7221

     occupation numbers 
     1.0000   1.0000   1.0000   1.0000   1.0000   1.0000   1.0000   1.0000
     1.0000   1.0000   1.0000   1.0000   1.0000   1.0000   1.0000   1.0000
     1.0000   1.0000   1.0000   1.0000   1.0000

          k = 0.0000 0.0000 0.2222 ( 25497 PWs)   bands (ev):

   -22.8869 -22.8869 -22.8869 -22.8682 -22.8681 -12.7035 -12.3842 -12.3719
   -12.3719  -7.5603  -3.5135  -3.4823  -3.4823  -2.3005  -2.2885  -1.8687
    -1.8317  -1.8317  -1.8307  -1.7152  -1.7152

     occupation numbers 
     1.0000   1.0000   1.0000   1.0000   1.0000   1.0000   1.0000   1.0000
     1.0000   1.0000   1.0000   1.0000   1.0000   1.0000   1.0000   1.0000
     1.0000   1.0000   1.0000   1.0000   1.0000

          k = 0.0000 0.0000 0.3333 ( 25480 PWs)   bands (ev):

   -22.8869 -22.8869 -22.8868 -22.8681 -22.8681 -12.6944 -12.3948 -12.3717
   -12.3717  -7.5552  -3.5418  -3.4864  -3.4864  -2.2525  -2.2230  -1.9292
    -1.9274  -1.8442  -1.8442  -1.7111  -1.7111

     occupation numbers 
     1.0000   1.0000   1.0000   1.0000   1.0000   1.0000   1.0000   1.0000
     1.0000   1.0000   1.0000   1.0000   1.0000   1.0000   1.0000   1.0000
     1.0000   1.0000   1.0000   1.0000   1.0000

          k = 0.0000 0.0000 0.4444 ( 25504 PWs)   bands (ev):

   -22.8869 -22.8869 -22.8869 -22.8682 -22.8681 -12.6881 -12.4020 -12.3716
   -12.3716  -7.5519  -3.5598  -3.4891  -3.4891  -2.2090  -2.1416  -2.0304
    -1.9779  -1.8509  -1.8509  -1.7098  -1.7098

     occupation numbers 
     1.0000   1.0000   1.0000   1.0000   1.0000   1.0000   1.0000   1.0000
     1.0000   1.0000   1.0000   1.0000   1.0000   1.0000   1.0000   1.0000
     1.0000   1.0000   1.0000   1.0000   1.0000

          k = 0.0000 0.1111 0.1111 ( 25508 PWs)   bands (ev):

   -22.8869 -22.8869 -22.8869 -22.8682 -22.8681 -12.7082 -12.3761 -12.3744
   -12.3720  -7.5633  -3.4989  -3.4802  -3.4788  -2.3205  -2.3191  -1.8512
    -1.8211  -1.8082  -1.7905  -1.7235  -1.7094

     occupation numbers 
     1.0000   1.0000   1.0000   1.0000   1.0000   1.0000   1.0000   1.0000
     1.0000   1.0000   1.0000   1.0000   1.0000   1.0000   1.0000   1.0000
     1.0000   1.0000   1.0000   1.0000   1.0000

          k = 0.0000 0.1111 0.2222 ( 25514 PWs)   bands (ev):

   -22.8869 -22.8869 -22.8869 -22.8682 -22.8681 -12.7009 -12.3841 -12.3747
   -12.3721  -7.5593  -3.5240  -3.4836  -3.4817  -2.2880  -2.2803  -1.8947
    -1.8599  -1.8288  -1.8147  -1.7230  -1.6998

     occupation numbers 
     1.0000   1.0000   1.0000   1.0000   1.0000   1.0000   1.0000   1.0000
     1.0000   1.0000   1.0000   1.0000   1.0000   1.0000   1.0000   1.0000
     1.0000   1.0000   1.0000   1.0000   1.0000

          k = 0.0000 0.1111 0.3333 ( 25493 PWs)   bands (ev):

   -22.8869 -22.8869 -22.8868 -22.8681 -22.8681 -12.6921 -12.3942 -12.3743
   -12.3722  -7.5549  -3.5509  -3.4874  -3.4858  -2.2423  -2.2201  -1.9626
    -1.9308  -1.8360  -1.8297  -1.7200  -1.6971

     occupation numbers 
     1.0000   1.0000   1.0000   1.0000   1.0000   1.0000   1.0000   1.0000
     1.0000   1.0000   1.0000   1.0000   1.0000   1.0000   1.0000   1.0000
     1.0000   1.0000   1.0000   1.0000   1.0000

          k = 0.0000 0.1111 0.4444 ( 25473 PWs)   bands (ev):

   -22.8869 -22.8869 -22.8868 -22.8681 -22.8681 -12.6860 -12.4012 -12.3740
   -12.3723  -7.5520  -3.5679  -3.4896  -3.4889  -2.2008  -2.1472  -2.0476
    -1.9797  -1.8402  -1.8388  -1.7180  -1.6974

     occupation numbers 
     1.0000   1.0000   1.0000   1.0000   1.0000   1.0000   1.0000   1.0000
     1.0000   1.0000   1.0000   1.0000   1.0000   1.0000   1.0000   1.0000
     1.0000   1.0000   1.0000   1.0000   1.0000

          k = 0.0000 0.2222 0.2222 ( 25484 PWs)   bands (ev):

   -22.8869 -22.8869 -22.8868 -22.8681 -22.8681 -12.6941 -12.3850 -12.3805
   -12.3727  -7.5568  -3.5475  -3.4866  -3.4828  -2.2602  -2.2498  -1.9538
    -1.8997  -1.8251  -1.8010  -1.7387  -1.6789

     occupation numbers 
     1.0000   1.0000   1.0000   1.0000   1.0000   1.0000   1.0000   1.0000
     1.0000   1.0000   1.0000   1.0000   1.0000   1.0000   1.0000   1.0000
     1.0000   1.0000   1.0000   1.0000   1.0000

          k = 0.0000 0.2222 0.3333 ( 25499 PWs)   bands (ev):

   -22.8869 -22.8869 -22.8869 -22.8681 -22.8681 -12.6860 -12.3927 -12.3809
   -12.3736  -7.5540  -3.5720  -3.4896  -3.4860  -2.2256  -2.2002  -2.0235
    -1.9407  -1.8197  -1.8073  -1.7430  -1.6686

     occupation numbers 
     1.0000   1.0000   1.0000   1.0000   1.0000   1.0000   1.0000   1.0000
     1.0000   1.0000   1.0000   1.0000   1.0000   1.0000   1.0000   1.0000
     1.0000   1.0000   1.0000   1.0000   1.0000

          k = 0.0000 0.2222 0.4444 ( 25513 PWs)   bands (ev):

   -22.8869 -22.8869 -22.8869 -22.8682 -22.8681 -12.6805 -12.3989 -12.3801
   -12.3744  -7.5521  -3.5873  -3.4908  -3.4891  -2.1877  -2.1558  -2.0820
    -1.9767  -1.8205  -1.8149  -1.7391  -1.6663

     occupation numbers 
     1.0000   1.0000   1.0000   1.0000   1.0000   1.0000   1.0000   1.0000
     1.0000   1.0000   1.0000   1.0000   1.0000   1.0000   1.0000   1.0000
     1.0000   1.0000   1.0000   1.0000   1.0000

          k = 0.0000 0.3333 0.3333 ( 25488 PWs)   bands (ev):

   -22.8869 -22.8869 -22.8869 -22.8681 -22.8681 -12.6788 -12.3919 -12.3874
   -12.3756  -7.5529  -3.5942  -3.4915  -3.4880  -2.2122  -2.1653  -2.0774
    -1.9580  -1.8051  -1.7881  -1.7670  -1.6453

     occupation numbers 
     1.0000   1.0000   1.0000   1.0000   1.0000   1.0000   1.0000   1.0000
     1.0000   1.0000   1.0000   1.0000   1.0000   1.0000   1.0000   1.0000
     1.0000   1.0000   1.0000   1.0000   1.0000

          k = 0.0000 0.3333 0.4444 ( 25523 PWs)   bands (ev):

   -22.8869 -22.8869 -22.8869 -22.8682 -22.8682 -12.6739 -12.3956 -12.3873
   -12.3774  -7.5522  -3.6079  -3.4919  -3.4903  -2.1911  -2.1633  -2.0926
    -1.9755  -1.8002  -1.7920  -1.7638  -1.6338

     occupation numbers 
     1.0000   1.0000   1.0000   1.0000   1.0000   1.0000   1.0000   1.0000
     1.0000   1.0000   1.0000   1.0000   1.0000   1.0000   1.0000   1.0000
     1.0000   1.0000   1.0000   1.0000   1.0000

          k = 0.0000 0.4444 0.4444 ( 25552 PWs)   bands (ev):

   -22.8869 -22.8869 -22.8869 -22.8682 -22.8682 -12.6695 -12.3929 -12.3919
   -12.3802  -7.5523  -3.6208  -3.4923  -3.4917  -2.1928  -2.1821  -2.0797
    -1.9783  -1.7862  -1.7822  -1.7763  -1.6147

     occupation numbers 
     1.0000   1.0000   1.0000   1.0000   1.0000   1.0000   1.0000   1.0000
     1.0000   1.0000   1.0000   1.0000   1.0000   1.0000   1.0000   1.0000
     1.0000   1.0000   1.0000   1.0000   1.0000

          k = 0.1111 0.1111 0.1111 ( 25488 PWs)   bands (ev):

   -22.8869 -22.8869 -22.8869 -22.8681 -22.8681 -12.7055 -12.3768 -12.3744
   -12.3744  -7.5619  -3.5080  -3.4810  -3.4810  -2.3081  -2.3081  -1.8508
    -1.8508  -1.8249  -1.7910  -1.7118  -1.7118

     occupation numbers 
     1.0000   1.0000   1.0000   1.0000   1.0000   1.0000   1.0000   1.0000
     1.0000   1.0000   1.0000   1.0000   1.0000   1.0000   1.0000   1.0000
     1.0000   1.0000   1.0000   1.0000   1.0000

          k = 0.1111 0.1111 0.2222 ( 25516 PWs)   bands (ev):

   -22.8869 -22.8869 -22.8869 -22.8682 -22.8681 -12.6984 -12.3840 -12.3753
   -12.3743  -7.5586  -3.5307  -3.4866  -3.4828  -2.2770  -2.2726  -1.8972
    -1.8926  -1.8474  -1.7905  -1.7115  -1.7029

     occupation numbers 
     1.0000   1.0000   1.0000   1.0000   1.0000   1.0000   1.0000   1.0000
     1.0000   1.0000   1.0000   1.0000   1.0000   1.0000   1.0000   1.0000
     1.0000   1.0000   1.0000   1.0000   1.0000

          k = 0.1111 0.1111 0.3333 ( 25508 PWs)   bands (ev):

   -22.8869 -22.8869 -22.8869 -22.8682 -22.8681 -12.6898 -12.3937 -12.3753
   -12.3741  -7.5547  -3.5559  -3.4929  -3.4847  -2.2333  -2.2188  -1.9800
    -1.9387  -1.8446  -1.8050  -1.7060  -1.7038

     occupation numbers 
     1.0000   1.0000   1.0000   1.0000   1.0000   1.0000   1.0000   1.0000
     1.0000   1.0000   1.0000   1.0000   1.0000   1.0000   1.0000   1.0000
     1.0000   1.0000   1.0000   1.0000   1.0000

          k = 0.1111 0.1111 0.4444 ( 25493 PWs)   bands (ev):

   -22.8869 -22.8869 -22.8869 -22.8682 -22.8681 -12.6839 -12.4004 -12.3752
   -12.3740  -7.5522  -3.5720  -3.4971  -3.4859  -2.1951  -2.1536  -2.0613
    -1.9769  -1.8422  -1.8162  -1.7075  -1.7021

     occupation numbers 
     1.0000   1.0000   1.0000   1.0000   1.0000   1.0000   1.0000   1.0000
     1.0000   1.0000   1.0000   1.0000   1.0000   1.0000   1.0000   1.0000
     1.0000   1.0000   1.0000   1.0000   1.0000

          k = 0.1111 0.2222 0.2222 ( 25492 PWs)   bands (ev):

   -22.8869 -22.8869 -22.8869 -22.8681 -22.8681 -12.6919 -12.3852 -12.3805
   -12.3751  -7.5566  -3.5492  -3.4909  -3.4871  -2.2523  -2.2451  -1.9636
    -1.9065  -1.8530  -1.7716  -1.7221  -1.6853

     occupation numbers 
     1.0000   1.0000   1.0000   1.0000   1.0000   1.0000   1.0000   1.0000
     1.0000   1.0000   1.0000   1.0000   1.0000   1.0000   1.0000   1.0000
     1.0000   1.0000   1.0000   1.0000   1.0000

          k = 0.1111 0.2222 0.3333 ( 25511 PWs)   bands (ev):

   -22.8869 -22.8869 -22.8869 -22.8682 -22.8681 -12.6840 -12.3924 -12.3812
   -12.3757  -7.5544  -3.5708  -3.4974  -3.4889  -2.2201  -2.2032  -2.0340
    -1.9364  -1.8392  -1.7769  -1.7254  -1.6748

     occupation numbers 
     1.0000   1.0000   1.0000   1.0000   1.0000   1.0000   1.0000   1.0000
     1.0000   1.0000   1.0000   1.0000   1.0000   1.0000   1.0000   1.0000
     1.0000   1.0000   1.0000   1.0000   1.0000

          k = 0.1111 0.2222 0.4444 ( 25506 PWs)   bands (ev):

   -22.8869 -22.8869 -22.8869 -22.8682 -22.8681 -12.6787 -12.3983 -12.3807
   -12.3762  -7.5529  -3.5848  -3.5023  -3.4890  -2.1868  -2.1645  -2.0933
    -1.9613  -1.8279  -1.7882  -1.7241  -1.6718

     occupation numbers 
     1.0000   1.0000   1.0000   1.0000   1.0000   1.0000   1.0000   1.0000
     1.0000   1.0000   1.0000   1.0000   1.0000   1.0000   1.0000   1.0000
     1.0000   1.0000   1.0000   1.0000   1.0000

          k = 0.1111 0.3333 0.3333 ( 25498 PWs)   bands (ev):

   -22.8869 -22.8869 -22.8869 -22.8681 -22.8681 -12.6771 -12.3919 -12.3874
   -12.3774  -7.5540  -3.5894  -3.4989  -3.4946  -2.2096  -2.1759  -2.0868
    -1.9391  -1.8195  -1.7605  -1.7474  -1.6501

     occupation numbers 
     1.0000   1.0000   1.0000   1.0000   1.0000   1.0000   1.0000   1.0000
     1.0000   1.0000   1.0000   1.0000   1.0000   1.0000   1.0000   1.0000
     1.0000   1.0000   1.0000   1.0000   1.0000

          k = 0.1111 0.3333 0.4444 ( 25496 PWs)   bands (ev):

   -22.8869 -22.8869 -22.8869 -22.8682 -22.8681 -12.6724 -12.3953 -12.3875
   -12.3790  -7.5537  -3.6018  -3.5021  -3.4954  -2.1915  -2.1705  -2.1141
    -1.9429  -1.8037  -1.7688  -1.7468  -1.6378

     occupation numbers 
     1.0000   1.0000   1.0000   1.0000   1.0000   1.0000   1.0000   1.0000
     1.0000   1.0000   1.0000   1.0000   1.0000   1.0000   1.0000   1.0000
     1.0000   1.0000   1.0000   1.0000   1.0000

          k = 0.1111 0.4444 0.4444 ( 25540 PWs)   bands (ev):

   -22.8869 -22.8869 -22.8869 -22.8682 -22.8682 -12.6682 -12.3928 -12.3919
   -12.3815  -7.5542  -3.6134  -3.5006  -3.4999  -2.1935  -2.1847  -2.1156
    -1.9312  -1.7816  -1.7640  -1.7611  -1.6177

     occupation numbers 
     1.0000   1.0000   1.0000   1.0000   1.0000   1.0000   1.0000   1.0000
     1.0000   1.0000   1.0000   1.0000   1.0000   1.0000   1.0000   1.0000
     1.0000   1.0000   1.0000   1.0000   1.0000

          k = 0.2222 0.2222 0.2222 ( 25482 PWs)   bands (ev):

   -22.8869 -22.8869 -22.8869 -22.8681 -22.8681 -12.6859 -12.3864 -12.3803
   -12.3803  -7.5561  -3.5569  -3.4978  -3.4978  -2.2310  -2.2310  -2.0137
    -1.8840  -1.8840  -1.7411  -1.6983  -1.6983

     occupation numbers 
     1.0000   1.0000   1.0000   1.0000   1.0000   1.0000   1.0000   1.0000
     1.0000   1.0000   1.0000   1.0000   1.0000   1.0000   1.0000   1.0000
     1.0000   1.0000   1.0000   1.0000   1.0000

          k = 0.2222 0.2222 0.3333 ( 25484 PWs)   bands (ev):

   -22.8869 -22.8869 -22.8869 -22.8681 -22.8681 -12.6788 -12.3918 -12.3828
   -12.3802  -7.5555  -3.5709  -3.5098  -3.4996  -2.2080  -2.2043  -2.0735
    -1.9072  -1.8476  -1.7409  -1.6936  -1.6891

     occupation numbers 
     1.0000   1.0000   1.0000   1.0000   1.0000   1.0000   1.0000   1.0000
     1.0000   1.0000   1.0000   1.0000   1.0000   1.0000   1.0000   1.0000
     1.0000   1.0000   1.0000   1.0000   1.0000

          k = 0.2222 0.2222 0.4444 ( 25509 PWs)   bands (ev):

   -22.8869 -22.8869 -22.8869 -22.8682 -22.8681 -12.6740 -12.3967 -12.3831
   -12.3801  -7.5551  -3.5817  -3.5175  -3.4985  -2.1850  -2.1797  -2.1223
    -1.9202  -1.8203  -1.7533  -1.6921  -1.6822

     occupation numbers 
     1.0000   1.0000   1.0000   1.0000   1.0000   1.0000   1.0000   1.0000
     1.0000   1.0000   1.0000   1.0000   1.0000   1.0000   1.0000   1.0000
     1.0000   1.0000   1.0000   1.0000   1.0000

          k = 0.2222 0.3333 0.3333 ( 25506 PWs)   bands (ev):

   -22.8869 -22.8869 -22.8869 -22.8681 -22.8681 -12.6727 -12.3919 -12.3872
   -12.3820  -7.5567  -3.5783  -3.5161  -3.5111  -2.2031  -2.1903  -2.1186
    -1.8850  -1.8266  -1.7193  -1.7091  -1.6632

     occupation numbers 
     1.0000   1.0000   1.0000   1.0000   1.0000   1.0000   1.0000   1.0000
     1.0000   1.0000   1.0000   1.0000   1.0000   1.0000   1.0000   1.0000
     1.0000   1.0000   1.0000   1.0000   1.0000

          k = 0.2222 0.3333 0.4444 ( 25497 PWs)   bands (ev):

   -22.8869 -22.8869 -22.8869 -22.8682 -22.8681 -12.6685 -12.3945 -12.3881
   -12.3828  -7.5575  -3.5868  -3.5230  -3.5116  -2.1923  -2.1834  -2.1490
    -1.8786  -1.7979  -1.7288  -1.7064  -1.6485

     occupation numbers 
     1.0000   1.0000   1.0000   1.0000   1.0000   1.0000   1.0000   1.0000
     1.0000   1.0000   1.0000   1.0000   1.0000   1.0000   1.0000   1.0000
     1.0000   1.0000   1.0000   1.0000   1.0000

          k = 0.2222 0.4444 0.4444 ( 25480 PWs)   bands (ev):

   -22.8869 -22.8869 -22.8869 -22.8682 -22.8681 -12.6648 -12.3926 -12.3917
   -12.3848  -7.5591  -3.5948  -3.5212  -3.5201  -2.1949  -2.1900  -2.1601
    -1.8558  -1.7728  -1.7203  -1.7201  -1.6259

     occupation numbers 
     1.0000   1.0000   1.0000   1.0000   1.0000   1.0000   1.0000   1.0000
     1.0000   1.0000   1.0000   1.0000   1.0000   1.0000   1.0000   1.0000
     1.0000   1.0000   1.0000   1.0000   1.0000

          k = 0.3333 0.3333 0.3333 ( 25497 PWs)   bands (ev):

   -22.8869 -22.8869 -22.8869 -22.8682 -22.8682 -12.6675 -12.3922 -12.3871
   -12.3871  -7.5598  -3.5713  -3.5294  -3.5294  -2.1958  -2.1958  -2.1529
    -1.8239  -1.8239  -1.6825  -1.6792  -1.6792

     occupation numbers 
     1.0000   1.0000   1.0000   1.0000   1.0000   1.0000   1.0000   1.0000
     1.0000   1.0000   1.0000   1.0000   1.0000   1.0000   1.0000   1.0000
     1.0000   1.0000   1.0000   1.0000   1.0000

          k = 0.3333 0.3333 0.4444 ( 25499 PWs)   bands (ev):

   -22.8869 -22.8869 -22.8869 -22.8682 -22.8681 -12.6640 -12.3934 -12.3895
   -12.3869  -7.5618  -3.5738  -3.5410  -3.5305  -2.1941  -2.1912  -2.1748
    -1.8185  -1.7836  -1.6930  -1.6671  -1.6590

     occupation numbers 
     1.0000   1.0000   1.0000   1.0000   1.0000   1.0000   1.0000   1.0000
     1.0000   1.0000   1.0000   1.0000   1.0000   1.0000   1.0000   1.0000
     1.0000   1.0000   1.0000   1.0000   1.0000

          k = 0.3333 0.4444 0.4444 ( 25499 PWs)   bands (ev):

   -22.8869 -22.8869 -22.8869 -22.8682 -22.8682 -12.6609 -12.3924 -12.3915
   -12.3887  -7.5645  -3.5742  -3.5437  -3.5424  -2.1960  -2.1942  -2.1860
    -1.7910  -1.7620  -1.6741  -1.6739  -1.6364

     occupation numbers 
     1.0000   1.0000   1.0000   1.0000   1.0000   1.0000   1.0000   1.0000
     1.0000   1.0000   1.0000   1.0000   1.0000   1.0000   1.0000   1.0000
     1.0000   1.0000   1.0000   1.0000   1.0000

          k = 0.4444 0.4444 0.4444 ( 25485 PWs)   bands (ev):

   -22.8869 -22.8869 -22.8869 -22.8682 -22.8682 -12.6583 -12.3922 -12.3914
   -12.3914  -7.5681  -3.5625  -3.5565  -3.5565  -2.1964  -2.1964  -2.1954
    -1.7539  -1.7539  -1.6455  -1.6455  -1.6431

     occupation numbers 
     1.0000   1.0000   1.0000   1.0000   1.0000   1.0000   1.0000   1.0000
     1.0000   1.0000   1.0000   1.0000   1.0000   1.0000   1.0000   1.0000
     1.0000   1.0000   1.0000   1.0000   1.0000

     highest occupied level (ev):    -1.6147

!    total energy              =   -1957.78988498 Ry

     total all-electron energy =    -69286.407446 Ry
     estimated scf accuracy    <       0.00000005 Ry

     The total energy is the sum of the following terms:
     one-electron contribution =    -170.17911061 Ry
     hartree contribution      =      99.93903932 Ry
     xc contribution           =    -110.66938034 Ry
     ewald contribution        =    -110.04903772 Ry
     one-center paw contrib.   =   -1666.83139562 Ry
      -> PAW hartree energy AE =     107.49860894 Ry
      -> PAW hartree energy PS =    -106.73627876 Ry
      -> PAW xc energy AE      =    -328.88627724 Ry
      -> PAW xc energy PS      =      47.18911348 Ry
      -> total E_H with PAW    =     100.70136949 Ry
      -> total E_XC with PAW   =    -392.36654410 Ry

     convergence has been achieved in  10 iterations

     Forces acting on atoms (cartesian axes, Ry/au):

     atom    1 type  1   force =     0.00000000    0.00000000    0.00000000
     atom    2 type  2   force =    -0.02922058    0.02922058    0.02922058
     atom    3 type  2   force =     0.02922058   -0.02922058    0.02922058
     atom    4 type  2   force =     0.02922058    0.02922058   -0.02922058
     atom    5 type  2   force =    -0.02922058   -0.02922058   -0.02922058
     The non-local contrib.  to forces
     atom    1 type  1   force =     0.00000000    0.00000000    0.00000000
     atom    2 type  2   force =    -0.09377610    0.09377610    0.09377610
     atom    3 type  2   force =     0.09377610   -0.09377610    0.09377610
     atom    4 type  2   force =     0.09377610    0.09377610   -0.09377610
     atom    5 type  2   force =    -0.09377610   -0.09377610   -0.09377610
     The ionic contribution  to forces
     atom    1 type  1   force =    -0.00000000   -0.00000000   -0.00000000
     atom    2 type  2   force =     3.22132870   -3.22132870   -3.22132870
     atom    3 type  2   force =    -3.22132870    3.22132870   -3.22132870
     atom    4 type  2   force =    -3.22132870   -3.22132870    3.22132870
     atom    5 type  2   force =     3.22132870    3.22132870    3.22132870
     The local contribution  to forces
     atom    1 type  1   force =     0.00000000    0.00000000    0.00000000
     atom    2 type  2   force =    -3.16923151    3.16923151    3.16923151
     atom    3 type  2   force =     3.16923151   -3.16923151    3.16923151
     atom    4 type  2   force =     3.16923151    3.16923151   -3.16923151
     atom    5 type  2   force =    -3.16923151   -3.16923151   -3.16923151
     The core correction contribution to forces
     atom    1 type  1   force =     0.00000000    0.00000000   -0.00000000
     atom    2 type  2   force =     0.01256443   -0.01256443   -0.01256443
     atom    3 type  2   force =    -0.01256443    0.01256443   -0.01256443
     atom    4 type  2   force =    -0.01256443   -0.01256443    0.01256443
     atom    5 type  2   force =     0.01256443    0.01256443    0.01256443
     The Hubbard contrib.    to forces
     atom    1 type  1   force =     0.00000000    0.00000000    0.00000000
     atom    2 type  2   force =     0.00000000    0.00000000    0.00000000
     atom    3 type  2   force =     0.00000000    0.00000000    0.00000000
     atom    4 type  2   force =     0.00000000    0.00000000    0.00000000
     atom    5 type  2   force =     0.00000000    0.00000000    0.00000000
     The SCF correction term to forces
     atom    1 type  1   force =    -0.00000000   -0.00000000   -0.00000000
     atom    2 type  2   force =    -0.00010610    0.00010610    0.00010610
     atom    3 type  2   force =     0.00010610   -0.00010610    0.00010610
     atom    4 type  2   force =     0.00010610    0.00010610   -0.00010610
     atom    5 type  2   force =    -0.00010610   -0.00010610   -0.00010610

     Total force =     0.101223     Total SCF correction =     0.000368


     Computing stress (Cartesian axis) and pressure

          total   stress  (Ry/bohr**3)                   (kbar)     P=      -22.11
  -0.00015027   0.00000000   0.00000000          -22.11        0.00        0.00
   0.00000000  -0.00015027   0.00000000            0.00      -22.11        0.00
   0.00000000   0.00000000  -0.00015027            0.00        0.00      -22.11

     kinetic stress (kbar)   3113.45      0.00      0.00
                                0.00   3113.45      0.00
                                0.00      0.00   3113.45

     local   stress (kbar)  -2527.92      0.00     -0.00
                                0.00  -2527.92     -0.00
                               -0.00     -0.00  -2527.92

     nonloc. stress (kbar)    610.76      0.00      0.00
                                0.00    610.76      0.00
                                0.00      0.00    610.76

     hartree stress (kbar)   1900.41     -0.00      0.00
                               -0.00   1900.41      0.00
                                0.00      0.00   1900.41

     exc-cor stress (kbar)   3211.78      0.00      0.00
                                0.00   3211.78      0.00
                                0.00      0.00   3211.78

     corecor stress (kbar)  -4237.93     -0.00     -0.00
                               -0.00  -4237.93     -0.00
                               -0.00     -0.00  -4237.93

     ewald   stress (kbar)  -2092.66     -0.00     -0.00
                               -0.00  -2092.66     -0.00
                               -0.00     -0.00  -2092.66

     hubbard stress (kbar)      0.00      0.00      0.00
                                0.00      0.00      0.00
                                0.00      0.00      0.00

     DFT-D   stress (kbar)      0.00      0.00      0.00
                                0.00      0.00      0.00
                                0.00      0.00      0.00

     XDM     stress (kbar)      0.00      0.00      0.00
                                0.00      0.00      0.00
                                0.00      0.00      0.00

     dft-nl  stress (kbar)      0.00      0.00      0.00
                                0.00      0.00      0.00
                                0.00      0.00      0.00

     TS-vdW  stress (kbar)      0.00      0.00      0.00
                                0.00      0.00      0.00
                                0.00      0.00      0.00



     Writing output data file ./out/SnI4un.save/

     init_run     :      6.31s CPU      6.44s WALL (       1 calls)
     electrons    :    159.65s CPU    168.30s WALL (       1 calls)
     forces       :      3.00s CPU      3.00s WALL (       1 calls)
     stress       :      5.18s CPU      5.19s WALL (       1 calls)

     Called by init_run:
     wfcinit      :      5.17s CPU      5.21s WALL (       1 calls)
     wfcinit:atom :      0.05s CPU      0.05s WALL (      35 calls)
     wfcinit:wfcr :      4.86s CPU      4.89s WALL (      35 calls)
     potinit      :      0.27s CPU      0.31s WALL (       1 calls)
     hinit0       :      0.30s CPU      0.30s WALL (       1 calls)

     Called by electrons:
     c_bands      :    132.99s CPU    141.03s WALL (      11 calls)
     sum_band     :     22.43s CPU     22.56s WALL (      11 calls)
     v_of_rho     :      0.51s CPU      0.52s WALL (      11 calls)
     v_h          :      0.04s CPU      0.04s WALL (      11 calls)
     v_xc         :      0.56s CPU      0.57s WALL (      13 calls)
     newd         :      2.09s CPU      2.13s WALL (      11 calls)
     PAW_pot      :      1.82s CPU      1.86s WALL (      11 calls)
     mix_rho      :      0.10s CPU      0.11s WALL (      11 calls)

     Called by c_bands:
     init_us_2    :      2.03s CPU      2.09s WALL (     875 calls)
     cegterg      :    128.22s CPU    128.80s WALL (     385 calls)

     Called by sum_band:
     sum_band:wei :      0.00s CPU      0.00s WALL (      11 calls)
     sum_band:loo :     20.48s CPU     20.59s WALL (      11 calls)
     sum_band:buf :      0.16s CPU      0.17s WALL (     385 calls)
     sum_band:ini :      0.91s CPU      0.92s WALL (     385 calls)
     sum_band:cal :      6.19s CPU      6.20s WALL (     385 calls)
     sum_band:bec :      0.04s CPU      0.04s WALL (     385 calls)
     addusdens    :      1.82s CPU      1.84s WALL (      11 calls)
     addusd:skk   :      0.01s CPU      0.01s WALL (      22 calls)
     addusd:dgemm :      0.66s CPU      0.68s WALL (      22 calls)
     addusd:qvan2 :      0.90s CPU      0.90s WALL (      22 calls)

     Called by *egterg:
     cdiaghg      :      1.47s CPU      1.49s WALL (    1622 calls)
     cegterg:over :      6.56s CPU      6.58s WALL (    1272 calls)
     cegterg:upda :      2.81s CPU      2.83s WALL (    1272 calls)
     cegterg:last :      7.16s CPU      7.17s WALL (     863 calls)
     h_psi        :     98.27s CPU     98.79s WALL (    1692 calls)
     s_psi        :     12.36s CPU     12.38s WALL (    1692 calls)
     g_psi        :      0.23s CPU      0.23s WALL (    1272 calls)

     Called by h_psi:
     h_psi:calbec :     17.88s CPU     17.91s WALL (    1692 calls)
     vloc_psi     :     67.06s CPU     67.54s WALL (    1692 calls)
     add_vuspsi   :     13.00s CPU     13.02s WALL (    1692 calls)

     General routines
     calbec       :     26.45s CPU     26.50s WALL (    2252 calls)
     fft          :      0.37s CPU      0.38s WALL (     147 calls)
     ffts         :      0.03s CPU      0.03s WALL (      11 calls)
     fftw         :     74.07s CPU     74.61s WALL (   52455 calls)

     Parallel routines
     fft_scatt_xy :      8.88s CPU      8.94s WALL (   52613 calls)
     fft_scatt_yz :     19.94s CPU     20.10s WALL (   52613 calls)

     PAW routines
     PAW_pot      :      1.82s CPU      1.86s WALL (      11 calls)
     PAW_symme    :      0.01s CPU      0.01s WALL (      22 calls)

     PWSCF        :   2m55.46s CPU   3m 7.26s WALL


   This run was terminated on:  15:36:34  14Jan2021            

=------------------------------------------------------------------------------=
   JOB DONE.
=------------------------------------------------------------------------------=
