
     Program PWSCF v.6.4.1 starts on 23Jan2021 at 12:19:29 

     This program is part of the open-source Quantum ESPRESSO suite
     for quantum simulation of materials; please cite
         "P. Giannozzi et al., J. Phys.:Condens. Matter 21 395502 (2009);
         "P. Giannozzi et al., J. Phys.:Condens. Matter 29 465901 (2017);
          URL http://www.quantum-espresso.org", 
     in publications or presentations arising from this work. More details at
     http://www.quantum-espresso.org/quote

     Parallel version (MPI & OpenMP), running on      48 processor cores
     Number of MPI processes:                24
     Threads/MPI process:                     2

     MPI processes distributed on     1 nodes
     R & G space division:  proc/nbgrp/npool/nimage =      24
     Waiting for input...
     Reading input from standard input

     Current dimensions of program PWSCF are:
     Max number of different atomic species (ntypx) = 10
     Max number of k-points (npk) =  40000
     Max angular momentum in pseudopotentials (lmaxx) =  3
               file Cs.rel-pbesol-spn-kjpaw_psl.1.0.0.UPF: wavefunction(s)  5S 6S renormalized
               file I.rel-pbesol-n-kjpaw_psl.1.0.0.UPF: wavefunction(s)  5S renormalized

     Subspace diagonalization in iterative solution of the eigenvalue problem:
     one sub-group per band group will be used
     scalapack distributed-memory algorithm (size of sub-group:  3*  3 procs)

     Found symmetry operation: I + (  0.0000 -0.5000 -0.5000)
     This is a supercell, fractional translations are disabled
 
     Parallelization info
     --------------------
     sticks:   dense  smooth     PW     G-vecs:    dense   smooth      PW
     Min          92      61     17                 3290     1789     273
     Max          93      62     18                 3295     1794     278
     Sum        2225    1481    421                78997    43003    6619
 

     Title: 
     CsIsalt                                                                    


     bravais-lattice index     =            1
     lattice parameter (alat)  =       8.8160  a.u.
     unit-cell volume          =     685.1896 (a.u.)^3
     number of atoms/cell      =            8
     number of atomic types    =            2
     number of electrons       =        64.00
     number of Kohn-Sham states=           64
     kinetic-energy cutoff     =      60.0000  Ry
     charge density cutoff     =     360.0000  Ry
     convergence threshold     =      1.0E-06
     mixing beta               =       0.5000
     number of iterations used =            8  plain     mixing
     Exchange-correlation      = SLA PW PSX PSC ( 1  4 10  8 0 0)
     Non magnetic calculation with spin-orbit


     celldm(1)=   8.815973  celldm(2)=   0.000000  celldm(3)=   0.000000
     celldm(4)=   0.000000  celldm(5)=   0.000000  celldm(6)=   0.000000

     crystal axes: (cart. coord. in units of alat)
               a(1) = (   1.000000   0.000000   0.000000 )  
               a(2) = (   0.000000   1.000000   0.000000 )  
               a(3) = (   0.000000   0.000000   1.000000 )  

     reciprocal axes: (cart. coord. in units 2 pi/alat)
               b(1) = (  1.000000  0.000000  0.000000 )  
               b(2) = (  0.000000  1.000000  0.000000 )  
               b(3) = (  0.000000  0.000000  1.000000 )  


     PseudoPot. # 1 for Cs read from file:
     /marconi_scratch/userexternal/cmalosso/degironcoli/pseudo/Cs.rel-pbesol-spn-kjpaw_psl.1.0.0.UPF
     MD5 check sum: 2adfb289dd462649b099d7edbec69378
     Pseudo is Projector augmented-wave + core cor, Zval =  9.0
     Generated using "atomic" code by A. Dal Corso v.6.4.1
     Shape of augmentation charge: PSQ
     Using radial grid of 1251 points, 15 beta functions with: 
                l(1) =   0
                l(2) =   0
                l(3) =   0
                l(4) =   1
                l(5) =   1
                l(6) =   1
                l(7) =   1
                l(8) =   2
                l(9) =   2
               l(10) =   2
               l(11) =   2
               l(12) =   3
               l(13) =   3
               l(14) =   3
               l(15) =   3
     Q(r) pseudized with 0 coefficients 


     PseudoPot. # 2 for I  read from file:
     /marconi_scratch/userexternal/cmalosso/degironcoli/pseudo/I.rel-pbesol-n-kjpaw_psl.1.0.0.UPF
     MD5 check sum: 4478c427bd443f303eca1937a163b991
     Pseudo is Projector augmented-wave + core cor, Zval =  7.0
     Generated using "atomic" code by A. Dal Corso v.6.3
     Shape of augmentation charge: PSQ
     Using radial grid of 1247 points, 10 beta functions with: 
                l(1) =   0
                l(2) =   0
                l(3) =   1
                l(4) =   1
                l(5) =   1
                l(6) =   1
                l(7) =   2
                l(8) =   2
                l(9) =   2
               l(10) =   2
     Q(r) pseudized with 0 coefficients 


     atomic species   valence    mass     pseudopotential
        Cs             9.00   132.90000     Cs( 1.00)
        I              7.00   126.90000     I ( 1.00)

     48 Sym. Ops., with inversion, found


                                    s                        frac. trans.

      isym =  1     identity                                     

 cryst.   s( 1) = (     1          0          0      )
                  (     0          1          0      )
                  (     0          0          1      )

 cart.    s( 1) = (  1.0000000  0.0000000  0.0000000 )
                  (  0.0000000  1.0000000  0.0000000 )
                  (  0.0000000  0.0000000  1.0000000 )


      isym =  2     180 deg rotation - cart. axis [0,0,1]        

 cryst.   s( 2) = (    -1          0          0      )
                  (     0         -1          0      )
                  (     0          0          1      )

 cart.    s( 2) = ( -1.0000000  0.0000000  0.0000000 )
                  (  0.0000000 -1.0000000  0.0000000 )
                  (  0.0000000  0.0000000  1.0000000 )


      isym =  3     180 deg rotation - cart. axis [0,1,0]        

 cryst.   s( 3) = (    -1          0          0      )
                  (     0          1          0      )
                  (     0          0         -1      )

 cart.    s( 3) = ( -1.0000000  0.0000000  0.0000000 )
                  (  0.0000000  1.0000000  0.0000000 )
                  (  0.0000000  0.0000000 -1.0000000 )


      isym =  4     180 deg rotation - cart. axis [1,0,0]        

 cryst.   s( 4) = (     1          0          0      )
                  (     0         -1          0      )
                  (     0          0         -1      )

 cart.    s( 4) = (  1.0000000  0.0000000  0.0000000 )
                  (  0.0000000 -1.0000000  0.0000000 )
                  (  0.0000000  0.0000000 -1.0000000 )


      isym =  5     180 deg rotation - cart. axis [1,1,0]        

 cryst.   s( 5) = (     0          1          0      )
                  (     1          0          0      )
                  (     0          0         -1      )

 cart.    s( 5) = (  0.0000000  1.0000000  0.0000000 )
                  (  1.0000000  0.0000000  0.0000000 )
                  (  0.0000000  0.0000000 -1.0000000 )


      isym =  6     180 deg rotation - cart. axis [1,-1,0]       

 cryst.   s( 6) = (     0         -1          0      )
                  (    -1          0          0      )
                  (     0          0         -1      )

 cart.    s( 6) = (  0.0000000 -1.0000000  0.0000000 )
                  ( -1.0000000  0.0000000  0.0000000 )
                  (  0.0000000  0.0000000 -1.0000000 )


      isym =  7      90 deg rotation - cart. axis [0,0,-1]       

 cryst.   s( 7) = (     0         -1          0      )
                  (     1          0          0      )
                  (     0          0          1      )

 cart.    s( 7) = (  0.0000000  1.0000000  0.0000000 )
                  ( -1.0000000  0.0000000  0.0000000 )
                  (  0.0000000  0.0000000  1.0000000 )


      isym =  8      90 deg rotation - cart. axis [0,0,1]        

 cryst.   s( 8) = (     0          1          0      )
                  (    -1          0          0      )
                  (     0          0          1      )

 cart.    s( 8) = (  0.0000000 -1.0000000  0.0000000 )
                  (  1.0000000  0.0000000  0.0000000 )
                  (  0.0000000  0.0000000  1.0000000 )


      isym =  9     180 deg rotation - cart. axis [1,0,1]        

 cryst.   s( 9) = (     0          0          1      )
                  (     0         -1          0      )
                  (     1          0          0      )

 cart.    s( 9) = (  0.0000000  0.0000000  1.0000000 )
                  (  0.0000000 -1.0000000  0.0000000 )
                  (  1.0000000  0.0000000  0.0000000 )


      isym = 10     180 deg rotation - cart. axis [-1,0,1]       

 cryst.   s(10) = (     0          0         -1      )
                  (     0         -1          0      )
                  (    -1          0          0      )

 cart.    s(10) = (  0.0000000  0.0000000 -1.0000000 )
                  (  0.0000000 -1.0000000  0.0000000 )
                  ( -1.0000000  0.0000000  0.0000000 )


      isym = 11      90 deg rotation - cart. axis [0,1,0]        

 cryst.   s(11) = (     0          0         -1      )
                  (     0          1          0      )
                  (     1          0          0      )

 cart.    s(11) = (  0.0000000  0.0000000  1.0000000 )
                  (  0.0000000  1.0000000  0.0000000 )
                  ( -1.0000000  0.0000000  0.0000000 )


      isym = 12      90 deg rotation - cart. axis [0,-1,0]       

 cryst.   s(12) = (     0          0          1      )
                  (     0          1          0      )
                  (    -1          0          0      )

 cart.    s(12) = (  0.0000000  0.0000000 -1.0000000 )
                  (  0.0000000  1.0000000  0.0000000 )
                  (  1.0000000  0.0000000  0.0000000 )


      isym = 13     180 deg rotation - cart. axis [0,1,1]        

 cryst.   s(13) = (    -1          0          0      )
                  (     0          0          1      )
                  (     0          1          0      )

 cart.    s(13) = ( -1.0000000  0.0000000  0.0000000 )
                  (  0.0000000  0.0000000  1.0000000 )
                  (  0.0000000  1.0000000  0.0000000 )


      isym = 14     180 deg rotation - cart. axis [0,1,-1]       

 cryst.   s(14) = (    -1          0          0      )
                  (     0          0         -1      )
                  (     0         -1          0      )

 cart.    s(14) = ( -1.0000000  0.0000000  0.0000000 )
                  (  0.0000000  0.0000000 -1.0000000 )
                  (  0.0000000 -1.0000000  0.0000000 )


      isym = 15      90 deg rotation - cart. axis [-1,0,0]       

 cryst.   s(15) = (     1          0          0      )
                  (     0          0         -1      )
                  (     0          1          0      )

 cart.    s(15) = (  1.0000000  0.0000000  0.0000000 )
                  (  0.0000000  0.0000000  1.0000000 )
                  (  0.0000000 -1.0000000  0.0000000 )


      isym = 16      90 deg rotation - cart. axis [1,0,0]        

 cryst.   s(16) = (     1          0          0      )
                  (     0          0          1      )
                  (     0         -1          0      )

 cart.    s(16) = (  1.0000000  0.0000000  0.0000000 )
                  (  0.0000000  0.0000000 -1.0000000 )
                  (  0.0000000  1.0000000  0.0000000 )


      isym = 17     120 deg rotation - cart. axis [-1,-1,-1]     

 cryst.   s(17) = (     0          0          1      )
                  (     1          0          0      )
                  (     0          1          0      )

 cart.    s(17) = (  0.0000000  1.0000000  0.0000000 )
                  (  0.0000000  0.0000000  1.0000000 )
                  (  1.0000000  0.0000000  0.0000000 )


      isym = 18     120 deg rotation - cart. axis [-1,1,1]       

 cryst.   s(18) = (     0          0         -1      )
                  (    -1          0          0      )
                  (     0          1          0      )

 cart.    s(18) = (  0.0000000 -1.0000000  0.0000000 )
                  (  0.0000000  0.0000000  1.0000000 )
                  ( -1.0000000  0.0000000  0.0000000 )


      isym = 19     120 deg rotation - cart. axis [1,1,-1]       

 cryst.   s(19) = (     0          0         -1      )
                  (     1          0          0      )
                  (     0         -1          0      )

 cart.    s(19) = (  0.0000000  1.0000000  0.0000000 )
                  (  0.0000000  0.0000000 -1.0000000 )
                  ( -1.0000000  0.0000000  0.0000000 )


      isym = 20     120 deg rotation - cart. axis [1,-1,1]       

 cryst.   s(20) = (     0          0          1      )
                  (    -1          0          0      )
                  (     0         -1          0      )

 cart.    s(20) = (  0.0000000 -1.0000000  0.0000000 )
                  (  0.0000000  0.0000000 -1.0000000 )
                  (  1.0000000  0.0000000  0.0000000 )


      isym = 21     120 deg rotation - cart. axis [1,1,1]        

 cryst.   s(21) = (     0          1          0      )
                  (     0          0          1      )
                  (     1          0          0      )

 cart.    s(21) = (  0.0000000  0.0000000  1.0000000 )
                  (  1.0000000  0.0000000  0.0000000 )
                  (  0.0000000  1.0000000  0.0000000 )


      isym = 22     120 deg rotation - cart. axis [-1,1,-1]      

 cryst.   s(22) = (     0         -1          0      )
                  (     0          0         -1      )
                  (     1          0          0      )

 cart.    s(22) = (  0.0000000  0.0000000  1.0000000 )
                  ( -1.0000000  0.0000000  0.0000000 )
                  (  0.0000000 -1.0000000  0.0000000 )


      isym = 23     120 deg rotation - cart. axis [1,-1,-1]      

 cryst.   s(23) = (     0         -1          0      )
                  (     0          0          1      )
                  (    -1          0          0      )

 cart.    s(23) = (  0.0000000  0.0000000 -1.0000000 )
                  ( -1.0000000  0.0000000  0.0000000 )
                  (  0.0000000  1.0000000  0.0000000 )


      isym = 24     120 deg rotation - cart. axis [-1,-1,1]      

 cryst.   s(24) = (     0          1          0      )
                  (     0          0         -1      )
                  (    -1          0          0      )

 cart.    s(24) = (  0.0000000  0.0000000 -1.0000000 )
                  (  1.0000000  0.0000000  0.0000000 )
                  (  0.0000000 -1.0000000  0.0000000 )


      isym = 25     inversion                                    

 cryst.   s(25) = (    -1          0          0      )
                  (     0         -1          0      )
                  (     0          0         -1      )

 cart.    s(25) = ( -1.0000000  0.0000000  0.0000000 )
                  (  0.0000000 -1.0000000  0.0000000 )
                  (  0.0000000  0.0000000 -1.0000000 )


      isym = 26     inv. 180 deg rotation - cart. axis [0,0,1]   

 cryst.   s(26) = (     1          0          0      )
                  (     0          1          0      )
                  (     0          0         -1      )

 cart.    s(26) = (  1.0000000  0.0000000  0.0000000 )
                  (  0.0000000  1.0000000  0.0000000 )
                  (  0.0000000  0.0000000 -1.0000000 )


      isym = 27     inv. 180 deg rotation - cart. axis [0,1,0]   

 cryst.   s(27) = (     1          0          0      )
                  (     0         -1          0      )
                  (     0          0          1      )

 cart.    s(27) = (  1.0000000  0.0000000  0.0000000 )
                  (  0.0000000 -1.0000000  0.0000000 )
                  (  0.0000000  0.0000000  1.0000000 )


      isym = 28     inv. 180 deg rotation - cart. axis [1,0,0]   

 cryst.   s(28) = (    -1          0          0      )
                  (     0          1          0      )
                  (     0          0          1      )

 cart.    s(28) = ( -1.0000000  0.0000000  0.0000000 )
                  (  0.0000000  1.0000000  0.0000000 )
                  (  0.0000000  0.0000000  1.0000000 )


      isym = 29     inv. 180 deg rotation - cart. axis [1,1,0]   

 cryst.   s(29) = (     0         -1          0      )
                  (    -1          0          0      )
                  (     0          0          1      )

 cart.    s(29) = (  0.0000000 -1.0000000  0.0000000 )
                  ( -1.0000000  0.0000000  0.0000000 )
                  (  0.0000000  0.0000000  1.0000000 )


      isym = 30     inv. 180 deg rotation - cart. axis [1,-1,0]  

 cryst.   s(30) = (     0          1          0      )
                  (     1          0          0      )
                  (     0          0          1      )

 cart.    s(30) = (  0.0000000  1.0000000  0.0000000 )
                  (  1.0000000  0.0000000  0.0000000 )
                  (  0.0000000  0.0000000  1.0000000 )


      isym = 31     inv.  90 deg rotation - cart. axis [0,0,-1]  

 cryst.   s(31) = (     0          1          0      )
                  (    -1          0          0      )
                  (     0          0         -1      )

 cart.    s(31) = (  0.0000000 -1.0000000  0.0000000 )
                  (  1.0000000  0.0000000  0.0000000 )
                  (  0.0000000  0.0000000 -1.0000000 )


      isym = 32     inv.  90 deg rotation - cart. axis [0,0,1]   

 cryst.   s(32) = (     0         -1          0      )
                  (     1          0          0      )
                  (     0          0         -1      )

 cart.    s(32) = (  0.0000000  1.0000000  0.0000000 )
                  ( -1.0000000  0.0000000  0.0000000 )
                  (  0.0000000  0.0000000 -1.0000000 )


      isym = 33     inv. 180 deg rotation - cart. axis [1,0,1]   

 cryst.   s(33) = (     0          0         -1      )
                  (     0          1          0      )
                  (    -1          0          0      )

 cart.    s(33) = (  0.0000000  0.0000000 -1.0000000 )
                  (  0.0000000  1.0000000  0.0000000 )
                  ( -1.0000000  0.0000000  0.0000000 )


      isym = 34     inv. 180 deg rotation - cart. axis [-1,0,1]  

 cryst.   s(34) = (     0          0          1      )
                  (     0          1          0      )
                  (     1          0          0      )

 cart.    s(34) = (  0.0000000  0.0000000  1.0000000 )
                  (  0.0000000  1.0000000  0.0000000 )
                  (  1.0000000  0.0000000  0.0000000 )


      isym = 35     inv.  90 deg rotation - cart. axis [0,1,0]   

 cryst.   s(35) = (     0          0          1      )
                  (     0         -1          0      )
                  (    -1          0          0      )

 cart.    s(35) = (  0.0000000  0.0000000 -1.0000000 )
                  (  0.0000000 -1.0000000  0.0000000 )
                  (  1.0000000  0.0000000  0.0000000 )


      isym = 36     inv.  90 deg rotation - cart. axis [0,-1,0]  

 cryst.   s(36) = (     0          0         -1      )
                  (     0         -1          0      )
                  (     1          0          0      )

 cart.    s(36) = (  0.0000000  0.0000000  1.0000000 )
                  (  0.0000000 -1.0000000  0.0000000 )
                  ( -1.0000000  0.0000000  0.0000000 )


      isym = 37     inv. 180 deg rotation - cart. axis [0,1,1]   

 cryst.   s(37) = (     1          0          0      )
                  (     0          0         -1      )
                  (     0         -1          0      )

 cart.    s(37) = (  1.0000000  0.0000000  0.0000000 )
                  (  0.0000000  0.0000000 -1.0000000 )
                  (  0.0000000 -1.0000000  0.0000000 )


      isym = 38     inv. 180 deg rotation - cart. axis [0,1,-1]  

 cryst.   s(38) = (     1          0          0      )
                  (     0          0          1      )
                  (     0          1          0      )

 cart.    s(38) = (  1.0000000  0.0000000  0.0000000 )
                  (  0.0000000  0.0000000  1.0000000 )
                  (  0.0000000  1.0000000  0.0000000 )


      isym = 39     inv.  90 deg rotation - cart. axis [-1,0,0]  

 cryst.   s(39) = (    -1          0          0      )
                  (     0          0          1      )
                  (     0         -1          0      )

 cart.    s(39) = ( -1.0000000  0.0000000  0.0000000 )
                  (  0.0000000  0.0000000 -1.0000000 )
                  (  0.0000000  1.0000000  0.0000000 )


      isym = 40     inv.  90 deg rotation - cart. axis [1,0,0]   

 cryst.   s(40) = (    -1          0          0      )
                  (     0          0         -1      )
                  (     0          1          0      )

 cart.    s(40) = ( -1.0000000  0.0000000  0.0000000 )
                  (  0.0000000  0.0000000  1.0000000 )
                  (  0.0000000 -1.0000000  0.0000000 )


      isym = 41     inv. 120 deg rotation - cart. axis [-1,-1,-1]

 cryst.   s(41) = (     0          0         -1      )
                  (    -1          0          0      )
                  (     0         -1          0      )

 cart.    s(41) = (  0.0000000 -1.0000000  0.0000000 )
                  (  0.0000000  0.0000000 -1.0000000 )
                  ( -1.0000000  0.0000000  0.0000000 )


      isym = 42     inv. 120 deg rotation - cart. axis [-1,1,1]  

 cryst.   s(42) = (     0          0          1      )
                  (     1          0          0      )
                  (     0         -1          0      )

 cart.    s(42) = (  0.0000000  1.0000000  0.0000000 )
                  (  0.0000000  0.0000000 -1.0000000 )
                  (  1.0000000  0.0000000  0.0000000 )


      isym = 43     inv. 120 deg rotation - cart. axis [1,1,-1]  

 cryst.   s(43) = (     0          0          1      )
                  (    -1          0          0      )
                  (     0          1          0      )

 cart.    s(43) = (  0.0000000 -1.0000000  0.0000000 )
                  (  0.0000000  0.0000000  1.0000000 )
                  (  1.0000000  0.0000000  0.0000000 )


      isym = 44     inv. 120 deg rotation - cart. axis [1,-1,1]  

 cryst.   s(44) = (     0          0         -1      )
                  (     1          0          0      )
                  (     0          1          0      )

 cart.    s(44) = (  0.0000000  1.0000000  0.0000000 )
                  (  0.0000000  0.0000000  1.0000000 )
                  ( -1.0000000  0.0000000  0.0000000 )


      isym = 45     inv. 120 deg rotation - cart. axis [1,1,1]   

 cryst.   s(45) = (     0         -1          0      )
                  (     0          0         -1      )
                  (    -1          0          0      )

 cart.    s(45) = (  0.0000000  0.0000000 -1.0000000 )
                  ( -1.0000000  0.0000000  0.0000000 )
                  (  0.0000000 -1.0000000  0.0000000 )


      isym = 46     inv. 120 deg rotation - cart. axis [-1,1,-1] 

 cryst.   s(46) = (     0          1          0      )
                  (     0          0          1      )
                  (    -1          0          0      )

 cart.    s(46) = (  0.0000000  0.0000000 -1.0000000 )
                  (  1.0000000  0.0000000  0.0000000 )
                  (  0.0000000  1.0000000  0.0000000 )


      isym = 47     inv. 120 deg rotation - cart. axis [1,-1,-1] 

 cryst.   s(47) = (     0          1          0      )
                  (     0          0         -1      )
                  (     1          0          0      )

 cart.    s(47) = (  0.0000000  0.0000000  1.0000000 )
                  (  1.0000000  0.0000000  0.0000000 )
                  (  0.0000000 -1.0000000  0.0000000 )


      isym = 48     inv. 120 deg rotation - cart. axis [-1,-1,1] 

 cryst.   s(48) = (     0         -1          0      )
                  (     0          0          1      )
                  (     1          0          0      )

 cart.    s(48) = (  0.0000000  0.0000000  1.0000000 )
                  ( -1.0000000  0.0000000  0.0000000 )
                  (  0.0000000  1.0000000  0.0000000 )


     double point group O_h (m-3m) 
     there are 16 classes and  6 irreducible representations
     the character table:

       E     -E    8C3   -8C3   3C2  6C4   -6C4   6C2' i     -i    8S6   -8S6 
                               -3C2              -6C2'                        
G_6+   2.00 -2.00  1.00 -1.00  0.00  1.41 -1.41  0.00  2.00 -2.00  1.00 -1.00
G_7+   2.00 -2.00  1.00 -1.00  0.00 -1.41  1.41  0.00  2.00 -2.00  1.00 -1.00
G_8+   4.00 -4.00 -1.00  1.00  0.00  0.00  0.00  0.00  4.00 -4.00 -1.00  1.00
G_6-   2.00 -2.00  1.00 -1.00  0.00  1.41 -1.41  0.00 -2.00  2.00 -1.00  1.00
G_7-   2.00 -2.00  1.00 -1.00  0.00 -1.41  1.41  0.00 -2.00  2.00 -1.00  1.00
G_8-   4.00 -4.00 -1.00  1.00  0.00  0.00  0.00  0.00 -4.00  4.00  1.00 -1.00

        3s_h 6S4   -6S4   6s_d
       -3s_h             -6s_d
G_6+   0.00  1.41 -1.41  0.00
G_7+   0.00 -1.41  1.41  0.00
G_8+   0.00  0.00  0.00  0.00
G_6-   0.00 -1.41  1.41  0.00
G_7-   0.00  1.41 -1.41  0.00
G_8-   0.00  0.00  0.00  0.00

     the symmetry operations in each class and the name of the first element:

     E             1
          identity                                               
     -E           -1
          identity E                                             
     8C3          17   19   20   18   24   21   22   23
          120 deg rotation - cart. axis [-1,-1,-1]               
     -8C3        -17  -19  -20  -18  -24  -21  -22  -23
          120 deg rotation - cart. axis [-1,-1,-1] E             
      3C2 -3C2     2   -2    4   -4    3   -3
          180 deg rotation - cart. axis [0,0,1]                  
     6C4           7    8   15   16   12   11
           90 deg rotation - cart. axis [0,0,-1]                 
     -6C4         -7   -8  -15  -16  -12  -11
           90 deg rotation - cart. axis [0,0,-1] E               
      6C2'-6C2'    5   -5   -6    6   14  -13  -14   13   10   -9  -10    9
          180 deg rotation - cart. axis [1,1,0]                  
     i            25
          inversion                                              
     -i          -25
          inversion E                                            
     8S6          41   43   44   42   48   45   46   47
          inv. 120 deg rotation - cart. axis [-1,-1,-1]          
     -8S6        -41  -43  -44  -42  -48  -45  -46  -47
          inv. 120 deg rotation - cart. axis [-1,-1,-1] E        
      3s_h-3s_h   26  -26   28  -28   27  -27
          inv. 180 deg rotation - cart. axis [0,0,1]             
     6S4          31   32   39   40   36   35
          inv.  90 deg rotation - cart. axis [0,0,-1]            
     -6S4        -31  -32  -39  -40  -36  -35
          inv.  90 deg rotation - cart. axis [0,0,-1] E          
      6s_d-6s_d   29  -29  -30   30   38  -37  -38   37   34  -33  -34   33
          inv. 180 deg rotation - cart. axis [1,1,0]             

   Cartesian axes

     site n.     atom                  positions (alat units)
         1           Cs  tau(   1) = (   0.0000000   0.0000000   0.0000000  )
         2           Cs  tau(   2) = (   0.0000000   0.5000000   0.5000000  )
         3           Cs  tau(   3) = (   0.5000000   0.0000000   0.5000000  )
         4           Cs  tau(   4) = (   0.5000000   0.5000000   0.0000000  )
         5           I   tau(   5) = (   0.5000000   0.0000000   0.0000000  )
         6           I   tau(   6) = (   0.5000000   0.5000000   0.5000000  )
         7           I   tau(   7) = (   0.0000000   0.0000000   0.5000000  )
         8           I   tau(   8) = (   0.0000000   0.5000000   0.0000000  )

   Crystallographic axes

     site n.     atom                  positions (cryst. coord.)
         1           Cs  tau(   1) = (  0.0000000  0.0000000  0.0000000  )
         2           Cs  tau(   2) = (  0.0000000  0.5000000  0.5000000  )
         3           Cs  tau(   3) = (  0.5000000  0.0000000  0.5000000  )
         4           Cs  tau(   4) = (  0.5000000  0.5000000  0.0000000  )
         5           I   tau(   5) = (  0.5000000  0.0000000  0.0000000  )
         6           I   tau(   6) = (  0.5000000  0.5000000  0.5000000  )
         7           I   tau(   7) = (  0.0000000  0.0000000  0.5000000  )
         8           I   tau(   8) = (  0.0000000  0.5000000  0.0000000  )

     number of k points=    20
                       cart. coord. in units 2pi/alat
        k(    1) = (   0.0625000   0.0625000   0.0625000), wk =   0.0156250
        k(    2) = (   0.0625000   0.0625000   0.1875000), wk =   0.0468750
        k(    3) = (   0.0625000   0.0625000   0.3125000), wk =   0.0468750
        k(    4) = (   0.0625000   0.0625000   0.4375000), wk =   0.0468750
        k(    5) = (   0.0625000   0.1875000   0.1875000), wk =   0.0468750
        k(    6) = (   0.0625000   0.1875000   0.3125000), wk =   0.0937500
        k(    7) = (   0.0625000   0.1875000   0.4375000), wk =   0.0937500
        k(    8) = (   0.0625000   0.3125000   0.3125000), wk =   0.0468750
        k(    9) = (   0.0625000   0.3125000   0.4375000), wk =   0.0937500
        k(   10) = (   0.0625000   0.4375000   0.4375000), wk =   0.0468750
        k(   11) = (   0.1875000   0.1875000   0.1875000), wk =   0.0156250
        k(   12) = (   0.1875000   0.1875000   0.3125000), wk =   0.0468750
        k(   13) = (   0.1875000   0.1875000   0.4375000), wk =   0.0468750
        k(   14) = (   0.1875000   0.3125000   0.3125000), wk =   0.0468750
        k(   15) = (   0.1875000   0.3125000   0.4375000), wk =   0.0937500
        k(   16) = (   0.1875000   0.4375000   0.4375000), wk =   0.0468750
        k(   17) = (   0.3125000   0.3125000   0.3125000), wk =   0.0156250
        k(   18) = (   0.3125000   0.3125000   0.4375000), wk =   0.0468750
        k(   19) = (   0.3125000   0.4375000   0.4375000), wk =   0.0468750
        k(   20) = (   0.4375000   0.4375000   0.4375000), wk =   0.0156250

                       cryst. coord.
        k(    1) = (   0.0625000   0.0625000   0.0625000), wk =   0.0156250
        k(    2) = (   0.0625000   0.0625000   0.1875000), wk =   0.0468750
        k(    3) = (   0.0625000   0.0625000   0.3125000), wk =   0.0468750
        k(    4) = (   0.0625000   0.0625000   0.4375000), wk =   0.0468750
        k(    5) = (   0.0625000   0.1875000   0.1875000), wk =   0.0468750
        k(    6) = (   0.0625000   0.1875000   0.3125000), wk =   0.0937500
        k(    7) = (   0.0625000   0.1875000   0.4375000), wk =   0.0937500
        k(    8) = (   0.0625000   0.3125000   0.3125000), wk =   0.0468750
        k(    9) = (   0.0625000   0.3125000   0.4375000), wk =   0.0937500
        k(   10) = (   0.0625000   0.4375000   0.4375000), wk =   0.0468750
        k(   11) = (   0.1875000   0.1875000   0.1875000), wk =   0.0156250
        k(   12) = (   0.1875000   0.1875000   0.3125000), wk =   0.0468750
        k(   13) = (   0.1875000   0.1875000   0.4375000), wk =   0.0468750
        k(   14) = (   0.1875000   0.3125000   0.3125000), wk =   0.0468750
        k(   15) = (   0.1875000   0.3125000   0.4375000), wk =   0.0937500
        k(   16) = (   0.1875000   0.4375000   0.4375000), wk =   0.0468750
        k(   17) = (   0.3125000   0.3125000   0.3125000), wk =   0.0156250
        k(   18) = (   0.3125000   0.3125000   0.4375000), wk =   0.0468750
        k(   19) = (   0.3125000   0.4375000   0.4375000), wk =   0.0468750
        k(   20) = (   0.4375000   0.4375000   0.4375000), wk =   0.0156250

     Dense  grid:    78997 G-vectors     FFT dimensions: (  54,  54,  54)

     Smooth grid:    43003 G-vectors     FFT dimensions: (  45,  45,  45)

     Dynamical RAM for                 wfc:       0.44 MB

     Dynamical RAM for     wfc (w. buffer):       9.19 MB

     Dynamical RAM for           str. fact:       0.10 MB

     Dynamical RAM for           local pot:       0.00 MB

     Dynamical RAM for          nlocal pot:       1.33 MB

     Dynamical RAM for                qrad:      34.17 MB

     Dynamical RAM for          rho,v,vnew:       1.40 MB

     Dynamical RAM for               rhoin:       0.47 MB

     Dynamical RAM for            rho*nmix:       3.21 MB

     Dynamical RAM for           G-vectors:       0.20 MB

     Dynamical RAM for          h,s,v(r/c):       0.33 MB

     Dynamical RAM for          <psi|beta>:       0.76 MB

     Dynamical RAM for                 psi:       1.75 MB

     Dynamical RAM for                hpsi:       1.75 MB

     Dynamical RAM for                spsi:       1.75 MB

     Dynamical RAM for      wfcinit/wfcrot:       0.86 MB

     Dynamical RAM for           addusdens:     102.76 MB

     Dynamical RAM for          addusforce:     104.06 MB

     Dynamical RAM for         addusstress:     104.07 MB

     Estimated static dynamical RAM per process >      50.76 MB

     Estimated max dynamical RAM per process >     154.82 MB

     Estimated total dynamical RAM >       3.63 GB

     Initial potential from superposition of free atoms

     starting charge   63.84620, renormalised to   64.00000
     Starting wfcs are   72 randomized atomic wfcs
     Checking if some PAW data can be deallocated... 
       PAW data deallocated on   12 nodes for type:  1
       PAW data deallocated on   12 nodes for type:  2

     total cpu time spent up to now is       16.6 secs

     Self-consistent Calculation

     iteration #  1     ecut=    60.00 Ry     beta= 0.50
     Davidson diagonalization with overlap
     ethr =  1.00E-02,  avg # of iterations =  6.7

     Threshold (ethr) on eigenvalues was too large:
     Diagonalizing with lowered threshold

     Davidson diagonalization with overlap
     c_bands:  1 eigenvalues not converged
     ethr =  1.57E-04,  avg # of iterations =  9.5

     total cpu time spent up to now is      102.2 secs

     total energy              =   -3131.14679183 Ry
     Harris-Foulkes estimate   =   -3131.18653551 Ry
     estimated scf accuracy    <       0.11878559 Ry

     iteration #  2     ecut=    60.00 Ry     beta= 0.50
     Davidson diagonalization with overlap
     ethr =  1.86E-04,  avg # of iterations =  2.2

     total cpu time spent up to now is      126.1 secs

     total energy              =   -3131.15003833 Ry
     Harris-Foulkes estimate   =   -3131.15435308 Ry
     estimated scf accuracy    <       0.02053745 Ry

     iteration #  3     ecut=    60.00 Ry     beta= 0.50
     Davidson diagonalization with overlap
     ethr =  3.21E-05,  avg # of iterations =  5.2

     total cpu time spent up to now is      163.4 secs

     total energy              =   -3131.16246833 Ry
     Harris-Foulkes estimate   =   -3131.16518073 Ry
     estimated scf accuracy    <       0.00464787 Ry

     iteration #  4     ecut=    60.00 Ry     beta= 0.50
     Davidson diagonalization with overlap
     ethr =  7.26E-06,  avg # of iterations =  3.5

     total cpu time spent up to now is      190.0 secs

     total energy              =   -3131.16325997 Ry
     Harris-Foulkes estimate   =   -3131.16321129 Ry
     estimated scf accuracy    <       0.00069760 Ry

     iteration #  5     ecut=    60.00 Ry     beta= 0.50
     Davidson diagonalization with overlap
     ethr =  1.09E-06,  avg # of iterations =  5.7

     total cpu time spent up to now is      231.9 secs

     total energy              =   -3131.16899352 Ry
     Harris-Foulkes estimate   =   -3131.16900075 Ry
     estimated scf accuracy    <       0.00003814 Ry

     iteration #  6     ecut=    60.00 Ry     beta= 0.50
     Davidson diagonalization with overlap
     ethr =  5.96E-08,  avg # of iterations =  7.4

     total cpu time spent up to now is      273.7 secs

     total energy              =   -3131.16899969 Ry
     Harris-Foulkes estimate   =   -3131.16900924 Ry
     estimated scf accuracy    <       0.00001219 Ry

     iteration #  7     ecut=    60.00 Ry     beta= 0.50
     Davidson diagonalization with overlap
     ethr =  1.90E-08,  avg # of iterations =  3.1

     total cpu time spent up to now is      300.5 secs

     End of self-consistent calculation

          k = 0.0625 0.0625 0.0625 (  5383 PWs)   bands (ev):

    -1.8642  -1.8642   2.5556   2.5556   2.5556   2.5556   2.5571   2.5571
     8.8513   8.8513   8.8514   8.8514   8.8516   8.8516  10.6217  10.6217
    10.6221  10.6221  10.6221  10.6221  12.4197  12.4197  12.4199  12.4199
    12.4199  12.4199  13.4525  13.4525  13.4526  13.4526  13.4527  13.4527
    14.4800  14.4800  15.9617  15.9617  16.6286  16.6286  19.2134  19.2134
    22.4055  22.4055  22.4055  22.4055  22.4055  22.4055  25.0334  25.0334
    26.3737  26.3737  26.3874  26.3874  26.8625  26.8625  26.9314  26.9314
    27.0637  27.0637  29.4168  29.4168  29.4168  29.4168  29.4169  29.4169

     occupation numbers 
     1.0000   1.0000   1.0000   1.0000   1.0000   1.0000   1.0000   1.0000
     1.0000   1.0000   1.0000   1.0000   1.0000   1.0000   1.0000   1.0000
     1.0000   1.0000   1.0000   1.0000   1.0000   1.0000   1.0000   1.0000
     1.0000   1.0000   1.0000   1.0000   1.0000   1.0000   1.0000   1.0000
     1.0000   1.0000   1.0000   1.0000   1.0000   1.0000   1.0000   1.0000
     1.0000   1.0000   1.0000   1.0000   1.0000   1.0000   1.0000   1.0000
     1.0000   1.0000   1.0000   1.0000   1.0000   1.0000   1.0000   1.0000
     1.0000   1.0000   1.0000   1.0000   1.0000   1.0000   1.0000   1.0000

          k = 0.0625 0.0625 0.1875 (  5376 PWs)   bands (ev):

    -1.6598  -1.6598   1.9127   1.9127   2.6522   2.6522   2.6533   2.6533
     8.8357   8.8357   8.8361   8.8361   9.3436   9.3436   9.6522   9.6522
     9.6524   9.6524  11.3574  11.3574  12.2448  12.2448  12.2450  12.2450
    12.6599  12.6599  13.6065  13.6065  13.6925  13.6925  14.9590  14.9590
    14.9590  14.9590  15.3917  15.3917  16.3772  16.3772  20.5420  20.5420
    22.5837  22.5837  23.1912  23.1912  23.1912  23.1912  23.5830  23.5830
    25.6854  25.6854  25.9996  25.9996  26.6752  26.6752  27.6616  27.6616
    27.7296  27.7296  27.7296  27.7296  27.8601  27.8601  28.8966  28.8966

     occupation numbers 
     1.0000   1.0000   1.0000   1.0000   1.0000   1.0000   1.0000   1.0000
     1.0000   1.0000   1.0000   1.0000   1.0000   1.0000   1.0000   1.0000
     1.0000   1.0000   1.0000   1.0000   1.0000   1.0000   1.0000   1.0000
     1.0000   1.0000   1.0000   1.0000   1.0000   1.0000   1.0000   1.0000
     1.0000   1.0000   1.0000   1.0000   1.0000   1.0000   1.0000   1.0000
     1.0000   1.0000   1.0000   1.0000   1.0000   1.0000   1.0000   1.0000
     1.0000   1.0000   1.0000   1.0000   1.0000   1.0000   1.0000   1.0000
     1.0000   1.0000   1.0000   1.0000   1.0000   1.0000   1.0000   1.0000

          k = 0.0625 0.0625 0.3125 (  5358 PWs)   bands (ev):

    -1.2544  -1.2544   1.0091   1.0091   2.8045   2.8045   2.8057   2.8057
     8.2244   8.2244   8.2250   8.2250   9.6631   9.6631   9.6634   9.6634
     9.9489   9.9489  11.6008  11.6008  11.6010  11.6010  12.5100  12.5100
    12.5263  12.5263  13.2953  13.2953  14.2817  14.2817  14.7239  14.7239
    15.7614  15.7614  17.0809  17.0809  17.0810  17.0810  20.5805  20.5805
    22.9382  22.9382  23.0117  23.0117  24.5547  24.5547  24.5547  24.5547
    24.9831  24.9831  25.1848  25.1848  25.1848  25.1848  26.0522  26.0522
    27.0074  27.0074  28.1013  28.1013  29.0023  29.0023  29.2019  29.2019

     occupation numbers 
     1.0000   1.0000   1.0000   1.0000   1.0000   1.0000   1.0000   1.0000
     1.0000   1.0000   1.0000   1.0000   1.0000   1.0000   1.0000   1.0000
     1.0000   1.0000   1.0000   1.0000   1.0000   1.0000   1.0000   1.0000
     1.0000   1.0000   1.0000   1.0000   1.0000   1.0000   1.0000   1.0000
     1.0000   1.0000   1.0000   1.0000   1.0000   1.0000   1.0000   1.0000
     1.0000   1.0000   1.0000   1.0000   1.0000   1.0000   1.0000   1.0000
     1.0000   1.0000   1.0000   1.0000   1.0000   1.0000   1.0000   1.0000
     1.0000   1.0000   1.0000   1.0000   1.0000   1.0000   1.0000   1.0000

          k = 0.0625 0.0625 0.4375 (  5376 PWs)   bands (ev):

    -0.6563  -0.6563   0.1141   0.1141   2.9267   2.9267   2.9279   2.9279
     7.7206   7.7206   7.7212   7.7212  10.1433  10.1433  10.1438  10.1438
    10.6483  10.6483  10.8924  10.8924  10.8929  10.8929  11.5001  11.5001
    13.3126  13.3126  14.0102  14.0102  14.2466  14.2466  15.0217  15.0217
    15.7917  15.7917  18.1055  18.1055  19.3081  19.3081  19.3082  19.3082
    22.6529  22.6529  22.6530  22.6530  23.4641  23.4641  24.1434  24.1434
    25.2685  25.2685  26.3646  26.3646  26.3646  26.3646  26.5974  26.5974
    27.2162  27.2162  27.6378  27.6378  27.8279  27.8279  28.3992  28.3992

     occupation numbers 
     1.0000   1.0000   1.0000   1.0000   1.0000   1.0000   1.0000   1.0000
     1.0000   1.0000   1.0000   1.0000   1.0000   1.0000   1.0000   1.0000
     1.0000   1.0000   1.0000   1.0000   1.0000   1.0000   1.0000   1.0000
     1.0000   1.0000   1.0000   1.0000   1.0000   1.0000   1.0000   1.0000
     1.0000   1.0000   1.0000   1.0000   1.0000   1.0000   1.0000   1.0000
     1.0000   1.0000   1.0000   1.0000   1.0000   1.0000   1.0000   1.0000
     1.0000   1.0000   1.0000   1.0000   1.0000   1.0000   1.0000   1.0000
     1.0000   1.0000   1.0000   1.0000   1.0000   1.0000   1.0000   1.0000

          k = 0.0625 0.1875 0.1875 (  5375 PWs)   bands (ev):

    -1.4570  -1.4570   2.0452   2.0452   2.0461   2.0461   2.7131   2.7131
     8.2570   8.2570   8.7778   8.7778   8.7785   8.7785   9.4855   9.4855
    10.9196  10.9196  10.9201  10.9201  12.4651  12.4651  12.4653  12.4653
    12.5627  12.5627  13.0595  13.0595  15.1808  15.1808  15.1934  15.1934
    15.1938  15.1938  15.2295  15.2295  16.7108  16.7108  21.0525  21.0525
    23.2837  23.2837  23.3641  23.3641  23.3641  23.3641  24.0045  24.0045
    24.3839  24.3839  25.8862  25.8862  27.0816  27.0816  27.1165  27.1165
    27.1167  27.1167  27.2380  27.2380  27.2559  27.2559  28.5200  28.5200

     occupation numbers 
     1.0000   1.0000   1.0000   1.0000   1.0000   1.0000   1.0000   1.0000
     1.0000   1.0000   1.0000   1.0000   1.0000   1.0000   1.0000   1.0000
     1.0000   1.0000   1.0000   1.0000   1.0000   1.0000   1.0000   1.0000
     1.0000   1.0000   1.0000   1.0000   1.0000   1.0000   1.0000   1.0000
     1.0000   1.0000   1.0000   1.0000   1.0000   1.0000   1.0000   1.0000
     1.0000   1.0000   1.0000   1.0000   1.0000   1.0000   1.0000   1.0000
     1.0000   1.0000   1.0000   1.0000   1.0000   1.0000   1.0000   1.0000
     1.0000   1.0000   1.0000   1.0000   1.0000   1.0000   1.0000   1.0000

          k = 0.0625 0.1875 0.3125 (  5365 PWs)   bands (ev):

    -1.0549  -1.0549   1.1733   1.1733   2.2823   2.2823   2.7762   2.7762
     7.5016   7.5016   7.9446   7.9446   9.0763   9.0763   9.8037   9.8037
    11.0452  11.0452  11.4319  11.4319  11.8564  11.8564  12.4468  12.4468
    12.8859  12.8859  13.0831  13.0831  14.6021  14.6021  15.7019  15.7019
    16.5378  16.5378  16.7585  16.7585  17.2850  17.2850  20.9156  20.9156
    22.6443  22.6443  23.7043  23.7043  24.2927  24.2927  24.4727  24.4727
    24.8013  24.8013  25.0295  25.0295  25.5647  25.5647  25.5796  25.5796
    26.2535  26.2535  27.0064  27.0064  28.4736  28.4736  28.9523  28.9523

     occupation numbers 
     1.0000   1.0000   1.0000   1.0000   1.0000   1.0000   1.0000   1.0000
     1.0000   1.0000   1.0000   1.0000   1.0000   1.0000   1.0000   1.0000
     1.0000   1.0000   1.0000   1.0000   1.0000   1.0000   1.0000   1.0000
     1.0000   1.0000   1.0000   1.0000   1.0000   1.0000   1.0000   1.0000
     1.0000   1.0000   1.0000   1.0000   1.0000   1.0000   1.0000   1.0000
     1.0000   1.0000   1.0000   1.0000   1.0000   1.0000   1.0000   1.0000
     1.0000   1.0000   1.0000   1.0000   1.0000   1.0000   1.0000   1.0000
     1.0000   1.0000   1.0000   1.0000   1.0000   1.0000   1.0000   1.0000

          k = 0.0625 0.1875 0.4375 (  5377 PWs)   bands (ev):

    -0.4629  -0.4629   0.2969   0.2969   2.5513   2.5513   2.7403   2.7403
     7.1455   7.1455   7.3215   7.3215   9.6445   9.6445  10.3311  10.3311
    10.4397  10.4397  10.9498  10.9498  11.6918  11.6918  12.2638  12.2638
    13.2345  13.2345  13.9120  13.9120  14.6319  14.6319  15.8408  15.8408
    16.6897  16.6897  18.5526  18.5526  18.8771  18.8771  19.4204  19.4204
    22.1200  22.1200  22.6918  22.6918  24.1868  24.1868  24.2596  24.2596
    24.9005  24.9005  25.1891  25.1891  25.3880  25.3880  26.5057  26.5057
    27.1917  27.1917  27.2052  27.2052  27.5051  27.5051  28.3435  28.3435

     occupation numbers 
     1.0000   1.0000   1.0000   1.0000   1.0000   1.0000   1.0000   1.0000
     1.0000   1.0000   1.0000   1.0000   1.0000   1.0000   1.0000   1.0000
     1.0000   1.0000   1.0000   1.0000   1.0000   1.0000   1.0000   1.0000
     1.0000   1.0000   1.0000   1.0000   1.0000   1.0000   1.0000   1.0000
     1.0000   1.0000   1.0000   1.0000   1.0000   1.0000   1.0000   1.0000
     1.0000   1.0000   1.0000   1.0000   1.0000   1.0000   1.0000   1.0000
     1.0000   1.0000   1.0000   1.0000   1.0000   1.0000   1.0000   1.0000
     1.0000   1.0000   1.0000   1.0000   1.0000   1.0000   1.0000   1.0000

          k = 0.0625 0.3125 0.3125 (  5384 PWs)   bands (ev):

    -0.6604  -0.6604   1.4844   1.4844   1.4853   1.4853   2.6400   2.6400
     6.9351   6.9351   8.0779   8.0779   8.0786   8.0786  10.1706  10.1706
    10.2921  10.2921  12.0609  12.0609  12.0612  12.0612  13.1213  13.1213
    13.1220  13.1220  14.0149  14.0149  14.0562  14.0562  16.8534  16.8534
    17.1586  17.1586  17.6962  17.6962  17.6966  17.6966  21.2719  21.2719
    22.1643  22.1643  22.6792  22.6792  23.6650  23.6650  23.6652  23.6652
    24.6438  24.6438  25.0678  25.0678  25.0678  25.0678  26.1438  26.1438
    26.4545  26.4545  27.8722  27.8722  27.9217  27.9217  27.9701  27.9701

     occupation numbers 
     1.0000   1.0000   1.0000   1.0000   1.0000   1.0000   1.0000   1.0000
     1.0000   1.0000   1.0000   1.0000   1.0000   1.0000   1.0000   1.0000
     1.0000   1.0000   1.0000   1.0000   1.0000   1.0000   1.0000   1.0000
     1.0000   1.0000   1.0000   1.0000   1.0000   1.0000   1.0000   1.0000
     1.0000   1.0000   1.0000   1.0000   1.0000   1.0000   1.0000   1.0000
     1.0000   1.0000   1.0000   1.0000   1.0000   1.0000   1.0000   1.0000
     1.0000   1.0000   1.0000   1.0000   1.0000   1.0000   1.0000   1.0000
     1.0000   1.0000   1.0000   1.0000   1.0000   1.0000   1.0000   1.0000

          k = 0.0625 0.3125 0.4375 (  5371 PWs)   bands (ev):

    -0.0822  -0.0822   0.6528   0.6528   1.8996   1.8996   2.3275   2.3275
     6.8637   6.8637   7.2878   7.2878   8.5598   8.5598   9.3138   9.3138
    10.7133  10.7133  11.3781  11.3781  12.6451  12.6451  13.3135  13.3135
    13.5510  13.5510  14.0439  14.0439  15.1185  15.1185  16.7215  16.7215
    18.3410  18.3410  18.3633  18.3633  19.5568  19.5568  19.5672  19.5672
    21.5195  21.5195  22.2892  22.2892  22.7797  22.7797  22.8718  22.8718
    24.0270  24.0270  25.4054  25.4054  26.0980  26.0980  26.4332  26.4332
    26.6968  26.6968  26.9323  26.9323  27.8907  27.8907  27.9966  27.9966

     occupation numbers 
     1.0000   1.0000   1.0000   1.0000   1.0000   1.0000   1.0000   1.0000
     1.0000   1.0000   1.0000   1.0000   1.0000   1.0000   1.0000   1.0000
     1.0000   1.0000   1.0000   1.0000   1.0000   1.0000   1.0000   1.0000
     1.0000   1.0000   1.0000   1.0000   1.0000   1.0000   1.0000   1.0000
     1.0000   1.0000   1.0000   1.0000   1.0000   1.0000   1.0000   1.0000
     1.0000   1.0000   1.0000   1.0000   1.0000   1.0000   1.0000   1.0000
     1.0000   1.0000   1.0000   1.0000   1.0000   1.0000   1.0000   1.0000
     1.0000   1.0000   1.0000   1.0000   1.0000   1.0000   1.0000   1.0000

          k = 0.0625 0.4375 0.4375 (  5362 PWs)   bands (ev):

     0.4697   0.4697   1.1560   1.1560   1.1569   1.1569   1.7513   1.7513
     7.0647   7.0647   7.6643   7.6643   7.6651   7.6651   8.3632   8.3632
    11.2616  11.2616  11.9321  11.9321  11.9324  11.9324  12.6022  12.6022
    15.4238  15.4238  15.5305  15.5305  15.5314  15.5314  16.8237  16.8237
    18.4321  18.4321  19.6179  19.6179  19.6179  19.6179  20.1317  20.1317
    20.9502  20.9502  21.2218  21.2218  21.2222  21.2222  22.3886  22.3886
    24.0219  24.0219  25.4469  25.4469  25.4470  25.4470  25.5016  25.5016
    27.0893  27.0893  27.2402  27.2402  27.2403  27.2403  28.5475  28.5475

     occupation numbers 
     1.0000   1.0000   1.0000   1.0000   1.0000   1.0000   1.0000   1.0000
     1.0000   1.0000   1.0000   1.0000   1.0000   1.0000   1.0000   1.0000
     1.0000   1.0000   1.0000   1.0000   1.0000   1.0000   1.0000   1.0000
     1.0000   1.0000   1.0000   1.0000   1.0000   1.0000   1.0000   1.0000
     1.0000   1.0000   1.0000   1.0000   1.0000   1.0000   1.0000   1.0000
     1.0000   1.0000   1.0000   1.0000   1.0000   1.0000   1.0000   1.0000
     1.0000   1.0000   1.0000   1.0000   1.0000   1.0000   1.0000   1.0000
     1.0000   1.0000   1.0000   1.0000   1.0000   1.0000   1.0000   1.0000

          k = 0.1875 0.1875 0.1875 (  5353 PWs)   bands (ev):

    -1.2560  -1.2560   2.1546   2.1546   2.1546   2.1546   2.1561   2.1561
     8.0317   8.0317   8.0326   8.0326   8.0327   8.0327  10.8748  10.8748
    10.8748  10.8748  10.8755  10.8755  11.5612  11.5612  13.2633  13.2633
    13.2636  13.2636  13.2636  13.2636  15.4709  15.4709  15.4714  15.4714
    15.4714  15.4714  15.5656  15.5656  16.6920  16.6920  21.1439  21.1439
    23.1170  23.1170  24.0763  24.0763  24.1603  24.1603  24.1603  24.1603
    24.1604  24.1604  25.0350  25.0350  26.6904  26.6904  26.6905  26.6905
    26.6905  26.6905  27.2629  27.2629  28.0091  28.0091  28.0575  28.0575

     occupation numbers 
     1.0000   1.0000   1.0000   1.0000   1.0000   1.0000   1.0000   1.0000
     1.0000   1.0000   1.0000   1.0000   1.0000   1.0000   1.0000   1.0000
     1.0000   1.0000   1.0000   1.0000   1.0000   1.0000   1.0000   1.0000
     1.0000   1.0000   1.0000   1.0000   1.0000   1.0000   1.0000   1.0000
     1.0000   1.0000   1.0000   1.0000   1.0000   1.0000   1.0000   1.0000
     1.0000   1.0000   1.0000   1.0000   1.0000   1.0000   1.0000   1.0000
     1.0000   1.0000   1.0000   1.0000   1.0000   1.0000   1.0000   1.0000
     1.0000   1.0000   1.0000   1.0000   1.0000   1.0000   1.0000   1.0000

          k = 0.1875 0.1875 0.3125 (  5369 PWs)   bands (ev):

    -0.8579  -0.8579   1.3250   1.3250   2.3302   2.3302   2.3313   2.3313
     7.2003   7.2003   7.2011   7.2011   8.2157   8.2157  10.4545  10.4545
    11.1481  11.1481  11.1487  11.1487  12.6272  12.6272  13.1103  13.1103
    13.1106  13.1106  13.6992  13.6992  15.2513  15.2513  15.9964  15.9964
    16.5720  16.5720  16.9728  16.9728  16.9729  16.9729  21.0809  21.0809
    22.1696  22.1696  23.9410  23.9410  24.4375  24.4375  24.5125  24.5125
    24.5126  24.5126  25.2041  25.2041  25.6021  25.6021  25.6022  25.6022
    25.9043  25.9043  26.8539  26.8539  27.3214  27.3214  28.3011  28.3013

     occupation numbers 
     1.0000   1.0000   1.0000   1.0000   1.0000   1.0000   1.0000   1.0000
     1.0000   1.0000   1.0000   1.0000   1.0000   1.0000   1.0000   1.0000
     1.0000   1.0000   1.0000   1.0000   1.0000   1.0000   1.0000   1.0000
     1.0000   1.0000   1.0000   1.0000   1.0000   1.0000   1.0000   1.0000
     1.0000   1.0000   1.0000   1.0000   1.0000   1.0000   1.0000   1.0000
     1.0000   1.0000   1.0000   1.0000   1.0000   1.0000   1.0000   1.0000
     1.0000   1.0000   1.0000   1.0000   1.0000   1.0000   1.0000   1.0000
     1.0000   1.0000   1.0000   1.0000   1.0000   1.0000   1.0000   1.0000

          k = 0.1875 0.1875 0.4375 (  5373 PWs)   bands (ev):

    -0.2734  -0.2734   0.4730   0.4730   2.4747   2.4747   2.4759   2.4759
     6.6882   6.6882   6.6891   6.6891   8.7233   8.7233   9.4851   9.4851
    11.5558  11.5558  11.5568  11.5568  12.5816  12.5816  12.5823  12.5823
    13.9304  13.9304  14.6350  14.6350  14.7301  14.7301  15.9157  15.9157
    16.9939  16.9939  18.8012  18.8012  19.0286  19.0286  19.0287  19.0287
    22.1407  22.1407  22.1409  22.1409  23.6290  23.6290  24.4477  24.4477
    24.5817  24.5817  25.1738  25.1738  25.7650  25.7650  26.2517  26.2517
    26.3424  26.3424  27.1316  27.1316  27.1318  27.1318  27.2896  27.2896

     occupation numbers 
     1.0000   1.0000   1.0000   1.0000   1.0000   1.0000   1.0000   1.0000
     1.0000   1.0000   1.0000   1.0000   1.0000   1.0000   1.0000   1.0000
     1.0000   1.0000   1.0000   1.0000   1.0000   1.0000   1.0000   1.0000
     1.0000   1.0000   1.0000   1.0000   1.0000   1.0000   1.0000   1.0000
     1.0000   1.0000   1.0000   1.0000   1.0000   1.0000   1.0000   1.0000
     1.0000   1.0000   1.0000   1.0000   1.0000   1.0000   1.0000   1.0000
     1.0000   1.0000   1.0000   1.0000   1.0000   1.0000   1.0000   1.0000
     1.0000   1.0000   1.0000   1.0000   1.0000   1.0000   1.0000   1.0000

          k = 0.1875 0.3125 0.3125 (  5380 PWs)   bands (ev):

    -0.4691  -0.4691   1.6035   1.6035   1.6045   1.6045   2.3547   2.3547
     6.5063   6.5063   7.2590   7.2590   7.2597   7.2597   9.3612   9.3612
    11.4936  11.4936  12.8119  12.8119  12.8123  12.8123  13.6992  13.6992
    13.6998  13.6998  14.2513  14.2513  15.0582  15.0582  16.9809  16.9809
    17.0761  17.0761  17.4132  17.4132  17.4137  17.4137  21.2489  21.2489
    21.9427  21.9427  22.3271  22.3271  23.7024  23.7024  23.7026  23.7026
    24.1291  24.1291  25.2021  25.2021  25.6557  25.6557  25.6558  25.6558
    25.9106  25.9106  27.3744  27.3744  27.3745  27.3745  27.6362  27.6362

     occupation numbers 
     1.0000   1.0000   1.0000   1.0000   1.0000   1.0000   1.0000   1.0000
     1.0000   1.0000   1.0000   1.0000   1.0000   1.0000   1.0000   1.0000
     1.0000   1.0000   1.0000   1.0000   1.0000   1.0000   1.0000   1.0000
     1.0000   1.0000   1.0000   1.0000   1.0000   1.0000   1.0000   1.0000
     1.0000   1.0000   1.0000   1.0000   1.0000   1.0000   1.0000   1.0000
     1.0000   1.0000   1.0000   1.0000   1.0000   1.0000   1.0000   1.0000
     1.0000   1.0000   1.0000   1.0000   1.0000   1.0000   1.0000   1.0000
     1.0000   1.0000   1.0000   1.0000   1.0000   1.0000   1.0000   1.0000

          k = 0.1875 0.3125 0.4375 (  5389 PWs)   bands (ev):

     0.0981   0.0981   0.8122   0.8122   1.9473   1.9473   2.2360   2.2360
     6.2552   6.2552   6.5442   6.5442   7.6907   7.6907   8.4125   8.4125
    11.9990  11.9990  12.5560  12.5560  13.7685  13.7685  13.8348  13.8348
    14.2583  14.2583  14.4459  14.4459  15.2462  15.2462  16.6542  16.6542
    18.1589  18.1589  18.5272  18.5272  19.2842  19.2842  19.5170  19.5170
    21.4546  21.4546  22.2487  22.2487  22.3014  22.3014  22.9062  22.9062
    23.1554  23.1554  24.8386  24.8386  25.8038  25.8038  25.9935  25.9935
    26.2677  26.2677  26.7672  26.7672  27.1367  27.1367  27.5672  27.5672

     occupation numbers 
     1.0000   1.0000   1.0000   1.0000   1.0000   1.0000   1.0000   1.0000
     1.0000   1.0000   1.0000   1.0000   1.0000   1.0000   1.0000   1.0000
     1.0000   1.0000   1.0000   1.0000   1.0000   1.0000   1.0000   1.0000
     1.0000   1.0000   1.0000   1.0000   1.0000   1.0000   1.0000   1.0000
     1.0000   1.0000   1.0000   1.0000   1.0000   1.0000   1.0000   1.0000
     1.0000   1.0000   1.0000   1.0000   1.0000   1.0000   1.0000   1.0000
     1.0000   1.0000   1.0000   1.0000   1.0000   1.0000   1.0000   1.0000
     1.0000   1.0000   1.0000   1.0000   1.0000   1.0000   1.0000   1.0000

          k = 0.1875 0.4375 0.4375 (  5379 PWs)   bands (ev):

     0.6312   0.6312   1.2794   1.2794   1.2804   1.2804   1.7994   1.7994
     6.3232   6.3232   6.8450   6.8450   6.8457   6.8457   7.4988   7.4988
    12.5427  12.5427  13.1732  13.1732  13.1734  13.1734  13.8251  13.8251
    15.5976  15.5976  15.6959  15.6959  15.6968  15.6968  16.8825  16.8825
    18.6333  18.6333  19.5741  19.5741  19.5743  19.5743  20.2277  20.2277
    20.7205  20.7205  20.9989  20.9989  20.9991  20.9991  21.9330  21.9330
    23.0404  23.0404  24.4126  24.4126  24.4127  24.4127  24.4575  24.4575
    26.3216  26.3216  27.1232  27.1232  27.1233  27.1233  27.8344  27.8344

     occupation numbers 
     1.0000   1.0000   1.0000   1.0000   1.0000   1.0000   1.0000   1.0000
     1.0000   1.0000   1.0000   1.0000   1.0000   1.0000   1.0000   1.0000
     1.0000   1.0000   1.0000   1.0000   1.0000   1.0000   1.0000   1.0000
     1.0000   1.0000   1.0000   1.0000   1.0000   1.0000   1.0000   1.0000
     1.0000   1.0000   1.0000   1.0000   1.0000   1.0000   1.0000   1.0000
     1.0000   1.0000   1.0000   1.0000   1.0000   1.0000   1.0000   1.0000
     1.0000   1.0000   1.0000   1.0000   1.0000   1.0000   1.0000   1.0000
     1.0000   1.0000   1.0000   1.0000   1.0000   1.0000   1.0000   1.0000

          k = 0.3125 0.3125 0.3125 (  5388 PWs)   bands (ev):

    -0.0936  -0.0936   1.7975   1.7975   1.7975   1.7975   1.7991   1.7991
     6.3933   6.3933   6.3944   6.3944   6.3944   6.3944   8.2977   8.2977
    13.2944  13.2944  13.2944  13.2944  13.2954  13.2954  14.6539  14.6539
    14.6542  14.6542  14.6543  14.6543  15.7776  15.7776  16.9037  16.9037
    17.5379  17.5379  17.5385  17.5385  17.5386  17.5386  21.1160  21.1160
    21.6057  21.6057  21.9961  21.9961  23.3754  23.3754  23.3755  23.3755
    23.3755  23.3755  23.8199  23.8199  24.8538  24.8538  24.8539  24.8539
    24.8545  24.8545  27.2211  27.2211  27.2218  27.2218  27.2218  27.2218

     occupation numbers 
     1.0000   1.0000   1.0000   1.0000   1.0000   1.0000   1.0000   1.0000
     1.0000   1.0000   1.0000   1.0000   1.0000   1.0000   1.0000   1.0000
     1.0000   1.0000   1.0000   1.0000   1.0000   1.0000   1.0000   1.0000
     1.0000   1.0000   1.0000   1.0000   1.0000   1.0000   1.0000   1.0000
     1.0000   1.0000   1.0000   1.0000   1.0000   1.0000   1.0000   1.0000
     1.0000   1.0000   1.0000   1.0000   1.0000   1.0000   1.0000   1.0000
     1.0000   1.0000   1.0000   1.0000   1.0000   1.0000   1.0000   1.0000
     1.0000   1.0000   1.0000   1.0000   1.0000   1.0000   1.0000   1.0000

          k = 0.3125 0.3125 0.4375 (  5383 PWs)   bands (ev):

     0.4469   0.4469   1.1087   1.1087   1.9604   1.9604   1.9617   1.9617
     5.8612   5.8612   5.8620   5.8620   6.7177   6.7177   7.3824   7.3824
    13.6740  13.6740  13.6750  13.6750  14.7750  14.7750  14.7756  14.7756
    14.7933  14.7933  15.4702  15.4702  15.5458  15.5458  16.7073  16.7073
    18.3285  18.3285  18.8842  18.8842  18.8843  18.8843  19.7074  19.7074
    21.5271  21.5271  21.5272  21.5272  21.9786  21.9786  22.2504  22.2504
    22.6193  22.6193  23.5606  23.5606  24.2029  24.2029  24.7353  24.7353
    24.7362  24.7362  25.4334  25.4334  26.6753  26.6753  26.6761  26.6761

     occupation numbers 
     1.0000   1.0000   1.0000   1.0000   1.0000   1.0000   1.0000   1.0000
     1.0000   1.0000   1.0000   1.0000   1.0000   1.0000   1.0000   1.0000
     1.0000   1.0000   1.0000   1.0000   1.0000   1.0000   1.0000   1.0000
     1.0000   1.0000   1.0000   1.0000   1.0000   1.0000   1.0000   1.0000
     1.0000   1.0000   1.0000   1.0000   1.0000   1.0000   1.0000   1.0000
     1.0000   1.0000   1.0000   1.0000   1.0000   1.0000   1.0000   1.0000
     1.0000   1.0000   1.0000   1.0000   1.0000   1.0000   1.0000   1.0000
     1.0000   1.0000   1.0000   1.0000   1.0000   1.0000   1.0000   1.0000

          k = 0.3125 0.4375 0.4375 (  5390 PWs)   bands (ev):

     0.9324   0.9324   1.4818   1.4818   1.4829   1.4829   1.8114   1.8114
     5.6430   5.6430   5.9724   5.9724   5.9732   5.9732   6.5241   6.5241
    14.2839  14.2839  14.7559  14.7559  14.7560  14.7560  15.3396  15.3396
    15.9496  15.9496  16.0375  16.0375  16.0385  16.0385  16.9815  16.9815
    19.0201  19.0201  19.4053  19.4053  19.4058  19.4058  20.1089  20.1089
    20.7458  20.7458  20.9312  20.9312  20.9313  20.9313  21.2809  21.2809
    22.0347  22.0347  23.1838  23.1838  23.1839  23.1839  23.2497  23.2497
    24.1962  24.1962  25.0808  25.0808  25.0810  25.0810  25.6099  25.6099

     occupation numbers 
     1.0000   1.0000   1.0000   1.0000   1.0000   1.0000   1.0000   1.0000
     1.0000   1.0000   1.0000   1.0000   1.0000   1.0000   1.0000   1.0000
     1.0000   1.0000   1.0000   1.0000   1.0000   1.0000   1.0000   1.0000
     1.0000   1.0000   1.0000   1.0000   1.0000   1.0000   1.0000   1.0000
     1.0000   1.0000   1.0000   1.0000   1.0000   1.0000   1.0000   1.0000
     1.0000   1.0000   1.0000   1.0000   1.0000   1.0000   1.0000   1.0000
     1.0000   1.0000   1.0000   1.0000   1.0000   1.0000   1.0000   1.0000
     1.0000   1.0000   1.0000   1.0000   1.0000   1.0000   1.0000   1.0000

          k = 0.4375 0.4375 0.4375 (  5409 PWs)   bands (ev):

     1.3142   1.3142   1.6533   1.6533   1.6533   1.6533   1.6552   1.6552
     5.4311   5.4311   5.4324   5.4324   5.4324   5.4324   5.7721   5.7721
    15.7044  15.7044  15.7045  15.7045  15.7056  15.7056  16.0870  16.0870
    16.6441  16.6441  16.6447  16.6447  16.6450  16.6450  17.2110  17.2110
    19.5243  19.5243  19.5252  19.5252  19.5253  19.5253  19.8912  19.8912
    20.6818  20.6818  20.7219  20.7219  20.7221  20.7221  20.7222  20.7222
    21.5512  21.5512  22.1071  22.1071  22.1074  22.1074  22.1080  22.1080
    23.0572  23.0572  23.7705  23.7705  23.7713  23.7713  23.7714  23.7714

     occupation numbers 
     1.0000   1.0000   1.0000   1.0000   1.0000   1.0000   1.0000   1.0000
     1.0000   1.0000   1.0000   1.0000   1.0000   1.0000   1.0000   1.0000
     1.0000   1.0000   1.0000   1.0000   1.0000   1.0000   1.0000   1.0000
     1.0000   1.0000   1.0000   1.0000   1.0000   1.0000   1.0000   1.0000
     1.0000   1.0000   1.0000   1.0000   1.0000   1.0000   1.0000   1.0000
     1.0000   1.0000   1.0000   1.0000   1.0000   1.0000   1.0000   1.0000
     1.0000   1.0000   1.0000   1.0000   1.0000   1.0000   1.0000   1.0000
     1.0000   1.0000   1.0000   1.0000   1.0000   1.0000   1.0000   1.0000

     highest occupied level (ev):    29.4169

!    total energy              =   -3131.16900119 Ry
     Harris-Foulkes estimate   =   -3131.16900179 Ry
     estimated scf accuracy    <       0.00000076 Ry

     total all-electron energy =   -119218.225129 Ry

     The total energy is the sum of the following terms:

     one-electron contribution =     153.66541157 Ry
     hartree contribution      =       5.40064363 Ry
     xc contribution           =    -157.39869958 Ry
     ewald contribution        =    -332.73169529 Ry
     one-center paw contrib.   =   -2800.10466152 Ry
      -> PAW hartree energy AE =      42.87270612 Ry
      -> PAW hartree energy PS =     -42.76016491 Ry
      -> PAW xc energy AE      =    -381.07970081 Ry
      -> PAW xc energy PS      =      22.83596790 Ry
      -> total E_H with PAW    =       5.51318484 Ry
      -> total E_XC with PAW   =    -515.64243249 Ry

     convergence has been achieved in   7 iterations

     Forces acting on atoms (cartesian axes, Ry/au):

     atom    1 type  1   force =     0.00000000    0.00000000   -0.00000000
     atom    2 type  1   force =     0.00000000    0.00000000   -0.00000000
     atom    3 type  1   force =     0.00000000    0.00000000    0.00000000
     atom    4 type  1   force =     0.00000000    0.00000000    0.00000000
     atom    5 type  2   force =     0.00000000    0.00000000    0.00000000
     atom    6 type  2   force =     0.00000000    0.00000000    0.00000000
     atom    7 type  2   force =     0.00000000    0.00000000    0.00000000
     atom    8 type  2   force =     0.00000000    0.00000000    0.00000000
     The non-local contrib.  to forces
     atom    1 type  1   force =     0.00000000    0.00000000    0.00000000
     atom    2 type  1   force =     0.00000000    0.00000000   -0.00000000
     atom    3 type  1   force =     0.00000000    0.00000000    0.00000000
     atom    4 type  1   force =     0.00000000    0.00000000    0.00000000
     atom    5 type  2   force =     0.00000000    0.00000000    0.00000000
     atom    6 type  2   force =     0.00000000    0.00000000    0.00000000
     atom    7 type  2   force =     0.00000000    0.00000000    0.00000000
     atom    8 type  2   force =     0.00000000    0.00000000    0.00000000
     The ionic contribution  to forces
     atom    1 type  1   force =    -0.00000000   -0.00000000   -0.00000000
     atom    2 type  1   force =    -0.00000000    0.00000000    0.00000000
     atom    3 type  1   force =     0.00000000   -0.00000000    0.00000000
     atom    4 type  1   force =     0.00000000    0.00000000   -0.00000000
     atom    5 type  2   force =     0.00000000   -0.00000000   -0.00000000
     atom    6 type  2   force =     0.00000000    0.00000000    0.00000000
     atom    7 type  2   force =    -0.00000000   -0.00000000    0.00000000
     atom    8 type  2   force =    -0.00000000    0.00000000   -0.00000000
     The local contribution  to forces
     atom    1 type  1   force =     0.00000000    0.00000000   -0.00000000
     atom    2 type  1   force =     0.00000000    0.00000000    0.00000000
     atom    3 type  1   force =     0.00000000    0.00000000    0.00000000
     atom    4 type  1   force =     0.00000000    0.00000000   -0.00000000
     atom    5 type  2   force =     0.00000000    0.00000000   -0.00000000
     atom    6 type  2   force =     0.00000000    0.00000000    0.00000000
     atom    7 type  2   force =     0.00000000    0.00000000    0.00000000
     atom    8 type  2   force =     0.00000000    0.00000000   -0.00000000
     The core correction contribution to forces
     atom    1 type  1   force =     0.00000000    0.00000000    0.00000000
     atom    2 type  1   force =     0.00000000    0.00000000    0.00000000
     atom    3 type  1   force =     0.00000000    0.00000000    0.00000000
     atom    4 type  1   force =     0.00000000    0.00000000   -0.00000000
     atom    5 type  2   force =     0.00000000    0.00000000   -0.00000000
     atom    6 type  2   force =     0.00000000    0.00000000    0.00000000
     atom    7 type  2   force =     0.00000000    0.00000000    0.00000000
     atom    8 type  2   force =     0.00000000    0.00000000   -0.00000000
     The Hubbard contrib.    to forces
     atom    1 type  1   force =     0.00000000    0.00000000    0.00000000
     atom    2 type  1   force =     0.00000000    0.00000000    0.00000000
     atom    3 type  1   force =     0.00000000    0.00000000    0.00000000
     atom    4 type  1   force =     0.00000000    0.00000000    0.00000000
     atom    5 type  2   force =     0.00000000    0.00000000    0.00000000
     atom    6 type  2   force =     0.00000000    0.00000000    0.00000000
     atom    7 type  2   force =     0.00000000    0.00000000    0.00000000
     atom    8 type  2   force =     0.00000000    0.00000000    0.00000000
     The SCF correction term to forces
     atom    1 type  1   force =    -0.00000000    0.00000000   -0.00000000
     atom    2 type  1   force =     0.00000000   -0.00000000   -0.00000000
     atom    3 type  1   force =     0.00000000   -0.00000000   -0.00000000
     atom    4 type  1   force =     0.00000000    0.00000000   -0.00000000
     atom    5 type  2   force =     0.00000000    0.00000000   -0.00000000
     atom    6 type  2   force =     0.00000000   -0.00000000    0.00000000
     atom    7 type  2   force =    -0.00000000   -0.00000000    0.00000000
     atom    8 type  2   force =     0.00000000    0.00000000   -0.00000000

     Total force =     0.000000     Total SCF correction =     0.000000


     Computing stress (Cartesian axis) and pressure

     Message from routine stres:
     noncollinear stress + GGA not implemented

     Writing output data file CsIsalt.save/
 
     init_run     :      6.39s CPU      9.16s WALL (       1 calls)
     electrons    :    193.87s CPU    284.08s WALL (       1 calls)
     forces       :      9.78s CPU     13.76s WALL (       1 calls)

     Called by init_run:
     wfcinit      :      3.57s CPU      5.43s WALL (       1 calls)
     wfcinit:atom :      0.01s CPU      0.01s WALL (      20 calls)
     wfcinit:wfcr :      3.51s CPU      5.35s WALL (      20 calls)
     potinit      :      0.84s CPU      1.11s WALL (       1 calls)
     hinit0       :      0.79s CPU      1.21s WALL (       1 calls)

     Called by electrons:
     c_bands      :    151.51s CPU    224.28s WALL (       8 calls)
     sum_band     :     27.47s CPU     41.14s WALL (       8 calls)
     v_of_rho     :      0.07s CPU      0.11s WALL (       8 calls)
     v_h          :      0.00s CPU      0.01s WALL (       8 calls)
     v_xc         :      0.10s CPU      0.16s WALL (       9 calls)
     newd         :      8.88s CPU     10.02s WALL (       8 calls)
     PAW_pot      :      5.85s CPU      7.34s WALL (       8 calls)
     mix_rho      :      0.27s CPU      0.45s WALL (       8 calls)

     Called by c_bands:
     init_us_2    :      0.41s CPU      0.82s WALL (     360 calls)
     cegterg      :    142.25s CPU    210.78s WALL (     160 calls)

     Called by sum_band:
     sum_band:bec :      7.73s CPU     11.62s WALL (     160 calls)
     addusdens    :      2.50s CPU      3.24s WALL (       8 calls)

     Called by *egterg:
     h_psi        :     68.12s CPU    100.14s WALL (    1047 calls)
     s_psi        :      7.86s CPU     10.89s WALL (    1047 calls)
     g_psi        :      0.08s CPU      0.09s WALL (     867 calls)
     cdiaghg      :     37.37s CPU     56.69s WALL (    1007 calls)
     cegterg:over :     12.24s CPU     17.37s WALL (     867 calls)
     cegterg:upda :      9.10s CPU     14.17s WALL (     867 calls)
     cegterg:last :      1.66s CPU      2.32s WALL (     185 calls)
     cdiaghg:chol :      2.18s CPU      3.19s WALL (    1007 calls)
     cdiaghg:inve :      1.48s CPU      2.16s WALL (    1007 calls)
     cdiaghg:para :      6.33s CPU      9.15s WALL (    2014 calls)

     Called by h_psi:
     h_psi:pot    :     68.03s CPU    100.02s WALL (    1047 calls)
     h_psi:calbec :      2.62s CPU      3.46s WALL (    1047 calls)
     vloc_psi     :     57.67s CPU     85.82s WALL (    1047 calls)
     add_vuspsi   :      7.73s CPU     10.74s WALL (    1047 calls)

     General routines
     calbec       :      5.38s CPU      7.49s WALL (    1287 calls)
     fft          :      1.17s CPU      1.98s WALL (     177 calls)
     ffts         :      1.00s CPU      1.95s WALL (      64 calls)
     fftw         :     71.58s CPU    106.93s WALL (  160624 calls)
     interpolate  :      1.19s CPU      2.19s WALL (      32 calls)
 
     Parallel routines
     fft_scatt_xy :      2.85s CPU      3.46s WALL (  160865 calls)
     fft_scatt_yz :     59.52s CPU     91.55s WALL (  160865 calls)

     PAW routines
     PAW_pot      :      5.85s CPU      7.34s WALL (       8 calls)
     PAW_symme    :      0.24s CPU      0.31s WALL (      16 calls)
 
     PWSCF        :   3m38.27s CPU   5m16.51s WALL

 
   This run was terminated on:  12:24:46  23Jan2021            

=------------------------------------------------------------------------------=
   JOB DONE.
=------------------------------------------------------------------------------=
