
     Program PWSCF v.6.7MaX starts on 15Jan2021 at 11: 1:28 

     This program is part of the open-source Quantum ESPRESSO suite
     for quantum simulation of materials; please cite
         "P. Giannozzi et al., J. Phys.:Condens. Matter 21 395502 (2009);
         "P. Giannozzi et al., J. Phys.:Condens. Matter 29 465901 (2017);
          URL http://www.quantum-espresso.org", 
     in publications or presentations arising from this work. More details at
     http://www.quantum-espresso.org/quote

     Parallel version (MPI), running on    32 processors

     MPI processes distributed on     1 nodes
     R & G space division:  proc/nbgrp/npool/nimage =      32
     Waiting for input...
     Reading input from standard input

     Current dimensions of program PWSCF are:
     Max number of different atomic species (ntypx) = 10
     Max number of k-points (npk) =  40000
     Max angular momentum in pseudopotentials (lmaxx) =  3
     file Sn.pbe-dn-kjpaw_psl.1.0.0.UPF: wavefunction(s)  5S 5P 4D renormalized
     file I.pbe-n-kjpaw_psl.1.0.0.UPF: wavefunction(s)  5S renormalized
     file Cs.pbe-spn-kjpaw_psl.1.0.0.UPF: wavefunction(s)  5S 6S renormalized

     Subspace diagonalization in iterative solution of the eigenvalue problem:
     a serial algorithm will be used

     Message from routine setup:
     using ibrav=0 with symmetry is DISCOURAGED, use correct ibrav instead

     Parallelization info
     --------------------
     sticks:   dense  smooth     PW     G-vecs:    dense   smooth      PW
     Min          92      92     25                 9510     9510    1344
     Max          94      94     28                 9521     9521    1355
     Sum        2963    2963    803               304449   304449   43219


     Title: 
     CsSnI3                                                                     


     bravais-lattice index     =            0
     lattice parameter (alat)  =       9.1317  a.u.
     unit-cell volume          =    6370.5385 (a.u.)^3
     number of atoms/cell      =           20
     number of atomic types    =            3
     number of electrons       =       176.00
     number of Kohn-Sham states=           89
     kinetic-energy cutoff     =      50.0000  Ry
     charge density cutoff     =     200.0000  Ry
     scf convergence threshold =      1.0E-06
     mixing beta               =       0.7000
     number of iterations used =            8  plain     mixing
     Exchange-correlation= SLA  PW   PBX  PBC
                           (   1   4   3   4   0   0   0)

     celldm(1)=   9.131705  celldm(2)=   0.000000  celldm(3)=   0.000000
     celldm(4)=   0.000000  celldm(5)=   0.000000  celldm(6)=   0.000000

     crystal axes: (cart. coord. in units of alat)
               a(1) = (   1.000000   0.000000   0.000000 )  
               a(2) = (   0.000000   2.227728   0.000000 )  
               a(3) = (   0.000000   0.000000   3.755420 )  

     reciprocal axes: (cart. coord. in units 2 pi/alat)
               b(1) = (  1.000000  0.000000  0.000000 )  
               b(2) = (  0.000000  0.448888  0.000000 )  
               b(3) = (  0.000000  0.000000  0.266282 )  


     PseudoPot. # 1 for Sn read from file:
     ../../../pseudo/Sn.pbe-dn-kjpaw_psl.1.0.0.UPF
     MD5 check sum: 67f11dec737d427557dc41ea34975807
     Pseudo is Projector augmented-wave + core cor, Zval = 14.0
     Generated using &quot;atomic&quot; code by A. Dal Corso  v.6.3
     Shape of augmentation charge: PSQ
     Using radial grid of 1243 points,  6 beta functions with: 
                l(1) =   0
                l(2) =   0
                l(3) =   1
                l(4) =   1
                l(5) =   2
                l(6) =   2
     Q(r) pseudized with 0 coefficients 


     PseudoPot. # 2 for I  read from file:
     ../../../pseudo/I.pbe-n-kjpaw_psl.1.0.0.UPF
     MD5 check sum: cd3d296c3308a581e1559a0c8a554cb5
     Pseudo is Projector augmented-wave + core cor, Zval =  7.0
     Generated using &quot;atomic&quot; code by A. Dal Corso  v.6.3
     Shape of augmentation charge: PSQ
     Using radial grid of 1247 points,  6 beta functions with: 
                l(1) =   0
                l(2) =   0
                l(3) =   1
                l(4) =   1
                l(5) =   2
                l(6) =   2
     Q(r) pseudized with 0 coefficients 


     PseudoPot. # 3 for Cs read from file:
     ../../../pseudo/Cs.pbe-spn-kjpaw_psl.1.0.0.UPF
     MD5 check sum: b82c75cc2e1f4ff73b6412cffeb9c584
     Pseudo is Projector augmented-wave + core cor, Zval =  9.0
     Generated using &quot;atomic&quot; code by A. Dal Corso  v.6.4.1
     Shape of augmentation charge: PSQ
     Using radial grid of 1251 points,  9 beta functions with: 
                l(1) =   0
                l(2) =   0
                l(3) =   0
                l(4) =   1
                l(5) =   1
                l(6) =   2
                l(7) =   2
                l(8) =   3
                l(9) =   3
     Q(r) pseudized with 0 coefficients 


     atomic species   valence    mass     pseudopotential
        Sn            14.00   118.70000     Sn( 1.00)
        I              7.00   126.90000     I ( 1.00)
        Cs             9.00   132.90000     Cs( 1.00)

      8 Sym. Ops., with inversion, found ( 6 have fractional translation)


                                    s                        frac. trans.

      isym =  1     identity                                     

 cryst.   s( 1) = (     1          0          0      )
                  (     0          1          0      )
                  (     0          0          1      )

 cart.    s( 1) = (  1.0000000  0.0000000  0.0000000 )
                  (  0.0000000  1.0000000  0.0000000 )
                  (  0.0000000  0.0000000  1.0000000 )


      isym =  2     180 deg rotation - cart. axis [0,0,1]        

 cryst.   s( 2) = (    -1          0          0      )    f =(  0.0000000 )
                  (     0         -1          0      )       (  0.5000000 )
                  (     0          0          1      )       (  0.5000000 )

 cart.    s( 2) = ( -1.0000000  0.0000000  0.0000000 )    f =(  0.0000000 )
                  (  0.0000000 -1.0000000  0.0000000 )       (  1.1138638 )
                  (  0.0000000  0.0000000  1.0000000 )       (  1.8777098 )


      isym =  3     180 deg rotation - cart. axis [0,1,0]        

 cryst.   s( 3) = (    -1          0          0      )    f =(  0.5000000 )
                  (     0          1          0      )       ( -0.5000000 )
                  (     0          0         -1      )       ( -0.5000000 )

 cart.    s( 3) = ( -1.0000000  0.0000000  0.0000000 )    f =(  0.5000000 )
                  (  0.0000000  1.0000000  0.0000000 )       ( -1.1138638 )
                  (  0.0000000  0.0000000 -1.0000000 )       ( -1.8777098 )


      isym =  4     180 deg rotation - cart. axis [1,0,0]        

 cryst.   s( 4) = (     1          0          0      )    f =( -0.5000000 )
                  (     0         -1          0      )       (  0.0000000 )
                  (     0          0         -1      )       (  0.0000000 )

 cart.    s( 4) = (  1.0000000  0.0000000  0.0000000 )    f =( -0.5000000 )
                  (  0.0000000 -1.0000000  0.0000000 )       (  0.0000000 )
                  (  0.0000000  0.0000000 -1.0000000 )       (  0.0000000 )


      isym =  5     inversion                                    

 cryst.   s( 5) = (    -1          0          0      )
                  (     0         -1          0      )
                  (     0          0         -1      )

 cart.    s( 5) = ( -1.0000000  0.0000000  0.0000000 )
                  (  0.0000000 -1.0000000  0.0000000 )
                  (  0.0000000  0.0000000 -1.0000000 )


      isym =  6     inv. 180 deg rotation - cart. axis [0,0,1]   

 cryst.   s( 6) = (     1          0          0      )    f =(  0.0000000 )
                  (     0          1          0      )       ( -0.5000000 )
                  (     0          0         -1      )       ( -0.5000000 )

 cart.    s( 6) = (  1.0000000  0.0000000  0.0000000 )    f =(  0.0000000 )
                  (  0.0000000  1.0000000  0.0000000 )       ( -1.1138638 )
                  (  0.0000000  0.0000000 -1.0000000 )       ( -1.8777098 )


      isym =  7     inv. 180 deg rotation - cart. axis [0,1,0]   

 cryst.   s( 7) = (     1          0          0      )    f =( -0.5000000 )
                  (     0         -1          0      )       (  0.5000000 )
                  (     0          0          1      )       (  0.5000000 )

 cart.    s( 7) = (  1.0000000  0.0000000  0.0000000 )    f =( -0.5000000 )
                  (  0.0000000 -1.0000000  0.0000000 )       (  1.1138638 )
                  (  0.0000000  0.0000000  1.0000000 )       (  1.8777098 )


      isym =  8     inv. 180 deg rotation - cart. axis [1,0,0]   

 cryst.   s( 8) = (    -1          0          0      )    f =(  0.5000000 )
                  (     0          1          0      )       (  0.0000000 )
                  (     0          0          1      )       (  0.0000000 )

 cart.    s( 8) = ( -1.0000000  0.0000000  0.0000000 )    f =(  0.5000000 )
                  (  0.0000000  1.0000000  0.0000000 )       (  0.0000000 )
                  (  0.0000000  0.0000000  1.0000000 )       (  0.0000000 )


   Cartesian axes

     site n.     atom                  positions (alat units)
         1           Cs  tau(   1) = (   0.2500000   0.1859640   2.5168147  )
         2           Cs  tau(   2) = (   0.7500000   2.0417636   1.2386050  )
         3           Cs  tau(   3) = (   0.2500000   1.2998278   3.1163149  )
         4           Cs  tau(   4) = (   0.7500000   0.9278998   0.6391048  )
         5           Sn  tau(   5) = (   0.2500000   0.7615710   1.6485466  )
         6           Sn  tau(   6) = (   0.7500000   1.4661567   2.1068731  )
         7           Sn  tau(   7) = (   0.2500000   1.8754348   0.2291632  )
         8           Sn  tau(   8) = (   0.7500000   0.3522928   3.5262565  )
         9           I   tau(   9) = (   0.7500000   0.0581437   0.4202578  )
        10           I   tau(  10) = (   0.2500000   2.1695839   3.3351619  )
        11           I   tau(  11) = (   0.7500000   1.1720075   1.4574521  )
        12           I   tau(  12) = (   0.2500000   1.0557201   2.2979676  )
        13           I   tau(  13) = (   0.7500000   0.6531118   2.9738192  )
        14           I   tau(  14) = (   0.2500000   1.5746158   0.7816005  )
        15           I   tau(  15) = (   0.7500000   1.7669756   2.6593103  )
        16           I   tau(  16) = (   0.2500000   0.4607520   1.0961094  )
        17           I   tau(  17) = (   0.7500000   0.3753632   1.8734812  )
        18           I   tau(  18) = (   0.2500000   1.8523644   1.8819384  )
        19           I   tau(  19) = (   0.7500000   1.4892270   0.0042286  )
        20           I   tau(  20) = (   0.2500000   0.7385006   3.7511911  )

   Crystallographic axes

     site n.     atom                  positions (cryst. coord.)
         1           Cs  tau(   1) = (  0.2500000  0.0834770  0.6701820  )
         2           Cs  tau(   2) = (  0.7500000  0.9165230  0.3298180  )
         3           Cs  tau(   3) = (  0.2500000  0.5834770  0.8298180  )
         4           Cs  tau(   4) = (  0.7500000  0.4165230  0.1701820  )
         5           Sn  tau(   5) = (  0.2500000  0.3418600  0.4389780  )
         6           Sn  tau(   6) = (  0.7500000  0.6581400  0.5610220  )
         7           Sn  tau(   7) = (  0.2500000  0.8418600  0.0610220  )
         8           Sn  tau(   8) = (  0.7500000  0.1581400  0.9389780  )
         9           I   tau(   9) = (  0.7500000  0.0261000  0.1119070  )
        10           I   tau(  10) = (  0.2500000  0.9739000  0.8880930  )
        11           I   tau(  11) = (  0.7500000  0.5261000  0.3880930  )
        12           I   tau(  12) = (  0.2500000  0.4739000  0.6119070  )
        13           I   tau(  13) = (  0.7500000  0.2931740  0.7918740  )
        14           I   tau(  14) = (  0.2500000  0.7068260  0.2081260  )
        15           I   tau(  15) = (  0.7500000  0.7931740  0.7081260  )
        16           I   tau(  16) = (  0.2500000  0.2068260  0.2918740  )
        17           I   tau(  17) = (  0.7500000  0.1684960  0.4988740  )
        18           I   tau(  18) = (  0.2500000  0.8315040  0.5011260  )
        19           I   tau(  19) = (  0.7500000  0.6684960  0.0011260  )
        20           I   tau(  20) = (  0.2500000  0.3315040  0.9988740  )

     number of k points=    27
                       cart. coord. in units 2pi/alat
        k(    1) = (   0.0000000   0.0000000   0.0000000), wk =   0.0160000
        k(    2) = (   0.0000000   0.0000000   0.0532564), wk =   0.0320000
        k(    3) = (   0.0000000   0.0000000   0.1065127), wk =   0.0320000
        k(    4) = (   0.0000000   0.0897776   0.0000000), wk =   0.0320000
        k(    5) = (   0.0000000   0.0897776   0.0532564), wk =   0.0640000
        k(    6) = (   0.0000000   0.0897776   0.1065127), wk =   0.0640000
        k(    7) = (   0.0000000   0.1795552   0.0000000), wk =   0.0320000
        k(    8) = (   0.0000000   0.1795552   0.0532564), wk =   0.0640000
        k(    9) = (   0.0000000   0.1795552   0.1065127), wk =   0.0640000
        k(   10) = (   0.2000000   0.0000000   0.0000000), wk =   0.0320000
        k(   11) = (   0.2000000   0.0000000   0.0532564), wk =   0.0640000
        k(   12) = (   0.2000000   0.0000000   0.1065127), wk =   0.0640000
        k(   13) = (   0.2000000   0.0897776   0.0000000), wk =   0.0640000
        k(   14) = (   0.2000000   0.0897776   0.0532564), wk =   0.1280000
        k(   15) = (   0.2000000   0.0897776   0.1065127), wk =   0.1280000
        k(   16) = (   0.2000000   0.1795552   0.0000000), wk =   0.0640000
        k(   17) = (   0.2000000   0.1795552   0.0532564), wk =   0.1280000
        k(   18) = (   0.2000000   0.1795552   0.1065127), wk =   0.1280000
        k(   19) = (   0.4000000   0.0000000   0.0000000), wk =   0.0320000
        k(   20) = (   0.4000000   0.0000000   0.0532564), wk =   0.0640000
        k(   21) = (   0.4000000   0.0000000   0.1065127), wk =   0.0640000
        k(   22) = (   0.4000000   0.0897776   0.0000000), wk =   0.0640000
        k(   23) = (   0.4000000   0.0897776   0.0532564), wk =   0.1280000
        k(   24) = (   0.4000000   0.0897776   0.1065127), wk =   0.1280000
        k(   25) = (   0.4000000   0.1795552   0.0000000), wk =   0.0640000
        k(   26) = (   0.4000000   0.1795552   0.0532564), wk =   0.1280000
        k(   27) = (   0.4000000   0.1795552   0.1065127), wk =   0.1280000

                       cryst. coord.
        k(    1) = (   0.0000000   0.0000000   0.0000000), wk =   0.0160000
        k(    2) = (   0.0000000   0.0000000   0.2000000), wk =   0.0320000
        k(    3) = (   0.0000000   0.0000000   0.4000000), wk =   0.0320000
        k(    4) = (   0.0000000   0.2000000   0.0000000), wk =   0.0320000
        k(    5) = (   0.0000000   0.2000000   0.2000000), wk =   0.0640000
        k(    6) = (   0.0000000   0.2000000   0.4000000), wk =   0.0640000
        k(    7) = (   0.0000000   0.4000000   0.0000000), wk =   0.0320000
        k(    8) = (   0.0000000   0.4000000   0.2000000), wk =   0.0640000
        k(    9) = (   0.0000000   0.4000000   0.4000000), wk =   0.0640000
        k(   10) = (   0.2000000   0.0000000   0.0000000), wk =   0.0320000
        k(   11) = (   0.2000000   0.0000000   0.2000000), wk =   0.0640000
        k(   12) = (   0.2000000   0.0000000   0.4000000), wk =   0.0640000
        k(   13) = (   0.2000000   0.2000000   0.0000000), wk =   0.0640000
        k(   14) = (   0.2000000   0.2000000   0.2000000), wk =   0.1280000
        k(   15) = (   0.2000000   0.2000000   0.4000000), wk =   0.1280000
        k(   16) = (   0.2000000   0.4000000   0.0000000), wk =   0.0640000
        k(   17) = (   0.2000000   0.4000000   0.2000000), wk =   0.1280000
        k(   18) = (   0.2000000   0.4000000   0.4000000), wk =   0.1280000
        k(   19) = (   0.4000000   0.0000000   0.0000000), wk =   0.0320000
        k(   20) = (   0.4000000   0.0000000   0.2000000), wk =   0.0640000
        k(   21) = (   0.4000000   0.0000000   0.4000000), wk =   0.0640000
        k(   22) = (   0.4000000   0.2000000   0.0000000), wk =   0.0640000
        k(   23) = (   0.4000000   0.2000000   0.2000000), wk =   0.1280000
        k(   24) = (   0.4000000   0.2000000   0.4000000), wk =   0.1280000
        k(   25) = (   0.4000000   0.4000000   0.0000000), wk =   0.0640000
        k(   26) = (   0.4000000   0.4000000   0.2000000), wk =   0.1280000
        k(   27) = (   0.4000000   0.4000000   0.4000000), wk =   0.1280000

     Dense  grid:   304449 G-vectors     FFT dimensions: (  48,  96, 160)

     Dynamical RAM for                 wfc:       1.61 MB

     Dynamical RAM for     wfc (w. buffer):      45.17 MB

     Dynamical RAM for           str. fact:       0.44 MB

     Dynamical RAM for           local pot:       0.00 MB

     Dynamical RAM for          nlocal pot:       7.61 MB

     Dynamical RAM for                qrad:      10.22 MB

     Dynamical RAM for          rho,v,vnew:       0.96 MB

     Dynamical RAM for               rhoin:       0.32 MB

     Dynamical RAM for            rho*nmix:       2.32 MB

     Dynamical RAM for           G-vectors:       0.62 MB

     Dynamical RAM for          h,s,v(r/c):       1.45 MB

     Dynamical RAM for          <psi|beta>:       0.57 MB

     Dynamical RAM for                 psi:       3.23 MB

     Dynamical RAM for                hpsi:       3.23 MB

     Dynamical RAM for                spsi:       3.23 MB

     Dynamical RAM for      wfcinit/wfcrot:       4.02 MB

     Dynamical RAM for           addusdens:      87.08 MB

     Dynamical RAM for          addusforce:      90.50 MB

     Dynamical RAM for         addusstress:      89.26 MB

     Estimated static dynamical RAM per process >      69.13 MB

     Estimated max dynamical RAM per process >     159.63 MB

     Estimated total dynamical RAM >       4.99 GB

     Check: negative core charge=   -0.000002

     Initial potential from superposition of free atoms

     starting charge  175.83511, renormalised to  176.00000
     Starting wfcs are  104 randomized atomic wfcs
     Checking if some PAW data can be deallocated... 
       PAW data deallocated on   24 nodes for type:  1
       PAW data deallocated on   16 nodes for type:  2
       PAW data deallocated on   24 nodes for type:  3

     total cpu time spent up to now is       63.9 secs

     Self-consistent Calculation

     iteration #  1     ecut=    50.00 Ry     beta= 0.70
     Davidson diagonalization with overlap
     ethr =  1.00E-02,  avg # of iterations =  2.0

     Threshold (ethr) on eigenvalues was too large:
     Diagonalizing with lowered threshold

     Davidson diagonalization with overlap
     ethr =  3.12E-04,  avg # of iterations =  4.0

     total cpu time spent up to now is      401.4 secs

     total energy              =   -7979.41554275 Ry
     estimated scf accuracy    <       0.44215411 Ry

     iteration #  2     ecut=    50.00 Ry     beta= 0.70
     Davidson diagonalization with overlap
     ethr =  2.51E-04,  avg # of iterations =  4.3

     total cpu time spent up to now is      610.5 secs

     total energy              =   -7979.51161665 Ry
     estimated scf accuracy    <       0.54493379 Ry

     iteration #  3     ecut=    50.00 Ry     beta= 0.70
     Davidson diagonalization with overlap
     ethr =  2.51E-04,  avg # of iterations =  4.8

     total cpu time spent up to now is      776.6 secs

     total energy              =   -7979.61146594 Ry
     estimated scf accuracy    <       0.01450139 Ry

     iteration #  4     ecut=    50.00 Ry     beta= 0.70
     Davidson diagonalization with overlap
     ethr =  8.24E-06,  avg # of iterations =  8.4

     total cpu time spent up to now is     1035.5 secs

     total energy              =   -7979.62616122 Ry
     estimated scf accuracy    <       0.00608795 Ry

     iteration #  5     ecut=    50.00 Ry     beta= 0.70
     Davidson diagonalization with overlap
     c_bands:  1 eigenvalues not converged
     c_bands:  1 eigenvalues not converged
     ethr =  3.46E-06,  avg # of iterations =  4.1

     total cpu time spent up to now is     1194.0 secs

     total energy              =   -7979.62650311 Ry
     estimated scf accuracy    <       0.00120544 Ry

     iteration #  6     ecut=    50.00 Ry     beta= 0.70
     Davidson diagonalization with overlap
     ethr =  6.85E-07,  avg # of iterations =  5.1

     total cpu time spent up to now is     1404.6 secs

     total energy              =   -7979.62703761 Ry
     estimated scf accuracy    <       0.00018036 Ry

     iteration #  7     ecut=    50.00 Ry     beta= 0.70
     Davidson diagonalization with overlap
     ethr =  1.02E-07,  avg # of iterations =  4.4

     total cpu time spent up to now is     1573.7 secs

     total energy              =   -7979.62708471 Ry
     estimated scf accuracy    <       0.00001733 Ry

     iteration #  8     ecut=    50.00 Ry     beta= 0.70
     Davidson diagonalization with overlap
     ethr =  9.85E-09,  avg # of iterations =  6.1

     total cpu time spent up to now is     1819.9 secs

     total energy              =   -7979.62708128 Ry
     estimated scf accuracy    <       0.00003278 Ry

     iteration #  9     ecut=    50.00 Ry     beta= 0.70
     Davidson diagonalization with overlap
     ethr =  9.85E-09,  avg # of iterations =  5.2

     total cpu time spent up to now is     2020.1 secs

     total energy              =   -7979.62709150 Ry
     estimated scf accuracy    <       0.00000483 Ry

     iteration # 10     ecut=    50.00 Ry     beta= 0.70
     Davidson diagonalization with overlap
     ethr =  2.74E-09,  avg # of iterations =  2.1

     total cpu time spent up to now is     2172.2 secs

     total energy              =   -7979.62709009 Ry
     estimated scf accuracy    <       0.00000420 Ry

     iteration # 11     ecut=    50.00 Ry     beta= 0.70
     Davidson diagonalization with overlap
     ethr =  2.39E-09,  avg # of iterations =  4.3

     total cpu time spent up to now is     2329.8 secs

     End of self-consistent calculation

          k = 0.0000 0.0000 0.0000 ( 37989 PWs)   bands (ev):

   -17.8651 -17.8650 -17.8649 -17.8649 -17.8617 -17.8616 -17.8613 -17.8613
   -17.8528 -17.8528 -17.8522 -17.8521 -17.8483 -17.8483 -17.8468 -17.8467
   -17.8413 -17.8413 -17.8399 -17.8399 -17.7821 -17.7819 -17.7812 -17.7810
    -8.8073  -8.7831  -8.6006  -8.5394  -8.4521  -8.4427  -8.4236  -8.4134
    -8.2860  -8.2620  -8.2454  -8.2018  -4.6114  -4.6090  -4.6074  -4.6012
    -4.5916  -4.5659  -4.5504  -4.5486  -4.5422  -4.5406  -4.5364  -4.5334
    -2.8865  -2.8616  -2.8234  -2.7428   0.1213   0.3224   0.7508   0.8838
     0.8982   0.9833   1.1109   1.1203   1.2107   1.2733   1.3214   1.3259
     1.3292   1.5513   1.6285   1.7298   1.7770   1.7923   1.8068   1.8132
     1.8184   1.8320   1.9759   2.0596   2.0651   2.1700   2.2025   2.2193
     2.2306   2.2326   2.3102   2.3129   2.3776   2.4733   2.6218   2.9216
     5.3006

     occupation numbers 
     1.0000   1.0000   1.0000   1.0000   1.0000   1.0000   1.0000   1.0000
     1.0000   1.0000   1.0000   1.0000   1.0000   1.0000   1.0000   1.0000
     1.0000   1.0000   1.0000   1.0000   1.0000   1.0000   1.0000   1.0000
     1.0000   1.0000   1.0000   1.0000   1.0000   1.0000   1.0000   1.0000
     1.0000   1.0000   1.0000   1.0000   1.0000   1.0000   1.0000   1.0000
     1.0000   1.0000   1.0000   1.0000   1.0000   1.0000   1.0000   1.0000
     1.0000   1.0000   1.0000   1.0000   1.0000   1.0000   1.0000   1.0000
     1.0000   1.0000   1.0000   1.0000   1.0000   1.0000   1.0000   1.0000
     1.0000   1.0000   1.0000   1.0000   1.0000   1.0000   1.0000   1.0000
     1.0000   1.0000   1.0000   1.0000   1.0000   1.0000   1.0000   1.0000
     1.0000   1.0000   1.0000   1.0000   1.0000   1.0000   1.0000   1.0000
     0.0000

          k = 0.0000 0.0000 0.0533 ( 38061 PWs)   bands (ev):

   -17.8651 -17.8651 -17.8649 -17.8649 -17.8617 -17.8617 -17.8613 -17.8613
   -17.8528 -17.8528 -17.8522 -17.8521 -17.8483 -17.8483 -17.8468 -17.8468
   -17.8413 -17.8413 -17.8399 -17.8399 -17.7821 -17.7819 -17.7812 -17.7810
    -8.8053  -8.7859  -8.5948  -8.5455  -8.4513  -8.4436  -8.4220  -8.4140
    -8.2849  -8.2680  -8.2374  -8.2046  -4.6139  -4.6122  -4.6059  -4.5944
    -4.5926  -4.5682  -4.5502  -4.5488  -4.5420  -4.5407  -4.5359  -4.5334
    -2.8854  -2.8672  -2.8126  -2.7493   0.1372   0.2986   0.7665   0.8851
     0.8967   0.9423   1.1145   1.1543   1.2395   1.2486   1.2783   1.3208
     1.4292   1.5349   1.6067   1.6829   1.7757   1.8086   1.8107   1.8135
     1.8188   1.8300   1.9762   2.0282   2.0711   2.1595   2.2041   2.2201
     2.2230   2.2274   2.3214   2.3699   2.3727   2.4713   2.6414   2.8923
     5.3052

     occupation numbers 
     1.0000   1.0000   1.0000   1.0000   1.0000   1.0000   1.0000   1.0000
     1.0000   1.0000   1.0000   1.0000   1.0000   1.0000   1.0000   1.0000
     1.0000   1.0000   1.0000   1.0000   1.0000   1.0000   1.0000   1.0000
     1.0000   1.0000   1.0000   1.0000   1.0000   1.0000   1.0000   1.0000
     1.0000   1.0000   1.0000   1.0000   1.0000   1.0000   1.0000   1.0000
     1.0000   1.0000   1.0000   1.0000   1.0000   1.0000   1.0000   1.0000
     1.0000   1.0000   1.0000   1.0000   1.0000   1.0000   1.0000   1.0000
     1.0000   1.0000   1.0000   1.0000   1.0000   1.0000   1.0000   1.0000
     1.0000   1.0000   1.0000   1.0000   1.0000   1.0000   1.0000   1.0000
     1.0000   1.0000   1.0000   1.0000   1.0000   1.0000   1.0000   1.0000
     1.0000   1.0000   1.0000   1.0000   1.0000   1.0000   1.0000   1.0000
     0.0000

          k = 0.0000 0.0000 0.1065 ( 38019 PWs)   bands (ev):

   -17.8651 -17.8651 -17.8649 -17.8649 -17.8617 -17.8617 -17.8613 -17.8613
   -17.8528 -17.8528 -17.8521 -17.8521 -17.8483 -17.8483 -17.8468 -17.8468
   -17.8413 -17.8413 -17.8399 -17.8399 -17.7820 -17.7820 -17.7811 -17.7810
    -8.8000  -8.7926  -8.5797  -8.5611  -8.4490  -8.4460  -8.4187  -8.4157
    -8.2816  -8.2759  -8.2244  -8.2126  -4.6161  -4.6158  -4.6013  -4.5968
    -4.5836  -4.5745  -4.5498  -4.5493  -4.5415  -4.5410  -4.5347  -4.5337
    -2.8818  -2.8756  -2.7904  -2.7670   0.1814   0.2423   0.8103   0.8735
     0.8885   0.8929   1.1248   1.1599   1.2511   1.2913   1.2924   1.3075
     1.5088   1.5236   1.5568   1.6148   1.7823   1.8039   1.8122   1.8137
     1.8205   1.8252   1.9780   1.9887   2.0994   2.1324   2.2091   2.2174
     2.2216   2.2220   2.3400   2.3591   2.4371   2.4633   2.7115   2.8125
     5.3223

     occupation numbers 
     1.0000   1.0000   1.0000   1.0000   1.0000   1.0000   1.0000   1.0000
     1.0000   1.0000   1.0000   1.0000   1.0000   1.0000   1.0000   1.0000
     1.0000   1.0000   1.0000   1.0000   1.0000   1.0000   1.0000   1.0000
     1.0000   1.0000   1.0000   1.0000   1.0000   1.0000   1.0000   1.0000
     1.0000   1.0000   1.0000   1.0000   1.0000   1.0000   1.0000   1.0000
     1.0000   1.0000   1.0000   1.0000   1.0000   1.0000   1.0000   1.0000
     1.0000   1.0000   1.0000   1.0000   1.0000   1.0000   1.0000   1.0000
     1.0000   1.0000   1.0000   1.0000   1.0000   1.0000   1.0000   1.0000
     1.0000   1.0000   1.0000   1.0000   1.0000   1.0000   1.0000   1.0000
     1.0000   1.0000   1.0000   1.0000   1.0000   1.0000   1.0000   1.0000
     1.0000   1.0000   1.0000   1.0000   1.0000   1.0000   1.0000   1.0000
     0.0000

          k = 0.0000 0.0898 0.0000 ( 38072 PWs)   bands (ev):

   -17.8651 -17.8651 -17.8649 -17.8649 -17.8617 -17.8616 -17.8613 -17.8613
   -17.8529 -17.8528 -17.8522 -17.8521 -17.8483 -17.8483 -17.8468 -17.8467
   -17.8413 -17.8413 -17.8399 -17.8399 -17.7820 -17.7818 -17.7813 -17.7810
    -8.7989  -8.7779  -8.6050  -8.5682  -8.4728  -8.4663  -8.4038  -8.3710
    -8.2739  -8.2638  -8.2472  -8.2066  -4.6152  -4.6144  -4.5985  -4.5965
    -4.5949  -4.5625  -4.5496  -4.5478  -4.5440  -4.5429  -4.5413  -4.5383
    -2.8961  -2.8716  -2.8002  -2.7391   0.1465   0.3183   0.7732   0.9003
     0.9023   0.9124   1.1220   1.1406   1.2463   1.2584   1.2824   1.3219
     1.3599   1.5574   1.5689   1.6709   1.7536   1.7568   1.7766   1.8328
     1.8813   1.9027   1.9601   2.0634   2.0653   2.0787   2.1916   2.2239
     2.2332   2.2381   2.3012   2.3496   2.3656   2.5408   2.6496   2.9609
     5.2142

     occupation numbers 
     1.0000   1.0000   1.0000   1.0000   1.0000   1.0000   1.0000   1.0000
     1.0000   1.0000   1.0000   1.0000   1.0000   1.0000   1.0000   1.0000
     1.0000   1.0000   1.0000   1.0000   1.0000   1.0000   1.0000   1.0000
     1.0000   1.0000   1.0000   1.0000   1.0000   1.0000   1.0000   1.0000
     1.0000   1.0000   1.0000   1.0000   1.0000   1.0000   1.0000   1.0000
     1.0000   1.0000   1.0000   1.0000   1.0000   1.0000   1.0000   1.0000
     1.0000   1.0000   1.0000   1.0000   1.0000   1.0000   1.0000   1.0000
     1.0000   1.0000   1.0000   1.0000   1.0000   1.0000   1.0000   1.0000
     1.0000   1.0000   1.0000   1.0000   1.0000   1.0000   1.0000   1.0000
     1.0000   1.0000   1.0000   1.0000   1.0000   1.0000   1.0000   1.0000
     1.0000   1.0000   1.0000   1.0000   1.0000   1.0000   1.0000   1.0000
     0.0000

          k = 0.0000 0.0898 0.0533 ( 38053 PWs)   bands (ev):

   -17.8651 -17.8651 -17.8649 -17.8649 -17.8617 -17.8616 -17.8613 -17.8613
   -17.8529 -17.8528 -17.8522 -17.8521 -17.8483 -17.8483 -17.8468 -17.8468
   -17.8413 -17.8413 -17.8399 -17.8399 -17.7820 -17.7818 -17.7813 -17.7811
    -8.7972  -8.7803  -8.6008  -8.5711  -8.4733  -8.4681  -8.4002  -8.3736
    -8.2745  -8.2665  -8.2406  -8.2094  -4.6165  -4.6123  -4.6047  -4.5970
    -4.5877  -4.5646  -4.5494  -4.5481  -4.5430  -4.5427  -4.5415  -4.5385
    -2.8942  -2.8748  -2.7936  -2.7445   0.1607   0.2991   0.7844   0.8897
     0.9013   0.9112   1.1277   1.1533   1.2340   1.2498   1.2790   1.2996
     1.4249   1.5344   1.5756   1.6766   1.7402   1.7584   1.7743   1.8153
     1.8836   1.9011   1.9611   2.0082   2.0827   2.1138   2.1971   2.2237
     2.2315   2.2348   2.3097   2.3608   2.3694   2.5182   2.6865   2.9341
     5.2217

     occupation numbers 
     1.0000   1.0000   1.0000   1.0000   1.0000   1.0000   1.0000   1.0000
     1.0000   1.0000   1.0000   1.0000   1.0000   1.0000   1.0000   1.0000
     1.0000   1.0000   1.0000   1.0000   1.0000   1.0000   1.0000   1.0000
     1.0000   1.0000   1.0000   1.0000   1.0000   1.0000   1.0000   1.0000
     1.0000   1.0000   1.0000   1.0000   1.0000   1.0000   1.0000   1.0000
     1.0000   1.0000   1.0000   1.0000   1.0000   1.0000   1.0000   1.0000
     1.0000   1.0000   1.0000   1.0000   1.0000   1.0000   1.0000   1.0000
     1.0000   1.0000   1.0000   1.0000   1.0000   1.0000   1.0000   1.0000
     1.0000   1.0000   1.0000   1.0000   1.0000   1.0000   1.0000   1.0000
     1.0000   1.0000   1.0000   1.0000   1.0000   1.0000   1.0000   1.0000
     1.0000   1.0000   1.0000   1.0000   1.0000   1.0000   1.0000   1.0000
     0.0000

          k = 0.0000 0.0898 0.1065 ( 38052 PWs)   bands (ev):

   -17.8651 -17.8651 -17.8649 -17.8649 -17.8617 -17.8616 -17.8613 -17.8613
   -17.8529 -17.8529 -17.8521 -17.8521 -17.8483 -17.8483 -17.8468 -17.8468
   -17.8413 -17.8413 -17.8399 -17.8399 -17.7820 -17.7819 -17.7812 -17.7811
    -8.7925  -8.7861  -8.5906  -8.5792  -8.4734  -8.4714  -8.3913  -8.3811
    -8.2738  -8.2706  -8.2285  -8.2171  -4.6163  -4.6137  -4.6048  -4.6007
    -4.5783  -4.5702  -4.5491  -4.5485  -4.5423  -4.5418  -4.5410  -4.5393
    -2.8890  -2.8819  -2.7775  -2.7589   0.1997   0.2522   0.8152   0.8559
     0.9042   0.9080   1.1407   1.1688   1.2205   1.2590   1.2701   1.2776
     1.4813   1.5187   1.5994   1.6606   1.7328   1.7628   1.7688   1.7729
     1.8895   1.8963   1.9646   1.9759   2.1003   2.1179   2.2131   2.2248
     2.2255   2.2289   2.3282   2.3472   2.4185   2.4728   2.7687   2.8621
     5.2365

     occupation numbers 
     1.0000   1.0000   1.0000   1.0000   1.0000   1.0000   1.0000   1.0000
     1.0000   1.0000   1.0000   1.0000   1.0000   1.0000   1.0000   1.0000
     1.0000   1.0000   1.0000   1.0000   1.0000   1.0000   1.0000   1.0000
     1.0000   1.0000   1.0000   1.0000   1.0000   1.0000   1.0000   1.0000
     1.0000   1.0000   1.0000   1.0000   1.0000   1.0000   1.0000   1.0000
     1.0000   1.0000   1.0000   1.0000   1.0000   1.0000   1.0000   1.0000
     1.0000   1.0000   1.0000   1.0000   1.0000   1.0000   1.0000   1.0000
     1.0000   1.0000   1.0000   1.0000   1.0000   1.0000   1.0000   1.0000
     1.0000   1.0000   1.0000   1.0000   1.0000   1.0000   1.0000   1.0000
     1.0000   1.0000   1.0000   1.0000   1.0000   1.0000   1.0000   1.0000
     1.0000   1.0000   1.0000   1.0000   1.0000   1.0000   1.0000   1.0000
     0.0000

          k = 0.0000 0.1796 0.0000 ( 38080 PWs)   bands (ev):

   -17.8651 -17.8651 -17.8649 -17.8649 -17.8616 -17.8616 -17.8613 -17.8613
   -17.8529 -17.8529 -17.8521 -17.8521 -17.8483 -17.8483 -17.8468 -17.8468
   -17.8413 -17.8413 -17.8399 -17.8399 -17.7818 -17.7816 -17.7815 -17.7813
    -8.7801  -8.7709  -8.6148  -8.6069  -8.4913  -8.4893  -8.3634  -8.3484
    -8.2642  -8.2587  -8.2433  -8.2213  -4.6178  -4.6177  -4.5980  -4.5968
    -4.5797  -4.5609  -4.5568  -4.5488  -4.5475  -4.5458  -4.5450  -4.5433
    -2.9002  -2.8896  -2.7637  -2.7415   0.2121   0.2840   0.8060   0.8259
     0.9348   0.9399   1.1486   1.1995   1.2101   1.2274   1.2374   1.3683
     1.3998   1.4359   1.5006   1.6391   1.7363   1.7478   1.7714   1.7737
     1.9476   1.9579   1.9645   2.0442   2.0532   2.0781   2.2199   2.2339
     2.2463   2.2729   2.2804   2.3313   2.3759   2.4250   2.8646   2.9710
     5.1398

     occupation numbers 
     1.0000   1.0000   1.0000   1.0000   1.0000   1.0000   1.0000   1.0000
     1.0000   1.0000   1.0000   1.0000   1.0000   1.0000   1.0000   1.0000
     1.0000   1.0000   1.0000   1.0000   1.0000   1.0000   1.0000   1.0000
     1.0000   1.0000   1.0000   1.0000   1.0000   1.0000   1.0000   1.0000
     1.0000   1.0000   1.0000   1.0000   1.0000   1.0000   1.0000   1.0000
     1.0000   1.0000   1.0000   1.0000   1.0000   1.0000   1.0000   1.0000
     1.0000   1.0000   1.0000   1.0000   1.0000   1.0000   1.0000   1.0000
     1.0000   1.0000   1.0000   1.0000   1.0000   1.0000   1.0000   1.0000
     1.0000   1.0000   1.0000   1.0000   1.0000   1.0000   1.0000   1.0000
     1.0000   1.0000   1.0000   1.0000   1.0000   1.0000   1.0000   1.0000
     1.0000   1.0000   1.0000   1.0000   1.0000   1.0000   1.0000   1.0000
     0.0000

          k = 0.0000 0.1796 0.0533 ( 38066 PWs)   bands (ev):

   -17.8651 -17.8651 -17.8649 -17.8649 -17.8616 -17.8616 -17.8613 -17.8613
   -17.8529 -17.8529 -17.8521 -17.8521 -17.8483 -17.8483 -17.8468 -17.8468
   -17.8413 -17.8413 -17.8399 -17.8399 -17.7818 -17.7816 -17.7815 -17.7813
    -8.7793  -8.7719  -8.6140  -8.6075  -8.4911  -8.4887  -8.3638  -8.3514
    -8.2634  -8.2532  -8.2448  -8.2238  -4.6175  -4.6164  -4.6001  -4.5998
    -4.5760  -4.5620  -4.5555  -4.5492  -4.5474  -4.5462  -4.5446  -4.5434
    -2.8989  -2.8902  -2.7620  -2.7440   0.2199   0.2785   0.8052   0.8225
     0.9352   0.9393   1.1598   1.2005   1.2091   1.2285   1.2366   1.3381
     1.3892   1.4536   1.5089   1.6255   1.7377   1.7470   1.7669   1.8041
     1.9473   1.9560   1.9647   2.0239   2.0652   2.0855   2.2168   2.2299
     2.2488   2.2767   2.2802   2.3266   2.3850   2.4256   2.8690   2.9562
     5.1414

     occupation numbers 
     1.0000   1.0000   1.0000   1.0000   1.0000   1.0000   1.0000   1.0000
     1.0000   1.0000   1.0000   1.0000   1.0000   1.0000   1.0000   1.0000
     1.0000   1.0000   1.0000   1.0000   1.0000   1.0000   1.0000   1.0000
     1.0000   1.0000   1.0000   1.0000   1.0000   1.0000   1.0000   1.0000
     1.0000   1.0000   1.0000   1.0000   1.0000   1.0000   1.0000   1.0000
     1.0000   1.0000   1.0000   1.0000   1.0000   1.0000   1.0000   1.0000
     1.0000   1.0000   1.0000   1.0000   1.0000   1.0000   1.0000   1.0000
     1.0000   1.0000   1.0000   1.0000   1.0000   1.0000   1.0000   1.0000
     1.0000   1.0000   1.0000   1.0000   1.0000   1.0000   1.0000   1.0000
     1.0000   1.0000   1.0000   1.0000   1.0000   1.0000   1.0000   1.0000
     1.0000   1.0000   1.0000   1.0000   1.0000   1.0000   1.0000   1.0000
     0.0000

          k = 0.0000 0.1796 0.1065 ( 38065 PWs)   bands (ev):

   -17.8651 -17.8651 -17.8649 -17.8649 -17.8616 -17.8616 -17.8613 -17.8613
   -17.8529 -17.8529 -17.8521 -17.8521 -17.8483 -17.8483 -17.8468 -17.8468
   -17.8413 -17.8413 -17.8399 -17.8399 -17.7818 -17.7817 -17.7814 -17.7813
    -8.7772  -8.7743  -8.6118  -8.6093  -8.4898  -8.4885  -8.3626  -8.3577
    -8.2584  -8.2518  -8.2405  -8.2307  -4.6158  -4.6148  -4.6043  -4.6033
    -4.5699  -4.5650  -4.5529  -4.5506  -4.5471  -4.5467  -4.5441  -4.5437
    -2.8957  -2.8923  -2.7571  -2.7502   0.2396   0.2622   0.8068   0.8142
     0.9365   0.9380   1.1877   1.2033   1.2065   1.2142   1.2513   1.2892
     1.3960   1.4299   1.5523   1.5943   1.7411   1.7447   1.7949   1.8170
     1.9482   1.9516   1.9709   1.9932   2.0816   2.0911   2.2147   2.2210
     2.2567   2.2677   2.2965   2.3139   2.4051   2.4212   2.8872   2.9213
     5.1458

     occupation numbers 
     1.0000   1.0000   1.0000   1.0000   1.0000   1.0000   1.0000   1.0000
     1.0000   1.0000   1.0000   1.0000   1.0000   1.0000   1.0000   1.0000
     1.0000   1.0000   1.0000   1.0000   1.0000   1.0000   1.0000   1.0000
     1.0000   1.0000   1.0000   1.0000   1.0000   1.0000   1.0000   1.0000
     1.0000   1.0000   1.0000   1.0000   1.0000   1.0000   1.0000   1.0000
     1.0000   1.0000   1.0000   1.0000   1.0000   1.0000   1.0000   1.0000
     1.0000   1.0000   1.0000   1.0000   1.0000   1.0000   1.0000   1.0000
     1.0000   1.0000   1.0000   1.0000   1.0000   1.0000   1.0000   1.0000
     1.0000   1.0000   1.0000   1.0000   1.0000   1.0000   1.0000   1.0000
     1.0000   1.0000   1.0000   1.0000   1.0000   1.0000   1.0000   1.0000
     1.0000   1.0000   1.0000   1.0000   1.0000   1.0000   1.0000   1.0000
     0.0000

          k = 0.2000 0.0000 0.0000 ( 37991 PWs)   bands (ev):

   -17.8646 -17.8646 -17.8645 -17.8645 -17.8628 -17.8628 -17.8625 -17.8625
   -17.8527 -17.8527 -17.8522 -17.8522 -17.8471 -17.8471 -17.8459 -17.8459
   -17.8414 -17.8414 -17.8403 -17.8403 -17.7781 -17.7779 -17.7773 -17.7771
    -8.7309  -8.7092  -8.5511  -8.5009  -8.4139  -8.4039  -8.3873  -8.3773
    -8.2725  -8.2626  -8.2417  -8.2239  -4.6346  -4.6326  -4.6207  -4.6181
    -4.6001  -4.5918  -4.5908  -4.5899  -4.5810  -4.5698  -4.5516  -4.5515
    -2.9986  -2.9956  -2.9070  -2.8690   0.2668   0.4222   0.5548   0.5571
     0.5656   0.6372   0.9170   0.9941   0.9965   1.0104   1.0169   1.0384
     1.3896   1.3959   1.4371   1.4749   1.6732   1.7183   1.7790   1.8079
     1.8301   1.9157   1.9599   2.0018   2.0219   2.0454   2.0546   2.0877
     2.1177   2.1824   2.3185   2.3349   2.7014   2.7612   2.9457   3.0573
     5.7843

     occupation numbers 
     1.0000   1.0000   1.0000   1.0000   1.0000   1.0000   1.0000   1.0000
     1.0000   1.0000   1.0000   1.0000   1.0000   1.0000   1.0000   1.0000
     1.0000   1.0000   1.0000   1.0000   1.0000   1.0000   1.0000   1.0000
     1.0000   1.0000   1.0000   1.0000   1.0000   1.0000   1.0000   1.0000
     1.0000   1.0000   1.0000   1.0000   1.0000   1.0000   1.0000   1.0000
     1.0000   1.0000   1.0000   1.0000   1.0000   1.0000   1.0000   1.0000
     1.0000   1.0000   1.0000   1.0000   1.0000   1.0000   1.0000   1.0000
     1.0000   1.0000   1.0000   1.0000   1.0000   1.0000   1.0000   1.0000
     1.0000   1.0000   1.0000   1.0000   1.0000   1.0000   1.0000   1.0000
     1.0000   1.0000   1.0000   1.0000   1.0000   1.0000   1.0000   1.0000
     1.0000   1.0000   1.0000   1.0000   1.0000   1.0000   1.0000   1.0000
     0.0000

          k = 0.2000 0.0000 0.0533 ( 37988 PWs)   bands (ev):

   -17.8646 -17.8646 -17.8645 -17.8645 -17.8628 -17.8628 -17.8625 -17.8625
   -17.8527 -17.8527 -17.8522 -17.8522 -17.8471 -17.8471 -17.8459 -17.8459
   -17.8414 -17.8414 -17.8403 -17.8403 -17.7781 -17.7780 -17.7773 -17.7772
    -8.7292  -8.7117  -8.5462  -8.5058  -8.4129  -8.4049  -8.3861  -8.3781
    -8.2715  -8.2636  -8.2398  -8.2254  -4.6345  -4.6328  -4.6201  -4.6177
    -4.6012  -4.5962  -4.5902  -4.5874  -4.5795  -4.5703  -4.5513  -4.5513
    -2.9985  -2.9962  -2.9031  -2.8725   0.2757   0.3941   0.5585   0.5705
     0.5802   0.6335   0.9278   0.9800   0.9864   1.0155   1.0175   1.0414
     1.3742   1.3780   1.4098   1.5541   1.6815   1.6953   1.7165   1.7919
     1.9088   1.9198   1.9569   2.0039   2.0076   2.0357   2.0645   2.0833
     2.1253   2.1934   2.3161   2.3313   2.7057   2.7542   2.9546   3.0451
     5.7968

     occupation numbers 
     1.0000   1.0000   1.0000   1.0000   1.0000   1.0000   1.0000   1.0000
     1.0000   1.0000   1.0000   1.0000   1.0000   1.0000   1.0000   1.0000
     1.0000   1.0000   1.0000   1.0000   1.0000   1.0000   1.0000   1.0000
     1.0000   1.0000   1.0000   1.0000   1.0000   1.0000   1.0000   1.0000
     1.0000   1.0000   1.0000   1.0000   1.0000   1.0000   1.0000   1.0000
     1.0000   1.0000   1.0000   1.0000   1.0000   1.0000   1.0000   1.0000
     1.0000   1.0000   1.0000   1.0000   1.0000   1.0000   1.0000   1.0000
     1.0000   1.0000   1.0000   1.0000   1.0000   1.0000   1.0000   1.0000
     1.0000   1.0000   1.0000   1.0000   1.0000   1.0000   1.0000   1.0000
     1.0000   1.0000   1.0000   1.0000   1.0000   1.0000   1.0000   1.0000
     1.0000   1.0000   1.0000   1.0000   1.0000   1.0000   1.0000   1.0000
     0.0000

          k = 0.2000 0.0000 0.1065 ( 38063 PWs)   bands (ev):

   -17.8646 -17.8646 -17.8645 -17.8645 -17.8628 -17.8628 -17.8625 -17.8625
   -17.8527 -17.8527 -17.8522 -17.8522 -17.8471 -17.8471 -17.8459 -17.8459
   -17.8414 -17.8414 -17.8403 -17.8403 -17.7781 -17.7780 -17.7773 -17.7772
    -8.7243  -8.7177  -8.5337  -8.5184  -8.4105  -8.4074  -8.3833  -8.3803
    -8.2690  -8.2660  -8.2351  -8.2296  -4.6341  -4.6334  -4.6185  -4.6174
    -4.6023  -4.6006  -4.5890  -4.5876  -4.5756  -4.5722  -4.5509  -4.5509
    -2.9982  -2.9973  -2.8933  -2.8816   0.3022   0.3446   0.5671   0.5772
     0.6090   0.6282   0.9418   0.9563   0.9892   1.0072   1.0262   1.0364
     1.3456   1.3512   1.4574   1.5472   1.6510   1.6970   1.7457   1.7808
     1.9198   1.9429   1.9534   1.9739   2.0111   2.0217   2.0799   2.0825
     2.1604   2.1948   2.3146   2.3222   2.7185   2.7371   2.9799   3.0145
     5.8296

     occupation numbers 
     1.0000   1.0000   1.0000   1.0000   1.0000   1.0000   1.0000   1.0000
     1.0000   1.0000   1.0000   1.0000   1.0000   1.0000   1.0000   1.0000
     1.0000   1.0000   1.0000   1.0000   1.0000   1.0000   1.0000   1.0000
     1.0000   1.0000   1.0000   1.0000   1.0000   1.0000   1.0000   1.0000
     1.0000   1.0000   1.0000   1.0000   1.0000   1.0000   1.0000   1.0000
     1.0000   1.0000   1.0000   1.0000   1.0000   1.0000   1.0000   1.0000
     1.0000   1.0000   1.0000   1.0000   1.0000   1.0000   1.0000   1.0000
     1.0000   1.0000   1.0000   1.0000   1.0000   1.0000   1.0000   1.0000
     1.0000   1.0000   1.0000   1.0000   1.0000   1.0000   1.0000   1.0000
     1.0000   1.0000   1.0000   1.0000   1.0000   1.0000   1.0000   1.0000
     1.0000   1.0000   1.0000   1.0000   1.0000   1.0000   1.0000   1.0000
     0.0000

          k = 0.2000 0.0898 0.0000 ( 38022 PWs)   bands (ev):

   -17.8646 -17.8646 -17.8645 -17.8645 -17.8628 -17.8628 -17.8625 -17.8625
   -17.8528 -17.8527 -17.8522 -17.8522 -17.8471 -17.8471 -17.8459 -17.8459
   -17.8414 -17.8414 -17.8403 -17.8403 -17.7781 -17.7779 -17.7774 -17.7772
    -8.7235  -8.7048  -8.5544  -8.5221  -8.4349  -8.4235  -8.3701  -8.3429
    -8.2653  -8.2629  -8.2434  -8.2261  -4.6349  -4.6316  -4.6247  -4.6166
    -4.6020  -4.6018  -4.5908  -4.5886  -4.5748  -4.5656  -4.5534  -4.5530
    -2.9954  -2.9930  -2.9030  -2.8721   0.2871   0.3825   0.4601   0.5151
     0.6121   0.6997   0.8876   0.9423   0.9675   1.0249   1.0628   1.1116
     1.4125   1.4399   1.4656   1.5538   1.6521   1.7231   1.7640   1.7990
     1.8184   1.9459   1.9622   1.9717   1.9762   2.0375   2.0703   2.1003
     2.1119   2.1864   2.2968   2.3117   2.7005   2.7377   2.9257   3.0174
     5.8255

     occupation numbers 
     1.0000   1.0000   1.0000   1.0000   1.0000   1.0000   1.0000   1.0000
     1.0000   1.0000   1.0000   1.0000   1.0000   1.0000   1.0000   1.0000
     1.0000   1.0000   1.0000   1.0000   1.0000   1.0000   1.0000   1.0000
     1.0000   1.0000   1.0000   1.0000   1.0000   1.0000   1.0000   1.0000
     1.0000   1.0000   1.0000   1.0000   1.0000   1.0000   1.0000   1.0000
     1.0000   1.0000   1.0000   1.0000   1.0000   1.0000   1.0000   1.0000
     1.0000   1.0000   1.0000   1.0000   1.0000   1.0000   1.0000   1.0000
     1.0000   1.0000   1.0000   1.0000   1.0000   1.0000   1.0000   1.0000
     1.0000   1.0000   1.0000   1.0000   1.0000   1.0000   1.0000   1.0000
     1.0000   1.0000   1.0000   1.0000   1.0000   1.0000   1.0000   1.0000
     1.0000   1.0000   1.0000   1.0000   1.0000   1.0000   1.0000   1.0000
     0.0000

          k = 0.2000 0.0898 0.0533 ( 38044 PWs)   bands (ev):

   -17.8646 -17.8646 -17.8645 -17.8645 -17.8628 -17.8628 -17.8625 -17.8625
   -17.8528 -17.8528 -17.8522 -17.8522 -17.8471 -17.8471 -17.8459 -17.8459
   -17.8414 -17.8414 -17.8403 -17.8403 -17.7780 -17.7779 -17.7774 -17.7772
    -8.7220  -8.7069  -8.5509  -8.5247  -8.4345  -8.4254  -8.3672  -8.3453
    -8.2658  -8.2621  -8.2417  -8.2276  -4.6347  -4.6320  -4.6239  -4.6171
    -4.6035  -4.6007  -4.5914  -4.5892  -4.5734  -4.5660  -4.5531  -4.5528
    -2.9953  -2.9934  -2.8999  -2.8750   0.2931   0.3712   0.4704   0.5212
     0.6106   0.6839   0.8905   0.9410   0.9717   1.0333   1.0666   1.1064
     1.3963   1.4325   1.4576   1.5734   1.6506   1.7072   1.7428   1.8021
     1.8782   1.9296   1.9533   1.9794   1.9863   2.0343   2.0706   2.0918
     2.1149   2.1888   2.2959   2.3124   2.7044   2.7358   2.9294   3.0048
     5.8407

     occupation numbers 
     1.0000   1.0000   1.0000   1.0000   1.0000   1.0000   1.0000   1.0000
     1.0000   1.0000   1.0000   1.0000   1.0000   1.0000   1.0000   1.0000
     1.0000   1.0000   1.0000   1.0000   1.0000   1.0000   1.0000   1.0000
     1.0000   1.0000   1.0000   1.0000   1.0000   1.0000   1.0000   1.0000
     1.0000   1.0000   1.0000   1.0000   1.0000   1.0000   1.0000   1.0000
     1.0000   1.0000   1.0000   1.0000   1.0000   1.0000   1.0000   1.0000
     1.0000   1.0000   1.0000   1.0000   1.0000   1.0000   1.0000   1.0000
     1.0000   1.0000   1.0000   1.0000   1.0000   1.0000   1.0000   1.0000
     1.0000   1.0000   1.0000   1.0000   1.0000   1.0000   1.0000   1.0000
     1.0000   1.0000   1.0000   1.0000   1.0000   1.0000   1.0000   1.0000
     1.0000   1.0000   1.0000   1.0000   1.0000   1.0000   1.0000   1.0000
     0.0000

          k = 0.2000 0.0898 0.1065 ( 38015 PWs)   bands (ev):

   -17.8646 -17.8646 -17.8645 -17.8645 -17.8628 -17.8628 -17.8625 -17.8625
   -17.8528 -17.8527 -17.8522 -17.8522 -17.8471 -17.8471 -17.8459 -17.8459
   -17.8414 -17.8414 -17.8403 -17.8403 -17.7780 -17.7779 -17.7773 -17.7773
    -8.7178  -8.7120  -8.5421  -8.5321  -8.4329  -8.4294  -8.3599  -8.3516
    -8.2647  -8.2627  -8.2371  -8.2316  -4.6340  -4.6330  -4.6218  -4.6191
    -4.6034  -4.6016  -4.5915  -4.5904  -4.5704  -4.5676  -4.5526  -4.5525
    -2.9949  -2.9942  -2.8921  -2.8826   0.3122   0.3420   0.5000   0.5232
     0.6157   0.6463   0.9019   0.9215   1.0052   1.0343   1.0757   1.0927
     1.3838   1.4029   1.4763   1.5304   1.6942   1.7273   1.7428   1.7697
     1.9120   1.9232   1.9491   1.9709   2.0093   2.0253   2.0793   2.0858
     2.1327   2.1700   2.3016   2.3098   2.7153   2.7281   2.9452   2.9748
     5.8606

     occupation numbers 
     1.0000   1.0000   1.0000   1.0000   1.0000   1.0000   1.0000   1.0000
     1.0000   1.0000   1.0000   1.0000   1.0000   1.0000   1.0000   1.0000
     1.0000   1.0000   1.0000   1.0000   1.0000   1.0000   1.0000   1.0000
     1.0000   1.0000   1.0000   1.0000   1.0000   1.0000   1.0000   1.0000
     1.0000   1.0000   1.0000   1.0000   1.0000   1.0000   1.0000   1.0000
     1.0000   1.0000   1.0000   1.0000   1.0000   1.0000   1.0000   1.0000
     1.0000   1.0000   1.0000   1.0000   1.0000   1.0000   1.0000   1.0000
     1.0000   1.0000   1.0000   1.0000   1.0000   1.0000   1.0000   1.0000
     1.0000   1.0000   1.0000   1.0000   1.0000   1.0000   1.0000   1.0000
     1.0000   1.0000   1.0000   1.0000   1.0000   1.0000   1.0000   1.0000
     1.0000   1.0000   1.0000   1.0000   1.0000   1.0000   1.0000   1.0000
     0.0000

          k = 0.2000 0.1796 0.0000 ( 38049 PWs)   bands (ev):

   -17.8646 -17.8646 -17.8645 -17.8645 -17.8628 -17.8628 -17.8625 -17.8625
   -17.8528 -17.8528 -17.8522 -17.8522 -17.8471 -17.8471 -17.8459 -17.8459
   -17.8414 -17.8414 -17.8403 -17.8403 -17.7779 -17.7777 -17.7776 -17.7774
    -8.7072  -8.6990  -8.5614  -8.5536  -8.4480  -8.4470  -8.3375  -8.3254
    -8.2605  -8.2555  -8.2438  -8.2332  -4.6337  -4.6298  -4.6288  -4.6224
    -4.6061  -4.6048  -4.5902  -4.5899  -4.5659  -4.5600  -4.5586  -4.5561
    -2.9900  -2.9891  -2.8927  -2.8808   0.3113   0.3261   0.4385   0.4859
     0.6057   0.6448   0.8622   0.8745   1.0391   1.0998   1.1203   1.1657
     1.4747   1.4888   1.5144   1.5673   1.6426   1.6954   1.7519   1.7719
     1.9095   1.9207   1.9428   1.9690   1.9723   2.0446   2.0818   2.1143
     2.1407   2.1515   2.2060   2.2448   2.7182   2.7319   2.8877   2.9284
     5.9145

     occupation numbers 
     1.0000   1.0000   1.0000   1.0000   1.0000   1.0000   1.0000   1.0000
     1.0000   1.0000   1.0000   1.0000   1.0000   1.0000   1.0000   1.0000
     1.0000   1.0000   1.0000   1.0000   1.0000   1.0000   1.0000   1.0000
     1.0000   1.0000   1.0000   1.0000   1.0000   1.0000   1.0000   1.0000
     1.0000   1.0000   1.0000   1.0000   1.0000   1.0000   1.0000   1.0000
     1.0000   1.0000   1.0000   1.0000   1.0000   1.0000   1.0000   1.0000
     1.0000   1.0000   1.0000   1.0000   1.0000   1.0000   1.0000   1.0000
     1.0000   1.0000   1.0000   1.0000   1.0000   1.0000   1.0000   1.0000
     1.0000   1.0000   1.0000   1.0000   1.0000   1.0000   1.0000   1.0000
     1.0000   1.0000   1.0000   1.0000   1.0000   1.0000   1.0000   1.0000
     1.0000   1.0000   1.0000   1.0000   1.0000   1.0000   1.0000   1.0000
     0.0000

          k = 0.2000 0.1796 0.0533 ( 38052 PWs)   bands (ev):

   -17.8646 -17.8646 -17.8645 -17.8645 -17.8628 -17.8628 -17.8625 -17.8625
   -17.8528 -17.8528 -17.8522 -17.8522 -17.8471 -17.8471 -17.8459 -17.8459
   -17.8414 -17.8414 -17.8403 -17.8403 -17.7779 -17.7777 -17.7776 -17.7774
    -8.7065  -8.6998  -8.5606  -8.5543  -8.4479  -8.4464  -8.3375  -8.3276
    -8.2592  -8.2531  -8.2446  -8.2346  -4.6333  -4.6294  -4.6292  -4.6233
    -4.6058  -4.6046  -4.5907  -4.5905  -4.5651  -4.5605  -4.5580  -4.5560
    -2.9898  -2.9890  -2.8918  -2.8822   0.3158   0.3411   0.4225   0.4760
     0.6105   0.6495   0.8679   0.8920   1.0032   1.0772   1.1303   1.1610
     1.4767   1.5003   1.5318   1.5737   1.6427   1.7025   1.7454   1.7784
     1.8857   1.9145   1.9492   1.9732   1.9894   2.0415   2.0806   2.1108
     2.1268   2.1478   2.2191   2.2460   2.7225   2.7351   2.8838   2.9182
     5.9182

     occupation numbers 
     1.0000   1.0000   1.0000   1.0000   1.0000   1.0000   1.0000   1.0000
     1.0000   1.0000   1.0000   1.0000   1.0000   1.0000   1.0000   1.0000
     1.0000   1.0000   1.0000   1.0000   1.0000   1.0000   1.0000   1.0000
     1.0000   1.0000   1.0000   1.0000   1.0000   1.0000   1.0000   1.0000
     1.0000   1.0000   1.0000   1.0000   1.0000   1.0000   1.0000   1.0000
     1.0000   1.0000   1.0000   1.0000   1.0000   1.0000   1.0000   1.0000
     1.0000   1.0000   1.0000   1.0000   1.0000   1.0000   1.0000   1.0000
     1.0000   1.0000   1.0000   1.0000   1.0000   1.0000   1.0000   1.0000
     1.0000   1.0000   1.0000   1.0000   1.0000   1.0000   1.0000   1.0000
     1.0000   1.0000   1.0000   1.0000   1.0000   1.0000   1.0000   1.0000
     1.0000   1.0000   1.0000   1.0000   1.0000   1.0000   1.0000   1.0000
     0.0000

          k = 0.2000 0.1796 0.1065 ( 38039 PWs)   bands (ev):

   -17.8646 -17.8646 -17.8645 -17.8645 -17.8628 -17.8628 -17.8625 -17.8625
   -17.8528 -17.8528 -17.8522 -17.8522 -17.8471 -17.8471 -17.8459 -17.8459
   -17.8414 -17.8414 -17.8403 -17.8403 -17.7778 -17.7778 -17.7775 -17.7775
    -8.7045  -8.7020  -8.5586  -8.5562  -8.4470  -8.4462  -8.3361  -8.3323
    -8.2555  -8.2517  -8.2434  -8.2385  -4.6323  -4.6308  -4.6276  -4.6254
    -4.6051  -4.6046  -4.5914  -4.5913  -4.5633  -4.5616  -4.5569  -4.5562
    -2.9894  -2.9890  -2.8891  -2.8855   0.3352   0.3576   0.4084   0.4423
     0.6295   0.6474   0.8914   0.9272   0.9559   1.0148   1.1427   1.1527
     1.4976   1.5219   1.5407   1.5686   1.6694   1.6990   1.7410   1.7812
     1.8658   1.8947   1.9674   1.9780   2.0120   2.0311   2.0816   2.0934
     2.1241   2.1338   2.2377   2.2461   2.7325   2.7386   2.8819   2.8961
     5.9208

     occupation numbers 
     1.0000   1.0000   1.0000   1.0000   1.0000   1.0000   1.0000   1.0000
     1.0000   1.0000   1.0000   1.0000   1.0000   1.0000   1.0000   1.0000
     1.0000   1.0000   1.0000   1.0000   1.0000   1.0000   1.0000   1.0000
     1.0000   1.0000   1.0000   1.0000   1.0000   1.0000   1.0000   1.0000
     1.0000   1.0000   1.0000   1.0000   1.0000   1.0000   1.0000   1.0000
     1.0000   1.0000   1.0000   1.0000   1.0000   1.0000   1.0000   1.0000
     1.0000   1.0000   1.0000   1.0000   1.0000   1.0000   1.0000   1.0000
     1.0000   1.0000   1.0000   1.0000   1.0000   1.0000   1.0000   1.0000
     1.0000   1.0000   1.0000   1.0000   1.0000   1.0000   1.0000   1.0000
     1.0000   1.0000   1.0000   1.0000   1.0000   1.0000   1.0000   1.0000
     1.0000   1.0000   1.0000   1.0000   1.0000   1.0000   1.0000   1.0000
     0.0000

          k = 0.4000 0.0000 0.0000 ( 38066 PWs)   bands (ev):

   -17.8648 -17.8648 -17.8647 -17.8647 -17.8637 -17.8637 -17.8636 -17.8636
   -17.8525 -17.8525 -17.8523 -17.8523 -17.8451 -17.8451 -17.8446 -17.8446
   -17.8414 -17.8414 -17.8410 -17.8410 -17.7717 -17.7716 -17.7710 -17.7710
    -8.5580  -8.5504  -8.4696  -8.4621  -8.3313  -8.3280  -8.3278  -8.3145
    -8.2910  -8.2794  -8.2657  -8.2588  -4.7673  -4.7656  -4.7073  -4.7045
    -4.6021  -4.5996  -4.5937  -4.5893  -4.5823  -4.5733  -4.5550  -4.5548
    -3.1946  -3.1630  -3.1299  -3.1037   0.1180   0.1386   0.1558   0.1624
     0.5512   0.5521   0.6174   0.6841   0.7169   0.8351   0.9507   1.0566
     1.2499   1.3334   1.5746   1.5943   1.6060   1.7270   1.7395   1.7858
     1.8209   1.8260   1.8332   1.8404   1.8822   1.8844   1.9480   1.9980
     2.0504   2.0946   2.1527   2.1984   2.5142   2.7136   2.8364   3.0044
     6.0440

     occupation numbers 
     1.0000   1.0000   1.0000   1.0000   1.0000   1.0000   1.0000   1.0000
     1.0000   1.0000   1.0000   1.0000   1.0000   1.0000   1.0000   1.0000
     1.0000   1.0000   1.0000   1.0000   1.0000   1.0000   1.0000   1.0000
     1.0000   1.0000   1.0000   1.0000   1.0000   1.0000   1.0000   1.0000
     1.0000   1.0000   1.0000   1.0000   1.0000   1.0000   1.0000   1.0000
     1.0000   1.0000   1.0000   1.0000   1.0000   1.0000   1.0000   1.0000
     1.0000   1.0000   1.0000   1.0000   1.0000   1.0000   1.0000   1.0000
     1.0000   1.0000   1.0000   1.0000   1.0000   1.0000   1.0000   1.0000
     1.0000   1.0000   1.0000   1.0000   1.0000   1.0000   1.0000   1.0000
     1.0000   1.0000   1.0000   1.0000   1.0000   1.0000   1.0000   1.0000
     1.0000   1.0000   1.0000   1.0000   1.0000   1.0000   1.0000   1.0000
     0.0000

          k = 0.4000 0.0000 0.0533 ( 38035 PWs)   bands (ev):

   -17.8648 -17.8648 -17.8647 -17.8647 -17.8637 -17.8637 -17.8636 -17.8636
   -17.8525 -17.8525 -17.8523 -17.8523 -17.8451 -17.8451 -17.8446 -17.8446
   -17.8414 -17.8414 -17.8410 -17.8410 -17.7717 -17.7716 -17.7710 -17.7710
    -8.5573  -8.5512  -8.4688  -8.4628  -8.3312  -8.3285  -8.3264  -8.3158
    -8.2899  -8.2806  -8.2648  -8.2592  -4.7671  -4.7658  -4.7070  -4.7048
    -4.6022  -4.6004  -4.5932  -4.5894  -4.5814  -4.5740  -4.5550  -4.5548
    -3.1919  -3.1668  -3.1267  -3.1059   0.1191   0.1333   0.1576   0.1661
     0.5587   0.5687   0.6253   0.6801   0.7009   0.8036   0.9581   1.0455
     1.2665   1.3333   1.5915   1.5972   1.6114   1.7054   1.7281   1.7870
     1.8151   1.8223   1.8350   1.8663   1.8826   1.8855   1.9382   1.9774
     2.0673   2.1107   2.1499   2.1915   2.5347   2.7024   2.8429   2.9849
     6.0629

     occupation numbers 
     1.0000   1.0000   1.0000   1.0000   1.0000   1.0000   1.0000   1.0000
     1.0000   1.0000   1.0000   1.0000   1.0000   1.0000   1.0000   1.0000
     1.0000   1.0000   1.0000   1.0000   1.0000   1.0000   1.0000   1.0000
     1.0000   1.0000   1.0000   1.0000   1.0000   1.0000   1.0000   1.0000
     1.0000   1.0000   1.0000   1.0000   1.0000   1.0000   1.0000   1.0000
     1.0000   1.0000   1.0000   1.0000   1.0000   1.0000   1.0000   1.0000
     1.0000   1.0000   1.0000   1.0000   1.0000   1.0000   1.0000   1.0000
     1.0000   1.0000   1.0000   1.0000   1.0000   1.0000   1.0000   1.0000
     1.0000   1.0000   1.0000   1.0000   1.0000   1.0000   1.0000   1.0000
     1.0000   1.0000   1.0000   1.0000   1.0000   1.0000   1.0000   1.0000
     1.0000   1.0000   1.0000   1.0000   1.0000   1.0000   1.0000   1.0000
     0.0000

          k = 0.4000 0.0000 0.1065 ( 38035 PWs)   bands (ev):

   -17.8648 -17.8648 -17.8647 -17.8647 -17.8637 -17.8637 -17.8636 -17.8636
   -17.8525 -17.8525 -17.8523 -17.8523 -17.8451 -17.8451 -17.8446 -17.8446
   -17.8414 -17.8414 -17.8410 -17.8410 -17.7716 -17.7716 -17.7710 -17.7710
    -8.5556  -8.5532  -8.4668  -8.4645  -8.3307  -8.3296  -8.3232  -8.3192
    -8.2871  -8.2835  -8.2627  -8.2605  -4.7667  -4.7662  -4.7063  -4.7054
    -4.6021  -4.6015  -4.5918  -4.5903  -4.5788  -4.5760  -4.5549  -4.5548
    -3.1848  -3.1753  -3.1196  -3.1118   0.1215   0.1259   0.1630   0.1676
     0.5806   0.5962   0.6450   0.6665   0.6856   0.7355   0.9807   1.0149
     1.3002   1.3252   1.6069   1.6143   1.6304   1.6639   1.7337   1.7818
     1.7939   1.8050   1.8612   1.8764   1.8938   1.9031   1.9170   1.9381
     2.1040   2.1352   2.1421   2.1716   2.5894   2.6565   2.8780   2.9350
     6.1073

     occupation numbers 
     1.0000   1.0000   1.0000   1.0000   1.0000   1.0000   1.0000   1.0000
     1.0000   1.0000   1.0000   1.0000   1.0000   1.0000   1.0000   1.0000
     1.0000   1.0000   1.0000   1.0000   1.0000   1.0000   1.0000   1.0000
     1.0000   1.0000   1.0000   1.0000   1.0000   1.0000   1.0000   1.0000
     1.0000   1.0000   1.0000   1.0000   1.0000   1.0000   1.0000   1.0000
     1.0000   1.0000   1.0000   1.0000   1.0000   1.0000   1.0000   1.0000
     1.0000   1.0000   1.0000   1.0000   1.0000   1.0000   1.0000   1.0000
     1.0000   1.0000   1.0000   1.0000   1.0000   1.0000   1.0000   1.0000
     1.0000   1.0000   1.0000   1.0000   1.0000   1.0000   1.0000   1.0000
     1.0000   1.0000   1.0000   1.0000   1.0000   1.0000   1.0000   1.0000
     1.0000   1.0000   1.0000   1.0000   1.0000   1.0000   1.0000   1.0000
     0.0000

          k = 0.4000 0.0898 0.0000 ( 38028 PWs)   bands (ev):

   -17.8648 -17.8648 -17.8647 -17.8647 -17.8637 -17.8637 -17.8636 -17.8636
   -17.8525 -17.8525 -17.8523 -17.8523 -17.8451 -17.8451 -17.8446 -17.8446
   -17.8414 -17.8414 -17.8410 -17.8410 -17.7716 -17.7715 -17.7711 -17.7710
    -8.5546  -8.5483  -8.4719  -8.4661  -8.3479  -8.3417  -8.3096  -8.3022
    -8.2881  -8.2775  -8.2678  -8.2607  -4.7626  -4.7592  -4.7140  -4.7098
    -4.6011  -4.5985  -4.5942  -4.5902  -4.5801  -4.5714  -4.5586  -4.5560
    -3.1873  -3.1614  -3.1315  -3.1105   0.1277   0.1393   0.2160   0.2220
     0.5209   0.5289   0.5911   0.6166   0.6944   0.7680   0.9912   1.0604
     1.2937   1.3593   1.4913   1.5978   1.6394   1.7028   1.7505   1.7619
     1.7890   1.7995   1.8031   1.8634   1.8947   1.8967   1.9570   2.0206
     2.0380   2.1083   2.1533   2.1785   2.5743   2.7998   2.8673   2.9845
     6.0418

     occupation numbers 
     1.0000   1.0000   1.0000   1.0000   1.0000   1.0000   1.0000   1.0000
     1.0000   1.0000   1.0000   1.0000   1.0000   1.0000   1.0000   1.0000
     1.0000   1.0000   1.0000   1.0000   1.0000   1.0000   1.0000   1.0000
     1.0000   1.0000   1.0000   1.0000   1.0000   1.0000   1.0000   1.0000
     1.0000   1.0000   1.0000   1.0000   1.0000   1.0000   1.0000   1.0000
     1.0000   1.0000   1.0000   1.0000   1.0000   1.0000   1.0000   1.0000
     1.0000   1.0000   1.0000   1.0000   1.0000   1.0000   1.0000   1.0000
     1.0000   1.0000   1.0000   1.0000   1.0000   1.0000   1.0000   1.0000
     1.0000   1.0000   1.0000   1.0000   1.0000   1.0000   1.0000   1.0000
     1.0000   1.0000   1.0000   1.0000   1.0000   1.0000   1.0000   1.0000
     1.0000   1.0000   1.0000   1.0000   1.0000   1.0000   1.0000   1.0000
     0.0000

          k = 0.4000 0.0898 0.0533 ( 38044 PWs)   bands (ev):

   -17.8648 -17.8648 -17.8647 -17.8647 -17.8637 -17.8637 -17.8636 -17.8636
   -17.8525 -17.8525 -17.8523 -17.8523 -17.8451 -17.8451 -17.8446 -17.8446
   -17.8414 -17.8414 -17.8410 -17.8410 -17.7716 -17.7715 -17.7711 -17.7710
    -8.5541  -8.5490  -8.4713  -8.4666  -8.3474  -8.3423  -8.3091  -8.3031
    -8.2871  -8.2786  -8.2668  -8.2612  -4.7623  -4.7595  -4.7135  -4.7102
    -4.6012  -4.5993  -4.5937  -4.5904  -4.5792  -4.5722  -4.5583  -4.5562
    -3.1851  -3.1645  -3.1289  -3.1122   0.1292   0.1386   0.2150   0.2210
     0.5206   0.5403   0.5963   0.6160   0.6893   0.7667   0.9846   1.0409
     1.3023   1.3605   1.5058   1.5795   1.6555   1.6968   1.7257   1.7819
     1.7892   1.8008   1.8193   1.8623   1.8943   1.9024   1.9448   2.0173
     2.0327   2.1118   2.1547   2.1784   2.5952   2.7792   2.8776   2.9735
     6.0549

     occupation numbers 
     1.0000   1.0000   1.0000   1.0000   1.0000   1.0000   1.0000   1.0000
     1.0000   1.0000   1.0000   1.0000   1.0000   1.0000   1.0000   1.0000
     1.0000   1.0000   1.0000   1.0000   1.0000   1.0000   1.0000   1.0000
     1.0000   1.0000   1.0000   1.0000   1.0000   1.0000   1.0000   1.0000
     1.0000   1.0000   1.0000   1.0000   1.0000   1.0000   1.0000   1.0000
     1.0000   1.0000   1.0000   1.0000   1.0000   1.0000   1.0000   1.0000
     1.0000   1.0000   1.0000   1.0000   1.0000   1.0000   1.0000   1.0000
     1.0000   1.0000   1.0000   1.0000   1.0000   1.0000   1.0000   1.0000
     1.0000   1.0000   1.0000   1.0000   1.0000   1.0000   1.0000   1.0000
     1.0000   1.0000   1.0000   1.0000   1.0000   1.0000   1.0000   1.0000
     1.0000   1.0000   1.0000   1.0000   1.0000   1.0000   1.0000   1.0000
     0.0000

          k = 0.4000 0.0898 0.1065 ( 38020 PWs)   bands (ev):

   -17.8648 -17.8648 -17.8647 -17.8647 -17.8637 -17.8637 -17.8636 -17.8636
   -17.8525 -17.8525 -17.8523 -17.8523 -17.8451 -17.8451 -17.8446 -17.8446
   -17.8414 -17.8414 -17.8410 -17.8410 -17.7716 -17.7716 -17.7711 -17.7711
    -8.5526  -8.5506  -8.4698  -8.4680  -8.3459  -8.3439  -8.3075  -8.3052
    -8.2845  -8.2813  -8.2647  -8.2626  -4.7614  -4.7604  -4.7125  -4.7112
    -4.6011  -4.6004  -4.5924  -4.5911  -4.5768  -4.5741  -4.5576  -4.5568
    -3.1792  -3.1714  -3.1232  -3.1170   0.1326   0.1362   0.2151   0.2180
     0.5311   0.5448   0.6034   0.6128   0.7056   0.7451   0.9821   1.0045
     1.3242   1.3492   1.5379   1.5602   1.6589   1.6790   1.7422   1.7800
     1.7946   1.8066   1.8259   1.8463   1.9066   1.9210   1.9347   1.9763
     2.0607   2.0945   2.1663   2.1763   2.6513   2.7223   2.9072   2.9442
     6.0899

     occupation numbers 
     1.0000   1.0000   1.0000   1.0000   1.0000   1.0000   1.0000   1.0000
     1.0000   1.0000   1.0000   1.0000   1.0000   1.0000   1.0000   1.0000
     1.0000   1.0000   1.0000   1.0000   1.0000   1.0000   1.0000   1.0000
     1.0000   1.0000   1.0000   1.0000   1.0000   1.0000   1.0000   1.0000
     1.0000   1.0000   1.0000   1.0000   1.0000   1.0000   1.0000   1.0000
     1.0000   1.0000   1.0000   1.0000   1.0000   1.0000   1.0000   1.0000
     1.0000   1.0000   1.0000   1.0000   1.0000   1.0000   1.0000   1.0000
     1.0000   1.0000   1.0000   1.0000   1.0000   1.0000   1.0000   1.0000
     1.0000   1.0000   1.0000   1.0000   1.0000   1.0000   1.0000   1.0000
     1.0000   1.0000   1.0000   1.0000   1.0000   1.0000   1.0000   1.0000
     1.0000   1.0000   1.0000   1.0000   1.0000   1.0000   1.0000   1.0000
     0.0000

          k = 0.4000 0.1796 0.0000 ( 38034 PWs)   bands (ev):

   -17.8648 -17.8648 -17.8647 -17.8647 -17.8637 -17.8637 -17.8636 -17.8636
   -17.8525 -17.8525 -17.8523 -17.8523 -17.8451 -17.8451 -17.8446 -17.8446
   -17.8414 -17.8414 -17.8410 -17.8410 -17.7714 -17.7714 -17.7713 -17.7712
    -8.5477  -8.5451  -8.4758  -8.4738  -8.3570  -8.3545  -8.2965  -8.2943
    -8.2803  -8.2731  -8.2724  -8.2659  -4.7487  -4.7436  -4.7301  -4.7248
    -4.5986  -4.5959  -4.5958  -4.5927  -4.5739  -4.5667  -4.5657  -4.5608
    -3.1702  -3.1599  -3.1336  -3.1260   0.1920   0.2016   0.2746   0.2771
     0.4705   0.4778   0.5181   0.5386   0.6868   0.6985   0.9974   1.0260
     1.3949   1.4170   1.4266   1.5536   1.6138   1.6721   1.7105   1.7319
     1.7932   1.7953   1.8158   1.8405   1.9064   1.9084   1.9617   2.0044
     2.0789   2.1251   2.1526   2.1745   2.7298   2.8722   2.9088   2.9418
     6.0265

     occupation numbers 
     1.0000   1.0000   1.0000   1.0000   1.0000   1.0000   1.0000   1.0000
     1.0000   1.0000   1.0000   1.0000   1.0000   1.0000   1.0000   1.0000
     1.0000   1.0000   1.0000   1.0000   1.0000   1.0000   1.0000   1.0000
     1.0000   1.0000   1.0000   1.0000   1.0000   1.0000   1.0000   1.0000
     1.0000   1.0000   1.0000   1.0000   1.0000   1.0000   1.0000   1.0000
     1.0000   1.0000   1.0000   1.0000   1.0000   1.0000   1.0000   1.0000
     1.0000   1.0000   1.0000   1.0000   1.0000   1.0000   1.0000   1.0000
     1.0000   1.0000   1.0000   1.0000   1.0000   1.0000   1.0000   1.0000
     1.0000   1.0000   1.0000   1.0000   1.0000   1.0000   1.0000   1.0000
     1.0000   1.0000   1.0000   1.0000   1.0000   1.0000   1.0000   1.0000
     1.0000   1.0000   1.0000   1.0000   1.0000   1.0000   1.0000   1.0000
     0.0000

          k = 0.4000 0.1796 0.0533 ( 38019 PWs)   bands (ev):

   -17.8648 -17.8648 -17.8647 -17.8647 -17.8637 -17.8637 -17.8636 -17.8636
   -17.8525 -17.8525 -17.8523 -17.8523 -17.8451 -17.8451 -17.8446 -17.8446
   -17.8414 -17.8414 -17.8410 -17.8410 -17.7714 -17.7714 -17.7712 -17.7712
    -8.5475  -8.5454  -8.4756  -8.4740  -8.3568  -8.3547  -8.2964  -8.2946
    -8.2796  -8.2734  -8.2720  -8.2665  -4.7482  -4.7441  -4.7295  -4.7252
    -4.5986  -4.5969  -4.5949  -4.5928  -4.5732  -4.5675  -4.5650  -4.5612
    -3.1692  -3.1610  -3.1328  -3.1267   0.1923   0.2009   0.2723   0.2747
     0.4705   0.4776   0.5210   0.5382   0.6938   0.7068   0.9955   1.0226
     1.3642   1.3821   1.4791   1.5312   1.6347   1.6698   1.7168   1.7489
     1.7877   1.7961   1.8216   1.8246   1.9061   1.9173   1.9592   2.0100
     2.0698   2.1200   2.1518   2.1758   2.7453   2.8654   2.9083   2.9377
     6.0377

     occupation numbers 
     1.0000   1.0000   1.0000   1.0000   1.0000   1.0000   1.0000   1.0000
     1.0000   1.0000   1.0000   1.0000   1.0000   1.0000   1.0000   1.0000
     1.0000   1.0000   1.0000   1.0000   1.0000   1.0000   1.0000   1.0000
     1.0000   1.0000   1.0000   1.0000   1.0000   1.0000   1.0000   1.0000
     1.0000   1.0000   1.0000   1.0000   1.0000   1.0000   1.0000   1.0000
     1.0000   1.0000   1.0000   1.0000   1.0000   1.0000   1.0000   1.0000
     1.0000   1.0000   1.0000   1.0000   1.0000   1.0000   1.0000   1.0000
     1.0000   1.0000   1.0000   1.0000   1.0000   1.0000   1.0000   1.0000
     1.0000   1.0000   1.0000   1.0000   1.0000   1.0000   1.0000   1.0000
     1.0000   1.0000   1.0000   1.0000   1.0000   1.0000   1.0000   1.0000
     1.0000   1.0000   1.0000   1.0000   1.0000   1.0000   1.0000   1.0000
     0.0000

          k = 0.4000 0.1796 0.1065 ( 38024 PWs)   bands (ev):

   -17.8648 -17.8648 -17.8647 -17.8647 -17.8637 -17.8637 -17.8636 -17.8636
   -17.8525 -17.8525 -17.8523 -17.8523 -17.8451 -17.8451 -17.8446 -17.8446
   -17.8414 -17.8414 -17.8410 -17.8410 -17.7714 -17.7714 -17.7712 -17.7712
    -8.5468  -8.5460  -8.4751  -8.4745  -8.3562  -8.3554  -8.2960  -8.2953
    -8.2777  -8.2753  -8.2701  -8.2680  -4.7469  -4.7454  -4.7282  -4.7266
    -4.5984  -4.5979  -4.5941  -4.5934  -4.5713  -4.5692  -4.5637  -4.5622
    -3.1668  -3.1637  -3.1308  -3.1285   0.1944   0.1982   0.2691   0.2702
     0.4722   0.4753   0.5286   0.5354   0.7095   0.7160   0.9981   1.0106
     1.3417   1.3495   1.5067   1.5107   1.6623   1.6790   1.7247   1.7534
     1.7863   1.7982   1.8101   1.8218   1.9152   1.9239   1.9652   1.9947
     2.0762   2.0998   2.1596   2.1707   2.7856   2.8334   2.9162   2.9283
     6.0684

     occupation numbers 
     1.0000   1.0000   1.0000   1.0000   1.0000   1.0000   1.0000   1.0000
     1.0000   1.0000   1.0000   1.0000   1.0000   1.0000   1.0000   1.0000
     1.0000   1.0000   1.0000   1.0000   1.0000   1.0000   1.0000   1.0000
     1.0000   1.0000   1.0000   1.0000   1.0000   1.0000   1.0000   1.0000
     1.0000   1.0000   1.0000   1.0000   1.0000   1.0000   1.0000   1.0000
     1.0000   1.0000   1.0000   1.0000   1.0000   1.0000   1.0000   1.0000
     1.0000   1.0000   1.0000   1.0000   1.0000   1.0000   1.0000   1.0000
     1.0000   1.0000   1.0000   1.0000   1.0000   1.0000   1.0000   1.0000
     1.0000   1.0000   1.0000   1.0000   1.0000   1.0000   1.0000   1.0000
     1.0000   1.0000   1.0000   1.0000   1.0000   1.0000   1.0000   1.0000
     1.0000   1.0000   1.0000   1.0000   1.0000   1.0000   1.0000   1.0000
     0.0000

     highest occupied, lowest unoccupied level (ev):     3.0573    5.1398

!    total energy              =   -7979.62709047 Ry

     total all-electron energy =   -282510.781803 Ry
     estimated scf accuracy    <       0.00000035 Ry

     The total energy is the sum of the following terms:
     one-electron contribution =    -463.63837820 Ry
     hartree contribution      =     316.59182619 Ry
     xc contribution           =    -465.88952268 Ry
     ewald contribution        =    -633.56960439 Ry
     one-center paw contrib.   =   -6733.12141140 Ry
      -> PAW hartree energy AE =      25.63857617 Ry
      -> PAW hartree energy PS =     -25.52902769 Ry
      -> PAW xc energy AE      =    -383.53085674 Ry
      -> PAW xc energy PS      =      20.51553701 Ry
      -> total E_H with PAW    =     316.70137467 Ry
      -> total E_XC with PAW   =    -828.90484241 Ry

     convergence has been achieved in  11 iterations

     Forces acting on atoms (cartesian axes, Ry/au):

     atom    1 type  3   force =     0.00000000   -0.00061352    0.00041127
     atom    2 type  3   force =     0.00000000    0.00061352   -0.00041127
     atom    3 type  3   force =     0.00000000   -0.00061352   -0.00041127
     atom    4 type  3   force =     0.00000000    0.00061352    0.00041127
     atom    5 type  1   force =     0.00000000   -0.00052072    0.00019352
     atom    6 type  1   force =     0.00000000    0.00052072   -0.00019352
     atom    7 type  1   force =     0.00000000   -0.00052072   -0.00019352
     atom    8 type  1   force =     0.00000000    0.00052072    0.00019352
     atom    9 type  2   force =    -0.00000000   -0.00001447   -0.00033348
     atom   10 type  2   force =     0.00000000    0.00001447    0.00033348
     atom   11 type  2   force =     0.00000000   -0.00001447    0.00033348
     atom   12 type  2   force =     0.00000000    0.00001447   -0.00033348
     atom   13 type  2   force =     0.00000000   -0.00023506   -0.00034778
     atom   14 type  2   force =     0.00000000    0.00023506    0.00034778
     atom   15 type  2   force =    -0.00000000   -0.00023506    0.00034778
     atom   16 type  2   force =     0.00000000    0.00023506   -0.00034778
     atom   17 type  2   force =     0.00000000   -0.00041297    0.00032174
     atom   18 type  2   force =     0.00000000    0.00041297   -0.00032174
     atom   19 type  2   force =     0.00000000   -0.00041297   -0.00032174
     atom   20 type  2   force =     0.00000000    0.00041297    0.00032174
     The non-local contrib.  to forces
     atom    1 type  3   force =     0.00000000    0.00221933   -0.00229102
     atom    2 type  3   force =     0.00000000   -0.00221933    0.00229102
     atom    3 type  3   force =     0.00000000    0.00221933    0.00229102
     atom    4 type  3   force =     0.00000000   -0.00221933   -0.00229102
     atom    5 type  1   force =     0.00000000   -0.08726290   -0.13183120
     atom    6 type  1   force =    -0.00000000    0.08726290    0.13183120
     atom    7 type  1   force =     0.00000000   -0.08726290    0.13183120
     atom    8 type  1   force =     0.00000000    0.08726290   -0.13183120
     atom    9 type  2   force =     0.00000000   -0.04832919   -0.04730685
     atom   10 type  2   force =     0.00000000    0.04832919    0.04730685
     atom   11 type  2   force =     0.00000000   -0.04832919    0.04730685
     atom   12 type  2   force =     0.00000000    0.04832919   -0.04730685
     atom   13 type  2   force =    -0.00000000   -0.03284078    0.05563306
     atom   14 type  2   force =     0.00000000    0.03284078   -0.05563306
     atom   15 type  2   force =    -0.00000000   -0.03284078   -0.05563306
     atom   16 type  2   force =     0.00000000    0.03284078    0.05563306
     atom   17 type  2   force =     0.00000000    0.05553465   -0.01653719
     atom   18 type  2   force =     0.00000000   -0.05553465    0.01653719
     atom   19 type  2   force =     0.00000000    0.05553465    0.01653719
     atom   20 type  2   force =     0.00000000   -0.05553465   -0.01653719
     The ionic contribution  to forces
     atom    1 type  3   force =    -0.00000000    0.02273773    0.42856976
     atom    2 type  3   force =    -0.00000000   -0.02273773   -0.42856976
     atom    3 type  3   force =    -0.00000000    0.02273773   -0.42856976
     atom    4 type  3   force =     0.00000000   -0.02273773    0.42856976
     atom    5 type  1   force =    -0.00000000   -2.44382135   -1.60292983
     atom    6 type  1   force =     0.00000000    2.44382135    1.60292983
     atom    7 type  1   force =    -0.00000000   -2.44382135    1.60292983
     atom    8 type  1   force =     0.00000000    2.44382135   -1.60292983
     atom    9 type  2   force =    -0.00000000    3.00608891    5.13288893
     atom   10 type  2   force =     0.00000000   -3.00608891   -5.13288893
     atom   11 type  2   force =    -0.00000000    3.00608891   -5.13288893
     atom   12 type  2   force =    -0.00000000   -3.00608891    5.13288893
     atom   13 type  2   force =     0.00000000    2.02422849   -3.75281499
     atom   14 type  2   force =     0.00000000   -2.02422849    3.75281499
     atom   15 type  2   force =    -0.00000000    2.02422849    3.75281499
     atom   16 type  2   force =    -0.00000000   -2.02422849   -3.75281499
     atom   17 type  2   force =     0.00000000   -4.20564473    2.10270404
     atom   18 type  2   force =    -0.00000000    4.20564473   -2.10270404
     atom   19 type  2   force =     0.00000000   -4.20564473   -2.10270404
     atom   20 type  2   force =    -0.00000000    4.20564473    2.10270404
     The local contribution  to forces
     atom    1 type  3   force =     0.00000000   -0.02544980   -0.42613132
     atom    2 type  3   force =    -0.00000000    0.02544980    0.42613132
     atom    3 type  3   force =     0.00000000   -0.02544980    0.42613132
     atom    4 type  3   force =    -0.00000000    0.02544980   -0.42613132
     atom    5 type  1   force =    -0.00000000    2.53054916    1.73520845
     atom    6 type  1   force =    -0.00000000   -2.53054916   -1.73520845
     atom    7 type  1   force =    -0.00000000    2.53054916   -1.73520845
     atom    8 type  1   force =    -0.00000000   -2.53054916    1.73520845
     atom    9 type  2   force =     0.00000000   -2.96439879   -5.09283978
     atom   10 type  2   force =     0.00000000    2.96439879    5.09283978
     atom   11 type  2   force =     0.00000000   -2.96439879    5.09283978
     atom   12 type  2   force =     0.00000000    2.96439879   -5.09283978
     atom   13 type  2   force =    -0.00000000   -1.99608371    3.70455837
     atom   14 type  2   force =    -0.00000000    1.99608371   -3.70455837
     atom   15 type  2   force =     0.00000000   -1.99608371   -3.70455837
     atom   16 type  2   force =    -0.00000000    1.99608371    3.70455837
     atom   17 type  2   force =    -0.00000000    4.15753329   -2.08848200
     atom   18 type  2   force =    -0.00000000   -4.15753329    2.08848200
     atom   19 type  2   force =     0.00000000    4.15753329    2.08848200
     atom   20 type  2   force =    -0.00000000   -4.15753329   -2.08848200
     The core correction contribution to forces
     atom    1 type  3   force =    -0.00000000   -0.00017917    0.00018683
     atom    2 type  3   force =     0.00000000    0.00017917   -0.00018683
     atom    3 type  3   force =    -0.00000000   -0.00017917   -0.00018683
     atom    4 type  3   force =     0.00000000    0.00017917    0.00018683
     atom    5 type  1   force =    -0.00000000    0.00019765    0.00007339
     atom    6 type  1   force =    -0.00000000   -0.00019765   -0.00007339
     atom    7 type  1   force =     0.00000000    0.00019765   -0.00007339
     atom    8 type  1   force =    -0.00000000   -0.00019765    0.00007339
     atom    9 type  2   force =    -0.00000000    0.00642392    0.00650997
     atom   10 type  2   force =     0.00000000   -0.00642392   -0.00650997
     atom   11 type  2   force =    -0.00000000    0.00642392   -0.00650997
     atom   12 type  2   force =     0.00000000   -0.00642392    0.00650997
     atom   13 type  2   force =    -0.00000000    0.00433186   -0.00741569
     atom   14 type  2   force =     0.00000000   -0.00433186    0.00741569
     atom   15 type  2   force =     0.00000000    0.00433186    0.00741569
     atom   16 type  2   force =     0.00000000   -0.00433186   -0.00741569
     atom   17 type  2   force =     0.00000000   -0.00761224    0.00247232
     atom   18 type  2   force =     0.00000000    0.00761224   -0.00247232
     atom   19 type  2   force =    -0.00000000   -0.00761224   -0.00247232
     atom   20 type  2   force =     0.00000000    0.00761224    0.00247232
     The Hubbard contrib.    to forces
     atom    1 type  3   force =     0.00000000    0.00000000    0.00000000
     atom    2 type  3   force =     0.00000000    0.00000000    0.00000000
     atom    3 type  3   force =     0.00000000    0.00000000    0.00000000
     atom    4 type  3   force =     0.00000000    0.00000000    0.00000000
     atom    5 type  1   force =     0.00000000    0.00000000    0.00000000
     atom    6 type  1   force =     0.00000000    0.00000000    0.00000000
     atom    7 type  1   force =     0.00000000    0.00000000    0.00000000
     atom    8 type  1   force =     0.00000000    0.00000000    0.00000000
     atom    9 type  2   force =     0.00000000    0.00000000    0.00000000
     atom   10 type  2   force =     0.00000000    0.00000000    0.00000000
     atom   11 type  2   force =     0.00000000    0.00000000    0.00000000
     atom   12 type  2   force =     0.00000000    0.00000000    0.00000000
     atom   13 type  2   force =     0.00000000    0.00000000    0.00000000
     atom   14 type  2   force =     0.00000000    0.00000000    0.00000000
     atom   15 type  2   force =     0.00000000    0.00000000    0.00000000
     atom   16 type  2   force =     0.00000000    0.00000000    0.00000000
     atom   17 type  2   force =     0.00000000    0.00000000    0.00000000
     atom   18 type  2   force =     0.00000000    0.00000000    0.00000000
     atom   19 type  2   force =     0.00000000    0.00000000    0.00000000
     atom   20 type  2   force =     0.00000000    0.00000000    0.00000000
     The SCF correction term to forces
     atom    1 type  3   force =    -0.00000000    0.00005838    0.00007701
     atom    2 type  3   force =     0.00000000   -0.00005838   -0.00007701
     atom    3 type  3   force =    -0.00000000    0.00005838   -0.00007701
     atom    4 type  3   force =    -0.00000000   -0.00005838    0.00007701
     atom    5 type  1   force =     0.00000000   -0.00018328   -0.00032728
     atom    6 type  1   force =    -0.00000000    0.00018328    0.00032728
     atom    7 type  1   force =    -0.00000000   -0.00018328    0.00032728
     atom    8 type  1   force =     0.00000000    0.00018328   -0.00032728
     atom    9 type  2   force =    -0.00000000    0.00020067    0.00041425
     atom   10 type  2   force =     0.00000000   -0.00020067   -0.00041425
     atom   11 type  2   force =    -0.00000000    0.00020067   -0.00041425
     atom   12 type  2   force =    -0.00000000   -0.00020067    0.00041425
     atom   13 type  2   force =    -0.00000000    0.00012908   -0.00030853
     atom   14 type  2   force =    -0.00000000   -0.00012908    0.00030853
     atom   15 type  2   force =    -0.00000000    0.00012908    0.00030853
     atom   16 type  2   force =     0.00000000   -0.00012908   -0.00030853
     atom   17 type  2   force =    -0.00000000   -0.00022393    0.00016458
     atom   18 type  2   force =     0.00000000    0.00022393   -0.00016458
     atom   19 type  2   force =     0.00000000   -0.00022393   -0.00016458
     atom   20 type  2   force =     0.00000000    0.00022393    0.00016458

     Total force =     0.002380     Total SCF correction =     0.001485
     SCF correction compared to forces is large: reduce conv_thr to get better values


     Computing stress (Cartesian axis) and pressure

          total   stress  (Ry/bohr**3)                   (kbar)     P=        0.02
   0.00000028   0.00000000   0.00000000            0.04        0.00        0.00
   0.00000000   0.00000044   0.00000000            0.00        0.06        0.00
   0.00000000   0.00000000  -0.00000037            0.00        0.00       -0.05

     kinetic stress (kbar)   5524.27      0.00      0.00
                                0.00   5535.31      0.00
                                0.00      0.00   5529.28

     local   stress (kbar)  -4517.30      0.00     -0.00
                                0.00  -1884.72      0.00
                               -0.00      0.00   -991.34

     nonloc. stress (kbar)   1140.22      0.00      0.00
                                0.00   1138.57      0.00
                                0.00      0.00   1141.23

     hartree stress (kbar)   3402.73      0.00      0.00
                                0.00   2188.74      0.00
                                0.00      0.00   1719.10

     exc-cor stress (kbar)   5446.86     -0.00     -0.00
                               -0.00   5446.51      0.00
                               -0.00      0.00   5446.94

     corecor stress (kbar)  -7211.93     -0.00      0.00
                               -0.00  -7212.19     -0.00
                                0.00     -0.00  -7212.17

     ewald   stress (kbar)  -3784.80     -0.00     -0.00
                               -0.00  -5212.16      0.00
                               -0.00      0.00  -5633.09

     hubbard stress (kbar)      0.00      0.00      0.00
                                0.00      0.00      0.00
                                0.00      0.00      0.00

     DFT-D   stress (kbar)      0.00      0.00      0.00
                                0.00      0.00      0.00
                                0.00      0.00      0.00

     XDM     stress (kbar)      0.00      0.00      0.00
                                0.00      0.00      0.00
                                0.00      0.00      0.00

     dft-nl  stress (kbar)      0.00      0.00      0.00
                                0.00      0.00      0.00
                                0.00      0.00      0.00

     TS-vdW  stress (kbar)      0.00      0.00      0.00
                                0.00      0.00      0.00
                                0.00      0.00      0.00



     Writing output data file ./out/CsSnI3.save/

     init_run     :     60.60s CPU     61.45s WALL (       1 calls)
     electrons    :   2255.00s CPU   2266.47s WALL (       1 calls)
     forces       :     50.93s CPU     51.10s WALL (       1 calls)
     stress       :     72.49s CPU     73.30s WALL (       1 calls)

     Called by init_run:
     wfcinit      :     56.82s CPU     57.07s WALL (       1 calls)
     wfcinit:atom :      0.13s CPU      0.13s WALL (      27 calls)
     wfcinit:wfcr :     55.83s CPU     56.03s WALL (      27 calls)
     potinit      :      1.33s CPU      1.50s WALL (       1 calls)
     hinit0       :      1.23s CPU      1.26s WALL (       1 calls)

     Called by electrons:
     c_bands      :   2052.02s CPU   2060.01s WALL (      12 calls)
     sum_band     :    185.57s CPU    187.21s WALL (      12 calls)
     v_of_rho     :      0.74s CPU      0.80s WALL (      12 calls)
     v_h          :      0.04s CPU      0.04s WALL (      12 calls)
     v_xc         :      0.80s CPU      0.86s WALL (      14 calls)
     newd         :      9.86s CPU     10.66s WALL (      12 calls)
     PAW_pot      :      8.01s CPU      8.14s WALL (      12 calls)
     mix_rho      :      0.22s CPU      0.56s WALL (      12 calls)

     Called by c_bands:
     init_us_2    :      9.88s CPU      9.96s WALL (     729 calls)
     cegterg      :   2030.73s CPU   2037.19s WALL (     324 calls)

     Called by sum_band:
     sum_band:wei :      0.00s CPU      0.02s WALL (      12 calls)
     sum_band:loo :    176.25s CPU    177.14s WALL (      12 calls)
     sum_band:buf :      1.17s CPU      1.23s WALL (     324 calls)
     sum_band:ini :      4.49s CPU      4.50s WALL (     324 calls)
     sum_band:cal :    136.23s CPU    136.52s WALL (     324 calls)
     sum_band:bec :      0.75s CPU      0.76s WALL (     324 calls)
     addusdens    :      8.44s CPU      9.13s WALL (      12 calls)
     addusd:skk   :      0.02s CPU      0.02s WALL (      36 calls)
     addusd:dgemm :      4.23s CPU      4.90s WALL (      36 calls)
     addusd:qvan2 :      3.90s CPU      3.91s WALL (      36 calls)

     Called by *egterg:
     cdiaghg      :     55.43s CPU     55.57s WALL (    1776 calls)
     cegterg:over :    118.84s CPU    119.15s WALL (    1479 calls)
     cegterg:upda :     84.10s CPU     84.32s WALL (    1479 calls)
     cegterg:last :    319.52s CPU    320.20s WALL (     849 calls)
     h_psi        :   1019.57s CPU   1023.75s WALL (    1830 calls)
     s_psi        :    418.81s CPU    419.72s WALL (    1830 calls)
     g_psi        :      0.65s CPU      0.66s WALL (    1479 calls)

     Called by h_psi:
     h_psi:calbec :    413.22s CPU    414.13s WALL (    1830 calls)
     vloc_psi     :    182.39s CPU    184.74s WALL (    1830 calls)
     add_vuspsi   :    421.17s CPU    422.07s WALL (    1830 calls)

     General routines
     calbec       :    606.95s CPU    608.27s WALL (    2289 calls)
     fft          :      0.67s CPU      0.67s WALL (     158 calls)
     ffts         :      0.02s CPU      0.02s WALL (      12 calls)
     fftw         :    197.28s CPU    199.83s WALL (  203478 calls)

     Parallel routines
     fft_scatt_xy :     15.43s CPU     15.60s WALL (  203648 calls)
     fft_scatt_yz :     42.79s CPU     43.40s WALL (  203648 calls)

     PAW routines
     PAW_pot      :      8.01s CPU      8.14s WALL (      12 calls)
     PAW_symme    :      0.04s CPU      0.04s WALL (      24 calls)

     PWSCF        :  40m44.25s CPU  41m 3.36s WALL


   This run was terminated on:  11:42:31  15Jan2021            

=------------------------------------------------------------------------------=
   JOB DONE.
=------------------------------------------------------------------------------=
