
     Program PWSCF v.6.4.1 starts on 24Jan2021 at 20:15:52 

     This program is part of the open-source Quantum ESPRESSO suite
     for quantum simulation of materials; please cite
         "P. Giannozzi et al., J. Phys.:Condens. Matter 21 395502 (2009);
         "P. Giannozzi et al., J. Phys.:Condens. Matter 29 465901 (2017);
          URL http://www.quantum-espresso.org", 
     in publications or presentations arising from this work. More details at
     http://www.quantum-espresso.org/quote

     Parallel version (MPI & OpenMP), running on      48 processor cores
     Number of MPI processes:                24
     Threads/MPI process:                     2

     MPI processes distributed on     1 nodes
     R & G space division:  proc/nbgrp/npool/nimage =      24
     Waiting for input...
     Reading input from standard input

     Current dimensions of program PWSCF are:
     Max number of different atomic species (ntypx) = 10
     Max number of k-points (npk) =  40000
     Max angular momentum in pseudopotentials (lmaxx) =  3
               file Sn.rel-pbesol-dn-kjpaw_psl.1.0.0.UPF: wavefunction(s)  5S 5P 5P 4D 4D renormalized
               file I.rel-pbesol-n-kjpaw_psl.1.0.0.UPF: wavefunction(s)  5S renormalized

     Subspace diagonalization in iterative solution of the eigenvalue problem:
     one sub-group per band group will be used
     scalapack distributed-memory algorithm (size of sub-group:  3*  3 procs)

 
     Parallelization info
     --------------------
     sticks:   dense  smooth     PW     G-vecs:    dense   smooth      PW
     Min         222     148     40                12208     6652     958
     Max         223     149     41                12211     6655     961
     Sum        5345    3569    973               293027   159699   23031
 

     Title: 
     CsIsalt                                                                    


     bravais-lattice index     =            1
     lattice parameter (alat)  =      12.6355  a.u.
     unit-cell volume          =    2017.3401 (a.u.)^3
     number of atoms/cell      =            5
     number of atomic types    =            2
     number of electrons       =        42.00
     number of Kohn-Sham states=           42
     kinetic-energy cutoff     =      70.0000  Ry
     charge density cutoff     =     420.0000  Ry
     convergence threshold     =      1.0E-06
     mixing beta               =       0.3500
     number of iterations used =            8  plain     mixing
     Exchange-correlation      = SLA PW PSX PSC ( 1  4 10  8 0 0)
     Non magnetic calculation with spin-orbit


     celldm(1)=  12.635518  celldm(2)=   0.000000  celldm(3)=   0.000000
     celldm(4)=   0.000000  celldm(5)=   0.000000  celldm(6)=   0.000000

     crystal axes: (cart. coord. in units of alat)
               a(1) = (   1.000000   0.000000   0.000000 )  
               a(2) = (   0.000000   1.000000   0.000000 )  
               a(3) = (   0.000000   0.000000   1.000000 )  

     reciprocal axes: (cart. coord. in units 2 pi/alat)
               b(1) = (  1.000000  0.000000  0.000000 )  
               b(2) = (  0.000000  1.000000  0.000000 )  
               b(3) = (  0.000000  0.000000  1.000000 )  


     PseudoPot. # 1 for Sn read from file:
     /marconi_scratch/userexternal/cmalosso/degironcoli/pseudo/Sn.rel-pbesol-dn-kjpaw_psl.1.0.0.UPF
     MD5 check sum: e69eff64f15ae39ad43ef58bacbfdf88
     Pseudo is Projector augmented-wave + core cor, Zval = 14.0
     Generated using "atomic" code by A. Dal Corso v.6.3
     Shape of augmentation charge: PSQ
     Using radial grid of 1243 points, 10 beta functions with: 
                l(1) =   0
                l(2) =   0
                l(3) =   1
                l(4) =   1
                l(5) =   1
                l(6) =   1
                l(7) =   2
                l(8) =   2
                l(9) =   2
               l(10) =   2
     Q(r) pseudized with 0 coefficients 


     PseudoPot. # 2 for I  read from file:
     /marconi_scratch/userexternal/cmalosso/degironcoli/pseudo/I.rel-pbesol-n-kjpaw_psl.1.0.0.UPF
     MD5 check sum: 4478c427bd443f303eca1937a163b991
     Pseudo is Projector augmented-wave + core cor, Zval =  7.0
     Generated using "atomic" code by A. Dal Corso v.6.3
     Shape of augmentation charge: PSQ
     Using radial grid of 1247 points, 10 beta functions with: 
                l(1) =   0
                l(2) =   0
                l(3) =   1
                l(4) =   1
                l(5) =   1
                l(6) =   1
                l(7) =   2
                l(8) =   2
                l(9) =   2
               l(10) =   2
     Q(r) pseudized with 0 coefficients 


     atomic species   valence    mass     pseudopotential
        Sn            14.00   118.70000     Sn( 1.00)
        I              7.00   126.90000     I ( 1.00)

     24 Sym. Ops. (no inversion) found


                                    s                        frac. trans.

      isym =  1     identity                                     

 cryst.   s( 1) = (     1          0          0      )
                  (     0          1          0      )
                  (     0          0          1      )

 cart.    s( 1) = (  1.0000000  0.0000000  0.0000000 )
                  (  0.0000000  1.0000000  0.0000000 )
                  (  0.0000000  0.0000000  1.0000000 )


      isym =  2     180 deg rotation - cart. axis [0,0,1]        

 cryst.   s( 2) = (    -1          0          0      )
                  (     0         -1          0      )
                  (     0          0          1      )

 cart.    s( 2) = ( -1.0000000  0.0000000  0.0000000 )
                  (  0.0000000 -1.0000000  0.0000000 )
                  (  0.0000000  0.0000000  1.0000000 )


      isym =  3     180 deg rotation - cart. axis [0,1,0]        

 cryst.   s( 3) = (    -1          0          0      )
                  (     0          1          0      )
                  (     0          0         -1      )

 cart.    s( 3) = ( -1.0000000  0.0000000  0.0000000 )
                  (  0.0000000  1.0000000  0.0000000 )
                  (  0.0000000  0.0000000 -1.0000000 )


      isym =  4     180 deg rotation - cart. axis [1,0,0]        

 cryst.   s( 4) = (     1          0          0      )
                  (     0         -1          0      )
                  (     0          0         -1      )

 cart.    s( 4) = (  1.0000000  0.0000000  0.0000000 )
                  (  0.0000000 -1.0000000  0.0000000 )
                  (  0.0000000  0.0000000 -1.0000000 )


      isym =  5     120 deg rotation - cart. axis [-1,-1,-1]     

 cryst.   s( 5) = (     0          0          1      )
                  (     1          0          0      )
                  (     0          1          0      )

 cart.    s( 5) = (  0.0000000  1.0000000  0.0000000 )
                  (  0.0000000  0.0000000  1.0000000 )
                  (  1.0000000  0.0000000  0.0000000 )


      isym =  6     120 deg rotation - cart. axis [-1,1,1]       

 cryst.   s( 6) = (     0          0         -1      )
                  (    -1          0          0      )
                  (     0          1          0      )

 cart.    s( 6) = (  0.0000000 -1.0000000  0.0000000 )
                  (  0.0000000  0.0000000  1.0000000 )
                  ( -1.0000000  0.0000000  0.0000000 )


      isym =  7     120 deg rotation - cart. axis [1,1,-1]       

 cryst.   s( 7) = (     0          0         -1      )
                  (     1          0          0      )
                  (     0         -1          0      )

 cart.    s( 7) = (  0.0000000  1.0000000  0.0000000 )
                  (  0.0000000  0.0000000 -1.0000000 )
                  ( -1.0000000  0.0000000  0.0000000 )


      isym =  8     120 deg rotation - cart. axis [1,-1,1]       

 cryst.   s( 8) = (     0          0          1      )
                  (    -1          0          0      )
                  (     0         -1          0      )

 cart.    s( 8) = (  0.0000000 -1.0000000  0.0000000 )
                  (  0.0000000  0.0000000 -1.0000000 )
                  (  1.0000000  0.0000000  0.0000000 )


      isym =  9     120 deg rotation - cart. axis [1,1,1]        

 cryst.   s( 9) = (     0          1          0      )
                  (     0          0          1      )
                  (     1          0          0      )

 cart.    s( 9) = (  0.0000000  0.0000000  1.0000000 )
                  (  1.0000000  0.0000000  0.0000000 )
                  (  0.0000000  1.0000000  0.0000000 )


      isym = 10     120 deg rotation - cart. axis [-1,1,-1]      

 cryst.   s(10) = (     0         -1          0      )
                  (     0          0         -1      )
                  (     1          0          0      )

 cart.    s(10) = (  0.0000000  0.0000000  1.0000000 )
                  ( -1.0000000  0.0000000  0.0000000 )
                  (  0.0000000 -1.0000000  0.0000000 )


      isym = 11     120 deg rotation - cart. axis [1,-1,-1]      

 cryst.   s(11) = (     0         -1          0      )
                  (     0          0          1      )
                  (    -1          0          0      )

 cart.    s(11) = (  0.0000000  0.0000000 -1.0000000 )
                  ( -1.0000000  0.0000000  0.0000000 )
                  (  0.0000000  1.0000000  0.0000000 )


      isym = 12     120 deg rotation - cart. axis [-1,-1,1]      

 cryst.   s(12) = (     0          1          0      )
                  (     0          0         -1      )
                  (    -1          0          0      )

 cart.    s(12) = (  0.0000000  0.0000000 -1.0000000 )
                  (  1.0000000  0.0000000  0.0000000 )
                  (  0.0000000 -1.0000000  0.0000000 )


      isym = 13     inv. 180 deg rotation - cart. axis [1,1,0]   

 cryst.   s(13) = (     0         -1          0      )
                  (    -1          0          0      )
                  (     0          0          1      )

 cart.    s(13) = (  0.0000000 -1.0000000  0.0000000 )
                  ( -1.0000000  0.0000000  0.0000000 )
                  (  0.0000000  0.0000000  1.0000000 )


      isym = 14     inv. 180 deg rotation - cart. axis [1,-1,0]  

 cryst.   s(14) = (     0          1          0      )
                  (     1          0          0      )
                  (     0          0          1      )

 cart.    s(14) = (  0.0000000  1.0000000  0.0000000 )
                  (  1.0000000  0.0000000  0.0000000 )
                  (  0.0000000  0.0000000  1.0000000 )


      isym = 15     inv.  90 deg rotation - cart. axis [0,0,-1]  

 cryst.   s(15) = (     0          1          0      )
                  (    -1          0          0      )
                  (     0          0         -1      )

 cart.    s(15) = (  0.0000000 -1.0000000  0.0000000 )
                  (  1.0000000  0.0000000  0.0000000 )
                  (  0.0000000  0.0000000 -1.0000000 )


      isym = 16     inv.  90 deg rotation - cart. axis [0,0,1]   

 cryst.   s(16) = (     0         -1          0      )
                  (     1          0          0      )
                  (     0          0         -1      )

 cart.    s(16) = (  0.0000000  1.0000000  0.0000000 )
                  ( -1.0000000  0.0000000  0.0000000 )
                  (  0.0000000  0.0000000 -1.0000000 )


      isym = 17     inv. 180 deg rotation - cart. axis [1,0,1]   

 cryst.   s(17) = (     0          0         -1      )
                  (     0          1          0      )
                  (    -1          0          0      )

 cart.    s(17) = (  0.0000000  0.0000000 -1.0000000 )
                  (  0.0000000  1.0000000  0.0000000 )
                  ( -1.0000000  0.0000000  0.0000000 )


      isym = 18     inv. 180 deg rotation - cart. axis [-1,0,1]  

 cryst.   s(18) = (     0          0          1      )
                  (     0          1          0      )
                  (     1          0          0      )

 cart.    s(18) = (  0.0000000  0.0000000  1.0000000 )
                  (  0.0000000  1.0000000  0.0000000 )
                  (  1.0000000  0.0000000  0.0000000 )


      isym = 19     inv.  90 deg rotation - cart. axis [0,1,0]   

 cryst.   s(19) = (     0          0          1      )
                  (     0         -1          0      )
                  (    -1          0          0      )

 cart.    s(19) = (  0.0000000  0.0000000 -1.0000000 )
                  (  0.0000000 -1.0000000  0.0000000 )
                  (  1.0000000  0.0000000  0.0000000 )


      isym = 20     inv.  90 deg rotation - cart. axis [0,-1,0]  

 cryst.   s(20) = (     0          0         -1      )
                  (     0         -1          0      )
                  (     1          0          0      )

 cart.    s(20) = (  0.0000000  0.0000000  1.0000000 )
                  (  0.0000000 -1.0000000  0.0000000 )
                  ( -1.0000000  0.0000000  0.0000000 )


      isym = 21     inv. 180 deg rotation - cart. axis [0,1,1]   

 cryst.   s(21) = (     1          0          0      )
                  (     0          0         -1      )
                  (     0         -1          0      )

 cart.    s(21) = (  1.0000000  0.0000000  0.0000000 )
                  (  0.0000000  0.0000000 -1.0000000 )
                  (  0.0000000 -1.0000000  0.0000000 )


      isym = 22     inv. 180 deg rotation - cart. axis [0,1,-1]  

 cryst.   s(22) = (     1          0          0      )
                  (     0          0          1      )
                  (     0          1          0      )

 cart.    s(22) = (  1.0000000  0.0000000  0.0000000 )
                  (  0.0000000  0.0000000  1.0000000 )
                  (  0.0000000  1.0000000  0.0000000 )


      isym = 23     inv.  90 deg rotation - cart. axis [-1,0,0]  

 cryst.   s(23) = (    -1          0          0      )
                  (     0          0          1      )
                  (     0         -1          0      )

 cart.    s(23) = ( -1.0000000  0.0000000  0.0000000 )
                  (  0.0000000  0.0000000 -1.0000000 )
                  (  0.0000000  1.0000000  0.0000000 )


      isym = 24     inv.  90 deg rotation - cart. axis [1,0,0]   

 cryst.   s(24) = (    -1          0          0      )
                  (     0          0         -1      )
                  (     0          1          0      )

 cart.    s(24) = ( -1.0000000  0.0000000  0.0000000 )
                  (  0.0000000  0.0000000  1.0000000 )
                  (  0.0000000 -1.0000000  0.0000000 )


     double point group T_d (-43m) 
     there are  8 classes and  3 irreducible representations
     the character table:

       E     -E    8C3   -8C3   3C2  6S4   -6S4  6s_d 
                               -3C2              -6s_d
G_6    2.00 -2.00  1.00 -1.00  0.00  1.41 -1.41  0.00
G_7    2.00 -2.00  1.00 -1.00  0.00 -1.41  1.41  0.00
G_8    4.00 -4.00 -1.00  1.00  0.00  0.00  0.00  0.00

     the symmetry operations in each class and the name of the first element:

     E             1
          identity                                               
     -E           -1
          identity E                                             
     8C3           5    7    8    6   12    9   10   11
          120 deg rotation - cart. axis [-1,-1,-1]               
     -8C3         -5   -7   -8   -6  -12   -9  -10  -11
          120 deg rotation - cart. axis [-1,-1,-1] E             
      3C2 -3C2     2   -2    3   -3    4   -4
          180 deg rotation - cart. axis [0,0,1]                  
     6S4          15   16   20   19   23   24
          inv.  90 deg rotation - cart. axis [0,0,-1]            
     -6S4        -15  -16  -20  -19  -23  -24
          inv.  90 deg rotation - cart. axis [0,0,-1] E          
     6s_d -6s_d   13  -13  -14   14   17  -17  -18   18   21  -21   22  -22
          inv. 180 deg rotation - cart. axis [1,1,0]             

   Cartesian axes

     site n.     atom                  positions (alat units)
         1           Sn  tau(   1) = (   0.0000000   0.0000000   0.0000000  )
         2           I   tau(   2) = (   0.2339030   0.7660970   0.7660970  )
         3           I   tau(   3) = (   0.7660970   0.2339030   0.7660970  )
         4           I   tau(   4) = (   0.7660970   0.7660970   0.2339030  )
         5           I   tau(   5) = (   0.2339030   0.2339030   0.2339030  )

   Crystallographic axes

     site n.     atom                  positions (cryst. coord.)
         1           Sn  tau(   1) = (  0.0000000  0.0000000  0.0000000  )
         2           I   tau(   2) = (  0.2339030  0.7660970  0.7660970  )
         3           I   tau(   3) = (  0.7660970  0.2339030  0.7660970  )
         4           I   tau(   4) = (  0.7660970  0.7660970  0.2339030  )
         5           I   tau(   5) = (  0.2339030  0.2339030  0.2339030  )

     number of k points=     4
                       cart. coord. in units 2pi/alat
        k(    1) = (   0.1666667   0.1666667   0.1666667), wk =   0.2962963
        k(    2) = (   0.1666667   0.1666667  -0.5000000), wk =   0.4444444
        k(    3) = (   0.1666667  -0.5000000  -0.5000000), wk =   0.2222222
        k(    4) = (  -0.5000000  -0.5000000  -0.5000000), wk =   0.0370370

                       cryst. coord.
        k(    1) = (   0.1666667   0.1666667   0.1666667), wk =   0.2962963
        k(    2) = (   0.1666667   0.1666667  -0.5000000), wk =   0.4444444
        k(    3) = (   0.1666667  -0.5000000  -0.5000000), wk =   0.2222222
        k(    4) = (  -0.5000000  -0.5000000  -0.5000000), wk =   0.0370370

     Dense  grid:   293027 G-vectors     FFT dimensions: (  90,  90,  90)

     Smooth grid:   159699 G-vectors     FFT dimensions: (  72,  72,  72)

     Dynamical RAM for                 wfc:       1.07 MB

     Dynamical RAM for     wfc (w. buffer):       5.33 MB

     Dynamical RAM for           str. fact:       0.37 MB

     Dynamical RAM for           local pot:       0.00 MB

     Dynamical RAM for          nlocal pot:       2.16 MB

     Dynamical RAM for                qrad:      17.31 MB

     Dynamical RAM for          rho,v,vnew:       5.20 MB

     Dynamical RAM for               rhoin:       1.73 MB

     Dynamical RAM for            rho*nmix:      11.92 MB

     Dynamical RAM for           G-vectors:       0.75 MB

     Dynamical RAM for          h,s,v(r/c):       0.14 MB

     Dynamical RAM for          <psi|beta>:       0.22 MB

     Dynamical RAM for                 psi:       4.26 MB

     Dynamical RAM for                hpsi:       4.26 MB

     Dynamical RAM for                spsi:       4.26 MB

     Dynamical RAM for      wfcinit/wfcrot:       1.96 MB

     Dynamical RAM for           addusdens:     114.40 MB

     Dynamical RAM for          addusforce:     116.24 MB

     Dynamical RAM for         addusstress:     117.01 MB

     Estimated static dynamical RAM per process >      47.31 MB

     Estimated max dynamical RAM per process >     164.32 MB

     Estimated total dynamical RAM >       3.85 GB

     Initial potential from superposition of free atoms

     starting charge   41.99871, renormalised to   42.00000
     Starting wfcs are   50 randomized atomic wfcs
     Checking if some PAW data can be deallocated... 
       PAW data deallocated on   19 nodes for type:  1
       PAW data deallocated on    5 nodes for type:  2

     total cpu time spent up to now is       11.5 secs

     Self-consistent Calculation

     iteration #  1     ecut=    70.00 Ry     beta= 0.35
     Davidson diagonalization with overlap
     ethr =  1.00E-02,  avg # of iterations =  1.2

     Threshold (ethr) on eigenvalues was too large:
     Diagonalizing with lowered threshold

     Davidson diagonalization with overlap
     ethr =  3.85E-04,  avg # of iterations =  2.0

     total cpu time spent up to now is       25.1 secs

     total energy              =   -1933.72909005 Ry
     Harris-Foulkes estimate   =   -1933.78579825 Ry
     estimated scf accuracy    <       0.12736570 Ry

     iteration #  2     ecut=    70.00 Ry     beta= 0.35
     Davidson diagonalization with overlap
     ethr =  3.03E-04,  avg # of iterations =  2.2

     total cpu time spent up to now is       32.8 secs

     total energy              =   -1933.74519396 Ry
     Harris-Foulkes estimate   =   -1933.75178829 Ry
     estimated scf accuracy    <       0.02271749 Ry

     iteration #  3     ecut=    70.00 Ry     beta= 0.35
     Davidson diagonalization with overlap
     ethr =  5.41E-05,  avg # of iterations =  2.0

     total cpu time spent up to now is       43.8 secs

     total energy              =   -1933.74529426 Ry
     Harris-Foulkes estimate   =   -1933.74687149 Ry
     estimated scf accuracy    <       0.00537081 Ry

     iteration #  4     ecut=    70.00 Ry     beta= 0.35
     Davidson diagonalization with overlap
     ethr =  1.28E-05,  avg # of iterations =  2.5

     total cpu time spent up to now is       54.8 secs

     total energy              =   -1933.74562538 Ry
     Harris-Foulkes estimate   =   -1933.74593160 Ry
     estimated scf accuracy    <       0.00072699 Ry

     iteration #  5     ecut=    70.00 Ry     beta= 0.35
     Davidson diagonalization with overlap
     ethr =  1.73E-06,  avg # of iterations =  3.0

     total cpu time spent up to now is       62.9 secs

     total energy              =   -1933.74575895 Ry
     Harris-Foulkes estimate   =   -1933.74594377 Ry
     estimated scf accuracy    <       0.00043719 Ry

     iteration #  6     ecut=    70.00 Ry     beta= 0.35
     Davidson diagonalization with overlap
     ethr =  1.04E-06,  avg # of iterations =  2.0

     total cpu time spent up to now is       71.9 secs

     total energy              =   -1933.74583144 Ry
     Harris-Foulkes estimate   =   -1933.74583228 Ry
     estimated scf accuracy    <       0.00000643 Ry

     iteration #  7     ecut=    70.00 Ry     beta= 0.35
     Davidson diagonalization with overlap
     ethr =  1.53E-08,  avg # of iterations =  4.0

     total cpu time spent up to now is       82.1 secs

     total energy              =   -1933.74583503 Ry
     Harris-Foulkes estimate   =   -1933.74583582 Ry
     estimated scf accuracy    <       0.00000194 Ry

     iteration #  8     ecut=    70.00 Ry     beta= 0.35
     Davidson diagonalization with overlap
     ethr =  4.63E-09,  avg # of iterations =  2.0

     total cpu time spent up to now is       90.7 secs

     total energy              =   -1933.74583489 Ry
     Harris-Foulkes estimate   =   -1933.74583553 Ry
     estimated scf accuracy    <       0.00000127 Ry

     iteration #  9     ecut=    70.00 Ry     beta= 0.35
     Davidson diagonalization with overlap
     ethr =  3.02E-09,  avg # of iterations =  3.0

     total cpu time spent up to now is       99.2 secs

     End of self-consistent calculation

          k = 0.1667 0.1667 0.1667 ( 19945 PWs)   bands (ev):

   -21.8001 -21.8001 -21.8001 -21.8001 -20.7875 -20.7875 -20.7500 -20.7500
   -20.7500 -20.7499 -11.8955 -11.8955 -11.2264 -11.2264 -11.2153 -11.2153
   -11.2113 -11.2111  -6.3408  -6.3408  -2.7440  -2.7440  -2.7143  -2.7065
    -2.5304  -2.5304  -1.4694  -1.4694  -1.2709  -1.2100  -1.0434  -1.0434
    -0.9082  -0.9082  -0.4892  -0.4575  -0.3225  -0.3225  -0.2498  -0.2498
    -0.0306   0.0026

     occupation numbers 
     1.0000   1.0000   1.0000   1.0000   1.0000   1.0000   1.0000   1.0000
     1.0000   1.0000   1.0000   1.0000   1.0000   1.0000   1.0000   1.0000
     1.0000   1.0000   1.0000   1.0000   1.0000   1.0000   1.0000   1.0000
     1.0000   1.0000   1.0000   1.0000   1.0000   1.0000   1.0000   1.0000
     1.0000   1.0000   1.0000   1.0000   1.0000   1.0000   1.0000   1.0000
     1.0000   1.0000

          k = 0.1667 0.1667-0.5000 ( 19978 PWs)   bands (ev):

   -21.8001 -21.8001 -21.8001 -21.8001 -20.7875 -20.7875 -20.7500 -20.7500
   -20.7500 -20.7500 -11.8578 -11.8577 -11.2701 -11.2676 -11.2205 -11.2175
   -11.2118 -11.2112  -6.3177  -6.3160  -2.8462  -2.7961  -2.7327  -2.7091
    -2.6050  -2.5202  -1.5383  -1.5322  -1.0861  -1.0523  -0.9993  -0.9813
    -0.9194  -0.8728  -0.5872  -0.5605  -0.5083  -0.3728  -0.2159  -0.1654
    -0.1351  -0.0739

     occupation numbers 
     1.0000   1.0000   1.0000   1.0000   1.0000   1.0000   1.0000   1.0000
     1.0000   1.0000   1.0000   1.0000   1.0000   1.0000   1.0000   1.0000
     1.0000   1.0000   1.0000   1.0000   1.0000   1.0000   1.0000   1.0000
     1.0000   1.0000   1.0000   1.0000   1.0000   1.0000   1.0000   1.0000
     1.0000   1.0000   1.0000   1.0000   1.0000   1.0000   1.0000   1.0000
     1.0000   1.0000

          k = 0.1667-0.5000-0.5000 ( 19920 PWs)   bands (ev):

   -21.8001 -21.8001 -21.8001 -21.8001 -20.7875 -20.7875 -20.7499 -20.7499
   -20.7499 -20.7499 -11.8290 -11.8290 -11.2544 -11.2544 -11.2483 -11.2483
   -11.2285 -11.2285  -6.3242  -6.3242  -2.8818  -2.8818  -2.7598  -2.7598
    -2.5725  -2.5725  -1.6576  -1.6576  -0.9900  -0.9900  -0.9353  -0.9353
    -0.6812  -0.6812  -0.5651  -0.5651  -0.5453  -0.5453  -0.1261  -0.1261
    -0.0253  -0.0253

     occupation numbers 
     1.0000   1.0000   1.0000   1.0000   1.0000   1.0000   1.0000   1.0000
     1.0000   1.0000   1.0000   1.0000   1.0000   1.0000   1.0000   1.0000
     1.0000   1.0000   1.0000   1.0000   1.0000   1.0000   1.0000   1.0000
     1.0000   1.0000   1.0000   1.0000   1.0000   1.0000   1.0000   1.0000
     1.0000   1.0000   1.0000   1.0000   1.0000   1.0000   1.0000   1.0000
     1.0000   1.0000

          k =-0.5000-0.5000-0.5000 ( 19952 PWs)   bands (ev):

   -21.8001 -21.8001 -21.8001 -21.8001 -20.7875 -20.7875 -20.7500 -20.7500
   -20.7500 -20.7500 -11.8095 -11.8095 -11.2549 -11.2549 -11.2466 -11.2466
   -11.2466 -11.2466  -6.3637  -6.3637  -2.8707  -2.8707  -2.8707  -2.8707
    -2.6241  -2.6241  -1.7198  -1.7198  -0.7653  -0.7653  -0.7653  -0.7653
    -0.7120  -0.7120  -0.5023  -0.5023  -0.5023  -0.5023   0.0508   0.0508
     0.0508   0.0508

     occupation numbers 
     1.0000   1.0000   1.0000   1.0000   1.0000   1.0000   1.0000   1.0000
     1.0000   1.0000   1.0000   1.0000   1.0000   1.0000   1.0000   1.0000
     1.0000   1.0000   1.0000   1.0000   1.0000   1.0000   1.0000   1.0000
     1.0000   1.0000   1.0000   1.0000   1.0000   1.0000   1.0000   1.0000
     1.0000   1.0000   1.0000   1.0000   1.0000   1.0000   1.0000   1.0000
     1.0000   1.0000

     highest occupied level (ev):     0.0508

!    total energy              =   -1933.74583517 Ry
     Harris-Foulkes estimate   =   -1933.74583529 Ry
     estimated scf accuracy    <       0.00000015 Ry

     total all-electron energy =    -69281.863099 Ry

     The total energy is the sum of the following terms:

     one-electron contribution =    -155.34153293 Ry
     hartree contribution      =      94.82834761 Ry
     xc contribution           =    -110.25327445 Ry
     ewald contribution        =    -119.43299744 Ry
     one-center paw contrib.   =   -1643.54637796 Ry
      -> PAW hartree energy AE =     109.93127851 Ry
      -> PAW hartree energy PS =    -109.18142181 Ry
      -> PAW xc energy AE      =    -324.42057082 Ry
      -> PAW xc energy PS      =      46.78674533 Ry
      -> total E_H with PAW    =      95.57820431 Ry
      -> total E_XC with PAW   =    -387.88709995 Ry

     convergence has been achieved in   9 iterations

     Forces acting on atoms (cartesian axes, Ry/au):

     atom    1 type  1   force =     0.00000000    0.00000000    0.00000000
     atom    2 type  2   force =    -0.00380205    0.00380205    0.00380205
     atom    3 type  2   force =     0.00380205   -0.00380205    0.00380205
     atom    4 type  2   force =     0.00380205    0.00380205   -0.00380205
     atom    5 type  2   force =    -0.00380205   -0.00380205   -0.00380205
     The non-local contrib.  to forces
     atom    1 type  1   force =     0.00000000    0.00000000    0.00000000
     atom    2 type  2   force =    -0.08593041    0.08593041    0.08593041
     atom    3 type  2   force =     0.08593041   -0.08593041    0.08593041
     atom    4 type  2   force =     0.08593041    0.08593041   -0.08593041
     atom    5 type  2   force =    -0.08593041   -0.08593041   -0.08593041
     The ionic contribution  to forces
     atom    1 type  1   force =     0.00000000    0.00000000   -0.00000000
     atom    2 type  2   force =     3.79412126   -3.79412126   -3.79412126
     atom    3 type  2   force =    -3.79412126    3.79412126   -3.79412126
     atom    4 type  2   force =    -3.79412126   -3.79412126    3.79412126
     atom    5 type  2   force =     3.79412126    3.79412126    3.79412126
     The local contribution  to forces
     atom    1 type  1   force =     0.00000000    0.00000000    0.00000000
     atom    2 type  2   force =    -3.71975378    3.71975378    3.71975378
     atom    3 type  2   force =     3.71975378   -3.71975378    3.71975378
     atom    4 type  2   force =     3.71975378    3.71975378   -3.71975378
     atom    5 type  2   force =    -3.71975378   -3.71975378   -3.71975378
     The core correction contribution to forces
     atom    1 type  1   force =     0.00000000    0.00000000   -0.00000000
     atom    2 type  2   force =     0.00751183   -0.00751183   -0.00751183
     atom    3 type  2   force =    -0.00751183    0.00751183   -0.00751183
     atom    4 type  2   force =    -0.00751183   -0.00751183    0.00751183
     atom    5 type  2   force =     0.00751183    0.00751183    0.00751183
     The Hubbard contrib.    to forces
     atom    1 type  1   force =     0.00000000    0.00000000    0.00000000
     atom    2 type  2   force =     0.00000000    0.00000000    0.00000000
     atom    3 type  2   force =     0.00000000    0.00000000    0.00000000
     atom    4 type  2   force =     0.00000000    0.00000000    0.00000000
     atom    5 type  2   force =     0.00000000    0.00000000    0.00000000
     The SCF correction term to forces
     atom    1 type  1   force =    -0.00000000   -0.00000000    0.00000000
     atom    2 type  2   force =     0.00024904   -0.00024904   -0.00024904
     atom    3 type  2   force =    -0.00024904    0.00024904   -0.00024904
     atom    4 type  2   force =    -0.00024904   -0.00024904    0.00024904
     atom    5 type  2   force =     0.00024904    0.00024904    0.00024904

     Total force =     0.013171     Total SCF correction =     0.000863


     Computing stress (Cartesian axis) and pressure

     Message from routine stres:
     noncollinear stress + GGA not implemented

     Writing output data file CsIsalt.save/
 
     init_run     :      4.15s CPU      6.57s WALL (       1 calls)
     electrons    :     58.17s CPU     87.86s WALL (       1 calls)
     forces       :      1.25s CPU      1.76s WALL (       1 calls)

     Called by init_run:
     wfcinit      :      1.55s CPU      2.55s WALL (       1 calls)
     wfcinit:atom :      0.00s CPU      0.00s WALL (       4 calls)
     wfcinit:wfcr :      1.52s CPU      2.51s WALL (       4 calls)
     potinit      :      0.99s CPU      1.75s WALL (       1 calls)
     hinit0       :      0.53s CPU      0.81s WALL (       1 calls)

     Called by electrons:
     c_bands      :     33.24s CPU     51.34s WALL (      10 calls)
     sum_band     :     14.75s CPU     21.39s WALL (      10 calls)
     v_of_rho     :      0.63s CPU      1.15s WALL (      10 calls)
     v_h          :      0.06s CPU      0.12s WALL (      10 calls)
     v_xc         :      0.59s CPU      1.05s WALL (      11 calls)
     newd         :      5.09s CPU      7.27s WALL (      10 calls)
     PAW_pot      :      2.74s CPU      4.17s WALL (      10 calls)
     mix_rho      :      0.95s CPU      1.54s WALL (      10 calls)

     Called by c_bands:
     init_us_2    :      0.23s CPU      0.33s WALL (      88 calls)
     cegterg      :     31.08s CPU     48.82s WALL (      40 calls)

     Called by sum_band:
     sum_band:bec :      0.32s CPU      0.45s WALL (      40 calls)
     addusdens    :      4.12s CPU      4.86s WALL (      10 calls)

     Called by *egterg:
     h_psi        :     19.30s CPU     30.98s WALL (     140 calls)
     s_psi        :      0.44s CPU      0.55s WALL (     140 calls)
     g_psi        :      0.02s CPU      0.03s WALL (      96 calls)
     cdiaghg      :      2.41s CPU      4.12s WALL (     132 calls)
     cegterg:over :      4.14s CPU      6.00s WALL (      96 calls)
     cegterg:upda :      2.40s CPU      3.63s WALL (      96 calls)
     cegterg:last :      0.96s CPU      1.36s WALL (      40 calls)
     cdiaghg:chol :      0.26s CPU      0.55s WALL (     132 calls)
     cdiaghg:inve :      0.12s CPU      0.20s WALL (     132 calls)
     cdiaghg:para :      0.59s CPU      0.99s WALL (     264 calls)

     Called by h_psi:
     h_psi:pot    :     19.23s CPU     30.89s WALL (     140 calls)
     h_psi:calbec :      0.53s CPU      0.65s WALL (     140 calls)
     vloc_psi     :     18.20s CPU     29.63s WALL (     140 calls)
     add_vuspsi   :      0.49s CPU      0.61s WALL (     140 calls)

     General routines
     calbec       :      0.96s CPU      1.19s WALL (     196 calls)
     fft          :      2.95s CPU      4.96s WALL (     221 calls)
     ffts         :      0.49s CPU      0.79s WALL (      80 calls)
     fftw         :     25.82s CPU     42.18s WALL (   21724 calls)
     interpolate  :      1.46s CPU      2.39s WALL (      40 calls)
 
     Parallel routines
     fft_scatt_xy :      0.88s CPU      1.06s WALL (   22025 calls)
     fft_scatt_yz :     24.80s CPU     42.07s WALL (   22025 calls)

     PAW routines
     PAW_pot      :      2.74s CPU      4.17s WALL (      10 calls)
     PAW_symme    :      0.06s CPU      0.09s WALL (      20 calls)
 
     PWSCF        :   1m 8.69s CPU   1m42.19s WALL

 
   This run was terminated on:  20:17:34  24Jan2021            

=------------------------------------------------------------------------------=
   JOB DONE.
=------------------------------------------------------------------------------=
