
     Program PWSCF v.6.7MaX starts on 15Jan2021 at 14:21: 0 

     This program is part of the open-source Quantum ESPRESSO suite
     for quantum simulation of materials; please cite
         "P. Giannozzi et al., J. Phys.:Condens. Matter 21 395502 (2009);
         "P. Giannozzi et al., J. Phys.:Condens. Matter 29 465901 (2017);
          URL http://www.quantum-espresso.org", 
     in publications or presentations arising from this work. More details at
     http://www.quantum-espresso.org/quote

     Parallel version (MPI), running on    64 processors

     MPI processes distributed on     2 nodes
     R & G space division:  proc/nbgrp/npool/nimage =      64
     Waiting for input...
     Reading input from standard input

     Current dimensions of program PWSCF are:
     Max number of different atomic species (ntypx) = 10
     Max number of k-points (npk) =  40000
     Max angular momentum in pseudopotentials (lmaxx) =  3
     file Sn.pbe-dn-kjpaw_psl.1.0.0.UPF: wavefunction(s)  5S 5P 4D renormalized
     file I.pbe-n-kjpaw_psl.1.0.0.UPF: wavefunction(s)  5S renormalized

     Subspace diagonalization in iterative solution of the eigenvalue problem:
     a serial algorithm will be used

     Message from routine setup:
     using ibrav=0 with symmetry is DISCOURAGED, use correct ibrav instead

     Parallelization info
     --------------------
     sticks:   dense  smooth     PW     G-vecs:    dense   smooth      PW
     Min          79      79     21                 4255     4255     599
     Max          80      80     22                 4260     4260     606
     Sum        5073    5073   1369               272489   272489   38497


     Title: 
     SnI4un                                                                     


     bravais-lattice index     =            0
     lattice parameter (alat)  =      12.6355  a.u.
     unit-cell volume          =    2017.3401 (a.u.)^3
     number of atoms/cell      =            5
     number of atomic types    =            2
     number of electrons       =        42.00
     number of Kohn-Sham states=           23
     kinetic-energy cutoff     =     100.0000  Ry
     charge density cutoff     =     400.0000  Ry
     scf convergence threshold =      1.0E-06
     mixing beta               =       0.7000
     number of iterations used =            8  plain     mixing
     Exchange-correlation= SLA  PW   PBX  PBC
                           (   1   4   3   4   0   0   0)

     celldm(1)=  12.635518  celldm(2)=   0.000000  celldm(3)=   0.000000
     celldm(4)=   0.000000  celldm(5)=   0.000000  celldm(6)=   0.000000

     crystal axes: (cart. coord. in units of alat)
               a(1) = (   1.000000   0.000000   0.000000 )  
               a(2) = (   0.000000   1.000000   0.000000 )  
               a(3) = (   0.000000   0.000000   1.000000 )  

     reciprocal axes: (cart. coord. in units 2 pi/alat)
               b(1) = (  1.000000  0.000000  0.000000 )  
               b(2) = (  0.000000  1.000000  0.000000 )  
               b(3) = (  0.000000  0.000000  1.000000 )  


     PseudoPot. # 1 for Sn read from file:
     ../../../pseudo/Sn.pbe-dn-kjpaw_psl.1.0.0.UPF
     MD5 check sum: 67f11dec737d427557dc41ea34975807
     Pseudo is Projector augmented-wave + core cor, Zval = 14.0
     Generated using &quot;atomic&quot; code by A. Dal Corso  v.6.3
     Shape of augmentation charge: PSQ
     Using radial grid of 1243 points,  6 beta functions with: 
                l(1) =   0
                l(2) =   0
                l(3) =   1
                l(4) =   1
                l(5) =   2
                l(6) =   2
     Q(r) pseudized with 0 coefficients 


     PseudoPot. # 2 for I  read from file:
     ../../../pseudo/I.pbe-n-kjpaw_psl.1.0.0.UPF
     MD5 check sum: cd3d296c3308a581e1559a0c8a554cb5
     Pseudo is Projector augmented-wave + core cor, Zval =  7.0
     Generated using &quot;atomic&quot; code by A. Dal Corso  v.6.3
     Shape of augmentation charge: PSQ
     Using radial grid of 1247 points,  6 beta functions with: 
                l(1) =   0
                l(2) =   0
                l(3) =   1
                l(4) =   1
                l(5) =   2
                l(6) =   2
     Q(r) pseudized with 0 coefficients 


     atomic species   valence    mass     pseudopotential
        Sn            14.00   118.70000     Sn( 1.00)
        I              7.00   126.90000     I ( 1.00)

     24 Sym. Ops. (no inversion) found


                                    s                        frac. trans.

      isym =  1     identity                                     

 cryst.   s( 1) = (     1          0          0      )
                  (     0          1          0      )
                  (     0          0          1      )

 cart.    s( 1) = (  1.0000000  0.0000000  0.0000000 )
                  (  0.0000000  1.0000000  0.0000000 )
                  (  0.0000000  0.0000000  1.0000000 )


      isym =  2     180 deg rotation - cart. axis [0,0,1]        

 cryst.   s( 2) = (    -1          0          0      )
                  (     0         -1          0      )
                  (     0          0          1      )

 cart.    s( 2) = ( -1.0000000  0.0000000  0.0000000 )
                  (  0.0000000 -1.0000000  0.0000000 )
                  (  0.0000000  0.0000000  1.0000000 )


      isym =  3     180 deg rotation - cart. axis [0,1,0]        

 cryst.   s( 3) = (    -1          0          0      )
                  (     0          1          0      )
                  (     0          0         -1      )

 cart.    s( 3) = ( -1.0000000  0.0000000  0.0000000 )
                  (  0.0000000  1.0000000  0.0000000 )
                  (  0.0000000  0.0000000 -1.0000000 )


      isym =  4     180 deg rotation - cart. axis [1,0,0]        

 cryst.   s( 4) = (     1          0          0      )
                  (     0         -1          0      )
                  (     0          0         -1      )

 cart.    s( 4) = (  1.0000000  0.0000000  0.0000000 )
                  (  0.0000000 -1.0000000  0.0000000 )
                  (  0.0000000  0.0000000 -1.0000000 )


      isym =  5     120 deg rotation - cart. axis [-1,-1,-1]     

 cryst.   s( 5) = (     0          0          1      )
                  (     1          0          0      )
                  (     0          1          0      )

 cart.    s( 5) = (  0.0000000  1.0000000  0.0000000 )
                  (  0.0000000  0.0000000  1.0000000 )
                  (  1.0000000  0.0000000  0.0000000 )


      isym =  6     120 deg rotation - cart. axis [-1,1,1]       

 cryst.   s( 6) = (     0          0         -1      )
                  (    -1          0          0      )
                  (     0          1          0      )

 cart.    s( 6) = (  0.0000000 -1.0000000  0.0000000 )
                  (  0.0000000  0.0000000  1.0000000 )
                  ( -1.0000000  0.0000000  0.0000000 )


      isym =  7     120 deg rotation - cart. axis [1,1,-1]       

 cryst.   s( 7) = (     0          0         -1      )
                  (     1          0          0      )
                  (     0         -1          0      )

 cart.    s( 7) = (  0.0000000  1.0000000  0.0000000 )
                  (  0.0000000  0.0000000 -1.0000000 )
                  ( -1.0000000  0.0000000  0.0000000 )


      isym =  8     120 deg rotation - cart. axis [1,-1,1]       

 cryst.   s( 8) = (     0          0          1      )
                  (    -1          0          0      )
                  (     0         -1          0      )

 cart.    s( 8) = (  0.0000000 -1.0000000  0.0000000 )
                  (  0.0000000  0.0000000 -1.0000000 )
                  (  1.0000000  0.0000000  0.0000000 )


      isym =  9     120 deg rotation - cart. axis [1,1,1]        

 cryst.   s( 9) = (     0          1          0      )
                  (     0          0          1      )
                  (     1          0          0      )

 cart.    s( 9) = (  0.0000000  0.0000000  1.0000000 )
                  (  1.0000000  0.0000000  0.0000000 )
                  (  0.0000000  1.0000000  0.0000000 )


      isym = 10     120 deg rotation - cart. axis [-1,1,-1]      

 cryst.   s(10) = (     0         -1          0      )
                  (     0          0         -1      )
                  (     1          0          0      )

 cart.    s(10) = (  0.0000000  0.0000000  1.0000000 )
                  ( -1.0000000  0.0000000  0.0000000 )
                  (  0.0000000 -1.0000000  0.0000000 )


      isym = 11     120 deg rotation - cart. axis [1,-1,-1]      

 cryst.   s(11) = (     0         -1          0      )
                  (     0          0          1      )
                  (    -1          0          0      )

 cart.    s(11) = (  0.0000000  0.0000000 -1.0000000 )
                  ( -1.0000000  0.0000000  0.0000000 )
                  (  0.0000000  1.0000000  0.0000000 )


      isym = 12     120 deg rotation - cart. axis [-1,-1,1]      

 cryst.   s(12) = (     0          1          0      )
                  (     0          0         -1      )
                  (    -1          0          0      )

 cart.    s(12) = (  0.0000000  0.0000000 -1.0000000 )
                  (  1.0000000  0.0000000  0.0000000 )
                  (  0.0000000 -1.0000000  0.0000000 )


      isym = 13     inv. 180 deg rotation - cart. axis [1,1,0]   

 cryst.   s(13) = (     0         -1          0      )
                  (    -1          0          0      )
                  (     0          0          1      )

 cart.    s(13) = (  0.0000000 -1.0000000  0.0000000 )
                  ( -1.0000000  0.0000000  0.0000000 )
                  (  0.0000000  0.0000000  1.0000000 )


      isym = 14     inv. 180 deg rotation - cart. axis [1,-1,0]  

 cryst.   s(14) = (     0          1          0      )
                  (     1          0          0      )
                  (     0          0          1      )

 cart.    s(14) = (  0.0000000  1.0000000  0.0000000 )
                  (  1.0000000  0.0000000  0.0000000 )
                  (  0.0000000  0.0000000  1.0000000 )


      isym = 15     inv.  90 deg rotation - cart. axis [0,0,-1]  

 cryst.   s(15) = (     0          1          0      )
                  (    -1          0          0      )
                  (     0          0         -1      )

 cart.    s(15) = (  0.0000000 -1.0000000  0.0000000 )
                  (  1.0000000  0.0000000  0.0000000 )
                  (  0.0000000  0.0000000 -1.0000000 )


      isym = 16     inv.  90 deg rotation - cart. axis [0,0,1]   

 cryst.   s(16) = (     0         -1          0      )
                  (     1          0          0      )
                  (     0          0         -1      )

 cart.    s(16) = (  0.0000000  1.0000000  0.0000000 )
                  ( -1.0000000  0.0000000  0.0000000 )
                  (  0.0000000  0.0000000 -1.0000000 )


      isym = 17     inv. 180 deg rotation - cart. axis [1,0,1]   

 cryst.   s(17) = (     0          0         -1      )
                  (     0          1          0      )
                  (    -1          0          0      )

 cart.    s(17) = (  0.0000000  0.0000000 -1.0000000 )
                  (  0.0000000  1.0000000  0.0000000 )
                  ( -1.0000000  0.0000000  0.0000000 )


      isym = 18     inv. 180 deg rotation - cart. axis [-1,0,1]  

 cryst.   s(18) = (     0          0          1      )
                  (     0          1          0      )
                  (     1          0          0      )

 cart.    s(18) = (  0.0000000  0.0000000  1.0000000 )
                  (  0.0000000  1.0000000  0.0000000 )
                  (  1.0000000  0.0000000  0.0000000 )


      isym = 19     inv.  90 deg rotation - cart. axis [0,1,0]   

 cryst.   s(19) = (     0          0          1      )
                  (     0         -1          0      )
                  (    -1          0          0      )

 cart.    s(19) = (  0.0000000  0.0000000 -1.0000000 )
                  (  0.0000000 -1.0000000  0.0000000 )
                  (  1.0000000  0.0000000  0.0000000 )


      isym = 20     inv.  90 deg rotation - cart. axis [0,-1,0]  

 cryst.   s(20) = (     0          0         -1      )
                  (     0         -1          0      )
                  (     1          0          0      )

 cart.    s(20) = (  0.0000000  0.0000000  1.0000000 )
                  (  0.0000000 -1.0000000  0.0000000 )
                  ( -1.0000000  0.0000000  0.0000000 )


      isym = 21     inv. 180 deg rotation - cart. axis [0,1,1]   

 cryst.   s(21) = (     1          0          0      )
                  (     0          0         -1      )
                  (     0         -1          0      )

 cart.    s(21) = (  1.0000000  0.0000000  0.0000000 )
                  (  0.0000000  0.0000000 -1.0000000 )
                  (  0.0000000 -1.0000000  0.0000000 )


      isym = 22     inv. 180 deg rotation - cart. axis [0,1,-1]  

 cryst.   s(22) = (     1          0          0      )
                  (     0          0          1      )
                  (     0          1          0      )

 cart.    s(22) = (  1.0000000  0.0000000  0.0000000 )
                  (  0.0000000  0.0000000  1.0000000 )
                  (  0.0000000  1.0000000  0.0000000 )


      isym = 23     inv.  90 deg rotation - cart. axis [-1,0,0]  

 cryst.   s(23) = (    -1          0          0      )
                  (     0          0          1      )
                  (     0         -1          0      )

 cart.    s(23) = ( -1.0000000  0.0000000  0.0000000 )
                  (  0.0000000  0.0000000 -1.0000000 )
                  (  0.0000000  1.0000000  0.0000000 )


      isym = 24     inv.  90 deg rotation - cart. axis [1,0,0]   

 cryst.   s(24) = (    -1          0          0      )
                  (     0          0         -1      )
                  (     0          1          0      )

 cart.    s(24) = ( -1.0000000  0.0000000  0.0000000 )
                  (  0.0000000  0.0000000  1.0000000 )
                  (  0.0000000 -1.0000000  0.0000000 )


   Cartesian axes

     site n.     atom                  positions (alat units)
         1           Sn  tau(   1) = (   0.0000000   0.0000000   0.0000000  )
         2           I   tau(   2) = (   0.2339030   0.7660970   0.7660970  )
         3           I   tau(   3) = (   0.7660970   0.2339030   0.7660970  )
         4           I   tau(   4) = (   0.7660970   0.7660970   0.2339030  )
         5           I   tau(   5) = (   0.2339030   0.2339030   0.2339030  )

   Crystallographic axes

     site n.     atom                  positions (cryst. coord.)
         1           Sn  tau(   1) = (  0.0000000  0.0000000  0.0000000  )
         2           I   tau(   2) = (  0.2339030  0.7660970  0.7660970  )
         3           I   tau(   3) = (  0.7660970  0.2339030  0.7660970  )
         4           I   tau(   4) = (  0.7660970  0.7660970  0.2339030  )
         5           I   tau(   5) = (  0.2339030  0.2339030  0.2339030  )

     number of k points=     4
                       cart. coord. in units 2pi/alat
        k(    1) = (   0.0000000   0.0000000   0.0000000), wk =   0.2500000
        k(    2) = (   0.0000000   0.0000000  -0.5000000), wk =   0.7500000
        k(    3) = (   0.0000000  -0.5000000  -0.5000000), wk =   0.7500000
        k(    4) = (  -0.5000000  -0.5000000  -0.5000000), wk =   0.2500000

                       cryst. coord.
        k(    1) = (   0.0000000   0.0000000   0.0000000), wk =   0.2500000
        k(    2) = (   0.0000000   0.0000000  -0.5000000), wk =   0.7500000
        k(    3) = (   0.0000000  -0.5000000  -0.5000000), wk =   0.7500000
        k(    4) = (  -0.5000000  -0.5000000  -0.5000000), wk =   0.2500000

     Dense  grid:   272489 G-vectors     FFT dimensions: (  81,  81,  81)

     Dynamical RAM for                 wfc:       0.19 MB

     Dynamical RAM for     wfc (w. buffer):       0.93 MB

     Dynamical RAM for           str. fact:       0.13 MB

     Dynamical RAM for           local pot:       0.00 MB

     Dynamical RAM for          nlocal pot:       0.73 MB

     Dynamical RAM for                qrad:       3.21 MB

     Dynamical RAM for          rho,v,vnew:       0.50 MB

     Dynamical RAM for               rhoin:       0.17 MB

     Dynamical RAM for            rho*nmix:       1.04 MB

     Dynamical RAM for           G-vectors:       0.28 MB

     Dynamical RAM for          h,s,v(r/c):       0.10 MB

     Dynamical RAM for          <psi|beta>:       0.03 MB

     Dynamical RAM for                 psi:       0.37 MB

     Dynamical RAM for                hpsi:       0.37 MB

     Dynamical RAM for                spsi:       0.37 MB

     Dynamical RAM for      wfcinit/wfcrot:       0.42 MB

     Dynamical RAM for           addusdens:      12.34 MB

     Dynamical RAM for          addusforce:      12.78 MB

     Dynamical RAM for         addusstress:      13.06 MB

     Estimated static dynamical RAM per process >       7.68 MB

     Estimated max dynamical RAM per process >      20.73 MB

     Estimated total dynamical RAM >       1.30 GB

     Initial potential from superposition of free atoms

     starting charge   41.99831, renormalised to   42.00000
     Starting wfcs are   25 randomized atomic wfcs
     Checking if some PAW data can be deallocated... 
       PAW data deallocated on   51 nodes for type:  1
       PAW data deallocated on   13 nodes for type:  2

     total cpu time spent up to now is       23.7 secs

     Self-consistent Calculation

     iteration #  1     ecut=   100.00 Ry     beta= 0.70
     Davidson diagonalization with overlap
     ethr =  1.00E-02,  avg # of iterations =  2.2

     Threshold (ethr) on eigenvalues was too large:
     Diagonalizing with lowered threshold

     Davidson diagonalization with overlap
     ethr =  3.48E-04,  avg # of iterations =  3.0

     total cpu time spent up to now is       37.3 secs

     total energy              =   -1957.79607743 Ry
     estimated scf accuracy    <       0.12187623 Ry

     iteration #  2     ecut=   100.00 Ry     beta= 0.70
     Davidson diagonalization with overlap
     ethr =  2.90E-04,  avg # of iterations =  3.0

     total cpu time spent up to now is       46.8 secs

     total energy              =   -1957.81447844 Ry
     estimated scf accuracy    <       0.11001955 Ry

     iteration #  3     ecut=   100.00 Ry     beta= 0.70
     Davidson diagonalization with overlap
     ethr =  2.62E-04,  avg # of iterations =  2.2

     total cpu time spent up to now is       53.7 secs

     total energy              =   -1957.84015404 Ry
     estimated scf accuracy    <       0.00341050 Ry

     iteration #  4     ecut=   100.00 Ry     beta= 0.70
     Davidson diagonalization with overlap
     ethr =  8.12E-06,  avg # of iterations =  3.5

     total cpu time spent up to now is       64.3 secs

     total energy              =   -1957.84106394 Ry
     estimated scf accuracy    <       0.00024512 Ry

     iteration #  5     ecut=   100.00 Ry     beta= 0.70
     Davidson diagonalization with overlap
     ethr =  5.84E-07,  avg # of iterations =  3.5

     total cpu time spent up to now is       71.4 secs

     total energy              =   -1957.84112329 Ry
     estimated scf accuracy    <       0.00000434 Ry

     iteration #  6     ecut=   100.00 Ry     beta= 0.70
     Davidson diagonalization with overlap
     ethr =  1.03E-08,  avg # of iterations =  5.0

     total cpu time spent up to now is       80.6 secs

     End of self-consistent calculation

          k = 0.0000 0.0000 0.0000 ( 34049 PWs)   bands (ev):

   -21.3258 -21.3258 -21.3258 -21.2704 -21.2704 -11.8470 -11.1144 -11.1144
   -11.1144  -6.2859  -2.4201  -2.4201  -2.4201  -1.3468  -1.3468  -0.4649
    -0.4649  -0.4649  -0.2538  -0.2538  -0.2538   1.4117   4.1425

     occupation numbers 
     1.0000   1.0000   1.0000   1.0000   1.0000   1.0000   1.0000   1.0000
     1.0000   1.0000   1.0000   1.0000   1.0000   1.0000   1.0000   1.0000
     1.0000   1.0000   1.0000   1.0000   1.0000   0.0000   0.0000

          k = 0.0000 0.0000-0.5000 ( 34080 PWs)   bands (ev):

   -21.3258 -21.3258 -21.3258 -21.2704 -21.2704 -11.7918 -11.1894 -11.1127
   -11.1127  -6.2261  -2.5739  -2.4510  -2.4510  -1.1144  -0.9342  -0.8749
    -0.7773  -0.4822  -0.4822  -0.2845  -0.2845   1.9633   3.9964

     occupation numbers 
     1.0000   1.0000   1.0000   1.0000   1.0000   1.0000   1.0000   1.0000
     1.0000   1.0000   1.0000   1.0000   1.0000   1.0000   1.0000   1.0000
     1.0000   1.0000   1.0000   1.0000   1.0000   0.0000   0.0000

          k = 0.0000-0.5000-0.5000 ( 34048 PWs)   bands (ev):

   -21.3259 -21.3258 -21.3258 -21.2704 -21.2703 -11.7512 -11.1636 -11.1636
   -11.1352  -6.2208  -2.7077  -2.4641  -2.4641  -1.0505  -1.0505  -0.9062
    -0.6807  -0.4077  -0.4077  -0.3771  -0.1143   1.9454   4.1300

     occupation numbers 
     1.0000   1.0000   1.0000   1.0000   1.0000   1.0000   1.0000   1.0000
     1.0000   1.0000   1.0000   1.0000   1.0000   1.0000   1.0000   1.0000
     1.0000   1.0000   1.0000   1.0000   1.0000   0.0000   0.0000

          k =-0.5000-0.5000-0.5000 ( 34056 PWs)   bands (ev):

   -21.3259 -21.3259 -21.3259 -21.2703 -21.2703 -11.7259 -11.1614 -11.1614
   -11.1614  -6.2739  -2.6266  -2.6266  -2.6266  -0.9791  -0.9791  -0.9791
    -0.3257  -0.3257  -0.1622  -0.1622  -0.1622   1.3750   4.4153

     occupation numbers 
     1.0000   1.0000   1.0000   1.0000   1.0000   1.0000   1.0000   1.0000
     1.0000   1.0000   1.0000   1.0000   1.0000   1.0000   1.0000   1.0000
     1.0000   1.0000   1.0000   1.0000   1.0000   0.0000   0.0000

     highest occupied, lowest unoccupied level (ev):    -0.1143    1.3750

!    total energy              =   -1957.84112753 Ry

     total all-electron energy =    -69286.458689 Ry
     estimated scf accuracy    <       0.00000063 Ry

     The total energy is the sum of the following terms:
     one-electron contribution =    -155.28357869 Ry
     hartree contribution      =      94.74128264 Ry
     xc contribution           =    -110.99189296 Ry
     ewald contribution        =    -119.43299796 Ry
     one-center paw contrib.   =   -1666.87394056 Ry
      -> PAW hartree energy AE =     109.61001198 Ry
      -> PAW hartree energy PS =    -108.86521979 Ry
      -> PAW xc energy AE      =    -329.04280612 Ry
      -> PAW xc energy PS      =      47.34505825 Ry
      -> total E_H with PAW    =      95.48607483 Ry
      -> total E_XC with PAW   =    -392.68964082 Ry

     convergence has been achieved in   6 iterations

     Forces acting on atoms (cartesian axes, Ry/au):

     atom    1 type  1   force =     0.00000000    0.00000000    0.00000000
     atom    2 type  2   force =    -0.00071033    0.00071033    0.00071033
     atom    3 type  2   force =     0.00071033   -0.00071033    0.00071033
     atom    4 type  2   force =     0.00071033    0.00071033   -0.00071033
     atom    5 type  2   force =    -0.00071033   -0.00071033   -0.00071033
     The non-local contrib.  to forces
     atom    1 type  1   force =     0.00000000    0.00000000    0.00000000
     atom    2 type  2   force =    -0.09100675    0.09100675    0.09100675
     atom    3 type  2   force =     0.09100675   -0.09100675    0.09100675
     atom    4 type  2   force =     0.09100675    0.09100675   -0.09100675
     atom    5 type  2   force =    -0.09100675   -0.09100675   -0.09100675
     The ionic contribution  to forces
     atom    1 type  1   force =    -0.00000000   -0.00000000   -0.00000000
     atom    2 type  2   force =     3.79412130   -3.79412130   -3.79412130
     atom    3 type  2   force =    -3.79412130    3.79412130   -3.79412130
     atom    4 type  2   force =    -3.79412130   -3.79412130    3.79412130
     atom    5 type  2   force =     3.79412130    3.79412130    3.79412130
     The local contribution  to forces
     atom    1 type  1   force =     0.00000000    0.00000000   -0.00000000
     atom    2 type  2   force =    -3.71548930    3.71548930    3.71548930
     atom    3 type  2   force =     3.71548930   -3.71548930    3.71548930
     atom    4 type  2   force =     3.71548930    3.71548930   -3.71548930
     atom    5 type  2   force =    -3.71548930   -3.71548930   -3.71548930
     The core correction contribution to forces
     atom    1 type  1   force =     0.00000000    0.00000000    0.00000000
     atom    2 type  2   force =     0.01142639   -0.01142639   -0.01142639
     atom    3 type  2   force =    -0.01142639    0.01142639   -0.01142639
     atom    4 type  2   force =    -0.01142639   -0.01142639    0.01142639
     atom    5 type  2   force =     0.01142639    0.01142639    0.01142639
     The Hubbard contrib.    to forces
     atom    1 type  1   force =     0.00000000    0.00000000    0.00000000
     atom    2 type  2   force =     0.00000000    0.00000000    0.00000000
     atom    3 type  2   force =     0.00000000    0.00000000    0.00000000
     atom    4 type  2   force =     0.00000000    0.00000000    0.00000000
     atom    5 type  2   force =     0.00000000    0.00000000    0.00000000
     The SCF correction term to forces
     atom    1 type  1   force =    -0.00000000    0.00000000   -0.00000000
     atom    2 type  2   force =     0.00023803   -0.00023803   -0.00023803
     atom    3 type  2   force =    -0.00023803    0.00023803   -0.00023803
     atom    4 type  2   force =    -0.00023803   -0.00023803    0.00023803
     atom    5 type  2   force =     0.00023803    0.00023803    0.00023803

     Total force =     0.002461     Total SCF correction =     0.000825
     SCF correction compared to forces is large: reduce conv_thr to get better values


     Computing stress (Cartesian axis) and pressure

          total   stress  (Ry/bohr**3)                   (kbar)     P=        2.02
   0.00001375   0.00000000   0.00000000            2.02        0.00        0.00
   0.00000000   0.00001375   0.00000000            0.00        2.02        0.00
   0.00000000   0.00000000   0.00001375            0.00        0.00        2.02

     kinetic stress (kbar)   4002.73      0.00      0.00
                                0.00   4002.73      0.00
                                0.00      0.00   4002.73

     local   stress (kbar)  -2878.15      0.00     -0.00
                                0.00  -2878.15     -0.00
                               -0.00     -0.00  -2878.15

     nonloc. stress (kbar)    796.56      0.00      0.00
                                0.00    796.56      0.00
                                0.00      0.00    796.56

     hartree stress (kbar)   2302.85      0.00      0.00
                                0.00   2302.85      0.00
                                0.00      0.00   2302.85

     exc-cor stress (kbar)   4100.16      0.00      0.00
                                0.00   4100.16      0.00
                                0.00      0.00   4100.16

     corecor stress (kbar)  -5419.10      0.00      0.00
                                0.00  -5419.10     -0.00
                                0.00     -0.00  -5419.10

     ewald   stress (kbar)  -2903.03      0.00     -0.00
                                0.00  -2903.03     -0.00
                               -0.00     -0.00  -2903.03

     hubbard stress (kbar)      0.00      0.00      0.00
                                0.00      0.00      0.00
                                0.00      0.00      0.00

     DFT-D   stress (kbar)      0.00      0.00      0.00
                                0.00      0.00      0.00
                                0.00      0.00      0.00

     XDM     stress (kbar)      0.00      0.00      0.00
                                0.00      0.00      0.00
                                0.00      0.00      0.00

     dft-nl  stress (kbar)      0.00      0.00      0.00
                                0.00      0.00      0.00
                                0.00      0.00      0.00

     TS-vdW  stress (kbar)      0.00      0.00      0.00
                                0.00      0.00      0.00
                                0.00      0.00      0.00



     Writing output data file ./out/SnI4un.save/

     init_run     :      7.88s CPU      7.98s WALL (       1 calls)
     electrons    :     57.71s CPU     57.90s WALL (       1 calls)
     forces       :      1.37s CPU      1.37s WALL (       1 calls)
     stress       :      2.08s CPU      2.08s WALL (       1 calls)

     Called by init_run:
     wfcinit      :      4.53s CPU      4.56s WALL (       1 calls)
     wfcinit:atom :      0.00s CPU      0.00s WALL (       4 calls)
     wfcinit:wfcr :      4.51s CPU      4.54s WALL (       4 calls)
     potinit      :      0.99s CPU      1.02s WALL (       1 calls)
     hinit0       :      1.12s CPU      1.12s WALL (       1 calls)

     Called by electrons:
     c_bands      :     44.27s CPU     44.36s WALL (       7 calls)
     sum_band     :      8.44s CPU      8.46s WALL (       7 calls)
     v_of_rho     :      1.17s CPU      1.17s WALL (       7 calls)
     v_h          :      0.36s CPU      0.36s WALL (       7 calls)
     v_xc         :      1.25s CPU      1.25s WALL (       9 calls)
     newd         :      1.03s CPU      1.05s WALL (       7 calls)
     PAW_pot      :      1.93s CPU      1.96s WALL (       7 calls)
     mix_rho      :      0.50s CPU      0.50s WALL (       7 calls)

     Called by c_bands:
     init_us_2    :      0.07s CPU      0.07s WALL (      68 calls)
     cegterg      :     43.51s CPU     43.57s WALL (      28 calls)

     Called by sum_band:
     sum_band:wei :      0.00s CPU      0.00s WALL (       7 calls)
     sum_band:loo :      6.41s CPU      6.41s WALL (       7 calls)
     sum_band:buf :      0.00s CPU      0.00s WALL (      28 calls)
     sum_band:ini :      0.03s CPU      0.03s WALL (      28 calls)
     sum_band:cal :      1.55s CPU      1.55s WALL (      28 calls)
     sum_band:bec :      0.00s CPU      0.00s WALL (      28 calls)
     addusdens    :      0.51s CPU      0.52s WALL (       7 calls)
     addusd:skk   :      0.00s CPU      0.00s WALL (      14 calls)
     addusd:dgemm :      0.21s CPU      0.21s WALL (      14 calls)
     addusd:qvan2 :      0.24s CPU      0.25s WALL (      14 calls)

     Called by *egterg:
     cdiaghg      :      0.14s CPU      0.14s WALL (     114 calls)
     cegterg:over :      5.45s CPU      5.45s WALL (      90 calls)
     cegterg:upda :      0.09s CPU      0.09s WALL (      90 calls)
     cegterg:last :      0.21s CPU      0.22s WALL (      61 calls)
     h_psi        :     38.34s CPU     38.41s WALL (     122 calls)
     s_psi        :      0.28s CPU      0.28s WALL (     122 calls)
     g_psi        :      0.01s CPU      0.01s WALL (      90 calls)

     Called by h_psi:
     h_psi:calbec :      6.26s CPU      6.26s WALL (     122 calls)
     vloc_psi     :     31.79s CPU     31.86s WALL (     122 calls)
     add_vuspsi   :      0.28s CPU      0.28s WALL (     122 calls)

     General routines
     calbec       :      8.76s CPU      8.76s WALL (     170 calls)
     fft          :      1.11s CPU      1.11s WALL (     103 calls)
     ffts         :      0.06s CPU      0.06s WALL (       7 calls)
     fftw         :     36.45s CPU     36.53s WALL (    4336 calls)

     Parallel routines
     fft_scatt_xy :      0.20s CPU      0.20s WALL (    4446 calls)
     fft_scatt_yz :     35.47s CPU     35.54s WALL (    4446 calls)

     PAW routines
     PAW_pot      :      1.93s CPU      1.96s WALL (       7 calls)
     PAW_symme    :      0.22s CPU      0.23s WALL (      14 calls)

     PWSCF        :   3m26.43s CPU   3m27.22s WALL


   This run was terminated on:  14:24:27  15Jan2021            

=------------------------------------------------------------------------------=
   JOB DONE.
=------------------------------------------------------------------------------=
