
     Program PWSCF v.6.7MaX starts on 14Jan2021 at 14: 5:31 

     This program is part of the open-source Quantum ESPRESSO suite
     for quantum simulation of materials; please cite
         "P. Giannozzi et al., J. Phys.:Condens. Matter 21 395502 (2009);
         "P. Giannozzi et al., J. Phys.:Condens. Matter 29 465901 (2017);
          URL http://www.quantum-espresso.org", 
     in publications or presentations arising from this work. More details at
     http://www.quantum-espresso.org/quote

     Parallel version (MPI), running on    19 processors

     MPI processes distributed on     1 nodes
     R & G space division:  proc/nbgrp/npool/nimage =      19
     Waiting for input...
     Reading input from standard input

     Current dimensions of program PWSCF are:
     Max number of different atomic species (ntypx) = 10
     Max number of k-points (npk) =  40000
     Max angular momentum in pseudopotentials (lmaxx) =  3
     file Sn.pbe-dn-kjpaw_psl.1.0.0.UPF: wavefunction(s)  5S 5P 4D renormalized
     file I.pbe-n-kjpaw_psl.1.0.0.UPF: wavefunction(s)  5S renormalized

     Subspace diagonalization in iterative solution of the eigenvalue problem:
     a serial algorithm will be used

     Message from routine setup:
     using ibrav=0 with symmetry is DISCOURAGED, use correct ibrav instead

     Parallelization info
     --------------------
     sticks:   dense  smooth     PW     G-vecs:    dense   smooth      PW
     Min         267     267     72                14341    14341    2024
     Max         267     267     73                14343    14343    2028
     Sum        5073    5073   1369               272489   272489   38497


     Title: 
     SnI4un                                                                     


     bravais-lattice index     =            0
     lattice parameter (alat)  =      12.6355  a.u.
     unit-cell volume          =    2017.3401 (a.u.)^3
     number of atoms/cell      =            5
     number of atomic types    =            2
     number of electrons       =        42.00
     number of Kohn-Sham states=           21
     kinetic-energy cutoff     =     100.0000  Ry
     charge density cutoff     =     400.0000  Ry
     scf convergence threshold =      1.0E-06
     mixing beta               =       0.5000
     number of iterations used =            8  plain     mixing
     energy convergence thresh.=      1.0E-04
     force convergence thresh. =      1.0E-04
     press convergence thresh. =      5.0E-01
     Exchange-correlation= SLA  PW   PBX  PBC
                           (   1   4   3   4   0   0   0)
     nstep                     =           50


     celldm(1)=  12.635518  celldm(2)=   0.000000  celldm(3)=   0.000000
     celldm(4)=   0.000000  celldm(5)=   0.000000  celldm(6)=   0.000000

     crystal axes: (cart. coord. in units of alat)
               a(1) = (   1.000000   0.000000   0.000000 )  
               a(2) = (   0.000000   1.000000   0.000000 )  
               a(3) = (   0.000000   0.000000   1.000000 )  

     reciprocal axes: (cart. coord. in units 2 pi/alat)
               b(1) = (  1.000000  0.000000  0.000000 )  
               b(2) = (  0.000000  1.000000  0.000000 )  
               b(3) = (  0.000000  0.000000  1.000000 )  


     PseudoPot. # 1 for Sn read from file:
     ../../../pseudo/Sn.pbe-dn-kjpaw_psl.1.0.0.UPF
     MD5 check sum: 67f11dec737d427557dc41ea34975807
     Pseudo is Projector augmented-wave + core cor, Zval = 14.0
     Generated using &quot;atomic&quot; code by A. Dal Corso  v.6.3
     Shape of augmentation charge: PSQ
     Using radial grid of 1243 points,  6 beta functions with: 
                l(1) =   0
                l(2) =   0
                l(3) =   1
                l(4) =   1
                l(5) =   2
                l(6) =   2
     Q(r) pseudized with 0 coefficients 


     PseudoPot. # 2 for I  read from file:
     ../../../pseudo/I.pbe-n-kjpaw_psl.1.0.0.UPF
     MD5 check sum: cd3d296c3308a581e1559a0c8a554cb5
     Pseudo is Projector augmented-wave + core cor, Zval =  7.0
     Generated using &quot;atomic&quot; code by A. Dal Corso  v.6.3
     Shape of augmentation charge: PSQ
     Using radial grid of 1247 points,  6 beta functions with: 
                l(1) =   0
                l(2) =   0
                l(3) =   1
                l(4) =   1
                l(5) =   2
                l(6) =   2
     Q(r) pseudized with 0 coefficients 


     atomic species   valence    mass     pseudopotential
        Sn            14.00   118.70000     Sn( 1.00)
        I              7.00   126.90000     I ( 1.00)

     24 Sym. Ops. (no inversion) found


                                    s                        frac. trans.

      isym =  1     identity                                     

 cryst.   s( 1) = (     1          0          0      )
                  (     0          1          0      )
                  (     0          0          1      )

 cart.    s( 1) = (  1.0000000  0.0000000  0.0000000 )
                  (  0.0000000  1.0000000  0.0000000 )
                  (  0.0000000  0.0000000  1.0000000 )


      isym =  2     180 deg rotation - cart. axis [0,0,1]        

 cryst.   s( 2) = (    -1          0          0      )
                  (     0         -1          0      )
                  (     0          0          1      )

 cart.    s( 2) = ( -1.0000000  0.0000000  0.0000000 )
                  (  0.0000000 -1.0000000  0.0000000 )
                  (  0.0000000  0.0000000  1.0000000 )


      isym =  3     180 deg rotation - cart. axis [0,1,0]        

 cryst.   s( 3) = (    -1          0          0      )
                  (     0          1          0      )
                  (     0          0         -1      )

 cart.    s( 3) = ( -1.0000000  0.0000000  0.0000000 )
                  (  0.0000000  1.0000000  0.0000000 )
                  (  0.0000000  0.0000000 -1.0000000 )


      isym =  4     180 deg rotation - cart. axis [1,0,0]        

 cryst.   s( 4) = (     1          0          0      )
                  (     0         -1          0      )
                  (     0          0         -1      )

 cart.    s( 4) = (  1.0000000  0.0000000  0.0000000 )
                  (  0.0000000 -1.0000000  0.0000000 )
                  (  0.0000000  0.0000000 -1.0000000 )


      isym =  5     120 deg rotation - cart. axis [-1,-1,-1]     

 cryst.   s( 5) = (     0          0          1      )
                  (     1          0          0      )
                  (     0          1          0      )

 cart.    s( 5) = (  0.0000000  1.0000000  0.0000000 )
                  (  0.0000000  0.0000000  1.0000000 )
                  (  1.0000000  0.0000000  0.0000000 )


      isym =  6     120 deg rotation - cart. axis [-1,1,1]       

 cryst.   s( 6) = (     0          0         -1      )
                  (    -1          0          0      )
                  (     0          1          0      )

 cart.    s( 6) = (  0.0000000 -1.0000000  0.0000000 )
                  (  0.0000000  0.0000000  1.0000000 )
                  ( -1.0000000  0.0000000  0.0000000 )


      isym =  7     120 deg rotation - cart. axis [1,1,-1]       

 cryst.   s( 7) = (     0          0         -1      )
                  (     1          0          0      )
                  (     0         -1          0      )

 cart.    s( 7) = (  0.0000000  1.0000000  0.0000000 )
                  (  0.0000000  0.0000000 -1.0000000 )
                  ( -1.0000000  0.0000000  0.0000000 )


      isym =  8     120 deg rotation - cart. axis [1,-1,1]       

 cryst.   s( 8) = (     0          0          1      )
                  (    -1          0          0      )
                  (     0         -1          0      )

 cart.    s( 8) = (  0.0000000 -1.0000000  0.0000000 )
                  (  0.0000000  0.0000000 -1.0000000 )
                  (  1.0000000  0.0000000  0.0000000 )


      isym =  9     120 deg rotation - cart. axis [1,1,1]        

 cryst.   s( 9) = (     0          1          0      )
                  (     0          0          1      )
                  (     1          0          0      )

 cart.    s( 9) = (  0.0000000  0.0000000  1.0000000 )
                  (  1.0000000  0.0000000  0.0000000 )
                  (  0.0000000  1.0000000  0.0000000 )


      isym = 10     120 deg rotation - cart. axis [-1,1,-1]      

 cryst.   s(10) = (     0         -1          0      )
                  (     0          0         -1      )
                  (     1          0          0      )

 cart.    s(10) = (  0.0000000  0.0000000  1.0000000 )
                  ( -1.0000000  0.0000000  0.0000000 )
                  (  0.0000000 -1.0000000  0.0000000 )


      isym = 11     120 deg rotation - cart. axis [1,-1,-1]      

 cryst.   s(11) = (     0         -1          0      )
                  (     0          0          1      )
                  (    -1          0          0      )

 cart.    s(11) = (  0.0000000  0.0000000 -1.0000000 )
                  ( -1.0000000  0.0000000  0.0000000 )
                  (  0.0000000  1.0000000  0.0000000 )


      isym = 12     120 deg rotation - cart. axis [-1,-1,1]      

 cryst.   s(12) = (     0          1          0      )
                  (     0          0         -1      )
                  (    -1          0          0      )

 cart.    s(12) = (  0.0000000  0.0000000 -1.0000000 )
                  (  1.0000000  0.0000000  0.0000000 )
                  (  0.0000000 -1.0000000  0.0000000 )


      isym = 13     inv. 180 deg rotation - cart. axis [1,1,0]   

 cryst.   s(13) = (     0         -1          0      )
                  (    -1          0          0      )
                  (     0          0          1      )

 cart.    s(13) = (  0.0000000 -1.0000000  0.0000000 )
                  ( -1.0000000  0.0000000  0.0000000 )
                  (  0.0000000  0.0000000  1.0000000 )


      isym = 14     inv. 180 deg rotation - cart. axis [1,-1,0]  

 cryst.   s(14) = (     0          1          0      )
                  (     1          0          0      )
                  (     0          0          1      )

 cart.    s(14) = (  0.0000000  1.0000000  0.0000000 )
                  (  1.0000000  0.0000000  0.0000000 )
                  (  0.0000000  0.0000000  1.0000000 )


      isym = 15     inv.  90 deg rotation - cart. axis [0,0,-1]  

 cryst.   s(15) = (     0          1          0      )
                  (    -1          0          0      )
                  (     0          0         -1      )

 cart.    s(15) = (  0.0000000 -1.0000000  0.0000000 )
                  (  1.0000000  0.0000000  0.0000000 )
                  (  0.0000000  0.0000000 -1.0000000 )


      isym = 16     inv.  90 deg rotation - cart. axis [0,0,1]   

 cryst.   s(16) = (     0         -1          0      )
                  (     1          0          0      )
                  (     0          0         -1      )

 cart.    s(16) = (  0.0000000  1.0000000  0.0000000 )
                  ( -1.0000000  0.0000000  0.0000000 )
                  (  0.0000000  0.0000000 -1.0000000 )


      isym = 17     inv. 180 deg rotation - cart. axis [1,0,1]   

 cryst.   s(17) = (     0          0         -1      )
                  (     0          1          0      )
                  (    -1          0          0      )

 cart.    s(17) = (  0.0000000  0.0000000 -1.0000000 )
                  (  0.0000000  1.0000000  0.0000000 )
                  ( -1.0000000  0.0000000  0.0000000 )


      isym = 18     inv. 180 deg rotation - cart. axis [-1,0,1]  

 cryst.   s(18) = (     0          0          1      )
                  (     0          1          0      )
                  (     1          0          0      )

 cart.    s(18) = (  0.0000000  0.0000000  1.0000000 )
                  (  0.0000000  1.0000000  0.0000000 )
                  (  1.0000000  0.0000000  0.0000000 )


      isym = 19     inv.  90 deg rotation - cart. axis [0,1,0]   

 cryst.   s(19) = (     0          0          1      )
                  (     0         -1          0      )
                  (    -1          0          0      )

 cart.    s(19) = (  0.0000000  0.0000000 -1.0000000 )
                  (  0.0000000 -1.0000000  0.0000000 )
                  (  1.0000000  0.0000000  0.0000000 )


      isym = 20     inv.  90 deg rotation - cart. axis [0,-1,0]  

 cryst.   s(20) = (     0          0         -1      )
                  (     0         -1          0      )
                  (     1          0          0      )

 cart.    s(20) = (  0.0000000  0.0000000  1.0000000 )
                  (  0.0000000 -1.0000000  0.0000000 )
                  ( -1.0000000  0.0000000  0.0000000 )


      isym = 21     inv. 180 deg rotation - cart. axis [0,1,1]   

 cryst.   s(21) = (     1          0          0      )
                  (     0          0         -1      )
                  (     0         -1          0      )

 cart.    s(21) = (  1.0000000  0.0000000  0.0000000 )
                  (  0.0000000  0.0000000 -1.0000000 )
                  (  0.0000000 -1.0000000  0.0000000 )


      isym = 22     inv. 180 deg rotation - cart. axis [0,1,-1]  

 cryst.   s(22) = (     1          0          0      )
                  (     0          0          1      )
                  (     0          1          0      )

 cart.    s(22) = (  1.0000000  0.0000000  0.0000000 )
                  (  0.0000000  0.0000000  1.0000000 )
                  (  0.0000000  1.0000000  0.0000000 )


      isym = 23     inv.  90 deg rotation - cart. axis [-1,0,0]  

 cryst.   s(23) = (    -1          0          0      )
                  (     0          0          1      )
                  (     0         -1          0      )

 cart.    s(23) = ( -1.0000000  0.0000000  0.0000000 )
                  (  0.0000000  0.0000000 -1.0000000 )
                  (  0.0000000  1.0000000  0.0000000 )


      isym = 24     inv.  90 deg rotation - cart. axis [1,0,0]   

 cryst.   s(24) = (    -1          0          0      )
                  (     0          0         -1      )
                  (     0          1          0      )

 cart.    s(24) = ( -1.0000000  0.0000000  0.0000000 )
                  (  0.0000000  0.0000000  1.0000000 )
                  (  0.0000000 -1.0000000  0.0000000 )


   Cartesian axes

     site n.     atom                  positions (alat units)
         1           Sn  tau(   1) = (   0.0000000   0.0000000   0.0000000  )
         2           I   tau(   2) = (   0.2339030   0.7660970   0.7660970  )
         3           I   tau(   3) = (   0.7660970   0.2339030   0.7660970  )
         4           I   tau(   4) = (   0.7660970   0.7660970   0.2339030  )
         5           I   tau(   5) = (   0.2339030   0.2339030   0.2339030  )

   Crystallographic axes

     site n.     atom                  positions (cryst. coord.)
         1           Sn  tau(   1) = (  0.0000000  0.0000000  0.0000000  )
         2           I   tau(   2) = (  0.2339030  0.7660970  0.7660970  )
         3           I   tau(   3) = (  0.7660970  0.2339030  0.7660970  )
         4           I   tau(   4) = (  0.7660970  0.7660970  0.2339030  )
         5           I   tau(   5) = (  0.2339030  0.2339030  0.2339030  )

     number of k points=     4
                       cart. coord. in units 2pi/alat
        k(    1) = (   0.0000000   0.0000000   0.0000000), wk =   0.2500000
        k(    2) = (   0.0000000   0.0000000  -0.5000000), wk =   0.7500000
        k(    3) = (   0.0000000  -0.5000000  -0.5000000), wk =   0.7500000
        k(    4) = (  -0.5000000  -0.5000000  -0.5000000), wk =   0.2500000

                       cryst. coord.
        k(    1) = (   0.0000000   0.0000000   0.0000000), wk =   0.2500000
        k(    2) = (   0.0000000   0.0000000  -0.5000000), wk =   0.7500000
        k(    3) = (   0.0000000  -0.5000000  -0.5000000), wk =   0.7500000
        k(    4) = (  -0.5000000  -0.5000000  -0.5000000), wk =   0.2500000

     Dense  grid:   272489 G-vectors     FFT dimensions: (  81,  81,  81)

     Dynamical RAM for                 wfc:       0.57 MB

     Dynamical RAM for     wfc (w. buffer):       2.87 MB

     Dynamical RAM for           str. fact:       0.44 MB

     Dynamical RAM for           local pot:       0.00 MB

     Dynamical RAM for          nlocal pot:       2.46 MB

     Dynamical RAM for                qrad:       6.42 MB

     Dynamical RAM for          rho,v,vnew:       1.41 MB

     Dynamical RAM for               rhoin:       0.47 MB

     Dynamical RAM for            rho*nmix:       3.50 MB

     Dynamical RAM for           G-vectors:       0.93 MB

     Dynamical RAM for          h,s,v(r/c):       0.08 MB

     Dynamical RAM for          <psi|beta>:       0.03 MB

     Dynamical RAM for                 psi:       1.15 MB

     Dynamical RAM for                hpsi:       1.15 MB

     Dynamical RAM for                spsi:       1.15 MB

     Dynamical RAM for      wfcinit/wfcrot:       1.38 MB

     Dynamical RAM for           addusdens:      41.58 MB

     Dynamical RAM for          addusforce:      43.02 MB

     Dynamical RAM for         addusstress:      43.99 MB

     Estimated static dynamical RAM per process >      20.41 MB

     Estimated max dynamical RAM per process >      64.40 MB

     Estimated total dynamical RAM >       1.19 GB

     Initial potential from superposition of free atoms

     starting charge   41.99831, renormalised to   42.00000
     Starting wfcs are   25 randomized atomic wfcs
     Checking if some PAW data can be deallocated... 
       PAW data deallocated on   15 nodes for type:  1
       PAW data deallocated on    4 nodes for type:  2

     total cpu time spent up to now is       21.8 secs

     Self-consistent Calculation

     iteration #  1     ecut=   100.00 Ry     beta= 0.50
     Davidson diagonalization with overlap
     ethr =  1.00E-02,  avg # of iterations =  1.8

     Threshold (ethr) on eigenvalues was too large:
     Diagonalizing with lowered threshold

     Davidson diagonalization with overlap
     ethr =  3.53E-04,  avg # of iterations =  2.0

     total cpu time spent up to now is       38.2 secs

     total energy              =   -1957.80868530 Ry
     estimated scf accuracy    <       0.12298713 Ry

     iteration #  2     ecut=   100.00 Ry     beta= 0.50
     Davidson diagonalization with overlap
     ethr =  2.93E-04,  avg # of iterations =  4.0

     total cpu time spent up to now is       49.5 secs

     total energy              =   -1957.83435709 Ry
     estimated scf accuracy    <       0.03830713 Ry

     iteration #  3     ecut=   100.00 Ry     beta= 0.50
     Davidson diagonalization with overlap
     ethr =  9.12E-05,  avg # of iterations =  2.0

     total cpu time spent up to now is       59.6 secs

     total energy              =   -1957.84085586 Ry
     estimated scf accuracy    <       0.00234721 Ry

     iteration #  4     ecut=   100.00 Ry     beta= 0.50
     Davidson diagonalization with overlap
     ethr =  5.59E-06,  avg # of iterations =  4.0

     total cpu time spent up to now is       69.5 secs

     total energy              =   -1957.84101532 Ry
     estimated scf accuracy    <       0.00054702 Ry

     iteration #  5     ecut=   100.00 Ry     beta= 0.50
     Davidson diagonalization with overlap
     ethr =  1.30E-06,  avg # of iterations =  2.8

     total cpu time spent up to now is       79.5 secs

     total energy              =   -1957.84112029 Ry
     estimated scf accuracy    <       0.00001020 Ry

     iteration #  6     ecut=   100.00 Ry     beta= 0.50
     Davidson diagonalization with overlap
     ethr =  2.43E-08,  avg # of iterations =  5.8

     total cpu time spent up to now is       93.7 secs

     total energy              =   -1957.84112460 Ry
     estimated scf accuracy    <       0.00001839 Ry

     iteration #  7     ecut=   100.00 Ry     beta= 0.50
     Davidson diagonalization with overlap
     ethr =  2.43E-08,  avg # of iterations =  3.2

     total cpu time spent up to now is      104.0 secs

     End of self-consistent calculation

          k = 0.0000 0.0000 0.0000 ( 34049 PWs)   bands (ev):

   -21.3184 -21.3184 -21.3184 -21.2629 -21.2629 -11.8469 -11.1145 -11.1145
   -11.1145  -6.2843  -2.4194  -2.4194  -2.4194  -1.3471  -1.3471  -0.4653
    -0.4653  -0.4653  -0.2540  -0.2540  -0.2540

     occupation numbers 
     1.0000   1.0000   1.0000   1.0000   1.0000   1.0000   1.0000   1.0000
     1.0000   1.0000   1.0000   1.0000   1.0000   1.0000   1.0000   1.0000
     1.0000   1.0000   1.0000   1.0000   1.0000

          k = 0.0000 0.0000-0.5000 ( 34080 PWs)   bands (ev):

   -21.3184 -21.3184 -21.3184 -21.2629 -21.2629 -11.7916 -11.1896 -11.1129
   -11.1129  -6.2246  -2.5732  -2.4503  -2.4503  -1.1147  -0.9344  -0.8752
    -0.7777  -0.4825  -0.4825  -0.2848  -0.2848

     occupation numbers 
     1.0000   1.0000   1.0000   1.0000   1.0000   1.0000   1.0000   1.0000
     1.0000   1.0000   1.0000   1.0000   1.0000   1.0000   1.0000   1.0000
     1.0000   1.0000   1.0000   1.0000   1.0000

          k = 0.0000-0.5000-0.5000 ( 34048 PWs)   bands (ev):

   -21.3184 -21.3184 -21.3184 -21.2629 -21.2629 -11.7510 -11.1638 -11.1638
   -11.1354  -6.2193  -2.7071  -2.4634  -2.4634  -1.0507  -1.0507  -0.9065
    -0.6809  -0.4081  -0.4081  -0.3774  -0.1147

     occupation numbers 
     1.0000   1.0000   1.0000   1.0000   1.0000   1.0000   1.0000   1.0000
     1.0000   1.0000   1.0000   1.0000   1.0000   1.0000   1.0000   1.0000
     1.0000   1.0000   1.0000   1.0000   1.0000

          k =-0.5000-0.5000-0.5000 ( 34056 PWs)   bands (ev):

   -21.3184 -21.3184 -21.3184 -21.2629 -21.2629 -11.7257 -11.1615 -11.1615
   -11.1615  -6.2724  -2.6260  -2.6260  -2.6260  -0.9792  -0.9792  -0.9792
    -0.3260  -0.3260  -0.1626  -0.1626  -0.1626

     occupation numbers 
     1.0000   1.0000   1.0000   1.0000   1.0000   1.0000   1.0000   1.0000
     1.0000   1.0000   1.0000   1.0000   1.0000   1.0000   1.0000   1.0000
     1.0000   1.0000   1.0000   1.0000   1.0000

     highest occupied level (ev):    -0.1147

!    total energy              =   -1957.84112762 Ry

     total all-electron energy =    -69286.458689 Ry
     estimated scf accuracy    <       0.00000029 Ry

     The total energy is the sum of the following terms:
     one-electron contribution =    -155.27974563 Ry
     hartree contribution      =      94.73647432 Ry
     xc contribution           =    -110.99102603 Ry
     ewald contribution        =    -119.43299796 Ry
     one-center paw contrib.   =   -1666.87383231 Ry
      -> PAW hartree energy AE =     109.60829383 Ry
      -> PAW hartree energy PS =    -108.86370038 Ry
      -> PAW xc energy AE      =    -329.04175665 Ry
      -> PAW xc energy PS      =      47.34434050 Ry
      -> total E_H with PAW    =      95.48106777 Ry
      -> total E_XC with PAW   =    -392.68844218 Ry

     convergence has been achieved in   7 iterations

     Forces acting on atoms (cartesian axes, Ry/au):

     atom    1 type  1   force =     0.00000000    0.00000000    0.00000000
     atom    2 type  2   force =    -0.00077908    0.00077908    0.00077908
     atom    3 type  2   force =     0.00077908   -0.00077908    0.00077908
     atom    4 type  2   force =     0.00077908    0.00077908   -0.00077908
     atom    5 type  2   force =    -0.00077908   -0.00077908   -0.00077908
     The non-local contrib.  to forces
     atom    1 type  1   force =     0.00000000    0.00000000    0.00000000
     atom    2 type  2   force =    -0.09096698    0.09096698    0.09096698
     atom    3 type  2   force =     0.09096698   -0.09096698    0.09096698
     atom    4 type  2   force =     0.09096698    0.09096698   -0.09096698
     atom    5 type  2   force =    -0.09096698   -0.09096698   -0.09096698
     The ionic contribution  to forces
     atom    1 type  1   force =    -0.00000000   -0.00000000   -0.00000000
     atom    2 type  2   force =     3.79412130   -3.79412130   -3.79412130
     atom    3 type  2   force =    -3.79412130    3.79412130   -3.79412130
     atom    4 type  2   force =    -3.79412130   -3.79412130    3.79412130
     atom    5 type  2   force =     3.79412130    3.79412130    3.79412130
     The local contribution  to forces
     atom    1 type  1   force =     0.00000000    0.00000000    0.00000000
     atom    2 type  2   force =    -3.71555541    3.71555541    3.71555541
     atom    3 type  2   force =     3.71555541   -3.71555541    3.71555541
     atom    4 type  2   force =     3.71555541    3.71555541   -3.71555541
     atom    5 type  2   force =    -3.71555541   -3.71555541   -3.71555541
     The core correction contribution to forces
     atom    1 type  1   force =     0.00000000    0.00000000    0.00000000
     atom    2 type  2   force =     0.01141705   -0.01141705   -0.01141705
     atom    3 type  2   force =    -0.01141705    0.01141705   -0.01141705
     atom    4 type  2   force =    -0.01141705   -0.01141705    0.01141705
     atom    5 type  2   force =     0.01141705    0.01141705    0.01141705
     The Hubbard contrib.    to forces
     atom    1 type  1   force =     0.00000000    0.00000000    0.00000000
     atom    2 type  2   force =     0.00000000    0.00000000    0.00000000
     atom    3 type  2   force =     0.00000000    0.00000000    0.00000000
     atom    4 type  2   force =     0.00000000    0.00000000    0.00000000
     atom    5 type  2   force =     0.00000000    0.00000000    0.00000000
     The SCF correction term to forces
     atom    1 type  1   force =     0.00000000   -0.00000000   -0.00000000
     atom    2 type  2   force =     0.00020496   -0.00020496   -0.00020496
     atom    3 type  2   force =    -0.00020496    0.00020496   -0.00020496
     atom    4 type  2   force =    -0.00020496   -0.00020496    0.00020496
     atom    5 type  2   force =     0.00020496    0.00020496    0.00020496

     Total force =     0.002699     Total SCF correction =     0.000710
     SCF correction compared to forces is large: reduce conv_thr to get better values


     Computing stress (Cartesian axis) and pressure

          total   stress  (Ry/bohr**3)                   (kbar)     P=        0.99
   0.00000670   0.00000000   0.00000000            0.99        0.00        0.00
   0.00000000   0.00000670   0.00000000            0.00        0.99        0.00
   0.00000000   0.00000000   0.00000670            0.00        0.00        0.99

     kinetic stress (kbar)   4002.70      0.00      0.00
                                0.00   4002.70      0.00
                                0.00      0.00   4002.70

     local   stress (kbar)  -2878.16      0.00     -0.00
                                0.00  -2878.16     -0.00
                               -0.00     -0.00  -2878.16

     nonloc. stress (kbar)    795.67      0.00      0.00
                                0.00    795.67      0.00
                                0.00      0.00    795.67

     hartree stress (kbar)   2302.74      0.00      0.00
                                0.00   2302.74     -0.00
                                0.00     -0.00   2302.74

     exc-cor stress (kbar)   4100.16      0.00      0.00
                                0.00   4100.16      0.00
                                0.00      0.00   4100.16

     corecor stress (kbar)  -5419.09     -0.00      0.00
                               -0.00  -5419.09      0.00
                                0.00      0.00  -5419.09

     ewald   stress (kbar)  -2903.03      0.00     -0.00
                                0.00  -2903.03     -0.00
                               -0.00     -0.00  -2903.03

     hubbard stress (kbar)      0.00      0.00      0.00
                                0.00      0.00      0.00
                                0.00      0.00      0.00

     DFT-D   stress (kbar)      0.00      0.00      0.00
                                0.00      0.00      0.00
                                0.00      0.00      0.00

     XDM     stress (kbar)      0.00      0.00      0.00
                                0.00      0.00      0.00
                                0.00      0.00      0.00

     dft-nl  stress (kbar)      0.00      0.00      0.00
                                0.00      0.00      0.00
                                0.00      0.00      0.00

     TS-vdW  stress (kbar)      0.00      0.00      0.00
                                0.00      0.00      0.00
                                0.00      0.00      0.00



     BFGS Geometry Optimization
     Energy error            =      0.0E+00
     Gradient error          =      7.8E-04
     Cell gradient error     =      6.7E-06


     number of scf cycles    =   1
     number of bfgs steps    =   0

     enthalpy new            =   -1957.8411276158 Ry

     new trust radius        =       0.0015054227 bohr
     new conv_thr            =       0.0000010000 Ry

     new unit-cell volume =   2018.35449 a.u.^3 (   299.08928 Ang^3 )
     density =      3.47721 g/cm^3

CELL_PARAMETERS (angstrom)
   6.687548555   0.000000000   0.000000000
   0.000000000   6.687548555   0.000000000
   0.000000000   0.000000000   6.687548555

ATOMIC_POSITIONS (crystal)
Sn            0.0000000000        0.0000000000        0.0000000000
I             0.2338413418        0.7661586582        0.7661586582
I             0.7661586582        0.2338413418        0.7661586582
I             0.7661586582        0.7661586582        0.2338413418
I             0.2338413418        0.2338413418        0.2338413418



     Writing output data file ./out/SnI4un.save/
     NEW-OLD atomic charge density approx. for the potential
     extrapolated charge   42.02111, renormalised to   42.00000

     total cpu time spent up to now is      162.7 secs

     Self-consistent Calculation

     iteration #  1     ecut=   100.00 Ry     beta= 0.50
     Davidson diagonalization with overlap
     ethr =  1.00E-06,  avg # of iterations =  2.0

     total cpu time spent up to now is      172.8 secs

     total energy              =   -1957.84108392 Ry
     estimated scf accuracy    <       0.00005106 Ry

     iteration #  2     ecut=   100.00 Ry     beta= 0.50
     Davidson diagonalization with overlap
     ethr =  1.22E-07,  avg # of iterations =  6.0

     total cpu time spent up to now is      186.5 secs

     total energy              =   -1957.84113795 Ry
     estimated scf accuracy    <       0.00011713 Ry

     iteration #  3     ecut=   100.00 Ry     beta= 0.50
     Davidson diagonalization with overlap
     ethr =  1.22E-07,  avg # of iterations =  2.0

     total cpu time spent up to now is      195.9 secs

     total energy              =   -1957.84114159 Ry
     estimated scf accuracy    <       0.00001957 Ry

     iteration #  4     ecut=   100.00 Ry     beta= 0.50
     Davidson diagonalization with overlap
     ethr =  4.66E-08,  avg # of iterations =  2.5

     total cpu time spent up to now is      204.9 secs

     total energy              =   -1957.84114199 Ry
     estimated scf accuracy    <       0.00000560 Ry

     iteration #  5     ecut=   100.00 Ry     beta= 0.50
     Davidson diagonalization with overlap
     ethr =  1.33E-08,  avg # of iterations =  3.5

     total cpu time spent up to now is      214.3 secs

     total energy              =   -1957.84114283 Ry
     estimated scf accuracy    <       0.00000128 Ry

     iteration #  6     ecut=   100.00 Ry     beta= 0.50
     Davidson diagonalization with overlap
     ethr =  3.06E-09,  avg # of iterations =  2.8

     total cpu time spent up to now is      223.2 secs

     End of self-consistent calculation

          k = 0.0000 0.0000 0.0000 ( 34049 PWs)   bands (ev):

   -21.3298 -21.3298 -21.3298 -21.2742 -21.2742 -11.8520 -11.1192 -11.1192
   -11.1192  -6.2897  -2.4248  -2.4248  -2.4248  -1.3504  -1.3504  -0.4691
    -0.4691  -0.4691  -0.2589  -0.2589  -0.2589

     occupation numbers 
     1.0000   1.0000   1.0000   1.0000   1.0000   1.0000   1.0000   1.0000
     1.0000   1.0000   1.0000   1.0000   1.0000   1.0000   1.0000   1.0000
     1.0000   1.0000   1.0000   1.0000   1.0000

          k = 0.0000 0.0000-0.4999 ( 34080 PWs)   bands (ev):

   -21.3298 -21.3298 -21.3298 -21.2742 -21.2742 -11.7970 -11.1940 -11.1176
   -11.1176  -6.2302  -2.5780  -2.4557  -2.4557  -1.1185  -0.9382  -0.8790
    -0.7808  -0.4868  -0.4868  -0.2889  -0.2889

     occupation numbers 
     1.0000   1.0000   1.0000   1.0000   1.0000   1.0000   1.0000   1.0000
     1.0000   1.0000   1.0000   1.0000   1.0000   1.0000   1.0000   1.0000
     1.0000   1.0000   1.0000   1.0000   1.0000

          k = 0.0000-0.4999-0.4999 ( 34048 PWs)   bands (ev):

   -21.3298 -21.3298 -21.3298 -21.2742 -21.2742 -11.7565 -11.1684 -11.1684
   -11.1400  -6.2248  -2.7116  -2.4687  -2.4687  -1.0542  -1.0542  -0.9104
    -0.6846  -0.4120  -0.4120  -0.3822  -0.1189

     occupation numbers 
     1.0000   1.0000   1.0000   1.0000   1.0000   1.0000   1.0000   1.0000
     1.0000   1.0000   1.0000   1.0000   1.0000   1.0000   1.0000   1.0000
     1.0000   1.0000   1.0000   1.0000   1.0000

          k =-0.4999-0.4999-0.4999 ( 34056 PWs)   bands (ev):

   -21.3298 -21.3298 -21.3298 -21.2742 -21.2742 -11.7312 -11.1661 -11.1661
   -11.1661  -6.2777  -2.6307  -2.6307  -2.6307  -0.9831  -0.9831  -0.9831
    -0.3308  -0.3308  -0.1669  -0.1669  -0.1669

     occupation numbers 
     1.0000   1.0000   1.0000   1.0000   1.0000   1.0000   1.0000   1.0000
     1.0000   1.0000   1.0000   1.0000   1.0000   1.0000   1.0000   1.0000
     1.0000   1.0000   1.0000   1.0000   1.0000

     highest occupied level (ev):    -0.1189

!    total energy              =   -1957.84114231 Ry

     total all-electron energy =    -69286.458704 Ry
     estimated scf accuracy    <       0.00000091 Ry

     The total energy is the sum of the following terms:
     one-electron contribution =    -155.38695425 Ry
     hartree contribution      =      94.79064337 Ry
     xc contribution           =    -110.99311121 Ry
     ewald contribution        =    -119.37750333 Ry
     one-center paw contrib.   =   -1666.87421690 Ry
      -> PAW hartree energy AE =     109.60837848 Ry
      -> PAW hartree energy PS =    -108.86339637 Ry
      -> PAW xc energy AE      =    -329.04295810 Ry
      -> PAW xc energy PS      =      47.34507462 Ry
      -> total E_H with PAW    =      95.53562548 Ry
      -> total E_XC with PAW   =    -392.69099468 Ry

     convergence has been achieved in   6 iterations

     Forces acting on atoms (cartesian axes, Ry/au):

     atom    1 type  1   force =     0.00000000    0.00000000    0.00000000
     atom    2 type  2   force =    -0.00070976    0.00070976    0.00070976
     atom    3 type  2   force =     0.00070976   -0.00070976    0.00070976
     atom    4 type  2   force =     0.00070976    0.00070976   -0.00070976
     atom    5 type  2   force =    -0.00070976   -0.00070976   -0.00070976
     The non-local contrib.  to forces
     atom    1 type  1   force =     0.00000000    0.00000000    0.00000000
     atom    2 type  2   force =    -0.09081511    0.09081511    0.09081511
     atom    3 type  2   force =     0.09081511   -0.09081511    0.09081511
     atom    4 type  2   force =     0.09081511    0.09081511   -0.09081511
     atom    5 type  2   force =    -0.09081511   -0.09081511   -0.09081511
     The ionic contribution  to forces
     atom    1 type  1   force =    -0.00000000   -0.00000000   -0.00000000
     atom    2 type  2   force =     3.79655663   -3.79655663   -3.79655663
     atom    3 type  2   force =    -3.79655663    3.79655663   -3.79655663
     atom    4 type  2   force =    -3.79655663   -3.79655663    3.79655663
     atom    5 type  2   force =     3.79655663    3.79655663    3.79655663
     The local contribution  to forces
     atom    1 type  1   force =     0.00000000    0.00000000    0.00000000
     atom    2 type  2   force =    -3.71828660    3.71828660    3.71828660
     atom    3 type  2   force =     3.71828660   -3.71828660    3.71828660
     atom    4 type  2   force =     3.71828660    3.71828660   -3.71828660
     atom    5 type  2   force =    -3.71828660   -3.71828660   -3.71828660
     The core correction contribution to forces
     atom    1 type  1   force =     0.00000000    0.00000000    0.00000000
     atom    2 type  2   force =     0.01140548   -0.01140548   -0.01140548
     atom    3 type  2   force =    -0.01140548    0.01140548   -0.01140548
     atom    4 type  2   force =    -0.01140548   -0.01140548    0.01140548
     atom    5 type  2   force =     0.01140548    0.01140548    0.01140548
     The Hubbard contrib.    to forces
     atom    1 type  1   force =     0.00000000    0.00000000    0.00000000
     atom    2 type  2   force =     0.00000000    0.00000000    0.00000000
     atom    3 type  2   force =     0.00000000    0.00000000    0.00000000
     atom    4 type  2   force =     0.00000000    0.00000000    0.00000000
     atom    5 type  2   force =     0.00000000    0.00000000    0.00000000
     The SCF correction term to forces
     atom    1 type  1   force =    -0.00000000    0.00000000   -0.00000000
     atom    2 type  2   force =     0.00042985   -0.00042985   -0.00042985
     atom    3 type  2   force =    -0.00042985    0.00042985   -0.00042985
     atom    4 type  2   force =    -0.00042985   -0.00042985    0.00042985
     atom    5 type  2   force =     0.00042985    0.00042985    0.00042985

     Total force =     0.002459     Total SCF correction =     0.001489
     SCF correction compared to forces is large: reduce conv_thr to get better values


     Computing stress (Cartesian axis) and pressure

          total   stress  (Ry/bohr**3)                   (kbar)     P=        2.43
   0.00001649   0.00000000   0.00000000            2.43        0.00        0.00
   0.00000000   0.00001649   0.00000000            0.00        2.43        0.00
   0.00000000   0.00000000   0.00001649            0.00        0.00        2.43

     kinetic stress (kbar)   4000.84      0.00      0.00
                                0.00   4000.84      0.00
                                0.00      0.00   4000.84

     local   stress (kbar)  -2879.24     -0.00      0.00
                               -0.00  -2879.24      0.00
                                0.00      0.00  -2879.24

     nonloc. stress (kbar)    796.47      0.00      0.00
                                0.00    796.47      0.00
                                0.00      0.00    796.47

     hartree stress (kbar)   2302.90      0.00      0.00
                                0.00   2302.90      0.00
                                0.00      0.00   2302.90

     exc-cor stress (kbar)   4098.09     -0.00     -0.00
                               -0.00   4098.09     -0.00
                               -0.00     -0.00   4098.09

     corecor stress (kbar)  -5416.40     -0.00      0.00
                               -0.00  -5416.40      0.00
                                0.00      0.00  -5416.40

     ewald   stress (kbar)  -2900.22     -0.00      0.00
                               -0.00  -2900.22      0.00
                                0.00      0.00  -2900.22

     hubbard stress (kbar)      0.00      0.00      0.00
                                0.00      0.00      0.00
                                0.00      0.00      0.00

     DFT-D   stress (kbar)      0.00      0.00      0.00
                                0.00      0.00      0.00
                                0.00      0.00      0.00

     XDM     stress (kbar)      0.00      0.00      0.00
                                0.00      0.00      0.00
                                0.00      0.00      0.00

     dft-nl  stress (kbar)      0.00      0.00      0.00
                                0.00      0.00      0.00
                                0.00      0.00      0.00

     TS-vdW  stress (kbar)      0.00      0.00      0.00
                                0.00      0.00      0.00
                                0.00      0.00      0.00


     Energy error            =      1.5E-05
     Gradient error          =      7.1E-04
     Cell gradient error     =      1.6E-05


     number of scf cycles    =   2
     number of bfgs steps    =   1

     enthalpy old            =   -1957.8411276158 Ry
     enthalpy new            =   -1957.8411423141 Ry

     CASE: enthalpy_new < enthalpy_old


     WARNING: bfgs curvature condition failed, Theta= 0.482
     new trust radius        =       0.0007492682 bohr
     new conv_thr            =       0.0000000100 Ry

     new unit-cell volume =   2018.58214 a.u.^3 (   299.12301 Ang^3 )
     density =      3.47682 g/cm^3

CELL_PARAMETERS (angstrom)
   6.687799969   0.000000000   0.000000000
   0.000000000   6.687799969   0.000000000
   0.000000000   0.000000000   6.687799969

ATOMIC_POSITIONS (crystal)
Sn            0.0000000000        0.0000000000        0.0000000000
I             0.2338071115        0.7661928885        0.7661928885
I             0.7661928885        0.2338071115        0.7661928885
I             0.7661928885        0.7661928885        0.2338071115
I             0.2338071115        0.2338071115        0.2338071115



     Writing output data file ./out/SnI4un.save/
     NEW-OLD atomic charge density approx. for the potential
     extrapolated charge   42.00474, renormalised to   42.00000

     total cpu time spent up to now is      282.3 secs

     Self-consistent Calculation

     iteration #  1     ecut=   100.00 Ry     beta= 0.50
     Davidson diagonalization with overlap
     ethr =  1.00E-06,  avg # of iterations =  2.0

     Threshold (ethr) on eigenvalues was too large:
     Diagonalizing with lowered threshold

     Davidson diagonalization with overlap
     ethr =  2.23E-08,  avg # of iterations =  4.0

     total cpu time spent up to now is      299.8 secs

     total energy              =   -1957.84113911 Ry
     estimated scf accuracy    <       0.00001182 Ry

     iteration #  2     ecut=   100.00 Ry     beta= 0.50
     Davidson diagonalization with overlap
     ethr =  2.81E-08,  avg # of iterations =  5.0

     total cpu time spent up to now is      311.4 secs

     total energy              =   -1957.84114683 Ry
     estimated scf accuracy    <       0.00001361 Ry

     iteration #  3     ecut=   100.00 Ry     beta= 0.50
     Davidson diagonalization with overlap
     ethr =  2.81E-08,  avg # of iterations =  2.0

     total cpu time spent up to now is      320.7 secs

     total energy              =   -1957.84114741 Ry
     estimated scf accuracy    <       0.00000199 Ry

     iteration #  4     ecut=   100.00 Ry     beta= 0.50
     Davidson diagonalization with overlap
     ethr =  4.73E-09,  avg # of iterations =  4.0

     total cpu time spent up to now is      330.9 secs

     total energy              =   -1957.84114797 Ry
     estimated scf accuracy    <       0.00000006 Ry

     iteration #  5     ecut=   100.00 Ry     beta= 0.50
     Davidson diagonalization with overlap
     ethr =  1.44E-10,  avg # of iterations =  4.2

     total cpu time spent up to now is      341.0 secs

     total energy              =   -1957.84114799 Ry
     estimated scf accuracy    <       0.00000006 Ry

     iteration #  6     ecut=   100.00 Ry     beta= 0.50
     Davidson diagonalization with overlap
     ethr =  1.44E-10,  avg # of iterations =  1.0

     total cpu time spent up to now is      349.4 secs

     total energy              =   -1957.84114799 Ry
     estimated scf accuracy    <       0.00000007 Ry

     iteration #  7     ecut=   100.00 Ry     beta= 0.50
     Davidson diagonalization with overlap
     ethr =  1.44E-10,  avg # of iterations =  1.0

     total cpu time spent up to now is      357.9 secs

     total energy              =   -1957.84114802 Ry
     estimated scf accuracy    <       0.00000008 Ry

     iteration #  8     ecut=   100.00 Ry     beta= 0.50
     Davidson diagonalization with overlap
     ethr =  1.44E-10,  avg # of iterations =  2.0

     total cpu time spent up to now is      367.2 secs

     total energy              =   -1957.84114803 Ry
     estimated scf accuracy    <       0.00000004 Ry

     iteration #  9     ecut=   100.00 Ry     beta= 0.50
     Davidson diagonalization with overlap
     ethr =  8.77E-11,  avg # of iterations =  3.0

     total cpu time spent up to now is      377.3 secs

     End of self-consistent calculation

          k = 0.0000 0.0000 0.0000 ( 34049 PWs)   bands (ev):

   -21.3248 -21.3248 -21.3248 -21.2691 -21.2691 -11.8523 -11.1192 -11.1192
   -11.1192  -6.2890  -2.4250  -2.4250  -2.4250  -1.3505  -1.3505  -0.4692
    -0.4692  -0.4692  -0.2592  -0.2592  -0.2592

     occupation numbers 
     1.0000   1.0000   1.0000   1.0000   1.0000   1.0000   1.0000   1.0000
     1.0000   1.0000   1.0000   1.0000   1.0000   1.0000   1.0000   1.0000
     1.0000   1.0000   1.0000   1.0000   1.0000

          k = 0.0000 0.0000-0.4999 ( 34080 PWs)   bands (ev):

   -21.3248 -21.3248 -21.3248 -21.2691 -21.2691 -11.7973 -11.1939 -11.1175
   -11.1175  -6.2294  -2.5780  -2.4559  -2.4559  -1.1188  -0.9384  -0.8792
    -0.7807  -0.4870  -0.4870  -0.2889  -0.2889

     occupation numbers 
     1.0000   1.0000   1.0000   1.0000   1.0000   1.0000   1.0000   1.0000
     1.0000   1.0000   1.0000   1.0000   1.0000   1.0000   1.0000   1.0000
     1.0000   1.0000   1.0000   1.0000   1.0000

          k = 0.0000-0.4999-0.4999 ( 34048 PWs)   bands (ev):

   -21.3248 -21.3248 -21.3248 -21.2691 -21.2691 -11.7568 -11.1683 -11.1683
   -11.1399  -6.2241  -2.7117  -2.4689  -2.4689  -1.0542  -1.0542  -0.9107
    -0.6846  -0.4122  -0.4122  -0.3827  -0.1190

     occupation numbers 
     1.0000   1.0000   1.0000   1.0000   1.0000   1.0000   1.0000   1.0000
     1.0000   1.0000   1.0000   1.0000   1.0000   1.0000   1.0000   1.0000
     1.0000   1.0000   1.0000   1.0000   1.0000

          k =-0.4999-0.4999-0.4999 ( 34056 PWs)   bands (ev):

   -21.3248 -21.3248 -21.3248 -21.2691 -21.2691 -11.7315 -11.1661 -11.1661
   -11.1661  -6.2769  -2.6309  -2.6309  -2.6309  -0.9832  -0.9832  -0.9832
    -0.3312  -0.3312  -0.1671  -0.1671  -0.1671

     occupation numbers 
     1.0000   1.0000   1.0000   1.0000   1.0000   1.0000   1.0000   1.0000
     1.0000   1.0000   1.0000   1.0000   1.0000   1.0000   1.0000   1.0000
     1.0000   1.0000   1.0000   1.0000   1.0000

     highest occupied level (ev):    -0.1190

!    total energy              =   -1957.84114803 Ry

     total all-electron energy =    -69286.458709 Ry
     estimated scf accuracy    <          4.4E-09 Ry

     The total energy is the sum of the following terms:
     one-electron contribution =    -155.42461996 Ry
     hartree contribution      =      94.80337738 Ry
     xc contribution           =    -110.99244284 Ry
     ewald contribution        =    -119.35330273 Ry
     one-center paw contrib.   =   -1666.87415988 Ry
      -> PAW hartree energy AE =     109.61392515 Ry
      -> PAW hartree energy PS =    -108.86932755 Ry
      -> PAW xc energy AE      =    -329.04256099 Ry
      -> PAW xc energy PS      =      47.34501294 Ry
      -> total E_H with PAW    =      95.54797499 Ry
      -> total E_XC with PAW   =    -392.68999088 Ry

     convergence has been achieved in   9 iterations

     Forces acting on atoms (cartesian axes, Ry/au):

     atom    1 type  1   force =     0.00000000    0.00000000    0.00000000
     atom    2 type  2   force =    -0.00057071    0.00057071    0.00057071
     atom    3 type  2   force =     0.00057071   -0.00057071    0.00057071
     atom    4 type  2   force =     0.00057071    0.00057071   -0.00057071
     atom    5 type  2   force =    -0.00057071   -0.00057071   -0.00057071
     The non-local contrib.  to forces
     atom    1 type  1   force =     0.00000000    0.00000000    0.00000000
     atom    2 type  2   force =    -0.09099233    0.09099233    0.09099233
     atom    3 type  2   force =     0.09099233   -0.09099233    0.09099233
     atom    4 type  2   force =     0.09099233    0.09099233   -0.09099233
     atom    5 type  2   force =    -0.09099233   -0.09099233   -0.09099233
     The ionic contribution  to forces
     atom    1 type  1   force =    -0.00000000   -0.00000000   -0.00000000
     atom    2 type  2   force =     3.79832985   -3.79832985   -3.79832985
     atom    3 type  2   force =    -3.79832985    3.79832985   -3.79832985
     atom    4 type  2   force =    -3.79832985   -3.79832985    3.79832985
     atom    5 type  2   force =     3.79832985    3.79832985    3.79832985
     The local contribution  to forces
     atom    1 type  1   force =     0.00000000    0.00000000    0.00000000
     atom    2 type  2   force =    -3.71936475    3.71936475    3.71936475
     atom    3 type  2   force =     3.71936475   -3.71936475    3.71936475
     atom    4 type  2   force =     3.71936475    3.71936475   -3.71936475
     atom    5 type  2   force =    -3.71936475   -3.71936475   -3.71936475
     The core correction contribution to forces
     atom    1 type  1   force =     0.00000000    0.00000000    0.00000000
     atom    2 type  2   force =     0.01142395   -0.01142395   -0.01142395
     atom    3 type  2   force =    -0.01142395    0.01142395   -0.01142395
     atom    4 type  2   force =    -0.01142395   -0.01142395    0.01142395
     atom    5 type  2   force =     0.01142395    0.01142395    0.01142395
     The Hubbard contrib.    to forces
     atom    1 type  1   force =     0.00000000    0.00000000    0.00000000
     atom    2 type  2   force =     0.00000000    0.00000000    0.00000000
     atom    3 type  2   force =     0.00000000    0.00000000    0.00000000
     atom    4 type  2   force =     0.00000000    0.00000000    0.00000000
     atom    5 type  2   force =     0.00000000    0.00000000    0.00000000
     The SCF correction term to forces
     atom    1 type  1   force =     0.00000000    0.00000000   -0.00000000
     atom    2 type  2   force =     0.00003257   -0.00003257   -0.00003257
     atom    3 type  2   force =    -0.00003257    0.00003257   -0.00003257
     atom    4 type  2   force =    -0.00003257   -0.00003257    0.00003257
     atom    5 type  2   force =     0.00003257    0.00003257    0.00003257

     Total force =     0.001977     Total SCF correction =     0.000113


     Computing stress (Cartesian axis) and pressure

          total   stress  (Ry/bohr**3)                   (kbar)     P=        1.42
   0.00000966   0.00000000   0.00000000            1.42        0.00        0.00
   0.00000000   0.00000966   0.00000000            0.00        1.42        0.00
   0.00000000   0.00000000   0.00000966            0.00        0.00        1.42

     kinetic stress (kbar)   4000.34      0.00      0.00
                                0.00   4000.34      0.00
                                0.00      0.00   4000.34

     local   stress (kbar)  -2879.90      0.00     -0.00
                                0.00  -2879.90     -0.00
                               -0.00     -0.00  -2879.90

     nonloc. stress (kbar)    795.50      0.00      0.00
                                0.00    795.50      0.00
                                0.00      0.00    795.50

     hartree stress (kbar)   2302.95     -0.00     -0.00
                               -0.00   2302.95      0.00
                               -0.00      0.00   2302.95

     exc-cor stress (kbar)   4097.62     -0.00      0.00
                               -0.00   4097.62     -0.00
                                0.00     -0.00   4097.62

     corecor stress (kbar)  -5415.78      0.00     -0.00
                                0.00  -5415.78     -0.00
                               -0.00     -0.00  -5415.78

     ewald   stress (kbar)  -2899.31      0.00      0.00
                                0.00  -2899.31      0.00
                                0.00      0.00  -2899.31

     hubbard stress (kbar)      0.00      0.00      0.00
                                0.00      0.00      0.00
                                0.00      0.00      0.00

     DFT-D   stress (kbar)      0.00      0.00      0.00
                                0.00      0.00      0.00
                                0.00      0.00      0.00

     XDM     stress (kbar)      0.00      0.00      0.00
                                0.00      0.00      0.00
                                0.00      0.00      0.00

     dft-nl  stress (kbar)      0.00      0.00      0.00
                                0.00      0.00      0.00
                                0.00      0.00      0.00

     TS-vdW  stress (kbar)      0.00      0.00      0.00
                                0.00      0.00      0.00
                                0.00      0.00      0.00


     Energy error            =      5.7E-06
     Gradient error          =      5.7E-04
     Cell gradient error     =      9.7E-06


     number of scf cycles    =   3
     number of bfgs steps    =   2

     enthalpy old            =   -1957.8411423141 Ry
     enthalpy new            =   -1957.8411480333 Ry

     CASE: enthalpy_new < enthalpy_old

     new trust radius        =       0.0008242260 bohr
     new conv_thr            =       0.0000000100 Ry

     new unit-cell volume =   2018.68123 a.u.^3 (   299.13770 Ang^3 )
     density =      3.47665 g/cm^3

CELL_PARAMETERS (angstrom)
   6.687909404   0.000000000   0.000000000
   0.000000000   6.687909404   0.000000000
   0.000000000   0.000000000   6.687909404

ATOMIC_POSITIONS (crystal)
Sn            0.0000000000        0.0000000000        0.0000000000
I             0.2337694581        0.7662305419        0.7662305419
I             0.7662305419        0.2337694581        0.7662305419
I             0.7662305419        0.7662305419        0.2337694581
I             0.2337694581        0.2337694581        0.2337694581



     Writing output data file ./out/SnI4un.save/
     NEW-OLD atomic charge density approx. for the potential
     extrapolated charge   42.00206, renormalised to   42.00000

     total cpu time spent up to now is      436.9 secs

     Self-consistent Calculation

     iteration #  1     ecut=   100.00 Ry     beta= 0.50
     Davidson diagonalization with overlap
     ethr =  1.00E-06,  avg # of iterations =  2.0

     Threshold (ethr) on eigenvalues was too large:
     Diagonalizing with lowered threshold

     Davidson diagonalization with overlap
     ethr =  3.63E-09,  avg # of iterations =  3.0

     total cpu time spent up to now is      455.8 secs

     total energy              =   -1957.84115091 Ry
     estimated scf accuracy    <       0.00000107 Ry

     iteration #  2     ecut=   100.00 Ry     beta= 0.50
     Davidson diagonalization with overlap
     ethr =  2.54E-09,  avg # of iterations =  5.0

     total cpu time spent up to now is      468.2 secs

     total energy              =   -1957.84115177 Ry
     estimated scf accuracy    <       0.00000187 Ry

     iteration #  3     ecut=   100.00 Ry     beta= 0.50
     Davidson diagonalization with overlap
     ethr =  2.54E-09,  avg # of iterations =  2.0

     total cpu time spent up to now is      477.7 secs

     total energy              =   -1957.84115181 Ry
     estimated scf accuracy    <       0.00000036 Ry

     iteration #  4     ecut=   100.00 Ry     beta= 0.50
     Davidson diagonalization with overlap
     ethr =  8.62E-10,  avg # of iterations =  4.2

     total cpu time spent up to now is      488.1 secs

     total energy              =   -1957.84115193 Ry
     estimated scf accuracy    <       0.00000002 Ry

     iteration #  5     ecut=   100.00 Ry     beta= 0.50
     Davidson diagonalization with overlap
     ethr =  4.86E-11,  avg # of iterations =  2.8

     total cpu time spent up to now is      497.9 secs

     total energy              =   -1957.84115196 Ry
     estimated scf accuracy    <       0.00000002 Ry

     iteration #  6     ecut=   100.00 Ry     beta= 0.50
     Davidson diagonalization with overlap
     ethr =  4.50E-11,  avg # of iterations =  3.8

     total cpu time spent up to now is      508.8 secs

     total energy              =   -1957.84115196 Ry
     estimated scf accuracy    <       0.00000004 Ry

     iteration #  7     ecut=   100.00 Ry     beta= 0.50
     Davidson diagonalization with overlap
     ethr =  4.50E-11,  avg # of iterations =  2.5

     total cpu time spent up to now is      518.4 secs

     End of self-consistent calculation

          k = 0.0000 0.0000 0.0000 ( 34049 PWs)   bands (ev):

   -21.3251 -21.3251 -21.3251 -21.2693 -21.2693 -11.8537 -11.1199 -11.1199
   -11.1199  -6.2895  -2.4261  -2.4261  -2.4261  -1.3511  -1.3511  -0.4697
    -0.4697  -0.4697  -0.2600  -0.2600  -0.2600

     occupation numbers 
     1.0000   1.0000   1.0000   1.0000   1.0000   1.0000   1.0000   1.0000
     1.0000   1.0000   1.0000   1.0000   1.0000   1.0000   1.0000   1.0000
     1.0000   1.0000   1.0000   1.0000   1.0000

          k = 0.0000 0.0000-0.4999 ( 34080 PWs)   bands (ev):

   -21.3251 -21.3251 -21.3251 -21.2694 -21.2693 -11.7988 -11.1946 -11.1183
   -11.1183  -6.2300  -2.5788  -2.4571  -2.4571  -1.1196  -0.9390  -0.8799
    -0.7810  -0.4876  -0.4876  -0.2894  -0.2894

     occupation numbers 
     1.0000   1.0000   1.0000   1.0000   1.0000   1.0000   1.0000   1.0000
     1.0000   1.0000   1.0000   1.0000   1.0000   1.0000   1.0000   1.0000
     1.0000   1.0000   1.0000   1.0000   1.0000

          k = 0.0000-0.4999-0.4999 ( 34048 PWs)   bands (ev):

   -21.3251 -21.3251 -21.3251 -21.2693 -21.2693 -11.7584 -11.1690 -11.1690
   -11.1405  -6.2246  -2.7126  -2.4701  -2.4701  -1.0546  -1.0546  -0.9114
    -0.6850  -0.4126  -0.4126  -0.3836  -0.1195

     occupation numbers 
     1.0000   1.0000   1.0000   1.0000   1.0000   1.0000   1.0000   1.0000
     1.0000   1.0000   1.0000   1.0000   1.0000   1.0000   1.0000   1.0000
     1.0000   1.0000   1.0000   1.0000   1.0000

          k =-0.4999-0.4999-0.4999 ( 34056 PWs)   bands (ev):

   -21.3251 -21.3251 -21.3251 -21.2693 -21.2693 -11.7331 -11.1668 -11.1668
   -11.1668  -6.2773  -2.6320  -2.6320  -2.6320  -0.9836  -0.9836  -0.9836
    -0.3320  -0.3320  -0.1676  -0.1676  -0.1676

     occupation numbers 
     1.0000   1.0000   1.0000   1.0000   1.0000   1.0000   1.0000   1.0000
     1.0000   1.0000   1.0000   1.0000   1.0000   1.0000   1.0000   1.0000
     1.0000   1.0000   1.0000   1.0000   1.0000

     highest occupied level (ev):    -0.1195

!    total energy              =   -1957.84115197 Ry

     total all-electron energy =    -69286.458713 Ry
     estimated scf accuracy    <          9.1E-09 Ry

     The total energy is the sum of the following terms:
     one-electron contribution =    -155.46988744 Ry
     hartree contribution      =      94.82574353 Ry
     xc contribution           =    -110.99308562 Ry
     ewald contribution        =    -119.32965362 Ry
     one-center paw contrib.   =   -1666.87426881 Ry
      -> PAW hartree energy AE =     109.61897190 Ry
      -> PAW hartree energy PS =    -108.87440829 Ry
      -> PAW xc energy AE      =    -329.04294253 Ry
      -> PAW xc energy PS      =      47.34539064 Ry
      -> total E_H with PAW    =      95.57030713 Ry
      -> total E_XC with PAW   =    -392.69063750 Ry

     convergence has been achieved in   7 iterations

     Forces acting on atoms (cartesian axes, Ry/au):

     atom    1 type  1   force =     0.00000000    0.00000000    0.00000000
     atom    2 type  2   force =    -0.00048179    0.00048179    0.00048179
     atom    3 type  2   force =     0.00048179   -0.00048179    0.00048179
     atom    4 type  2   force =     0.00048179    0.00048179   -0.00048179
     atom    5 type  2   force =    -0.00048179   -0.00048179   -0.00048179
     The non-local contrib.  to forces
     atom    1 type  1   force =     0.00000000    0.00000000    0.00000000
     atom    2 type  2   force =    -0.09091507    0.09091507    0.09091507
     atom    3 type  2   force =     0.09091507   -0.09091507    0.09091507
     atom    4 type  2   force =     0.09091507    0.09091507   -0.09091507
     atom    5 type  2   force =    -0.09091507   -0.09091507   -0.09091507
     The ionic contribution  to forces
     atom    1 type  1   force =     0.00000000    0.00000000   -0.00000000
     atom    2 type  2   force =     3.80047085   -3.80047085   -3.80047085
     atom    3 type  2   force =    -3.80047085    3.80047085   -3.80047085
     atom    4 type  2   force =    -3.80047085   -3.80047085    3.80047085
     atom    5 type  2   force =     3.80047085    3.80047085    3.80047085
     The local contribution  to forces
     atom    1 type  1   force =     0.00000000    0.00000000    0.00000000
     atom    2 type  2   force =    -3.72148646    3.72148646    3.72148646
     atom    3 type  2   force =     3.72148646   -3.72148646    3.72148646
     atom    4 type  2   force =     3.72148646    3.72148646   -3.72148646
     atom    5 type  2   force =    -3.72148646   -3.72148646   -3.72148646
     The core correction contribution to forces
     atom    1 type  1   force =     0.00000000    0.00000000    0.00000000
     atom    2 type  2   force =     0.01141643   -0.01141643   -0.01141643
     atom    3 type  2   force =    -0.01141643    0.01141643   -0.01141643
     atom    4 type  2   force =    -0.01141643   -0.01141643    0.01141643
     atom    5 type  2   force =     0.01141643    0.01141643    0.01141643
     The Hubbard contrib.    to forces
     atom    1 type  1   force =     0.00000000    0.00000000    0.00000000
     atom    2 type  2   force =     0.00000000    0.00000000    0.00000000
     atom    3 type  2   force =     0.00000000    0.00000000    0.00000000
     atom    4 type  2   force =     0.00000000    0.00000000    0.00000000
     atom    5 type  2   force =     0.00000000    0.00000000    0.00000000
     The SCF correction term to forces
     atom    1 type  1   force =     0.00000000   -0.00000000   -0.00000000
     atom    2 type  2   force =     0.00003246   -0.00003246   -0.00003246
     atom    3 type  2   force =    -0.00003246    0.00003246   -0.00003246
     atom    4 type  2   force =    -0.00003246   -0.00003246    0.00003246
     atom    5 type  2   force =     0.00003246    0.00003246    0.00003246

     Total force =     0.001669     Total SCF correction =     0.000112


     Computing stress (Cartesian axis) and pressure

          total   stress  (Ry/bohr**3)                   (kbar)     P=        1.51
   0.00001023   0.00000000   0.00000000            1.51        0.00        0.00
   0.00000000   0.00001023   0.00000000            0.00        1.51        0.00
   0.00000000   0.00000000   0.00001023            0.00        0.00        1.51

     kinetic stress (kbar)   4000.19      0.00      0.00
                                0.00   4000.19      0.00
                                0.00      0.00   4000.19

     local   stress (kbar)  -2880.87     -0.00      0.00
                               -0.00  -2880.87      0.00
                                0.00      0.00  -2880.87

     nonloc. stress (kbar)    795.51      0.00      0.00
                                0.00    795.51      0.00
                                0.00      0.00    795.51

     hartree stress (kbar)   2303.38     -0.00     -0.00
                               -0.00   2303.38     -0.00
                               -0.00     -0.00   2303.38

     exc-cor stress (kbar)   4097.41     -0.00     -0.00
                               -0.00   4097.41     -0.00
                               -0.00     -0.00   4097.41

     corecor stress (kbar)  -5415.52      0.00      0.00
                                0.00  -5415.52      0.00
                                0.00      0.00  -5415.52

     ewald   stress (kbar)  -2898.59     -0.00     -0.00
                               -0.00  -2898.59     -0.00
                               -0.00     -0.00  -2898.59

     hubbard stress (kbar)      0.00      0.00      0.00
                                0.00      0.00      0.00
                                0.00      0.00      0.00

     DFT-D   stress (kbar)      0.00      0.00      0.00
                                0.00      0.00      0.00
                                0.00      0.00      0.00

     XDM     stress (kbar)      0.00      0.00      0.00
                                0.00      0.00      0.00
                                0.00      0.00      0.00

     dft-nl  stress (kbar)      0.00      0.00      0.00
                                0.00      0.00      0.00
                                0.00      0.00      0.00

     TS-vdW  stress (kbar)      0.00      0.00      0.00
                                0.00      0.00      0.00
                                0.00      0.00      0.00


     Energy error            =      3.9E-06
     Gradient error          =      4.8E-04
     Cell gradient error     =      1.0E-05


     number of scf cycles    =   4
     number of bfgs steps    =   3

     enthalpy old            =   -1957.8411480333 Ry
     enthalpy new            =   -1957.8411519653 Ry

     CASE: enthalpy_new < enthalpy_old

     new trust radius        =       0.0012363593 bohr
     new conv_thr            =       0.0000000100 Ry

     new unit-cell volume =   2018.92828 a.u.^3 (   299.17430 Ang^3 )
     density =      3.47622 g/cm^3

CELL_PARAMETERS (angstrom)
   6.688182216   0.000000000   0.000000000
   0.000000000   6.688182216   0.000000000
   0.000000000   0.000000000   6.688182216

ATOMIC_POSITIONS (crystal)
Sn            0.0000000000        0.0000000000        0.0000000000
I             0.2337129781        0.7662870219        0.7662870219
I             0.7662870219        0.2337129781        0.7662870219
I             0.7662870219        0.7662870219        0.2337129781
I             0.2337129781        0.2337129781        0.2337129781



     Writing output data file ./out/SnI4un.save/
     NEW-OLD atomic charge density approx. for the potential
     extrapolated charge   42.00514, renormalised to   42.00000

     total cpu time spent up to now is      578.4 secs

     Self-consistent Calculation

     iteration #  1     ecut=   100.00 Ry     beta= 0.50
     Davidson diagonalization with overlap
     ethr =  1.00E-06,  avg # of iterations =  2.0

     Threshold (ethr) on eigenvalues was too large:
     Diagonalizing with lowered threshold

     Davidson diagonalization with overlap
     ethr =  1.21E-08,  avg # of iterations =  4.0

     total cpu time spent up to now is      596.0 secs

     total energy              =   -1957.84115248 Ry
     estimated scf accuracy    <       0.00000500 Ry

     iteration #  2     ecut=   100.00 Ry     beta= 0.50
     Davidson diagonalization with overlap
     ethr =  1.19E-08,  avg # of iterations =  6.0

     total cpu time spent up to now is      609.0 secs

     total energy              =   -1957.84115736 Ry
     estimated scf accuracy    <       0.00001220 Ry

     iteration #  3     ecut=   100.00 Ry     beta= 0.50
     Davidson diagonalization with overlap
     ethr =  1.19E-08,  avg # of iterations =  2.0

     total cpu time spent up to now is      618.6 secs

     total energy              =   -1957.84115769 Ry
     estimated scf accuracy    <       0.00000208 Ry

     iteration #  4     ecut=   100.00 Ry     beta= 0.50
     Davidson diagonalization with overlap
     ethr =  4.96E-09,  avg # of iterations =  4.0

     total cpu time spent up to now is      628.1 secs

     total energy              =   -1957.84115800 Ry
     estimated scf accuracy    <       0.00000025 Ry

     iteration #  5     ecut=   100.00 Ry     beta= 0.50
     Davidson diagonalization with overlap
     ethr =  5.89E-10,  avg # of iterations =  2.2

     total cpu time spent up to now is      637.1 secs

     total energy              =   -1957.84115806 Ry
     estimated scf accuracy    <       0.00000014 Ry

     iteration #  6     ecut=   100.00 Ry     beta= 0.50
     Davidson diagonalization with overlap
     ethr =  3.44E-10,  avg # of iterations =  1.0

     total cpu time spent up to now is      645.5 secs

     total energy              =   -1957.84115811 Ry
     estimated scf accuracy    <       0.00000012 Ry

     iteration #  7     ecut=   100.00 Ry     beta= 0.50
     Davidson diagonalization with overlap
     ethr =  2.94E-10,  avg # of iterations =  2.0

     total cpu time spent up to now is      654.6 secs

     total energy              =   -1957.84115809 Ry
     estimated scf accuracy    <       0.00000007 Ry

     iteration #  8     ecut=   100.00 Ry     beta= 0.50
     Davidson diagonalization with overlap
     ethr =  1.77E-10,  avg # of iterations =  2.0

     total cpu time spent up to now is      663.8 secs

     total energy              =   -1957.84115811 Ry
     estimated scf accuracy    <       0.00000001 Ry

     iteration #  9     ecut=   100.00 Ry     beta= 0.50
     Davidson diagonalization with overlap
     ethr =  2.47E-11,  avg # of iterations =  4.0

     total cpu time spent up to now is      675.0 secs

     End of self-consistent calculation

          k = 0.0000 0.0000 0.0000 ( 34049 PWs)   bands (ev):

   -21.3253 -21.3253 -21.3253 -21.2694 -21.2694 -11.8559 -11.1211 -11.1211
   -11.1211  -6.2903  -2.4278  -2.4278  -2.4278  -1.3521  -1.3521  -0.4706
    -0.4706  -0.4706  -0.2613  -0.2613  -0.2613

     occupation numbers 
     1.0000   1.0000   1.0000   1.0000   1.0000   1.0000   1.0000   1.0000
     1.0000   1.0000   1.0000   1.0000   1.0000   1.0000   1.0000   1.0000
     1.0000   1.0000   1.0000   1.0000   1.0000

          k = 0.0000 0.0000-0.4999 ( 34080 PWs)   bands (ev):

   -21.3253 -21.3253 -21.3253 -21.2694 -21.2694 -11.8010 -11.1957 -11.1194
   -11.1194  -6.2308  -2.5802  -2.4588  -2.4588  -1.1209  -0.9400  -0.8809
    -0.7815  -0.4887  -0.4887  -0.2902  -0.2902

     occupation numbers 
     1.0000   1.0000   1.0000   1.0000   1.0000   1.0000   1.0000   1.0000
     1.0000   1.0000   1.0000   1.0000   1.0000   1.0000   1.0000   1.0000
     1.0000   1.0000   1.0000   1.0000   1.0000

          k = 0.0000-0.4999-0.4999 ( 34048 PWs)   bands (ev):

   -21.3253 -21.3253 -21.3253 -21.2694 -21.2694 -11.7607 -11.1702 -11.1702
   -11.1417  -6.2254  -2.7140  -2.4718  -2.4718  -1.0554  -1.0554  -0.9126
    -0.6857  -0.4135  -0.4135  -0.3851  -0.1203

     occupation numbers 
     1.0000   1.0000   1.0000   1.0000   1.0000   1.0000   1.0000   1.0000
     1.0000   1.0000   1.0000   1.0000   1.0000   1.0000   1.0000   1.0000
     1.0000   1.0000   1.0000   1.0000   1.0000

          k =-0.4999-0.4999-0.4999 ( 34056 PWs)   bands (ev):

   -21.3253 -21.3253 -21.3253 -21.2694 -21.2694 -11.7353 -11.1679 -11.1679
   -11.1679  -6.2780  -2.6336  -2.6336  -2.6336  -0.9845  -0.9845  -0.9845
    -0.3335  -0.3335  -0.1686  -0.1686  -0.1686

     occupation numbers 
     1.0000   1.0000   1.0000   1.0000   1.0000   1.0000   1.0000   1.0000
     1.0000   1.0000   1.0000   1.0000   1.0000   1.0000   1.0000   1.0000
     1.0000   1.0000   1.0000   1.0000   1.0000

     highest occupied level (ev):    -0.1203

!    total energy              =   -1957.84115811 Ry

     total all-electron energy =    -69286.458719 Ry
     estimated scf accuracy    <          5.5E-11 Ry

     The total energy is the sum of the following terms:
     one-electron contribution =    -155.54015047 Ry
     hartree contribution      =      94.85948287 Ry
     xc contribution           =    -110.99386894 Ry
     ewald contribution        =    -119.29221904 Ry
     one-center paw contrib.   =   -1666.87440253 Ry
      -> PAW hartree energy AE =     109.62582008 Ry
      -> PAW hartree energy PS =    -108.88132881 Ry
      -> PAW xc energy AE      =    -329.04341184 Ry
      -> PAW xc energy PS      =      47.34587547 Ry
      -> total E_H with PAW    =      95.60397413 Ry
      -> total E_XC with PAW   =    -392.69140531 Ry

     convergence has been achieved in   9 iterations

     Forces acting on atoms (cartesian axes, Ry/au):

     atom    1 type  1   force =     0.00000000    0.00000000    0.00000000
     atom    2 type  2   force =    -0.00037275    0.00037275    0.00037275
     atom    3 type  2   force =     0.00037275   -0.00037275    0.00037275
     atom    4 type  2   force =     0.00037275    0.00037275   -0.00037275
     atom    5 type  2   force =    -0.00037275   -0.00037275   -0.00037275
     The non-local contrib.  to forces
     atom    1 type  1   force =     0.00000000    0.00000000    0.00000000
     atom    2 type  2   force =    -0.09093509    0.09093509    0.09093509
     atom    3 type  2   force =     0.09093509   -0.09093509    0.09093509
     atom    4 type  2   force =     0.09093509    0.09093509   -0.09093509
     atom    5 type  2   force =    -0.09093509   -0.09093509   -0.09093509
     The ionic contribution  to forces
     atom    1 type  1   force =     0.00000000    0.00000000    0.00000000
     atom    2 type  2   force =     3.80356012   -3.80356012   -3.80356012
     atom    3 type  2   force =    -3.80356012    3.80356012   -3.80356012
     atom    4 type  2   force =    -3.80356012   -3.80356012    3.80356012
     atom    5 type  2   force =     3.80356012    3.80356012    3.80356012
     The local contribution  to forces
     atom    1 type  1   force =     0.00000000    0.00000000    0.00000000
     atom    2 type  2   force =    -3.72441232    3.72441232    3.72441232
     atom    3 type  2   force =     3.72441232   -3.72441232    3.72441232
     atom    4 type  2   force =     3.72441232    3.72441232   -3.72441232
     atom    5 type  2   force =    -3.72441232   -3.72441232   -3.72441232
     The core correction contribution to forces
     atom    1 type  1   force =     0.00000000    0.00000000    0.00000000
     atom    2 type  2   force =     0.01141187   -0.01141187   -0.01141187
     atom    3 type  2   force =    -0.01141187    0.01141187   -0.01141187
     atom    4 type  2   force =    -0.01141187   -0.01141187    0.01141187
     atom    5 type  2   force =     0.01141187    0.01141187    0.01141187
     The Hubbard contrib.    to forces
     atom    1 type  1   force =     0.00000000    0.00000000    0.00000000
     atom    2 type  2   force =     0.00000000    0.00000000    0.00000000
     atom    3 type  2   force =     0.00000000    0.00000000    0.00000000
     atom    4 type  2   force =     0.00000000    0.00000000    0.00000000
     atom    5 type  2   force =     0.00000000    0.00000000    0.00000000
     The SCF correction term to forces
     atom    1 type  1   force =    -0.00000000   -0.00000000   -0.00000000
     atom    2 type  2   force =     0.00000268   -0.00000268   -0.00000268
     atom    3 type  2   force =    -0.00000268    0.00000268   -0.00000268
     atom    4 type  2   force =    -0.00000268   -0.00000268    0.00000268
     atom    5 type  2   force =     0.00000268    0.00000268    0.00000268

     Total force =     0.001291     Total SCF correction =     0.000009


     Computing stress (Cartesian axis) and pressure

          total   stress  (Ry/bohr**3)                   (kbar)     P=        1.53
   0.00001042   0.00000000   0.00000000            1.53        0.00        0.00
   0.00000000   0.00001042   0.00000000            0.00        1.53        0.00
   0.00000000   0.00000000   0.00001042            0.00        0.00        1.53

     kinetic stress (kbar)   3999.76      0.00      0.00
                                0.00   3999.76      0.00
                                0.00      0.00   3999.76

     local   stress (kbar)  -2882.25      0.00      0.00
                                0.00  -2882.25      0.00
                                0.00      0.00  -2882.25

     nonloc. stress (kbar)    795.40      0.00      0.00
                                0.00    795.40      0.00
                                0.00      0.00    795.40

     hartree stress (kbar)   2303.91     -0.00     -0.00
                               -0.00   2303.91      0.00
                               -0.00      0.00   2303.91

     exc-cor stress (kbar)   4096.90     -0.00     -0.00
                               -0.00   4096.90      0.00
                               -0.00      0.00   4096.90

     corecor stress (kbar)  -5414.86      0.00      0.00
                                0.00  -5414.86     -0.00
                                0.00     -0.00  -5414.86

     ewald   stress (kbar)  -2897.33     -0.00     -0.00
                               -0.00  -2897.33     -0.00
                               -0.00     -0.00  -2897.33

     hubbard stress (kbar)      0.00      0.00      0.00
                                0.00      0.00      0.00
                                0.00      0.00      0.00

     DFT-D   stress (kbar)      0.00      0.00      0.00
                                0.00      0.00      0.00
                                0.00      0.00      0.00

     XDM     stress (kbar)      0.00      0.00      0.00
                                0.00      0.00      0.00
                                0.00      0.00      0.00

     dft-nl  stress (kbar)      0.00      0.00      0.00
                                0.00      0.00      0.00
                                0.00      0.00      0.00

     TS-vdW  stress (kbar)      0.00      0.00      0.00
                                0.00      0.00      0.00
                                0.00      0.00      0.00


     Energy error            =      6.1E-06
     Gradient error          =      3.7E-04
     Cell gradient error     =      1.0E-05


     number of scf cycles    =   5
     number of bfgs steps    =   4

     enthalpy old            =   -1957.8411519653 Ry
     enthalpy new            =   -1957.8411581149 Ry

     CASE: enthalpy_new < enthalpy_old

     new trust radius        =       0.0018546146 bohr
     new conv_thr            =       0.0000000100 Ry

     new unit-cell volume =   2019.41274 a.u.^3 (   299.24609 Ang^3 )
     density =      3.47539 g/cm^3

CELL_PARAMETERS (angstrom)
   6.688717134   0.000000000   0.000000000
   0.000000000   6.688717134   0.000000000
   0.000000000   0.000000000   6.688717134

ATOMIC_POSITIONS (crystal)
Sn            0.0000000000        0.0000000000        0.0000000000
I             0.2336282581        0.7663717419        0.7663717419
I             0.7663717419        0.2336282581        0.7663717419
I             0.7663717419        0.7663717419        0.2336282581
I             0.2336282581        0.2336282581        0.2336282581



     Writing output data file ./out/SnI4un.save/
     NEW-OLD atomic charge density approx. for the potential
     extrapolated charge   42.01008, renormalised to   42.00000

     total cpu time spent up to now is      734.4 secs

     Self-consistent Calculation

     iteration #  1     ecut=   100.00 Ry     beta= 0.50
     Davidson diagonalization with overlap
     ethr =  1.00E-06,  avg # of iterations =  2.0

     Threshold (ethr) on eigenvalues was too large:
     Diagonalizing with lowered threshold

     Davidson diagonalization with overlap
     ethr =  3.79E-08,  avg # of iterations =  4.0

     total cpu time spent up to now is      751.8 secs

     total energy              =   -1957.84114797 Ry
     estimated scf accuracy    <       0.00001627 Ry

     iteration #  2     ecut=   100.00 Ry     beta= 0.50
     Davidson diagonalization with overlap
     ethr =  3.87E-08,  avg # of iterations =  6.0

     total cpu time spent up to now is      765.6 secs

     total energy              =   -1957.84116508 Ry
     estimated scf accuracy    <       0.00004431 Ry

     iteration #  3     ecut=   100.00 Ry     beta= 0.50
     Davidson diagonalization with overlap
     ethr =  3.87E-08,  avg # of iterations =  2.0

     total cpu time spent up to now is      775.7 secs

     total energy              =   -1957.84116565 Ry
     estimated scf accuracy    <       0.00000809 Ry

     iteration #  4     ecut=   100.00 Ry     beta= 0.50
     Davidson diagonalization with overlap
[...]


      isym = 22     inv. 180 deg rotation - cart. axis [0,1,-1]  

 cryst.   s(22) = (     1          0          0      )
                  (     0          0          1      )
                  (     0          1          0      )

 cart.    s(22) = (  1.0000000  0.0000000  0.0000000 )
                  (  0.0000000  0.0000000  1.0000000 )
                  (  0.0000000  1.0000000  0.0000000 )


      isym = 23     inv.  90 deg rotation - cart. axis [-1,0,0]  

 cryst.   s(23) = (    -1          0          0      )
                  (     0          0          1      )
                  (     0         -1          0      )

 cart.    s(23) = ( -1.0000000  0.0000000  0.0000000 )
                  (  0.0000000  0.0000000 -1.0000000 )
                  (  0.0000000  1.0000000  0.0000000 )


      isym = 24     inv.  90 deg rotation - cart. axis [1,0,0]   

 cryst.   s(24) = (    -1          0          0      )
                  (     0          0         -1      )
                  (     0          1          0      )

 cart.    s(24) = ( -1.0000000  0.0000000  0.0000000 )
                  (  0.0000000  0.0000000  1.0000000 )
                  (  0.0000000 -1.0000000  0.0000000 )


   Cartesian axes

     site n.     atom                  positions (alat units)
         1           Sn  tau(   1) = (   0.0000000   0.0000000   0.0000000  )
         2           I   tau(   2) = (   0.2337151   0.8515556   0.8515556  )
         3           I   tau(   3) = (   0.8515556   0.2337151   0.8515556  )
         4           I   tau(   4) = (   0.8515556   0.8515556   0.2337151  )
         5           I   tau(   5) = (   0.2337151   0.2337151   0.2337151  )

   Crystallographic axes

     site n.     atom                  positions (cryst. coord.)
         1           Sn  tau(   1) = (  0.0000000  0.0000000  0.0000000  )
         2           I   tau(   2) = (  0.2153519  0.7846481  0.7846481  )
         3           I   tau(   3) = (  0.7846481  0.2153519  0.7846481  )
         4           I   tau(   4) = (  0.7846481  0.7846481  0.2153519  )
         5           I   tau(   5) = (  0.2153519  0.2153519  0.2153519  )

     number of k points=     4
                       cart. coord. in units 2pi/alat
        k(    1) = (   0.0000000   0.0000000   0.0000000), wk =   0.2500000
        k(    2) = (   0.0000000   0.0000000  -0.4607145), wk =   0.7500000
        k(    3) = (   0.0000000  -0.4607145  -0.4607145), wk =   0.7500000
        k(    4) = (  -0.4607145  -0.4607145  -0.4607145), wk =   0.2500000

                       cryst. coord.
        k(    1) = (   0.0000000   0.0000000   0.0000000), wk =   0.2500000
        k(    2) = (   0.0000000   0.0000000  -0.5000000), wk =   0.7500000
        k(    3) = (   0.0000000  -0.5000000  -0.5000000), wk =   0.7500000
        k(    4) = (  -0.5000000  -0.5000000  -0.5000000), wk =   0.2500000

     Dense  grid:   348315 G-vectors     FFT dimensions: (  90,  90,  90)

     Dynamical RAM for                 wfc:       0.73 MB

     Dynamical RAM for     wfc (w. buffer):       3.67 MB

     Dynamical RAM for           str. fact:       0.56 MB

     Dynamical RAM for           local pot:       0.22 MB

     Dynamical RAM for          nlocal pot:       3.15 MB

     Dynamical RAM for                qrad:       6.42 MB

     Dynamical RAM for          rho,v,vnew:       1.77 MB

     Dynamical RAM for               rhoin:       0.59 MB

     Dynamical RAM for            rho*nmix:       4.48 MB

     Dynamical RAM for           G-vectors:       1.19 MB

     Dynamical RAM for          h,s,v(r/c):       0.08 MB

     Dynamical RAM for          <psi|beta>:       0.03 MB

     Dynamical RAM for                 psi:       1.47 MB

     Dynamical RAM for                hpsi:       1.47 MB

     Dynamical RAM for                spsi:       1.47 MB

     Dynamical RAM for      wfcinit/wfcrot:       1.76 MB

     Dynamical RAM for           addusdens:      53.15 MB

     Dynamical RAM for          addusforce:      54.98 MB

     Dynamical RAM for         addusstress:      56.23 MB

     Estimated static dynamical RAM per process >      24.42 MB

     Estimated max dynamical RAM per process >      80.65 MB

     Estimated total dynamical RAM >       1.50 GB

     Initial potential from superposition of free atoms

     starting charge   41.99831, renormalised to   42.00000
     Starting wfcs are   25 randomized atomic wfcs
     Checking if some PAW data can be deallocated... 
       PAW data deallocated on   15 nodes for type:  1
       PAW data deallocated on    4 nodes for type:  2

     total cpu time spent up to now is     3930.7 secs

     Self-consistent Calculation

     iteration #  1     ecut=   100.00 Ry     beta= 0.50
     Davidson diagonalization with overlap
     ethr =  1.00E-06,  avg # of iterations =  9.0

     total cpu time spent up to now is     3964.6 secs

     total energy              =   -1957.82105971 Ry
     estimated scf accuracy    <       0.11073686 Ry

     iteration #  2     ecut=   100.00 Ry     beta= 0.50
     Davidson diagonalization with overlap
     ethr =  2.64E-04,  avg # of iterations =  3.0

     total cpu time spent up to now is     3978.4 secs

     total energy              =   -1957.83985693 Ry
     estimated scf accuracy    <       0.02367674 Ry

     iteration #  3     ecut=   100.00 Ry     beta= 0.50
     Davidson diagonalization with overlap
     ethr =  5.64E-05,  avg # of iterations =  2.2

     total cpu time spent up to now is     3992.6 secs

     total energy              =   -1957.84370936 Ry
     estimated scf accuracy    <       0.00218036 Ry

     iteration #  4     ecut=   100.00 Ry     beta= 0.50
     Davidson diagonalization with overlap
     ethr =  5.19E-06,  avg # of iterations =  4.2

     total cpu time spent up to now is     4006.0 secs

     total energy              =   -1957.84384965 Ry
     estimated scf accuracy    <       0.00061841 Ry

     iteration #  5     ecut=   100.00 Ry     beta= 0.50
     Davidson diagonalization with overlap
     ethr =  1.47E-06,  avg # of iterations =  3.0

     total cpu time spent up to now is     4020.3 secs

     total energy              =   -1957.84399254 Ry
     estimated scf accuracy    <       0.00003865 Ry

     iteration #  6     ecut=   100.00 Ry     beta= 0.50
     Davidson diagonalization with overlap
     ethr =  9.20E-08,  avg # of iterations =  3.0

     total cpu time spent up to now is     4034.9 secs

     total energy              =   -1957.84400188 Ry
     estimated scf accuracy    <       0.00000049 Ry

     iteration #  7     ecut=   100.00 Ry     beta= 0.50
     Davidson diagonalization with overlap
     ethr =  1.17E-09,  avg # of iterations =  6.2

     total cpu time spent up to now is     4054.2 secs

     total energy              =   -1957.84400237 Ry
     estimated scf accuracy    <       0.00000139 Ry

     iteration #  8     ecut=   100.00 Ry     beta= 0.50
     Davidson diagonalization with overlap
     ethr =  1.17E-09,  avg # of iterations =  3.0

     total cpu time spent up to now is     4068.4 secs

     total energy              =   -1957.84400270 Ry
     estimated scf accuracy    <       0.00000004 Ry

     iteration #  9     ecut=   100.00 Ry     beta= 0.50
     Davidson diagonalization with overlap
     ethr =  9.97E-11,  avg # of iterations =  3.8

     total cpu time spent up to now is     4084.3 secs

     total energy              =   -1957.84400267 Ry
     estimated scf accuracy    <       0.00000012 Ry

     iteration # 10     ecut=   100.00 Ry     beta= 0.50
     Davidson diagonalization with overlap
     ethr =  9.97E-11,  avg # of iterations =  3.8

     total cpu time spent up to now is     4098.6 secs

     End of self-consistent calculation

          k = 0.0000 0.0000 0.0000 ( 43507 PWs)   bands (ev):

   -22.7087 -22.7087 -22.7087 -22.6527 -22.6527 -13.1976 -12.5288 -12.5288
   -12.5288  -7.6412  -3.8579  -3.8579  -3.8579  -2.4907  -2.4907  -1.8776
    -1.8776  -1.8776  -1.8395  -1.8395  -1.8395

     occupation numbers 
     1.0000   1.0000   1.0000   1.0000   1.0000   1.0000   1.0000   1.0000
     1.0000   1.0000   1.0000   1.0000   1.0000   1.0000   1.0000   1.0000
     1.0000   1.0000   1.0000   1.0000   1.0000

          k = 0.0000 0.0000-0.4607 ( 43588 PWs)   bands (ev):

   -22.7087 -22.7087 -22.7087 -22.6527 -22.6527 -13.1809 -12.5517 -12.5283
   -12.5283  -7.6239  -3.8975  -3.8805  -3.8805  -2.3957  -2.2334  -2.2185
    -1.9661  -1.9648  -1.9648  -1.7366  -1.7366

     occupation numbers 
     1.0000   1.0000   1.0000   1.0000   1.0000   1.0000   1.0000   1.0000
     1.0000   1.0000   1.0000   1.0000   1.0000   1.0000   1.0000   1.0000
     1.0000   1.0000   1.0000   1.0000   1.0000

          k = 0.0000-0.4607-0.4607 ( 43508 PWs)   bands (ev):

   -22.7087 -22.7087 -22.7087 -22.6527 -22.6527 -13.1666 -12.5471 -12.5471
   -12.5318  -7.6187  -3.9693  -3.8832  -3.8832  -2.2730  -2.2730  -2.2584
    -2.0387  -1.9905  -1.8098  -1.8098  -1.6404

     occupation numbers 
     1.0000   1.0000   1.0000   1.0000   1.0000   1.0000   1.0000   1.0000
     1.0000   1.0000   1.0000   1.0000   1.0000   1.0000   1.0000   1.0000
     1.0000   1.0000   1.0000   1.0000   1.0000

          k =-0.4607-0.4607-0.4607 ( 43520 PWs)   bands (ev):

   -22.7087 -22.7087 -22.7087 -22.6527 -22.6527 -13.1547 -12.5465 -12.5465
   -12.5465  -7.6261  -3.9409  -3.9409  -3.9409  -2.2736  -2.2736  -2.2736
    -1.9534  -1.9534  -1.6808  -1.6808  -1.6808

     occupation numbers 
     1.0000   1.0000   1.0000   1.0000   1.0000   1.0000   1.0000   1.0000
     1.0000   1.0000   1.0000   1.0000   1.0000   1.0000   1.0000   1.0000
     1.0000   1.0000   1.0000   1.0000   1.0000

     highest occupied level (ev):    -1.6404

!    total energy              =   -1957.84400268 Ry

     total all-electron energy =    -69286.461564 Ry
     estimated scf accuracy    <          2.7E-09 Ry

     The total energy is the sum of the following terms:
     one-electron contribution =    -192.53711416 Ry
     hartree contribution      =     111.20505821 Ry
     xc contribution           =    -110.97131146 Ry
     ewald contribution        =     -98.66732457 Ry
     one-center paw contrib.   =   -1666.87331070 Ry
      -> PAW hartree energy AE =     109.64682226 Ry
      -> PAW hartree energy PS =    -108.90250179 Ry
      -> PAW xc energy AE      =    -329.04494959 Ry
      -> PAW xc energy PS      =      47.34741929 Ry
      -> total E_H with PAW    =     111.94937867 Ry
      -> total E_XC with PAW   =    -392.66884177 Ry

     convergence has been achieved in  10 iterations

     Forces acting on atoms (cartesian axes, Ry/au):

     atom    1 type  1   force =     0.00000000    0.00000000    0.00000000
     atom    2 type  2   force =     0.00008795   -0.00008795   -0.00008795
     atom    3 type  2   force =    -0.00008795    0.00008795   -0.00008795
     atom    4 type  2   force =    -0.00008795   -0.00008795    0.00008795
     atom    5 type  2   force =     0.00008795    0.00008795    0.00008795
     The non-local contrib.  to forces
     atom    1 type  1   force =     0.00000000    0.00000000    0.00000000
     atom    2 type  2   force =    -0.09065191    0.09065191    0.09065191
     atom    3 type  2   force =     0.09065191   -0.09065191    0.09065191
     atom    4 type  2   force =     0.09065191    0.09065191   -0.09065191
     atom    5 type  2   force =    -0.09065191   -0.09065191   -0.09065191
     The ionic contribution  to forces
     atom    1 type  1   force =     0.00000000    0.00000000    0.00000000
     atom    2 type  2   force =     4.27310366   -4.27310366   -4.27310366
     atom    3 type  2   force =    -4.27310366    4.27310366   -4.27310366
     atom    4 type  2   force =    -4.27310366   -4.27310366    4.27310366
     atom    5 type  2   force =     4.27310366    4.27310366    4.27310366
     The local contribution  to forces
     atom    1 type  1   force =     0.00000000    0.00000000    0.00000000
     atom    2 type  2   force =    -4.19373401    4.19373401    4.19373401
     atom    3 type  2   force =     4.19373401   -4.19373401    4.19373401
     atom    4 type  2   force =     4.19373401    4.19373401   -4.19373401
     atom    5 type  2   force =    -4.19373401   -4.19373401   -4.19373401
     The core correction contribution to forces
     atom    1 type  1   force =     0.00000000    0.00000000    0.00000000
     atom    2 type  2   force =     0.01133779   -0.01133779   -0.01133779
     atom    3 type  2   force =    -0.01133779    0.01133779   -0.01133779
     atom    4 type  2   force =    -0.01133779   -0.01133779    0.01133779
     atom    5 type  2   force =     0.01133779    0.01133779    0.01133779
     The Hubbard contrib.    to forces
     atom    1 type  1   force =     0.00000000    0.00000000    0.00000000
     atom    2 type  2   force =     0.00000000    0.00000000    0.00000000
     atom    3 type  2   force =     0.00000000    0.00000000    0.00000000
     atom    4 type  2   force =     0.00000000    0.00000000    0.00000000
     atom    5 type  2   force =     0.00000000    0.00000000    0.00000000
     The SCF correction term to forces
     atom    1 type  1   force =    -0.00000000   -0.00000000    0.00000000
     atom    2 type  2   force =     0.00003242   -0.00003242   -0.00003242
     atom    3 type  2   force =    -0.00003242    0.00003242   -0.00003242
     atom    4 type  2   force =    -0.00003242   -0.00003242    0.00003242
     atom    5 type  2   force =     0.00003242    0.00003242    0.00003242

     Total force =     0.000305     Total SCF correction =     0.000112
     SCF correction compared to forces is large: reduce conv_thr to get better values


     Computing stress (Cartesian axis) and pressure

          total   stress  (Ry/bohr**3)                   (kbar)     P=       -0.04
  -0.00000030   0.00000000   0.00000000           -0.04        0.00        0.00
   0.00000000  -0.00000030   0.00000000            0.00       -0.04        0.00
   0.00000000   0.00000000  -0.00000030            0.00        0.00       -0.04

     kinetic stress (kbar)   3130.26      0.00      0.00
                                0.00   3130.26      0.00
                                0.00      0.00   3130.26

     local   stress (kbar)  -2959.53      0.00      0.00
                                0.00  -2959.53      0.00
                                0.00      0.00  -2959.53

     nonloc. stress (kbar)    622.43      0.00      0.00
                                0.00    622.43      0.00
                                0.00      0.00    622.43

     hartree stress (kbar)   2114.65     -0.00      0.00
                               -0.00   2114.65      0.00
                                0.00      0.00   2114.65

     exc-cor stress (kbar)   3207.83     -0.00     -0.00
                               -0.00   3207.83     -0.00
                               -0.00     -0.00   3207.83

     corecor stress (kbar)  -4239.45      0.00      0.00
                                0.00  -4239.45      0.00
                                0.00      0.00  -4239.45

     ewald   stress (kbar)  -1876.23     -0.00     -0.00
                               -0.00  -1876.23     -0.00
                               -0.00     -0.00  -1876.23

     hubbard stress (kbar)      0.00      0.00      0.00
                                0.00      0.00      0.00
                                0.00      0.00      0.00

     DFT-D   stress (kbar)      0.00      0.00      0.00
                                0.00      0.00      0.00
                                0.00      0.00      0.00

     XDM     stress (kbar)      0.00      0.00      0.00
                                0.00      0.00      0.00
                                0.00      0.00      0.00

     dft-nl  stress (kbar)      0.00      0.00      0.00
                                0.00      0.00      0.00
                                0.00      0.00      0.00

     TS-vdW  stress (kbar)      0.00      0.00      0.00
                                0.00      0.00      0.00
                                0.00      0.00      0.00



     Writing output data file ./out/SnI4un.save/

     init_run     :     43.30s CPU     44.45s WALL (       2 calls)
     electrons    :   2777.67s CPU   2933.85s WALL (      20 calls)
     update_pot   :    300.62s CPU    303.66s WALL (      18 calls)
     forces       :    221.06s CPU    225.83s WALL (      20 calls)
     stress       :    593.03s CPU    604.58s WALL (      20 calls)

     Called by init_run:
     wfcinit      :      6.37s CPU      6.61s WALL (       2 calls)
     wfcinit:atom :      0.06s CPU      0.06s WALL (       8 calls)
     wfcinit:wfcr :      5.98s CPU      6.09s WALL (       8 calls)
     potinit      :     11.06s CPU     11.34s WALL (       2 calls)
     hinit0       :     19.18s CPU     19.34s WALL (       2 calls)

     Called by electrons:
     c_bands      :   1796.05s CPU   1845.95s WALL (     272 calls)
     sum_band     :    499.72s CPU    547.05s WALL (     272 calls)
     v_of_rho     :     64.41s CPU     65.96s WALL (     287 calls)
     v_h          :      4.63s CPU      4.73s WALL (     287 calls)
     v_xc         :     68.14s CPU     69.76s WALL (     327 calls)
     newd         :    247.87s CPU    290.63s WALL (     287 calls)
     PAW_pot      :    196.40s CPU    200.16s WALL (     305 calls)
     mix_rho      :     14.74s CPU     15.11s WALL (     272 calls)

     Called by c_bands:
     init_us_2    :     24.51s CPU     25.06s WALL (    2416 calls)
     cegterg      :   1734.06s CPU   1763.54s WALL (    1088 calls)

     Called by sum_band:
     sum_band:wei :      0.01s CPU      0.01s WALL (     272 calls)
     sum_band:loo :    251.21s CPU    255.94s WALL (     272 calls)
     sum_band:buf :      2.01s CPU      2.08s WALL (    1088 calls)
     sum_band:ini :     11.09s CPU     11.31s WALL (    1088 calls)
     sum_band:cal :     74.85s CPU     75.95s WALL (    1160 calls)
     sum_band:bec :      0.40s CPU      0.41s WALL (    1160 calls)
     addusdens    :    221.70s CPU    263.71s WALL (     272 calls)
     addusd:skk   :      0.68s CPU      0.75s WALL (     544 calls)
     addusd:dgemm :     77.77s CPU    116.61s WALL (     544 calls)
     addusd:qvan2 :    118.73s CPU    120.42s WALL (     544 calls)

     Called by *egterg:
     cdiaghg      :     14.08s CPU     14.34s WALL (    4613 calls)
     cegterg:over :     88.76s CPU     90.21s WALL (    3617 calls)
     cegterg:upda :     41.45s CPU     42.09s WALL (    3617 calls)
     cegterg:last :     98.83s CPU    100.26s WALL (    2434 calls)
     h_psi        :   1273.52s CPU   1296.01s WALL (    4713 calls)
     s_psi        :    174.49s CPU    176.93s WALL (    4713 calls)
     g_psi        :      3.20s CPU      3.29s WALL (    3617 calls)

     Called by h_psi:
     h_psi:calbec :    205.49s CPU    208.50s WALL (    4713 calls)
     vloc_psi     :    872.30s CPU    888.91s WALL (    4713 calls)
     add_vuspsi   :    191.88s CPU    194.67s WALL (    4713 calls)

     General routines
     calbec       :    305.52s CPU    310.06s WALL (    6273 calls)
     fft          :     55.58s CPU     57.93s WALL (    3680 calls)
     ffts         :      2.99s CPU      3.07s WALL (     272 calls)
     fftw         :    972.23s CPU    990.55s WALL (  150004 calls)

     Parallel routines
     fft_scatt_xy :     96.37s CPU     98.46s WALL (  153956 calls)
     fft_scatt_yz :    222.99s CPU    229.20s WALL (  153956 calls)

     PAW routines
     PAW_pot      :    196.40s CPU    200.16s WALL (     305 calls)
     PAW_symme    :      1.24s CPU      1.26s WALL (     577 calls)

     PWSCF        :      1h 6m CPU      1h 9m WALL


   This run was terminated on:  15:14:47  14Jan2021            

=------------------------------------------------------------------------------=
   JOB DONE.
=------------------------------------------------------------------------------=
