
     Program PWSCF v.6.7MaX starts on 14Jan2021 at 15: 4:19 

     This program is part of the open-source Quantum ESPRESSO suite
     for quantum simulation of materials; please cite
         "P. Giannozzi et al., J. Phys.:Condens. Matter 21 395502 (2009);
         "P. Giannozzi et al., J. Phys.:Condens. Matter 29 465901 (2017);
          URL http://www.quantum-espresso.org", 
     in publications or presentations arising from this work. More details at
     http://www.quantum-espresso.org/quote

     Parallel version (MPI), running on    19 processors

     MPI processes distributed on     1 nodes
     R & G space division:  proc/nbgrp/npool/nimage =      19
     Waiting for input...
     Reading input from standard input

     Current dimensions of program PWSCF are:
     Max number of different atomic species (ntypx) = 10
     Max number of k-points (npk) =  40000
     Max angular momentum in pseudopotentials (lmaxx) =  3
     file Sn.pbe-dn-kjpaw_psl.1.0.0.UPF: wavefunction(s)  5S 5P 4D renormalized
     file I.pbe-n-kjpaw_psl.1.0.0.UPF: wavefunction(s)  5S renormalized

     Subspace diagonalization in iterative solution of the eigenvalue problem:
     a serial algorithm will be used

     Message from routine setup:
     using ibrav=0 with symmetry is DISCOURAGED, use correct ibrav instead

     Parallelization info
     --------------------
     sticks:   dense  smooth     PW     G-vecs:    dense   smooth      PW
     Min         236     236     64                 7726     7726    1099
     Max         237     237     66                 7729     7729    1101
     Sum        4501    4501   1225               146829   146829   20897


     Title: 
     SnI2tetr                                                                   


     bravais-lattice index     =            0
     lattice parameter (alat)  =      14.2167  a.u.
     unit-cell volume          =    1855.5976 (a.u.)^3
     number of atoms/cell      =            6
     number of atomic types    =            2
     number of electrons       =        56.00
     number of Kohn-Sham states=           28
     kinetic-energy cutoff     =      70.0000  Ry
     charge density cutoff     =     280.0000  Ry
     scf convergence threshold =      1.0E-06
     mixing beta               =       0.7000
     number of iterations used =            8  plain     mixing
     Exchange-correlation= SLA  PW   PBX  PBC
                           (   1   4   3   4   0   0   0)

     celldm(1)=  14.216705  celldm(2)=   0.000000  celldm(3)=   0.000000
     celldm(4)=   0.000000  celldm(5)=   0.000000  celldm(6)=   0.000000

     crystal axes: (cart. coord. in units of alat)
               a(1) = (   1.000000   0.000000   0.000000 )  
               a(2) = (   0.000000   1.000000   0.000000 )  
               a(3) = (   0.000000   0.000000   0.645783 )  

     reciprocal axes: (cart. coord. in units 2 pi/alat)
               b(1) = (  1.000000  0.000000  0.000000 )  
               b(2) = (  0.000000  1.000000  0.000000 )  
               b(3) = (  0.000000  0.000000  1.548507 )  


     PseudoPot. # 1 for Sn read from file:
     ../../../pseudo/Sn.pbe-dn-kjpaw_psl.1.0.0.UPF
     MD5 check sum: 67f11dec737d427557dc41ea34975807
     Pseudo is Projector augmented-wave + core cor, Zval = 14.0
     Generated using &quot;atomic&quot; code by A. Dal Corso  v.6.3
     Shape of augmentation charge: PSQ
     Using radial grid of 1243 points,  6 beta functions with: 
                l(1) =   0
                l(2) =   0
                l(3) =   1
                l(4) =   1
                l(5) =   2
                l(6) =   2
     Q(r) pseudized with 0 coefficients 


     PseudoPot. # 2 for I  read from file:
     ../../../pseudo/I.pbe-n-kjpaw_psl.1.0.0.UPF
     MD5 check sum: cd3d296c3308a581e1559a0c8a554cb5
     Pseudo is Projector augmented-wave + core cor, Zval =  7.0
     Generated using &quot;atomic&quot; code by A. Dal Corso  v.6.3
     Shape of augmentation charge: PSQ
     Using radial grid of 1247 points,  6 beta functions with: 
                l(1) =   0
                l(2) =   0
                l(3) =   1
                l(4) =   1
                l(5) =   2
                l(6) =   2
     Q(r) pseudized with 0 coefficients 


     atomic species   valence    mass     pseudopotential
        Sn            14.00   118.70000     Sn( 1.00)
        I              7.00   126.90000     I ( 1.00)

     16 Sym. Ops., with inversion, found ( 8 have fractional translation)


                                    s                        frac. trans.

      isym =  1     identity                                     

 cryst.   s( 1) = (     1          0          0      )
                  (     0          1          0      )
                  (     0          0          1      )

 cart.    s( 1) = (  1.0000000  0.0000000  0.0000000 )
                  (  0.0000000  1.0000000  0.0000000 )
                  (  0.0000000  0.0000000  1.0000000 )


      isym =  2     180 deg rotation - cart. axis [0,0,1]        

 cryst.   s( 2) = (    -1          0          0      )
                  (     0         -1          0      )
                  (     0          0          1      )

 cart.    s( 2) = ( -1.0000000  0.0000000  0.0000000 )
                  (  0.0000000 -1.0000000  0.0000000 )
                  (  0.0000000  0.0000000  1.0000000 )


      isym =  3     180 deg rotation - cart. axis [0,1,0]        

 cryst.   s( 3) = (    -1          0          0      )    f =(  0.5000000 )
                  (     0          1          0      )       ( -0.5000000 )
                  (     0          0         -1      )       (  0.5000000 )

 cart.    s( 3) = ( -1.0000000  0.0000000  0.0000000 )    f =(  0.5000000 )
                  (  0.0000000  1.0000000  0.0000000 )       ( -0.5000000 )
                  (  0.0000000  0.0000000 -1.0000000 )       (  0.3228917 )


      isym =  4     180 deg rotation - cart. axis [1,0,0]        

 cryst.   s( 4) = (     1          0          0      )    f =( -0.5000000 )
                  (     0         -1          0      )       (  0.5000000 )
                  (     0          0         -1      )       (  0.5000000 )

 cart.    s( 4) = (  1.0000000  0.0000000  0.0000000 )    f =( -0.5000000 )
                  (  0.0000000 -1.0000000  0.0000000 )       (  0.5000000 )
                  (  0.0000000  0.0000000 -1.0000000 )       (  0.3228917 )


      isym =  5     180 deg rotation - cart. axis [1,1,0]        

 cryst.   s( 5) = (     0          1          0      )
                  (     1          0          0      )
                  (     0          0         -1      )

 cart.    s( 5) = (  0.0000000  1.0000000  0.0000000 )
                  (  1.0000000  0.0000000  0.0000000 )
                  (  0.0000000  0.0000000 -1.0000000 )


      isym =  6     180 deg rotation - cart. axis [1,-1,0]       

 cryst.   s( 6) = (     0         -1          0      )
                  (    -1          0          0      )
                  (     0          0         -1      )

 cart.    s( 6) = (  0.0000000 -1.0000000  0.0000000 )
                  ( -1.0000000  0.0000000  0.0000000 )
                  (  0.0000000  0.0000000 -1.0000000 )


      isym =  7      90 deg rotation - cart. axis [0,0,-1]       

 cryst.   s( 7) = (     0         -1          0      )    f =( -0.5000000 )
                  (     1          0          0      )       (  0.5000000 )
                  (     0          0          1      )       ( -0.5000000 )

 cart.    s( 7) = (  0.0000000  1.0000000  0.0000000 )    f =( -0.5000000 )
                  ( -1.0000000  0.0000000  0.0000000 )       (  0.5000000 )
                  (  0.0000000  0.0000000  1.0000000 )       ( -0.3228917 )


      isym =  8      90 deg rotation - cart. axis [0,0,1]        

 cryst.   s( 8) = (     0          1          0      )    f =(  0.5000000 )
                  (    -1          0          0      )       ( -0.5000000 )
                  (     0          0          1      )       ( -0.5000000 )

 cart.    s( 8) = (  0.0000000 -1.0000000  0.0000000 )    f =(  0.5000000 )
                  (  1.0000000  0.0000000  0.0000000 )       ( -0.5000000 )
                  (  0.0000000  0.0000000  1.0000000 )       ( -0.3228917 )


      isym =  9     inversion                                    

 cryst.   s( 9) = (    -1          0          0      )
                  (     0         -1          0      )
                  (     0          0         -1      )

 cart.    s( 9) = ( -1.0000000  0.0000000  0.0000000 )
                  (  0.0000000 -1.0000000  0.0000000 )
                  (  0.0000000  0.0000000 -1.0000000 )


      isym = 10     inv. 180 deg rotation - cart. axis [0,0,1]   

 cryst.   s(10) = (     1          0          0      )
                  (     0          1          0      )
                  (     0          0         -1      )

 cart.    s(10) = (  1.0000000  0.0000000  0.0000000 )
                  (  0.0000000  1.0000000  0.0000000 )
                  (  0.0000000  0.0000000 -1.0000000 )


      isym = 11     inv. 180 deg rotation - cart. axis [0,1,0]   

 cryst.   s(11) = (     1          0          0      )    f =( -0.5000000 )
                  (     0         -1          0      )       (  0.5000000 )
                  (     0          0          1      )       ( -0.5000000 )

 cart.    s(11) = (  1.0000000  0.0000000  0.0000000 )    f =( -0.5000000 )
                  (  0.0000000 -1.0000000  0.0000000 )       (  0.5000000 )
                  (  0.0000000  0.0000000  1.0000000 )       ( -0.3228917 )


      isym = 12     inv. 180 deg rotation - cart. axis [1,0,0]   

 cryst.   s(12) = (    -1          0          0      )    f =(  0.5000000 )
                  (     0          1          0      )       ( -0.5000000 )
                  (     0          0          1      )       ( -0.5000000 )

 cart.    s(12) = ( -1.0000000  0.0000000  0.0000000 )    f =(  0.5000000 )
                  (  0.0000000  1.0000000  0.0000000 )       ( -0.5000000 )
                  (  0.0000000  0.0000000  1.0000000 )       ( -0.3228917 )


      isym = 13     inv. 180 deg rotation - cart. axis [1,1,0]   

 cryst.   s(13) = (     0         -1          0      )
                  (    -1          0          0      )
                  (     0          0          1      )

 cart.    s(13) = (  0.0000000 -1.0000000  0.0000000 )
                  ( -1.0000000  0.0000000  0.0000000 )
                  (  0.0000000  0.0000000  1.0000000 )


      isym = 14     inv. 180 deg rotation - cart. axis [1,-1,0]  

 cryst.   s(14) = (     0          1          0      )
                  (     1          0          0      )
                  (     0          0          1      )

 cart.    s(14) = (  0.0000000  1.0000000  0.0000000 )
                  (  1.0000000  0.0000000  0.0000000 )
                  (  0.0000000  0.0000000  1.0000000 )


      isym = 15     inv.  90 deg rotation - cart. axis [0,0,-1]  

 cryst.   s(15) = (     0          1          0      )    f =(  0.5000000 )
                  (    -1          0          0      )       ( -0.5000000 )
                  (     0          0         -1      )       (  0.5000000 )

 cart.    s(15) = (  0.0000000 -1.0000000  0.0000000 )    f =(  0.5000000 )
                  (  1.0000000  0.0000000  0.0000000 )       ( -0.5000000 )
                  (  0.0000000  0.0000000 -1.0000000 )       (  0.3228917 )


      isym = 16     inv.  90 deg rotation - cart. axis [0,0,1]   

 cryst.   s(16) = (     0         -1          0      )    f =( -0.5000000 )
                  (     1          0          0      )       (  0.5000000 )
                  (     0          0         -1      )       (  0.5000000 )

 cart.    s(16) = (  0.0000000  1.0000000  0.0000000 )    f =( -0.5000000 )
                  ( -1.0000000  0.0000000  0.0000000 )       (  0.5000000 )
                  (  0.0000000  0.0000000 -1.0000000 )       (  0.3228917 )


   Cartesian axes

     site n.     atom                  positions (alat units)
         1           Sn  tau(   1) = (   0.0000000   0.0000000   0.0000000  )
         2           Sn  tau(   2) = (   0.5000000   0.5000000   0.3228917  )
         3           I   tau(   3) = (   0.2985210   0.2985210   0.0000000  )
         4           I   tau(   4) = (   0.7014790   0.7014790   0.0000000  )
         5           I   tau(   5) = (   0.7985210   0.2014790   0.3228917  )
         6           I   tau(   6) = (   0.2014790   0.7985210   0.3228917  )

   Crystallographic axes

     site n.     atom                  positions (cryst. coord.)
         1           Sn  tau(   1) = (  0.0000000  0.0000000  0.0000000  )
         2           Sn  tau(   2) = (  0.5000000  0.5000000  0.5000000  )
         3           I   tau(   3) = (  0.2985210  0.2985210  0.0000000  )
         4           I   tau(   4) = (  0.7014790  0.7014790  0.0000000  )
         5           I   tau(   5) = (  0.7985210  0.2014790  0.5000000  )
         6           I   tau(   6) = (  0.2014790  0.7985210  0.5000000  )

     number of k points=    18
                       cart. coord. in units 2pi/alat
        k(    1) = (   0.0000000   0.0000000   0.0000000), wk =   0.0160000
        k(    2) = (   0.0000000   0.0000000   0.3097013), wk =   0.0320000
        k(    3) = (   0.0000000   0.0000000   0.6194027), wk =   0.0320000
        k(    4) = (   0.0000000   0.2000000   0.0000000), wk =   0.0640000
        k(    5) = (   0.0000000   0.2000000   0.3097013), wk =   0.1280000
        k(    6) = (   0.0000000   0.2000000   0.6194027), wk =   0.1280000
        k(    7) = (   0.0000000   0.4000000   0.0000000), wk =   0.0640000
        k(    8) = (   0.0000000   0.4000000   0.3097013), wk =   0.1280000
        k(    9) = (   0.0000000   0.4000000   0.6194027), wk =   0.1280000
        k(   10) = (   0.2000000   0.2000000   0.0000000), wk =   0.0640000
        k(   11) = (   0.2000000   0.2000000   0.3097013), wk =   0.1280000
        k(   12) = (   0.2000000   0.2000000   0.6194027), wk =   0.1280000
        k(   13) = (   0.2000000   0.4000000   0.0000000), wk =   0.1280000
        k(   14) = (   0.2000000   0.4000000   0.3097013), wk =   0.2560000
        k(   15) = (   0.2000000   0.4000000   0.6194027), wk =   0.2560000
        k(   16) = (   0.4000000   0.4000000   0.0000000), wk =   0.0640000
        k(   17) = (   0.4000000   0.4000000   0.3097013), wk =   0.1280000
        k(   18) = (   0.4000000   0.4000000   0.6194027), wk =   0.1280000

                       cryst. coord.
        k(    1) = (   0.0000000   0.0000000   0.0000000), wk =   0.0160000
        k(    2) = (   0.0000000   0.0000000   0.2000000), wk =   0.0320000
        k(    3) = (   0.0000000   0.0000000   0.4000000), wk =   0.0320000
        k(    4) = (   0.0000000   0.2000000   0.0000000), wk =   0.0640000
        k(    5) = (   0.0000000   0.2000000   0.2000000), wk =   0.1280000
        k(    6) = (   0.0000000   0.2000000   0.4000000), wk =   0.1280000
        k(    7) = (   0.0000000   0.4000000   0.0000000), wk =   0.0640000
        k(    8) = (   0.0000000   0.4000000   0.2000000), wk =   0.1280000
        k(    9) = (   0.0000000   0.4000000   0.4000000), wk =   0.1280000
        k(   10) = (   0.2000000   0.2000000   0.0000000), wk =   0.0640000
        k(   11) = (   0.2000000   0.2000000   0.2000000), wk =   0.1280000
        k(   12) = (   0.2000000   0.2000000   0.4000000), wk =   0.1280000
        k(   13) = (   0.2000000   0.4000000   0.0000000), wk =   0.1280000
        k(   14) = (   0.2000000   0.4000000   0.2000000), wk =   0.2560000
        k(   15) = (   0.2000000   0.4000000   0.4000000), wk =   0.2560000
        k(   16) = (   0.4000000   0.4000000   0.0000000), wk =   0.0640000
        k(   17) = (   0.4000000   0.4000000   0.2000000), wk =   0.1280000
        k(   18) = (   0.4000000   0.4000000   0.4000000), wk =   0.1280000

     Dense  grid:   146829 G-vectors     FFT dimensions: (  80,  80,  50)

     Dynamical RAM for                 wfc:       0.41 MB

     Dynamical RAM for     wfc (w. buffer):       7.83 MB

     Dynamical RAM for           str. fact:       0.24 MB

     Dynamical RAM for           local pot:       0.00 MB

     Dynamical RAM for          nlocal pot:       1.59 MB

     Dynamical RAM for                qrad:       2.69 MB

     Dynamical RAM for          rho,v,vnew:       0.79 MB

     Dynamical RAM for               rhoin:       0.26 MB

     Dynamical RAM for            rho*nmix:       1.89 MB

     Dynamical RAM for           G-vectors:       0.50 MB

     Dynamical RAM for          h,s,v(r/c):       0.14 MB

     Dynamical RAM for          <psi|beta>:       0.05 MB

     Dynamical RAM for                 psi:       0.82 MB

     Dynamical RAM for                hpsi:       0.82 MB

     Dynamical RAM for                spsi:       0.82 MB

     Dynamical RAM for      wfcinit/wfcrot:       1.03 MB

     Dynamical RAM for           addusdens:      22.41 MB

     Dynamical RAM for          addusforce:      23.19 MB

     Dynamical RAM for         addusstress:      23.70 MB

     Estimated static dynamical RAM per process >      16.88 MB

     Estimated max dynamical RAM per process >      40.58 MB

     Estimated total dynamical RAM >     771.09 MB

     Initial potential from superposition of free atoms

     starting charge   55.99693, renormalised to   56.00000
     Starting wfcs are   34 randomized atomic wfcs
     Checking if some PAW data can be deallocated... 
       PAW data deallocated on   12 nodes for type:  1
       PAW data deallocated on    7 nodes for type:  2

     total cpu time spent up to now is        4.7 secs

     Self-consistent Calculation

     iteration #  1     ecut=    70.00 Ry     beta= 0.70
     Davidson diagonalization with overlap
     ethr =  1.00E-02,  avg # of iterations =  1.2

     Threshold (ethr) on eigenvalues was too large:
     Diagonalizing with lowered threshold

     Davidson diagonalization with overlap
     ethr =  2.44E-04,  avg # of iterations =  2.4

     total cpu time spent up to now is       15.6 secs

     total energy              =   -2399.93868179 Ry
     estimated scf accuracy    <       0.12300324 Ry

     iteration #  2     ecut=    70.00 Ry     beta= 0.70
     Davidson diagonalization with overlap
     ethr =  2.20E-04,  avg # of iterations =  4.1

     total cpu time spent up to now is       22.6 secs

     total energy              =   -2399.97931061 Ry
     estimated scf accuracy    <       0.05104120 Ry

     iteration #  3     ecut=    70.00 Ry     beta= 0.70
     Davidson diagonalization with overlap
     ethr =  9.11E-05,  avg # of iterations =  2.3

     total cpu time spent up to now is       29.0 secs

     total energy              =   -2399.98774165 Ry
     estimated scf accuracy    <       0.00121320 Ry

     iteration #  4     ecut=    70.00 Ry     beta= 0.70
     Davidson diagonalization with overlap
     ethr =  2.17E-06,  avg # of iterations =  6.0

     total cpu time spent up to now is       38.9 secs

     total energy              =   -2399.98880956 Ry
     estimated scf accuracy    <       0.00095355 Ry

     iteration #  5     ecut=    70.00 Ry     beta= 0.70
     Davidson diagonalization with overlap
     ethr =  1.70E-06,  avg # of iterations =  2.1

     total cpu time spent up to now is       45.1 secs

     total energy              =   -2399.98887584 Ry
     estimated scf accuracy    <       0.00007800 Ry

     iteration #  6     ecut=    70.00 Ry     beta= 0.70
     Davidson diagonalization with overlap
     ethr =  1.39E-07,  avg # of iterations =  5.4

     total cpu time spent up to now is       53.5 secs

     total energy              =   -2399.98892255 Ry
     estimated scf accuracy    <       0.00002501 Ry

     iteration #  7     ecut=    70.00 Ry     beta= 0.70
     Davidson diagonalization with overlap
     ethr =  4.47E-08,  avg # of iterations =  2.0

     total cpu time spent up to now is       59.7 secs

     total energy              =   -2399.98892406 Ry
     estimated scf accuracy    <       0.00000212 Ry

     iteration #  8     ecut=    70.00 Ry     beta= 0.70
     Davidson diagonalization with overlap
     ethr =  3.78E-09,  avg # of iterations =  5.6

     total cpu time spent up to now is       68.0 secs

     End of self-consistent calculation

          k = 0.0000 0.0000 0.0000 ( 18341 PWs)   bands (ev):

   -18.3813 -18.3790 -18.3747 -18.3747 -18.3730 -18.3729 -18.3727 -18.3719
   -18.3641 -18.3641  -9.3577  -8.8452  -8.8452  -8.7169  -4.1492  -2.2715
    -0.0907  -0.0907   0.2436   0.7195   1.1185   1.2583   1.4759   1.4759
     1.9915   1.9915   2.3369   2.7032

     occupation numbers 
     1.0000   1.0000   1.0000   1.0000   1.0000   1.0000   1.0000   1.0000
     1.0000   1.0000   1.0000   1.0000   1.0000   1.0000   1.0000   1.0000
     1.0000   1.0000   1.0000   1.0000   1.0000   1.0000   1.0000   1.0000
     1.0000   1.0000   1.0000   1.0000

          k = 0.0000 0.0000 0.3097 ( 18345 PWs)   bands (ev):

   -18.3810 -18.3791 -18.3759 -18.3759 -18.3729 -18.3727 -18.3715 -18.3707
   -18.3643 -18.3643  -9.2665  -8.8136  -8.8136  -8.7340  -4.1149  -2.6486
    -0.0059   0.0323   0.0323   0.5318   0.8628   0.8791   0.8791   1.8670
     1.9070   1.9070   2.1794   2.9377

     occupation numbers 
     1.0000   1.0000   1.0000   1.0000   1.0000   1.0000   1.0000   1.0000
     1.0000   1.0000   1.0000   1.0000   1.0000   1.0000   1.0000   1.0000
     1.0000   1.0000   1.0000   1.0000   1.0000   1.0000   1.0000   1.0000
     1.0000   1.0000   1.0000   1.0000

          k = 0.0000 0.0000 0.6194 ( 18328 PWs)   bands (ev):

   -18.3802 -18.3795 -18.3777 -18.3777 -18.3728 -18.3727 -18.3693 -18.3690
   -18.3647 -18.3647  -9.0460  -8.8332  -8.7611  -8.7611  -3.9157  -3.3850
    -0.1105   0.1135   0.1135   0.1564   0.4269   0.4269   1.2528   1.6414
     1.6414   1.7601   2.1548   2.6541

     occupation numbers 
     1.0000   1.0000   1.0000   1.0000   1.0000   1.0000   1.0000   1.0000
     1.0000   1.0000   1.0000   1.0000   1.0000   1.0000   1.0000   1.0000
     1.0000   1.0000   1.0000   1.0000   1.0000   1.0000   1.0000   1.0000
     1.0000   1.0000   1.0000   1.0000

          k = 0.0000 0.2000 0.0000 ( 18348 PWs)   bands (ev):

   -18.3810 -18.3793 -18.3747 -18.3747 -18.3730 -18.3728 -18.3727 -18.3720
   -18.3641 -18.3641  -9.3196  -8.9185  -8.8277  -8.7113  -4.0150  -2.5546
    -0.0157   0.1501   0.3064   0.7992   1.0611   1.0788   1.4991   1.5637
     1.9084   1.9990   2.2395   2.5459

     occupation numbers 
     1.0000   1.0000   1.0000   1.0000   1.0000   1.0000   1.0000   1.0000
     1.0000   1.0000   1.0000   1.0000   1.0000   1.0000   1.0000   1.0000
     1.0000   1.0000   1.0000   1.0000   1.0000   1.0000   1.0000   1.0000
     1.0000   1.0000   1.0000   1.0000

          k = 0.0000 0.2000 0.3097 ( 18336 PWs)   bands (ev):

   -18.3808 -18.3794 -18.3758 -18.3758 -18.3729 -18.3727 -18.3715 -18.3708
   -18.3643 -18.3643  -9.2325  -8.8807  -8.8007  -8.7225  -3.9994  -2.8330
    -0.2597  -0.0879   0.4416   0.5756   0.7471   1.0928   1.1262   1.8023
     1.8306   1.8845   2.1449   2.8173

     occupation numbers 
     1.0000   1.0000   1.0000   1.0000   1.0000   1.0000   1.0000   1.0000
     1.0000   1.0000   1.0000   1.0000   1.0000   1.0000   1.0000   1.0000
     1.0000   1.0000   1.0000   1.0000   1.0000   1.0000   1.0000   1.0000
     1.0000   1.0000   1.0000   1.0000

          k = 0.0000 0.2000 0.6194 ( 18323 PWs)   bands (ev):

   -18.3802 -18.3797 -18.3776 -18.3776 -18.3728 -18.3727 -18.3692 -18.3690
   -18.3646 -18.3646  -9.0258  -8.8513  -8.7643  -8.7618  -3.8623  -3.4317
    -0.4071  -0.2735   0.1222   0.1706   0.7882   0.9219   1.3290   1.5937
     1.5950   1.8046   2.2481   2.6962

     occupation numbers 
     1.0000   1.0000   1.0000   1.0000   1.0000   1.0000   1.0000   1.0000
     1.0000   1.0000   1.0000   1.0000   1.0000   1.0000   1.0000   1.0000
     1.0000   1.0000   1.0000   1.0000   1.0000   1.0000   1.0000   1.0000
     1.0000   1.0000   1.0000   1.0000

          k = 0.0000 0.4000 0.0000 ( 18342 PWs)   bands (ev):

   -18.3804 -18.3798 -18.3747 -18.3747 -18.3729 -18.3728 -18.3726 -18.3723
   -18.3641 -18.3641  -9.2135  -9.0651  -8.7833  -8.7347  -3.6427  -3.1111
     0.1769   0.3459   0.4866   0.7566   0.9996   1.1112   1.5537   1.5956
     1.7997   2.0051   2.1136   2.1640

     occupation numbers 
     1.0000   1.0000   1.0000   1.0000   1.0000   1.0000   1.0000   1.0000
     1.0000   1.0000   1.0000   1.0000   1.0000   1.0000   1.0000   1.0000
     1.0000   1.0000   1.0000   1.0000   1.0000   1.0000   1.0000   1.0000
     1.0000   1.0000   1.0000   1.0000

          k = 0.0000 0.4000 0.3097 ( 18346 PWs)   bands (ev):

   -18.3804 -18.3798 -18.3758 -18.3758 -18.3729 -18.3728 -18.3713 -18.3710
   -18.3643 -18.3643  -9.1385  -9.0084  -8.7687  -8.7349  -3.6831  -3.2482
    -0.3508  -0.2733   0.6697   0.7022   0.9655   1.3338   1.3487   1.5327
     1.8798   1.9677   2.0183   2.4604

     occupation numbers 
     1.0000   1.0000   1.0000   1.0000   1.0000   1.0000   1.0000   1.0000
     1.0000   1.0000   1.0000   1.0000   1.0000   1.0000   1.0000   1.0000
     1.0000   1.0000   1.0000   1.0000   1.0000   1.0000   1.0000   1.0000
     1.0000   1.0000   1.0000   1.0000

          k = 0.0000 0.4000 0.6194 ( 18361 PWs)   bands (ev):

   -18.3803 -18.3801 -18.3774 -18.3774 -18.3728 -18.3728 -18.3691 -18.3690
   -18.3647 -18.3647  -8.9721  -8.9045  -8.7658  -8.7638  -3.7242  -3.5589
    -0.6261  -0.5869   0.1407   0.1567   1.1652   1.1896   1.4749   1.7025
     1.7105   1.8356   2.4327   2.6713

     occupation numbers 
     1.0000   1.0000   1.0000   1.0000   1.0000   1.0000   1.0000   1.0000
     1.0000   1.0000   1.0000   1.0000   1.0000   1.0000   1.0000   1.0000
     1.0000   1.0000   1.0000   1.0000   1.0000   1.0000   1.0000   1.0000
     1.0000   1.0000   1.0000   1.0000

          k = 0.2000 0.2000 0.0000 ( 18375 PWs)   bands (ev):

   -18.3809 -18.3794 -18.3747 -18.3747 -18.3730 -18.3728 -18.3728 -18.3721
   -18.3641 -18.3641  -9.2835  -8.9361  -8.8504  -8.7189  -3.8962  -2.7309
    -0.0378   0.3191   0.3643   0.8723   0.9755   1.0807   1.4653   1.5962
     1.9015   1.9431   2.1326   2.4420

     occupation numbers 
     1.0000   1.0000   1.0000   1.0000   1.0000   1.0000   1.0000   1.0000
     1.0000   1.0000   1.0000   1.0000   1.0000   1.0000   1.0000   1.0000
     1.0000   1.0000   1.0000   1.0000   1.0000   1.0000   1.0000   1.0000
     1.0000   1.0000   1.0000   1.0000

          k = 0.2000 0.2000 0.3097 ( 18347 PWs)   bands (ev):

   -18.3806 -18.3795 -18.3759 -18.3758 -18.3729 -18.3728 -18.3714 -18.3709
   -18.3643 -18.3643  -9.2007  -8.8999  -8.8185  -8.7253  -3.9021  -2.9696
    -0.2972   0.0854   0.2075   0.6627   0.7442   1.1800   1.3463   1.7349
     1.8015   1.8556   2.1243   2.6808

     occupation numbers 
     1.0000   1.0000   1.0000   1.0000   1.0000   1.0000   1.0000   1.0000
     1.0000   1.0000   1.0000   1.0000   1.0000   1.0000   1.0000   1.0000
     1.0000   1.0000   1.0000   1.0000   1.0000   1.0000   1.0000   1.0000
     1.0000   1.0000   1.0000   1.0000

          k = 0.2000 0.2000 0.6194 ( 18343 PWs)   bands (ev):

   -18.3803 -18.3798 -18.3777 -18.3774 -18.3728 -18.3727 -18.3692 -18.3690
   -18.3647 -18.3646  -9.0084  -8.8651  -8.7655  -8.7648  -3.8289  -3.4800
    -0.5777  -0.1208   0.0290   0.3980   0.4170   1.2785   1.4198   1.4901
     1.6794   1.8387   2.3117   2.6288

     occupation numbers 
     1.0000   1.0000   1.0000   1.0000   1.0000   1.0000   1.0000   1.0000
     1.0000   1.0000   1.0000   1.0000   1.0000   1.0000   1.0000   1.0000
     1.0000   1.0000   1.0000   1.0000   1.0000   1.0000   1.0000   1.0000
     1.0000   1.0000   1.0000   1.0000

          k = 0.2000 0.4000 0.0000 ( 18354 PWs)   bands (ev):

   -18.3804 -18.3798 -18.3747 -18.3747 -18.3729 -18.3728 -18.3726 -18.3724
   -18.3641 -18.3641  -9.1841  -9.0491  -8.8164  -8.7581  -3.5737  -3.1375
     0.1030   0.3146   0.5273   0.7584   1.0584   1.1722   1.4999   1.5697
     1.8035   1.9419   2.0066   2.1777

     occupation numbers 
     1.0000   1.0000   1.0000   1.0000   1.0000   1.0000   1.0000   1.0000
     1.0000   1.0000   1.0000   1.0000   1.0000   1.0000   1.0000   1.0000
     1.0000   1.0000   1.0000   1.0000   1.0000   1.0000   1.0000   1.0000
     1.0000   1.0000   1.0000   1.0000

          k = 0.2000 0.4000 0.3097 ( 18360 PWs)   bands (ev):

   -18.3803 -18.3798 -18.3758 -18.3758 -18.3729 -18.3728 -18.3713 -18.3710
   -18.3643 -18.3643  -9.1136  -8.9969  -8.7945  -8.7522  -3.6393  -3.2892
    -0.2724  -0.1286   0.5250   0.6271   0.8506   1.2707   1.3992   1.5755
     1.8604   1.9846   2.0517   2.3975

     occupation numbers 
     1.0000   1.0000   1.0000   1.0000   1.0000   1.0000   1.0000   1.0000
     1.0000   1.0000   1.0000   1.0000   1.0000   1.0000   1.0000   1.0000
     1.0000   1.0000   1.0000   1.0000   1.0000   1.0000   1.0000   1.0000
     1.0000   1.0000   1.0000   1.0000

          k = 0.2000 0.4000 0.6194 ( 18373 PWs)   bands (ev):

   -18.3802 -18.3800 -18.3776 -18.3774 -18.3728 -18.3728 -18.3692 -18.3691
   -18.3647 -18.3647  -8.9627  -8.9068  -8.7683  -8.7670  -3.7338  -3.6003
    -0.5545  -0.3331   0.0155   0.1414   0.9978   1.3677   1.4275   1.6294
     1.7222   1.8532   2.3390   2.4223

     occupation numbers 
     1.0000   1.0000   1.0000   1.0000   1.0000   1.0000   1.0000   1.0000
     1.0000   1.0000   1.0000   1.0000   1.0000   1.0000   1.0000   1.0000
     1.0000   1.0000   1.0000   1.0000   1.0000   1.0000   1.0000   1.0000
     1.0000   1.0000   1.0000   1.0000

          k = 0.4000 0.4000 0.0000 ( 18358 PWs)   bands (ev):

   -18.3802 -18.3800 -18.3747 -18.3747 -18.3729 -18.3729 -18.3725 -18.3724
   -18.3641 -18.3641  -9.1086  -9.0402  -8.8587  -8.8180  -3.4067  -3.2362
     0.0688   0.1763   0.6292   0.7269   1.2039   1.2783   1.4484   1.4920
     1.7266   1.7821   2.0153   2.1104

     occupation numbers 
     1.0000   1.0000   1.0000   1.0000   1.0000   1.0000   1.0000   1.0000
     1.0000   1.0000   1.0000   1.0000   1.0000   1.0000   1.0000   1.0000
     1.0000   1.0000   1.0000   1.0000   1.0000   1.0000   1.0000   1.0000
     1.0000   1.0000   1.0000   1.0000

          k = 0.4000 0.4000 0.3097 ( 18341 PWs)   bands (ev):

   -18.3801 -18.3800 -18.3758 -18.3758 -18.3728 -18.3728 -18.3712 -18.3711
   -18.3643 -18.3643  -9.0506  -8.9941  -8.8264  -8.7969  -3.5280  -3.3953
    -0.0542   0.1850   0.3286   0.5391   0.6325   0.8399   1.5780   1.7522
     1.7712   1.9344   2.1713   2.3049

     occupation numbers 
     1.0000   1.0000   1.0000   1.0000   1.0000   1.0000   1.0000   1.0000
     1.0000   1.0000   1.0000   1.0000   1.0000   1.0000   1.0000   1.0000
     1.0000   1.0000   1.0000   1.0000   1.0000   1.0000   1.0000   1.0000
     1.0000   1.0000   1.0000   1.0000

          k = 0.4000 0.4000 0.6194 ( 18388 PWs)   bands (ev):

   -18.3800 -18.3798 -18.3777 -18.3776 -18.3728 -18.3728 -18.3692 -18.3691
   -18.3647 -18.3647  -8.9400  -8.9179  -8.7727  -8.7718  -3.7320  -3.6812
    -0.1803  -0.1315  -0.1008   0.3819   0.4391   1.0655   1.6520   1.7060
     1.7774   1.8753   2.0817   2.2120

     occupation numbers 
     1.0000   1.0000   1.0000   1.0000   1.0000   1.0000   1.0000   1.0000
     1.0000   1.0000   1.0000   1.0000   1.0000   1.0000   1.0000   1.0000
     1.0000   1.0000   1.0000   1.0000   1.0000   1.0000   1.0000   1.0000
     1.0000   1.0000   1.0000   1.0000

     highest occupied level (ev):     2.9377

!    total energy              =   -2399.98892516 Ry

     total all-electron energy =    -81641.234273 Ry
     estimated scf accuracy    <       0.00000074 Ry

     The total energy is the sum of the following terms:
     one-electron contribution =    -202.53024136 Ry
     hartree contribution      =     129.42644780 Ry
     xc contribution           =    -159.00404515 Ry
     ewald contribution        =    -220.09145386 Ry
     one-center paw contrib.   =   -1947.78963260 Ry
      -> PAW hartree energy AE =     108.34689602 Ry
      -> PAW hartree energy PS =    -107.58023175 Ry
      -> PAW xc energy AE      =    -328.95878216 Ry
      -> PAW xc energy PS      =      47.25749788 Ry
      -> total E_H with PAW    =     130.19311207 Ry
      -> total E_XC with PAW   =    -440.70532943 Ry

     convergence has been achieved in   8 iterations

     Forces acting on atoms (cartesian axes, Ry/au):

     atom    1 type  1   force =     0.00000000    0.00000000    0.00000000
     atom    2 type  1   force =     0.00000000    0.00000000    0.00000000
     atom    3 type  2   force =     0.00332500    0.00332500    0.00000000
     atom    4 type  2   force =    -0.00332500   -0.00332500    0.00000000
     atom    5 type  2   force =     0.00332500   -0.00332500    0.00000000
     atom    6 type  2   force =    -0.00332500    0.00332500    0.00000000
     The non-local contrib.  to forces
     atom    1 type  1   force =     0.00000000    0.00000000    0.00000000
     atom    2 type  1   force =     0.00000000    0.00000000    0.00000000
     atom    3 type  2   force =     0.01211659    0.01211659    0.00000000
     atom    4 type  2   force =    -0.01211659   -0.01211659    0.00000000
     atom    5 type  2   force =     0.01211659   -0.01211659   -0.00000000
     atom    6 type  2   force =    -0.01211659    0.01211659   -0.00000000
     The ionic contribution  to forces
     atom    1 type  1   force =    -0.00000000   -0.00000000    0.00000000
     atom    2 type  1   force =    -0.00000000   -0.00000000    0.00000000
     atom    3 type  2   force =    -0.62953558   -0.62953558    0.00000000
     atom    4 type  2   force =     0.62953558    0.62953558    0.00000000
     atom    5 type  2   force =    -0.62953558    0.62953558    0.00000000
     atom    6 type  2   force =     0.62953558   -0.62953558    0.00000000
     The local contribution  to forces
     atom    1 type  1   force =     0.00000000    0.00000000   -0.00000000
     atom    2 type  1   force =     0.00000000    0.00000000    0.00000000
     atom    3 type  2   force =     0.62228540    0.62228540    0.00000000
     atom    4 type  2   force =    -0.62228540   -0.62228540    0.00000000
     atom    5 type  2   force =     0.62228540   -0.62228540    0.00000000
     atom    6 type  2   force =    -0.62228540    0.62228540    0.00000000
     The core correction contribution to forces
     atom    1 type  1   force =     0.00000000    0.00000000   -0.00000000
     atom    2 type  1   force =     0.00000000    0.00000000   -0.00000000
     atom    3 type  2   force =    -0.00159944   -0.00159944   -0.00000000
     atom    4 type  2   force =     0.00159944    0.00159944   -0.00000000
     atom    5 type  2   force =    -0.00159944    0.00159944   -0.00000000
     atom    6 type  2   force =     0.00159944   -0.00159944   -0.00000000
     The Hubbard contrib.    to forces
     atom    1 type  1   force =     0.00000000    0.00000000    0.00000000
     atom    2 type  1   force =     0.00000000    0.00000000    0.00000000
     atom    3 type  2   force =     0.00000000    0.00000000    0.00000000
     atom    4 type  2   force =     0.00000000    0.00000000    0.00000000
     atom    5 type  2   force =     0.00000000    0.00000000    0.00000000
     atom    6 type  2   force =     0.00000000    0.00000000    0.00000000
     The SCF correction term to forces
     atom    1 type  1   force =     0.00000000   -0.00000000    0.00000000
     atom    2 type  1   force =    -0.00000000   -0.00000000   -0.00000000
     atom    3 type  2   force =     0.00005802    0.00005802   -0.00000000
     atom    4 type  2   force =    -0.00005802   -0.00005802   -0.00000000
     atom    5 type  2   force =     0.00005802   -0.00005802    0.00000000
     atom    6 type  2   force =    -0.00005802    0.00005802    0.00000000

     Total force =     0.009405     Total SCF correction =     0.000164


     Computing stress (Cartesian axis) and pressure

          total   stress  (Ry/bohr**3)                   (kbar)     P=       -3.74
  -0.00000848   0.00000000   0.00000000           -1.25        0.00        0.00
   0.00000000  -0.00000848   0.00000000            0.00       -1.25        0.00
   0.00000000   0.00000000  -0.00005932            0.00        0.00       -8.73

     kinetic stress (kbar)   7275.06      0.00      0.00
                                0.00   7275.06      0.00
                                0.00      0.00   7242.35

     local   stress (kbar)  -1579.25     -0.00      0.00
                               -0.00  -1579.25      0.00
                                0.00      0.00  -5432.11

     nonloc. stress (kbar)    115.62      0.00      0.00
                                0.00    115.62      0.00
                                0.00      0.00    111.56

     hartree stress (kbar)   2867.84      0.00     -0.00
                                0.00   2867.84     -0.00
                               -0.00     -0.00   4524.77

     exc-cor stress (kbar)   6126.94      0.00      0.00
                                0.00   6126.94      0.00
                                0.00      0.00   6127.78

     corecor stress (kbar)  -8250.51     -0.00      0.00
                               -0.00  -8250.51      0.00
                                0.00      0.00  -8248.96

     ewald   stress (kbar)  -6556.96      0.00     -0.00
                                0.00  -6556.96     -0.00
                               -0.00     -0.00  -4334.13

     hubbard stress (kbar)      0.00      0.00      0.00
                                0.00      0.00      0.00
                                0.00      0.00      0.00

     DFT-D   stress (kbar)      0.00      0.00      0.00
                                0.00      0.00      0.00
                                0.00      0.00      0.00

     XDM     stress (kbar)      0.00      0.00      0.00
                                0.00      0.00      0.00
                                0.00      0.00      0.00

     dft-nl  stress (kbar)      0.00      0.00      0.00
                                0.00      0.00      0.00
                                0.00      0.00      0.00

     TS-vdW  stress (kbar)      0.00      0.00      0.00
                                0.00      0.00      0.00
                                0.00      0.00      0.00



     Writing output data file ./out/SnI2tetr.save/

     init_run     :      3.49s CPU      3.64s WALL (       1 calls)
     electrons    :     61.65s CPU     63.29s WALL (       1 calls)
     forces       :      1.87s CPU      1.88s WALL (       1 calls)
     stress       :      3.86s CPU      3.87s WALL (       1 calls)

     Called by init_run:
     wfcinit      :      2.14s CPU      2.17s WALL (       1 calls)
     wfcinit:atom :      0.02s CPU      0.02s WALL (      18 calls)
     wfcinit:wfcr :      2.00s CPU      2.02s WALL (      18 calls)
     potinit      :      0.44s CPU      0.45s WALL (       1 calls)
     hinit0       :      0.58s CPU      0.58s WALL (       1 calls)

     Called by electrons:
     c_bands      :     50.99s CPU     52.46s WALL (       9 calls)
     sum_band     :      7.88s CPU      7.99s WALL (       9 calls)
     v_of_rho     :      0.29s CPU      0.30s WALL (       9 calls)
     v_h          :      0.02s CPU      0.02s WALL (       9 calls)
     v_xc         :      0.33s CPU      0.34s WALL (      11 calls)
     newd         :      1.29s CPU      1.32s WALL (       9 calls)
     PAW_pot      :      1.44s CPU      1.46s WALL (       9 calls)
     mix_rho      :      0.05s CPU      0.05s WALL (       9 calls)

     Called by c_bands:
     init_us_2    :      0.66s CPU      0.70s WALL (     378 calls)
     cegterg      :     49.22s CPU     49.66s WALL (     162 calls)

     Called by sum_band:
     sum_band:wei :      0.00s CPU      0.00s WALL (       9 calls)
     sum_band:loo :      6.59s CPU      6.68s WALL (       9 calls)
     sum_band:buf :      0.06s CPU      0.06s WALL (     162 calls)
     sum_band:ini :      0.28s CPU      0.29s WALL (     162 calls)
     sum_band:cal :      1.88s CPU      1.89s WALL (     162 calls)
     sum_band:bec :      0.02s CPU      0.02s WALL (     162 calls)
     addusdens    :      1.12s CPU      1.14s WALL (       9 calls)
     addusd:skk   :      0.01s CPU      0.01s WALL (      18 calls)
     addusd:dgemm :      0.38s CPU      0.39s WALL (      18 calls)
     addusd:qvan2 :      0.62s CPU      0.62s WALL (      18 calls)

     Called by *egterg:
     cdiaghg      :      1.23s CPU      1.24s WALL (     705 calls)
     cegterg:over :      2.90s CPU      2.92s WALL (     561 calls)
     cegterg:upda :      1.58s CPU      1.59s WALL (     561 calls)
     cegterg:last :      3.92s CPU      3.94s WALL (     382 calls)
     h_psi        :     35.09s CPU     35.47s WALL (     741 calls)
     s_psi        :      4.98s CPU      5.00s WALL (     741 calls)
     g_psi        :      0.10s CPU      0.10s WALL (     561 calls)

     Called by h_psi:
     h_psi:calbec :      5.84s CPU      5.86s WALL (     741 calls)
     vloc_psi     :     24.11s CPU     24.44s WALL (     741 calls)
     add_vuspsi   :      5.03s CPU      5.06s WALL (     741 calls)

     General routines
     calbec       :      8.78s CPU      8.82s WALL (     993 calls)
     fft          :      0.22s CPU      0.23s WALL (     125 calls)
     ffts         :      0.01s CPU      0.01s WALL (       9 calls)
     fftw         :     26.45s CPU     26.82s WALL (   31534 calls)

     Parallel routines
     fft_scatt_xy :      1.91s CPU      1.94s WALL (   31668 calls)
     fft_scatt_yz :      5.74s CPU      5.82s WALL (   31668 calls)

     PAW routines
     PAW_pot      :      1.44s CPU      1.46s WALL (       9 calls)
     PAW_symme    :      0.01s CPU      0.01s WALL (      18 calls)

     PWSCF        :   1m11.82s CPU   1m14.81s WALL


   This run was terminated on:  15: 5:34  14Jan2021            

=------------------------------------------------------------------------------=
   JOB DONE.
=------------------------------------------------------------------------------=
