
     Program PWSCF v.6.4.1 starts on 24Jan2021 at 18:53:22 

     This program is part of the open-source Quantum ESPRESSO suite
     for quantum simulation of materials; please cite
         "P. Giannozzi et al., J. Phys.:Condens. Matter 21 395502 (2009);
         "P. Giannozzi et al., J. Phys.:Condens. Matter 29 465901 (2017);
          URL http://www.quantum-espresso.org", 
     in publications or presentations arising from this work. More details at
     http://www.quantum-espresso.org/quote

     Parallel version (MPI & OpenMP), running on      48 processor cores
     Number of MPI processes:                24
     Threads/MPI process:                     2

     MPI processes distributed on     1 nodes
     R & G space division:  proc/nbgrp/npool/nimage =      24
     Waiting for input...
     Reading input from standard input

     Current dimensions of program PWSCF are:
     Max number of different atomic species (ntypx) = 10
     Max number of k-points (npk) =  40000
     Max angular momentum in pseudopotentials (lmaxx) =  3
               file Sn.rel-pbesol-dn-kjpaw_psl.1.0.0.UPF: wavefunction(s)  5S 5P 5P 4D 4D renormalized
               file I.rel-pbesol-n-kjpaw_psl.1.0.0.UPF: wavefunction(s)  5S renormalized

     Subspace diagonalization in iterative solution of the eigenvalue problem:
     one sub-group per band group will be used
     scalapack distributed-memory algorithm (size of sub-group:  3*  3 procs)

 
     Parallelization info
     --------------------
     sticks:   dense  smooth     PW     G-vecs:    dense   smooth      PW
     Min         158     106     29                 7375     4005     581
     Max         160     107     30                 7379     4008     584
     Sum        3809    2545    697               177029    96177   13949
 

     Title: 
     SnI2                                                                       


     bravais-lattice index     =            1
     lattice parameter (alat)  =      12.6355  a.u.
     unit-cell volume          =    2017.3401 (a.u.)^3
     number of atoms/cell      =            5
     number of atomic types    =            2
     number of electrons       =        42.00
     number of Kohn-Sham states=           42
     kinetic-energy cutoff     =      50.0000  Ry
     charge density cutoff     =     300.0000  Ry
     convergence threshold     =      1.0E-06
     mixing beta               =       0.3500
     number of iterations used =            8  plain     mixing
     Exchange-correlation      = SLA PW PSX PSC ( 1  4 10  8 0 0)
     Non magnetic calculation with spin-orbit


     celldm(1)=  12.635518  celldm(2)=   0.000000  celldm(3)=   0.000000
     celldm(4)=   0.000000  celldm(5)=   0.000000  celldm(6)=   0.000000

     crystal axes: (cart. coord. in units of alat)
               a(1) = (   1.000000   0.000000   0.000000 )  
               a(2) = (   0.000000   1.000000   0.000000 )  
               a(3) = (   0.000000   0.000000   1.000000 )  

     reciprocal axes: (cart. coord. in units 2 pi/alat)
               b(1) = (  1.000000  0.000000  0.000000 )  
               b(2) = (  0.000000  1.000000  0.000000 )  
               b(3) = (  0.000000  0.000000  1.000000 )  


     PseudoPot. # 1 for Sn read from file:
     /marconi_scratch/userexternal/cmalosso/degironcoli/pseudo/Sn.rel-pbesol-dn-kjpaw_psl.1.0.0.UPF
     MD5 check sum: e69eff64f15ae39ad43ef58bacbfdf88
     Pseudo is Projector augmented-wave + core cor, Zval = 14.0
     Generated using "atomic" code by A. Dal Corso v.6.3
     Shape of augmentation charge: PSQ
     Using radial grid of 1243 points, 10 beta functions with: 
                l(1) =   0
                l(2) =   0
                l(3) =   1
                l(4) =   1
                l(5) =   1
                l(6) =   1
                l(7) =   2
                l(8) =   2
                l(9) =   2
               l(10) =   2
     Q(r) pseudized with 0 coefficients 


     PseudoPot. # 2 for I  read from file:
     /marconi_scratch/userexternal/cmalosso/degironcoli/pseudo/I.rel-pbesol-n-kjpaw_psl.1.0.0.UPF
     MD5 check sum: 4478c427bd443f303eca1937a163b991
     Pseudo is Projector augmented-wave + core cor, Zval =  7.0
     Generated using "atomic" code by A. Dal Corso v.6.3
     Shape of augmentation charge: PSQ
     Using radial grid of 1247 points, 10 beta functions with: 
                l(1) =   0
                l(2) =   0
                l(3) =   1
                l(4) =   1
                l(5) =   1
                l(6) =   1
                l(7) =   2
                l(8) =   2
                l(9) =   2
               l(10) =   2
     Q(r) pseudized with 0 coefficients 


     atomic species   valence    mass     pseudopotential
        Sn            14.00   118.70000     Sn( 1.00)
        I              7.00   126.90000     I ( 1.00)

     24 Sym. Ops. (no inversion) found


                                    s                        frac. trans.

      isym =  1     identity                                     

 cryst.   s( 1) = (     1          0          0      )
                  (     0          1          0      )
                  (     0          0          1      )

 cart.    s( 1) = (  1.0000000  0.0000000  0.0000000 )
                  (  0.0000000  1.0000000  0.0000000 )
                  (  0.0000000  0.0000000  1.0000000 )


      isym =  2     180 deg rotation - cart. axis [0,0,1]        

 cryst.   s( 2) = (    -1          0          0      )
                  (     0         -1          0      )
                  (     0          0          1      )

 cart.    s( 2) = ( -1.0000000  0.0000000  0.0000000 )
                  (  0.0000000 -1.0000000  0.0000000 )
                  (  0.0000000  0.0000000  1.0000000 )


      isym =  3     180 deg rotation - cart. axis [0,1,0]        

 cryst.   s( 3) = (    -1          0          0      )
                  (     0          1          0      )
                  (     0          0         -1      )

 cart.    s( 3) = ( -1.0000000  0.0000000  0.0000000 )
                  (  0.0000000  1.0000000  0.0000000 )
                  (  0.0000000  0.0000000 -1.0000000 )


      isym =  4     180 deg rotation - cart. axis [1,0,0]        

 cryst.   s( 4) = (     1          0          0      )
                  (     0         -1          0      )
                  (     0          0         -1      )

 cart.    s( 4) = (  1.0000000  0.0000000  0.0000000 )
                  (  0.0000000 -1.0000000  0.0000000 )
                  (  0.0000000  0.0000000 -1.0000000 )


      isym =  5     120 deg rotation - cart. axis [-1,-1,-1]     

 cryst.   s( 5) = (     0          0          1      )
                  (     1          0          0      )
                  (     0          1          0      )

 cart.    s( 5) = (  0.0000000  1.0000000  0.0000000 )
                  (  0.0000000  0.0000000  1.0000000 )
                  (  1.0000000  0.0000000  0.0000000 )


      isym =  6     120 deg rotation - cart. axis [-1,1,1]       

 cryst.   s( 6) = (     0          0         -1      )
                  (    -1          0          0      )
                  (     0          1          0      )

 cart.    s( 6) = (  0.0000000 -1.0000000  0.0000000 )
                  (  0.0000000  0.0000000  1.0000000 )
                  ( -1.0000000  0.0000000  0.0000000 )


      isym =  7     120 deg rotation - cart. axis [1,1,-1]       

 cryst.   s( 7) = (     0          0         -1      )
                  (     1          0          0      )
                  (     0         -1          0      )

 cart.    s( 7) = (  0.0000000  1.0000000  0.0000000 )
                  (  0.0000000  0.0000000 -1.0000000 )
                  ( -1.0000000  0.0000000  0.0000000 )


      isym =  8     120 deg rotation - cart. axis [1,-1,1]       

 cryst.   s( 8) = (     0          0          1      )
                  (    -1          0          0      )
                  (     0         -1          0      )

 cart.    s( 8) = (  0.0000000 -1.0000000  0.0000000 )
                  (  0.0000000  0.0000000 -1.0000000 )
                  (  1.0000000  0.0000000  0.0000000 )


      isym =  9     120 deg rotation - cart. axis [1,1,1]        

 cryst.   s( 9) = (     0          1          0      )
                  (     0          0          1      )
                  (     1          0          0      )

 cart.    s( 9) = (  0.0000000  0.0000000  1.0000000 )
                  (  1.0000000  0.0000000  0.0000000 )
                  (  0.0000000  1.0000000  0.0000000 )


      isym = 10     120 deg rotation - cart. axis [-1,1,-1]      

 cryst.   s(10) = (     0         -1          0      )
                  (     0          0         -1      )
                  (     1          0          0      )

 cart.    s(10) = (  0.0000000  0.0000000  1.0000000 )
                  ( -1.0000000  0.0000000  0.0000000 )
                  (  0.0000000 -1.0000000  0.0000000 )


      isym = 11     120 deg rotation - cart. axis [1,-1,-1]      

 cryst.   s(11) = (     0         -1          0      )
                  (     0          0          1      )
                  (    -1          0          0      )

 cart.    s(11) = (  0.0000000  0.0000000 -1.0000000 )
                  ( -1.0000000  0.0000000  0.0000000 )
                  (  0.0000000  1.0000000  0.0000000 )


      isym = 12     120 deg rotation - cart. axis [-1,-1,1]      

 cryst.   s(12) = (     0          1          0      )
                  (     0          0         -1      )
                  (    -1          0          0      )

 cart.    s(12) = (  0.0000000  0.0000000 -1.0000000 )
                  (  1.0000000  0.0000000  0.0000000 )
                  (  0.0000000 -1.0000000  0.0000000 )


      isym = 13     inv. 180 deg rotation - cart. axis [1,1,0]   

 cryst.   s(13) = (     0         -1          0      )
                  (    -1          0          0      )
                  (     0          0          1      )

 cart.    s(13) = (  0.0000000 -1.0000000  0.0000000 )
                  ( -1.0000000  0.0000000  0.0000000 )
                  (  0.0000000  0.0000000  1.0000000 )


      isym = 14     inv. 180 deg rotation - cart. axis [1,-1,0]  

 cryst.   s(14) = (     0          1          0      )
                  (     1          0          0      )
                  (     0          0          1      )

 cart.    s(14) = (  0.0000000  1.0000000  0.0000000 )
                  (  1.0000000  0.0000000  0.0000000 )
                  (  0.0000000  0.0000000  1.0000000 )


      isym = 15     inv.  90 deg rotation - cart. axis [0,0,-1]  

 cryst.   s(15) = (     0          1          0      )
                  (    -1          0          0      )
                  (     0          0         -1      )

 cart.    s(15) = (  0.0000000 -1.0000000  0.0000000 )
                  (  1.0000000  0.0000000  0.0000000 )
                  (  0.0000000  0.0000000 -1.0000000 )


      isym = 16     inv.  90 deg rotation - cart. axis [0,0,1]   

 cryst.   s(16) = (     0         -1          0      )
                  (     1          0          0      )
                  (     0          0         -1      )

 cart.    s(16) = (  0.0000000  1.0000000  0.0000000 )
                  ( -1.0000000  0.0000000  0.0000000 )
                  (  0.0000000  0.0000000 -1.0000000 )


      isym = 17     inv. 180 deg rotation - cart. axis [1,0,1]   

 cryst.   s(17) = (     0          0         -1      )
                  (     0          1          0      )
                  (    -1          0          0      )

 cart.    s(17) = (  0.0000000  0.0000000 -1.0000000 )
                  (  0.0000000  1.0000000  0.0000000 )
                  ( -1.0000000  0.0000000  0.0000000 )


      isym = 18     inv. 180 deg rotation - cart. axis [-1,0,1]  

 cryst.   s(18) = (     0          0          1      )
                  (     0          1          0      )
                  (     1          0          0      )

 cart.    s(18) = (  0.0000000  0.0000000  1.0000000 )
                  (  0.0000000  1.0000000  0.0000000 )
                  (  1.0000000  0.0000000  0.0000000 )


      isym = 19     inv.  90 deg rotation - cart. axis [0,1,0]   

 cryst.   s(19) = (     0          0          1      )
                  (     0         -1          0      )
                  (    -1          0          0      )

 cart.    s(19) = (  0.0000000  0.0000000 -1.0000000 )
                  (  0.0000000 -1.0000000  0.0000000 )
                  (  1.0000000  0.0000000  0.0000000 )


      isym = 20     inv.  90 deg rotation - cart. axis [0,-1,0]  

 cryst.   s(20) = (     0          0         -1      )
                  (     0         -1          0      )
                  (     1          0          0      )

 cart.    s(20) = (  0.0000000  0.0000000  1.0000000 )
                  (  0.0000000 -1.0000000  0.0000000 )
                  ( -1.0000000  0.0000000  0.0000000 )


      isym = 21     inv. 180 deg rotation - cart. axis [0,1,1]   

 cryst.   s(21) = (     1          0          0      )
                  (     0          0         -1      )
                  (     0         -1          0      )

 cart.    s(21) = (  1.0000000  0.0000000  0.0000000 )
                  (  0.0000000  0.0000000 -1.0000000 )
                  (  0.0000000 -1.0000000  0.0000000 )


      isym = 22     inv. 180 deg rotation - cart. axis [0,1,-1]  

 cryst.   s(22) = (     1          0          0      )
                  (     0          0          1      )
                  (     0          1          0      )

 cart.    s(22) = (  1.0000000  0.0000000  0.0000000 )
                  (  0.0000000  0.0000000  1.0000000 )
                  (  0.0000000  1.0000000  0.0000000 )


      isym = 23     inv.  90 deg rotation - cart. axis [-1,0,0]  

 cryst.   s(23) = (    -1          0          0      )
                  (     0          0          1      )
                  (     0         -1          0      )

 cart.    s(23) = ( -1.0000000  0.0000000  0.0000000 )
                  (  0.0000000  0.0000000 -1.0000000 )
                  (  0.0000000  1.0000000  0.0000000 )


      isym = 24     inv.  90 deg rotation - cart. axis [1,0,0]   

 cryst.   s(24) = (    -1          0          0      )
                  (     0          0         -1      )
                  (     0          1          0      )

 cart.    s(24) = ( -1.0000000  0.0000000  0.0000000 )
                  (  0.0000000  0.0000000  1.0000000 )
                  (  0.0000000 -1.0000000  0.0000000 )


     double point group T_d (-43m) 
     there are  8 classes and  3 irreducible representations
     the character table:

       E     -E    8C3   -8C3   3C2  6S4   -6S4  6s_d 
                               -3C2              -6s_d
G_6    2.00 -2.00  1.00 -1.00  0.00  1.41 -1.41  0.00
G_7    2.00 -2.00  1.00 -1.00  0.00 -1.41  1.41  0.00
G_8    4.00 -4.00 -1.00  1.00  0.00  0.00  0.00  0.00

     the symmetry operations in each class and the name of the first element:

     E             1
          identity                                               
     -E           -1
          identity E                                             
     8C3           5    7    8    6   12    9   10   11
          120 deg rotation - cart. axis [-1,-1,-1]               
     -8C3         -5   -7   -8   -6  -12   -9  -10  -11
          120 deg rotation - cart. axis [-1,-1,-1] E             
      3C2 -3C2     2   -2    3   -3    4   -4
          180 deg rotation - cart. axis [0,0,1]                  
     6S4          15   16   20   19   23   24
          inv.  90 deg rotation - cart. axis [0,0,-1]            
     -6S4        -15  -16  -20  -19  -23  -24
          inv.  90 deg rotation - cart. axis [0,0,-1] E          
     6s_d -6s_d   13  -13  -14   14   17  -17  -18   18   21  -21   22  -22
          inv. 180 deg rotation - cart. axis [1,1,0]             

   Cartesian axes

     site n.     atom                  positions (alat units)
         1           Sn  tau(   1) = (   0.0000000   0.0000000   0.0000000  )
         2           I   tau(   2) = (   0.2339030   0.7660970   0.7660970  )
         3           I   tau(   3) = (   0.7660970   0.2339030   0.7660970  )
         4           I   tau(   4) = (   0.7660970   0.7660970   0.2339030  )
         5           I   tau(   5) = (   0.2339030   0.2339030   0.2339030  )

   Crystallographic axes

     site n.     atom                  positions (cryst. coord.)
         1           Sn  tau(   1) = (  0.0000000  0.0000000  0.0000000  )
         2           I   tau(   2) = (  0.2339030  0.7660970  0.7660970  )
         3           I   tau(   3) = (  0.7660970  0.2339030  0.7660970  )
         4           I   tau(   4) = (  0.7660970  0.7660970  0.2339030  )
         5           I   tau(   5) = (  0.2339030  0.2339030  0.2339030  )

     number of k points=    10
                       cart. coord. in units 2pi/alat
        k(    1) = (   0.0833333   0.0833333   0.0833333), wk =   0.0370370
        k(    2) = (   0.0833333   0.0833333   0.2500000), wk =   0.1111111
        k(    3) = (   0.0833333   0.0833333   0.4166667), wk =   0.1111111
        k(    4) = (   0.0833333   0.2500000   0.2500000), wk =   0.1111111
        k(    5) = (   0.0833333   0.2500000   0.4166667), wk =   0.2222222
        k(    6) = (   0.0833333   0.4166667   0.4166667), wk =   0.1111111
        k(    7) = (   0.2500000   0.2500000   0.2500000), wk =   0.0370370
        k(    8) = (   0.2500000   0.2500000   0.4166667), wk =   0.1111111
        k(    9) = (   0.2500000   0.4166667   0.4166667), wk =   0.1111111
        k(   10) = (   0.4166667   0.4166667   0.4166667), wk =   0.0370370

                       cryst. coord.
        k(    1) = (   0.0833333   0.0833333   0.0833333), wk =   0.0370370
        k(    2) = (   0.0833333   0.0833333   0.2500000), wk =   0.1111111
        k(    3) = (   0.0833333   0.0833333   0.4166667), wk =   0.1111111
        k(    4) = (   0.0833333   0.2500000   0.2500000), wk =   0.1111111
        k(    5) = (   0.0833333   0.2500000   0.4166667), wk =   0.2222222
        k(    6) = (   0.0833333   0.4166667   0.4166667), wk =   0.1111111
        k(    7) = (   0.2500000   0.2500000   0.2500000), wk =   0.0370370
        k(    8) = (   0.2500000   0.2500000   0.4166667), wk =   0.1111111
        k(    9) = (   0.2500000   0.4166667   0.4166667), wk =   0.1111111
        k(   10) = (   0.4166667   0.4166667   0.4166667), wk =   0.0370370

     Dense  grid:   177029 G-vectors     FFT dimensions: (  72,  72,  72)

     Smooth grid:    96177 G-vectors     FFT dimensions: (  60,  60,  60)

     Dynamical RAM for                 wfc:       0.64 MB

     Dynamical RAM for     wfc (w. buffer):       7.06 MB

     Dynamical RAM for           str. fact:       0.23 MB

     Dynamical RAM for           local pot:       0.00 MB

     Dynamical RAM for          nlocal pot:       1.30 MB

     Dynamical RAM for                qrad:      14.63 MB

     Dynamical RAM for          rho,v,vnew:       2.77 MB

     Dynamical RAM for               rhoin:       0.92 MB

     Dynamical RAM for            rho*nmix:       7.20 MB

     Dynamical RAM for           G-vectors:       0.45 MB

     Dynamical RAM for          h,s,v(r/c):       0.14 MB

     Dynamical RAM for          <psi|beta>:       0.22 MB

     Dynamical RAM for                 psi:       2.57 MB

     Dynamical RAM for                hpsi:       2.57 MB

     Dynamical RAM for                spsi:       2.57 MB

     Dynamical RAM for      wfcinit/wfcrot:       1.20 MB

     Dynamical RAM for           addusdens:      69.10 MB

     Dynamical RAM for          addusforce:      70.24 MB

     Dynamical RAM for         addusstress:      70.68 MB

     Estimated static dynamical RAM per process >      35.86 MB

     Estimated max dynamical RAM per process >     106.54 MB

     Estimated total dynamical RAM >       2.50 GB

     Initial potential from superposition of free atoms

     starting charge   41.99871, renormalised to   42.00000
     Starting wfcs are   50 randomized atomic wfcs
     Checking if some PAW data can be deallocated... 
       PAW data deallocated on   19 nodes for type:  1
       PAW data deallocated on    5 nodes for type:  2

     total cpu time spent up to now is        9.3 secs

     Self-consistent Calculation

     iteration #  1     ecut=    50.00 Ry     beta= 0.35
     Davidson diagonalization with overlap
     ethr =  1.00E-02,  avg # of iterations =  1.1

     Threshold (ethr) on eigenvalues was too large:
     Diagonalizing with lowered threshold

     Davidson diagonalization with overlap
     ethr =  3.84E-04,  avg # of iterations =  2.0

     total cpu time spent up to now is       21.3 secs

     total energy              =   -1933.71999258 Ry
     Harris-Foulkes estimate   =   -1933.77641699 Ry
     estimated scf accuracy    <       0.12687073 Ry

     iteration #  2     ecut=    50.00 Ry     beta= 0.35
     Davidson diagonalization with overlap
     ethr =  3.02E-04,  avg # of iterations =  2.0

     total cpu time spent up to now is       28.7 secs

     total energy              =   -1933.73568421 Ry
     Harris-Foulkes estimate   =   -1933.74222287 Ry
     estimated scf accuracy    <       0.02254858 Ry

     iteration #  3     ecut=    50.00 Ry     beta= 0.35
     Davidson diagonalization with overlap
     ethr =  5.37E-05,  avg # of iterations =  2.0

     total cpu time spent up to now is       36.4 secs

     total energy              =   -1933.73575092 Ry
     Harris-Foulkes estimate   =   -1933.73733355 Ry
     estimated scf accuracy    <       0.00535304 Ry

     iteration #  4     ecut=    50.00 Ry     beta= 0.35
     Davidson diagonalization with overlap
     ethr =  1.27E-05,  avg # of iterations =  2.7

     total cpu time spent up to now is       44.9 secs

     total energy              =   -1933.73609101 Ry
     Harris-Foulkes estimate   =   -1933.73640372 Ry
     estimated scf accuracy    <       0.00072172 Ry

     iteration #  5     ecut=    50.00 Ry     beta= 0.35
     Davidson diagonalization with overlap
     ethr =  1.72E-06,  avg # of iterations =  3.0

     total cpu time spent up to now is       54.0 secs

     total energy              =   -1933.73622234 Ry
     Harris-Foulkes estimate   =   -1933.73642494 Ry
     estimated scf accuracy    <       0.00047889 Ry

     iteration #  6     ecut=    50.00 Ry     beta= 0.35
     Davidson diagonalization with overlap
     ethr =  1.14E-06,  avg # of iterations =  2.0

     total cpu time spent up to now is       61.7 secs

     total energy              =   -1933.73630199 Ry
     Harris-Foulkes estimate   =   -1933.73630278 Ry
     estimated scf accuracy    <       0.00000645 Ry

     iteration #  7     ecut=    50.00 Ry     beta= 0.35
     Davidson diagonalization with overlap
     ethr =  1.54E-08,  avg # of iterations =  4.0

     total cpu time spent up to now is       72.4 secs

     WARNING: integrated charge=    42.00049341, expected=    42.00000000

     total energy              =   -1933.74072567 Ry
     Harris-Foulkes estimate   =   -1933.73630667 Ry
     estimated scf accuracy    <       0.00021754 Ry

     iteration #  8     ecut=    50.00 Ry     beta= 0.35
     Davidson diagonalization with overlap
     ethr =  1.54E-08,  avg # of iterations =  3.8

     total cpu time spent up to now is       81.8 secs

     WARNING: integrated charge=    42.00046039, expected=    42.00000000

     total energy              =   -1933.73587818 Ry
     Harris-Foulkes estimate   =   -1933.73538228 Ry
     estimated scf accuracy    <       0.00000431 Ry

     iteration #  9     ecut=    50.00 Ry     beta= 0.35
     Davidson diagonalization with overlap
     ethr =  1.03E-08,  avg # of iterations =  2.0

     total cpu time spent up to now is       89.1 secs

     WARNING: integrated charge=    42.00032596, expected=    42.00000000

     total energy              =   -1933.73611573 Ry
     Harris-Foulkes estimate   =   -1933.73587976 Ry
     estimated scf accuracy    <       0.00000161 Ry

     iteration # 10     ecut=    50.00 Ry     beta= 0.35
     Davidson diagonalization with overlap
     ethr =  3.83E-09,  avg # of iterations =  3.0

     total cpu time spent up to now is       98.4 secs

     End of self-consistent calculation

          k = 0.0833 0.0833 0.0833 ( 12032 PWs)   bands (ev):

   -21.7961 -21.7961 -21.7961 -21.7961 -20.7843 -20.7843 -20.7467 -20.7467
   -20.7467 -20.7467 -11.9210 -11.9210 -11.2117 -11.2117 -11.2036 -11.2036
   -11.2017 -11.2016  -6.3620  -6.3620  -2.6961  -2.6961  -2.6893  -2.6836
    -2.5067  -2.5067  -1.4170  -1.4170  -1.3829  -1.3489  -1.0403  -1.0403
    -0.9346  -0.9346  -0.4004  -0.3834  -0.3417  -0.3417  -0.0955  -0.0955
    -0.0167   0.0028

     occupation numbers 
     1.0000   1.0000   1.0000   1.0000   1.0000   1.0000   1.0000   1.0000
     1.0000   1.0000   1.0000   1.0000   1.0000   1.0000   1.0000   1.0000
     1.0000   1.0000   1.0000   1.0000   1.0000   1.0000   1.0000   1.0000
     1.0000   1.0000   1.0000   1.0000   1.0000   1.0000   1.0000   1.0000
     1.0000   1.0000   1.0000   1.0000   1.0000   1.0000   1.0000   1.0000
     1.0000   1.0000

          k = 0.0833 0.0833 0.2500 ( 12024 PWs)   bands (ev):

   -21.7961 -21.7961 -21.7961 -21.7961 -20.7843 -20.7843 -20.7467 -20.7467
   -20.7467 -20.7467 -11.8987 -11.8987 -11.2378 -11.2365 -11.2078 -11.2063
   -11.2017 -11.2015  -6.3400  -6.3394  -2.7550  -2.7317  -2.6916  -2.6887
    -2.5476  -2.5132  -1.4285  -1.4133  -1.3047  -1.2624  -1.0818  -1.0237
    -0.9505  -0.9060  -0.4729  -0.4486  -0.3469  -0.3288  -0.2303  -0.2117
    -0.0531  -0.0287

     occupation numbers 
     1.0000   1.0000   1.0000   1.0000   1.0000   1.0000   1.0000   1.0000
     1.0000   1.0000   1.0000   1.0000   1.0000   1.0000   1.0000   1.0000
     1.0000   1.0000   1.0000   1.0000   1.0000   1.0000   1.0000   1.0000
     1.0000   1.0000   1.0000   1.0000   1.0000   1.0000   1.0000   1.0000
     1.0000   1.0000   1.0000   1.0000   1.0000   1.0000   1.0000   1.0000
     1.0000   1.0000

          k = 0.0833 0.0833 0.4167 ( 12050 PWs)   bands (ev):

   -21.7961 -21.7961 -21.7961 -21.7961 -20.7843 -20.7843 -20.7468 -20.7468
   -20.7467 -20.7467 -11.8743 -11.8743 -11.2699 -11.2686 -11.2074 -11.2059
   -11.2010 -11.2008  -6.3177  -6.3165  -2.8118  -2.7717  -2.6992  -2.6822
    -2.5879  -2.5213  -1.4322  -1.4089  -1.1917  -1.1774  -1.0672  -1.0162
    -0.9890  -0.9157  -0.5492  -0.5268  -0.4547  -0.3574  -0.2450  -0.2102
    -0.1299  -0.1025

     occupation numbers 
     1.0000   1.0000   1.0000   1.0000   1.0000   1.0000   1.0000   1.0000
     1.0000   1.0000   1.0000   1.0000   1.0000   1.0000   1.0000   1.0000
     1.0000   1.0000   1.0000   1.0000   1.0000   1.0000   1.0000   1.0000
     1.0000   1.0000   1.0000   1.0000   1.0000   1.0000   1.0000   1.0000
     1.0000   1.0000   1.0000   1.0000   1.0000   1.0000   1.0000   1.0000
     1.0000   1.0000

          k = 0.0833 0.2500 0.2500 ( 12047 PWs)   bands (ev):

   -21.7961 -21.7961 -21.7961 -21.7961 -20.7843 -20.7843 -20.7468 -20.7467
   -20.7467 -20.7467 -11.8787 -11.8787 -11.2402 -11.2373 -11.2262 -11.2254
   -11.2072 -11.2049  -6.3280  -6.3269  -2.8030  -2.7637  -2.7163  -2.6985
    -2.5680  -2.5151  -1.5012  -1.4768  -1.2177  -1.1476  -1.0643  -1.0059
    -0.9094  -0.8702  -0.5306  -0.4869  -0.3950  -0.3557  -0.2576  -0.2395
    -0.0594  -0.0178

     occupation numbers 
     1.0000   1.0000   1.0000   1.0000   1.0000   1.0000   1.0000   1.0000
     1.0000   1.0000   1.0000   1.0000   1.0000   1.0000   1.0000   1.0000
     1.0000   1.0000   1.0000   1.0000   1.0000   1.0000   1.0000   1.0000
     1.0000   1.0000   1.0000   1.0000   1.0000   1.0000   1.0000   1.0000
     1.0000   1.0000   1.0000   1.0000   1.0000   1.0000   1.0000   1.0000
     1.0000   1.0000

          k = 0.0833 0.2500 0.4167 ( 12048 PWs)   bands (ev):

   -21.7961 -21.7961 -21.7961 -21.7961 -20.7843 -20.7843 -20.7467 -20.7467
   -20.7467 -20.7467 -11.8571 -11.8570 -11.2629 -11.2603 -11.2270 -11.2252
   -11.2104 -11.2082  -6.3159  -6.3143  -2.8541  -2.8066  -2.7259  -2.6984
    -2.5930  -2.5185  -1.5377  -1.5266  -1.1270  -1.0803  -1.0245  -1.0035
    -0.8500  -0.8361  -0.5748  -0.5609  -0.5035  -0.3923  -0.2227  -0.1846
    -0.1138  -0.0534

     occupation numbers 
     1.0000   1.0000   1.0000   1.0000   1.0000   1.0000   1.0000   1.0000
     1.0000   1.0000   1.0000   1.0000   1.0000   1.0000   1.0000   1.0000
     1.0000   1.0000   1.0000   1.0000   1.0000   1.0000   1.0000   1.0000
     1.0000   1.0000   1.0000   1.0000   1.0000   1.0000   1.0000   1.0000
     1.0000   1.0000   1.0000   1.0000   1.0000   1.0000   1.0000   1.0000
     1.0000   1.0000

          k = 0.0833 0.4167 0.4167 ( 12067 PWs)   bands (ev):

   -21.7961 -21.7961 -21.7961 -21.7961 -20.7844 -20.7844 -20.7467 -20.7467
   -20.7467 -20.7467 -11.8385 -11.8385 -11.2549 -11.2520 -11.2467 -11.2460
   -11.2199 -11.2175  -6.3136  -6.3125  -2.8876  -2.8644  -2.7323  -2.7154
    -2.5758  -2.5376  -1.6012  -1.6005  -1.0813  -1.0763  -0.9783  -0.9750
    -0.7315  -0.6941  -0.6005  -0.5853  -0.5229  -0.5135  -0.1884  -0.1511
    -0.0817  -0.0306

     occupation numbers 
     1.0000   1.0000   1.0000   1.0000   1.0000   1.0000   1.0000   1.0000
     1.0000   1.0000   1.0000   1.0000   1.0000   1.0000   1.0000   1.0000
     1.0000   1.0000   1.0000   1.0000   1.0000   1.0000   1.0000   1.0000
     1.0000   1.0000   1.0000   1.0000   1.0000   1.0000   1.0000   1.0000
     1.0000   1.0000   1.0000   1.0000   1.0000   1.0000   1.0000   1.0000
     1.0000   1.0000

          k = 0.2500 0.2500 0.2500 ( 12043 PWs)   bands (ev):

   -21.7961 -21.7961 -21.7961 -21.7961 -20.7844 -20.7844 -20.7467 -20.7467
   -20.7467 -20.7467 -11.8611 -11.8611 -11.2416 -11.2416 -11.2270 -11.2270
   -11.2226 -11.2224  -6.3258  -6.3258  -2.7947  -2.7947  -2.7552  -2.7492
    -2.5565  -2.5565  -1.5741  -1.5741  -1.0990  -1.0276  -0.9772  -0.9772
    -0.8659  -0.8659  -0.5507  -0.5192  -0.4306  -0.4306  -0.2018  -0.2018
    -0.0420   0.0020

     occupation numbers 
     1.0000   1.0000   1.0000   1.0000   1.0000   1.0000   1.0000   1.0000
     1.0000   1.0000   1.0000   1.0000   1.0000   1.0000   1.0000   1.0000
     1.0000   1.0000   1.0000   1.0000   1.0000   1.0000   1.0000   1.0000
     1.0000   1.0000   1.0000   1.0000   1.0000   1.0000   1.0000   1.0000
     1.0000   1.0000   1.0000   1.0000   1.0000   1.0000   1.0000   1.0000
     1.0000   1.0000

          k = 0.2500 0.2500 0.4167 ( 12031 PWs)   bands (ev):

   -21.7961 -21.7961 -21.7961 -21.7961 -20.7844 -20.7844 -20.7467 -20.7467
   -20.7467 -20.7467 -11.8423 -11.8423 -11.2587 -11.2551 -11.2345 -11.2304
   -11.2238 -11.2231  -6.3247  -6.3236  -2.8465  -2.8164  -2.7717  -2.7620
    -2.5958  -2.5497  -1.6272  -1.6225  -1.0181  -0.9445  -0.9377  -0.8986
    -0.8408  -0.8264  -0.5656  -0.5634  -0.5051  -0.4447  -0.1452  -0.1364
    -0.0712  -0.0164

     occupation numbers 
     1.0000   1.0000   1.0000   1.0000   1.0000   1.0000   1.0000   1.0000
     1.0000   1.0000   1.0000   1.0000   1.0000   1.0000   1.0000   1.0000
     1.0000   1.0000   1.0000   1.0000   1.0000   1.0000   1.0000   1.0000
     1.0000   1.0000   1.0000   1.0000   1.0000   1.0000   1.0000   1.0000
     1.0000   1.0000   1.0000   1.0000   1.0000   1.0000   1.0000   1.0000
     1.0000   1.0000

          k = 0.2500 0.4167 0.4167 ( 12031 PWs)   bands (ev):

   -21.7961 -21.7961 -21.7961 -21.7961 -20.7844 -20.7844 -20.7467 -20.7467
   -20.7467 -20.7467 -11.8266 -11.8266 -11.2539 -11.2516 -11.2457 -11.2450
   -11.2322 -11.2303  -6.3333  -6.3328  -2.8662  -2.8528  -2.7968  -2.7908
    -2.5962  -2.5791  -1.6796  -1.6745  -0.9430  -0.9215  -0.8729  -0.8530
    -0.7791  -0.7039  -0.5525  -0.5475  -0.5140  -0.5126  -0.0899  -0.0722
    -0.0367   0.0077

     occupation numbers 
     1.0000   1.0000   1.0000   1.0000   1.0000   1.0000   1.0000   1.0000
     1.0000   1.0000   1.0000   1.0000   1.0000   1.0000   1.0000   1.0000
     1.0000   1.0000   1.0000   1.0000   1.0000   1.0000   1.0000   1.0000
     1.0000   1.0000   1.0000   1.0000   1.0000   1.0000   1.0000   1.0000
     1.0000   1.0000   1.0000   1.0000   1.0000   1.0000   1.0000   1.0000
     1.0000   1.0000

          k = 0.4167 0.4167 0.4167 ( 12034 PWs)   bands (ev):

   -21.7961 -21.7961 -21.7961 -21.7961 -20.7844 -20.7844 -20.7467 -20.7467
   -20.7467 -20.7467 -11.8142 -11.8142 -11.2530 -11.2530 -11.2451 -11.2451
   -11.2428 -11.2427  -6.3525  -6.3525  -2.8585  -2.8585  -2.8525  -2.8515
    -2.6132  -2.6132  -1.7113  -1.7113  -0.8277  -0.8277  -0.8001  -0.7879
    -0.7053  -0.7053  -0.5293  -0.5113  -0.5113  -0.5085   0.0083   0.0083
     0.0115   0.0455

     occupation numbers 
     1.0000   1.0000   1.0000   1.0000   1.0000   1.0000   1.0000   1.0000
     1.0000   1.0000   1.0000   1.0000   1.0000   1.0000   1.0000   1.0000
     1.0000   1.0000   1.0000   1.0000   1.0000   1.0000   1.0000   1.0000
     1.0000   1.0000   1.0000   1.0000   1.0000   1.0000   1.0000   1.0000
     1.0000   1.0000   1.0000   1.0000   1.0000   1.0000   1.0000   1.0000
     1.0000   1.0000

     highest occupied level (ev):     0.0455

!    total energy              =   -1933.73630432 Ry
     Harris-Foulkes estimate   =   -1933.73611646 Ry
     estimated scf accuracy    <       0.00000003 Ry

     total all-electron energy =    -69281.853569 Ry

     The total energy is the sum of the following terms:

     one-electron contribution =    -155.32497653 Ry
     hartree contribution      =      94.81649288 Ry
     xc contribution           =    -110.25194141 Ry
     ewald contribution        =    -119.43299744 Ry
     one-center paw contrib.   =   -1643.54288182 Ry
      -> PAW hartree energy AE =     109.73964225 Ry
      -> PAW hartree energy PS =    -108.98884217 Ry
      -> PAW xc energy AE      =    -324.39686628 Ry
      -> PAW xc energy PS      =      46.76535438 Ry
      -> total E_H with PAW    =      95.56729296 Ry
      -> total E_XC with PAW   =    -387.88345331 Ry

     convergence has been achieved in  10 iterations

     Forces acting on atoms (cartesian axes, Ry/au):

     atom    1 type  1   force =     0.00000000    0.00000000    0.00000000
     atom    2 type  2   force =    -0.00369348    0.00369348    0.00369348
     atom    3 type  2   force =     0.00369348   -0.00369348    0.00369348
     atom    4 type  2   force =     0.00369348    0.00369348   -0.00369348
     atom    5 type  2   force =    -0.00369348   -0.00369348   -0.00369348
     The non-local contrib.  to forces
     atom    1 type  1   force =     0.00000000   -0.00000000    0.00000000
     atom    2 type  2   force =    -0.08597305    0.08597305    0.08597305
     atom    3 type  2   force =     0.08597305   -0.08597305    0.08597305
     atom    4 type  2   force =     0.08597305    0.08597305   -0.08597305
     atom    5 type  2   force =    -0.08597305   -0.08597305   -0.08597305
     The ionic contribution  to forces
     atom    1 type  1   force =     0.00000000    0.00000000   -0.00000000
     atom    2 type  2   force =     3.79412126   -3.79412126   -3.79412126
     atom    3 type  2   force =    -3.79412126    3.79412126   -3.79412126
     atom    4 type  2   force =    -3.79412126   -3.79412126    3.79412126
     atom    5 type  2   force =     3.79412126    3.79412126    3.79412126
     The local contribution  to forces
     atom    1 type  1   force =    -0.00000000   -0.00000000    0.00000000
     atom    2 type  2   force =    -3.71929638    3.71929638    3.71929638
     atom    3 type  2   force =     3.71929638   -3.71929638    3.71929638
     atom    4 type  2   force =     3.71929638    3.71929638   -3.71929638
     atom    5 type  2   force =    -3.71929638   -3.71929638   -3.71929638
     The core correction contribution to forces
     atom    1 type  1   force =    -0.00000000   -0.00000000   -0.00000000
     atom    2 type  2   force =     0.00753020   -0.00753020   -0.00753020
     atom    3 type  2   force =    -0.00753020    0.00753020   -0.00753020
     atom    4 type  2   force =    -0.00753020   -0.00753020    0.00753020
     atom    5 type  2   force =     0.00753020    0.00753020    0.00753020
     The Hubbard contrib.    to forces
     atom    1 type  1   force =     0.00000000    0.00000000    0.00000000
     atom    2 type  2   force =     0.00000000    0.00000000    0.00000000
     atom    3 type  2   force =     0.00000000    0.00000000    0.00000000
     atom    4 type  2   force =     0.00000000    0.00000000    0.00000000
     atom    5 type  2   force =     0.00000000    0.00000000    0.00000000
     The SCF correction term to forces
     atom    1 type  1   force =     0.00000000   -0.00000000    0.00000000
     atom    2 type  2   force =    -0.00007551    0.00007551    0.00007551
     atom    3 type  2   force =     0.00007551   -0.00007551    0.00007551
     atom    4 type  2   force =     0.00007551    0.00007551   -0.00007551
     atom    5 type  2   force =    -0.00007551   -0.00007551   -0.00007551

     Total force =     0.012795     Total SCF correction =     0.000262


     Computing stress (Cartesian axis) and pressure

     Message from routine stres:
     noncollinear stress + GGA not implemented

     Writing output data file SnI2.save/
 
     init_run     :      2.89s CPU      4.31s WALL (       1 calls)
     electrons    :     63.87s CPU     89.30s WALL (       1 calls)
     forces       :      1.32s CPU      1.78s WALL (       1 calls)

     Called by init_run:
     wfcinit      :      1.38s CPU      2.13s WALL (       1 calls)
     wfcinit:atom :      0.00s CPU      0.01s WALL (      10 calls)
     wfcinit:wfcr :      1.34s CPU      2.07s WALL (      10 calls)
     potinit      :      0.58s CPU      0.89s WALL (       1 calls)
     hinit0       :      0.47s CPU      0.62s WALL (       1 calls)

     Called by electrons:
     c_bands      :     46.63s CPU     65.12s WALL (      11 calls)
     sum_band     :     10.02s CPU     14.27s WALL (      11 calls)
     v_of_rho     :      0.17s CPU      0.25s WALL (      11 calls)
     v_h          :      0.01s CPU      0.02s WALL (      11 calls)
     v_xc         :      0.17s CPU      0.24s WALL (      12 calls)
     newd         :      4.08s CPU      5.59s WALL (      11 calls)
     PAW_pot      :      2.27s CPU      3.13s WALL (      11 calls)
     mix_rho      :      0.25s CPU      0.40s WALL (      11 calls)

     Called by c_bands:
     init_us_2    :      0.31s CPU      0.50s WALL (     240 calls)
     cegterg      :     43.00s CPU     60.72s WALL (     110 calls)

     Called by sum_band:
     sum_band:bec :      0.95s CPU      1.33s WALL (     110 calls)
     addusdens    :      2.58s CPU      3.39s WALL (      11 calls)

     Called by *egterg:
     h_psi        :     26.41s CPU     38.36s WALL (     396 calls)
     s_psi        :      1.10s CPU      1.43s WALL (     396 calls)
     g_psi        :      0.04s CPU      0.04s WALL (     276 calls)
     cdiaghg      :      6.04s CPU      9.07s WALL (     376 calls)
     cegterg:over :      5.66s CPU      6.76s WALL (     276 calls)
     cegterg:upda :      2.35s CPU      3.37s WALL (     276 calls)
     cegterg:last :      1.06s CPU      1.36s WALL (     112 calls)
     cdiaghg:chol :      0.30s CPU      0.48s WALL (     376 calls)
     cdiaghg:inve :      0.24s CPU      0.37s WALL (     376 calls)
     cdiaghg:para :      0.66s CPU      1.07s WALL (     752 calls)

     Called by h_psi:
     h_psi:pot    :     26.27s CPU     38.19s WALL (     396 calls)
     h_psi:calbec :      1.00s CPU      1.29s WALL (     396 calls)
     vloc_psi     :     24.10s CPU     35.40s WALL (     396 calls)
     add_vuspsi   :      1.16s CPU      1.50s WALL (     396 calls)

     General routines
     calbec       :      1.67s CPU      2.18s WALL (     546 calls)
     fft          :      0.90s CPU      1.39s WALL (     243 calls)
     ffts         :      0.20s CPU      0.29s WALL (      88 calls)
     fftw         :     28.49s CPU     41.92s WALL (   61208 calls)
     interpolate  :      0.58s CPU      0.83s WALL (      44 calls)
 
     Parallel routines
     fft_scatt_xy :      1.16s CPU      1.66s WALL (   61539 calls)
     fft_scatt_yz :     22.59s CPU     33.75s WALL (   61539 calls)

     PAW routines
     PAW_pot      :      2.27s CPU      3.13s WALL (      11 calls)
     PAW_symme    :      0.16s CPU      0.23s WALL (      22 calls)
 
     PWSCF        :   1m13.27s CPU   1m41.43s WALL

 
   This run was terminated on:  18:55: 3  24Jan2021            

=------------------------------------------------------------------------------=
   JOB DONE.
=------------------------------------------------------------------------------=
