
     Program PWSCF v.6.7MaX starts on 15Jan2021 at 12:24:56 

     This program is part of the open-source Quantum ESPRESSO suite
     for quantum simulation of materials; please cite
         "P. Giannozzi et al., J. Phys.:Condens. Matter 21 395502 (2009);
         "P. Giannozzi et al., J. Phys.:Condens. Matter 29 465901 (2017);
          URL http://www.quantum-espresso.org", 
     in publications or presentations arising from this work. More details at
     http://www.quantum-espresso.org/quote

     Parallel version (MPI), running on    32 processors

     MPI processes distributed on     1 nodes
     R & G space division:  proc/nbgrp/npool/nimage =      32
     Waiting for input...
     Reading input from standard input

     Current dimensions of program PWSCF are:
     Max number of different atomic species (ntypx) = 10
     Max number of k-points (npk) =  40000
     Max angular momentum in pseudopotentials (lmaxx) =  3
     file Sn.pbe-dn-kjpaw_psl.1.0.0.UPF: wavefunction(s)  5S 5P 4D renormalized
     file I.pbe-n-kjpaw_psl.1.0.0.UPF: wavefunction(s)  5S renormalized

     Subspace diagonalization in iterative solution of the eigenvalue problem:
     a serial algorithm will be used

     Message from routine setup:
     using ibrav=0 with symmetry is DISCOURAGED, use correct ibrav instead

     Parallelization info
     --------------------
     sticks:   dense  smooth     PW     G-vecs:    dense   smooth      PW
     Min         144     144     40                 4560     4560     671
     Max         145     145     42                 4563     4563     673
     Sum        4637    4637   1305               145963   145963   21497


     Title: 
     SnI2tetr                                                                   


     bravais-lattice index     =            0
     lattice parameter (alat)  =      14.4199  a.u.
     unit-cell volume          =    1845.1511 (a.u.)^3
     number of atoms/cell      =            6
     number of atomic types    =            2
     number of electrons       =        56.00
     number of Kohn-Sham states=           28
     kinetic-energy cutoff     =      70.0000  Ry
     charge density cutoff     =     280.0000  Ry
     scf convergence threshold =      1.0E-06
     mixing beta               =       0.7000
     number of iterations used =            8  plain     mixing
     Exchange-correlation= SLA  PW   PBX  PBC
                           (   1   4   3   4   0   0   0)

     celldm(1)=  14.419944  celldm(2)=   0.000000  celldm(3)=   0.000000
     celldm(4)=   0.000000  celldm(5)=   0.000000  celldm(6)=   0.000000

     crystal axes: (cart. coord. in units of alat)
               a(1) = (   1.000000   0.000000   0.000000 )  
               a(2) = (   0.000000   1.000000   0.000000 )  
               a(3) = (   0.000000   0.000000   0.615377 )  

     reciprocal axes: (cart. coord. in units 2 pi/alat)
               b(1) = (  1.000000  0.000000  0.000000 )  
               b(2) = (  0.000000  1.000000  0.000000 )  
               b(3) = (  0.000000  0.000000  1.625020 )  


     PseudoPot. # 1 for Sn read from file:
     ../../../pseudo/Sn.pbe-dn-kjpaw_psl.1.0.0.UPF
     MD5 check sum: 67f11dec737d427557dc41ea34975807
     Pseudo is Projector augmented-wave + core cor, Zval = 14.0
     Generated using &quot;atomic&quot; code by A. Dal Corso  v.6.3
     Shape of augmentation charge: PSQ
     Using radial grid of 1243 points,  6 beta functions with: 
                l(1) =   0
                l(2) =   0
                l(3) =   1
                l(4) =   1
                l(5) =   2
                l(6) =   2
     Q(r) pseudized with 0 coefficients 


     PseudoPot. # 2 for I  read from file:
     ../../../pseudo/I.pbe-n-kjpaw_psl.1.0.0.UPF
     MD5 check sum: cd3d296c3308a581e1559a0c8a554cb5
     Pseudo is Projector augmented-wave + core cor, Zval =  7.0
     Generated using &quot;atomic&quot; code by A. Dal Corso  v.6.3
     Shape of augmentation charge: PSQ
     Using radial grid of 1247 points,  6 beta functions with: 
                l(1) =   0
                l(2) =   0
                l(3) =   1
                l(4) =   1
                l(5) =   2
                l(6) =   2
     Q(r) pseudized with 0 coefficients 


     atomic species   valence    mass     pseudopotential
        Sn            14.00   118.70000     Sn( 1.00)
        I              7.00   126.90000     I ( 1.00)

     16 Sym. Ops., with inversion, found ( 8 have fractional translation)


                                    s                        frac. trans.

      isym =  1     identity                                     

 cryst.   s( 1) = (     1          0          0      )
                  (     0          1          0      )
                  (     0          0          1      )

 cart.    s( 1) = (  1.0000000  0.0000000  0.0000000 )
                  (  0.0000000  1.0000000  0.0000000 )
                  (  0.0000000  0.0000000  1.0000000 )


      isym =  2     180 deg rotation - cart. axis [0,0,1]        

 cryst.   s( 2) = (    -1          0          0      )
                  (     0         -1          0      )
                  (     0          0          1      )

 cart.    s( 2) = ( -1.0000000  0.0000000  0.0000000 )
                  (  0.0000000 -1.0000000  0.0000000 )
                  (  0.0000000  0.0000000  1.0000000 )


      isym =  3     180 deg rotation - cart. axis [0,1,0]        

 cryst.   s( 3) = (    -1          0          0      )    f =(  0.5000000 )
                  (     0          1          0      )       ( -0.5000000 )
                  (     0          0         -1      )       (  0.5000000 )

 cart.    s( 3) = ( -1.0000000  0.0000000  0.0000000 )    f =(  0.5000000 )
                  (  0.0000000  1.0000000  0.0000000 )       ( -0.5000000 )
                  (  0.0000000  0.0000000 -1.0000000 )       (  0.3076884 )


      isym =  4     180 deg rotation - cart. axis [1,0,0]        

 cryst.   s( 4) = (     1          0          0      )    f =( -0.5000000 )
                  (     0         -1          0      )       (  0.5000000 )
                  (     0          0         -1      )       (  0.5000000 )

 cart.    s( 4) = (  1.0000000  0.0000000  0.0000000 )    f =( -0.5000000 )
                  (  0.0000000 -1.0000000  0.0000000 )       (  0.5000000 )
                  (  0.0000000  0.0000000 -1.0000000 )       (  0.3076884 )


      isym =  5     180 deg rotation - cart. axis [1,1,0]        

 cryst.   s( 5) = (     0          1          0      )
                  (     1          0          0      )
                  (     0          0         -1      )

 cart.    s( 5) = (  0.0000000  1.0000000  0.0000000 )
                  (  1.0000000  0.0000000  0.0000000 )
                  (  0.0000000  0.0000000 -1.0000000 )


      isym =  6     180 deg rotation - cart. axis [1,-1,0]       

 cryst.   s( 6) = (     0         -1          0      )
                  (    -1          0          0      )
                  (     0          0         -1      )

 cart.    s( 6) = (  0.0000000 -1.0000000  0.0000000 )
                  ( -1.0000000  0.0000000  0.0000000 )
                  (  0.0000000  0.0000000 -1.0000000 )


      isym =  7      90 deg rotation - cart. axis [0,0,-1]       

 cryst.   s( 7) = (     0         -1          0      )    f =( -0.5000000 )
                  (     1          0          0      )       (  0.5000000 )
                  (     0          0          1      )       ( -0.5000000 )

 cart.    s( 7) = (  0.0000000  1.0000000  0.0000000 )    f =( -0.5000000 )
                  ( -1.0000000  0.0000000  0.0000000 )       (  0.5000000 )
                  (  0.0000000  0.0000000  1.0000000 )       ( -0.3076884 )


      isym =  8      90 deg rotation - cart. axis [0,0,1]        

 cryst.   s( 8) = (     0          1          0      )    f =(  0.5000000 )
                  (    -1          0          0      )       ( -0.5000000 )
                  (     0          0          1      )       ( -0.5000000 )

 cart.    s( 8) = (  0.0000000 -1.0000000  0.0000000 )    f =(  0.5000000 )
                  (  1.0000000  0.0000000  0.0000000 )       ( -0.5000000 )
                  (  0.0000000  0.0000000  1.0000000 )       ( -0.3076884 )


      isym =  9     inversion                                    

 cryst.   s( 9) = (    -1          0          0      )
                  (     0         -1          0      )
                  (     0          0         -1      )

 cart.    s( 9) = ( -1.0000000  0.0000000  0.0000000 )
                  (  0.0000000 -1.0000000  0.0000000 )
                  (  0.0000000  0.0000000 -1.0000000 )


      isym = 10     inv. 180 deg rotation - cart. axis [0,0,1]   

 cryst.   s(10) = (     1          0          0      )
                  (     0          1          0      )
                  (     0          0         -1      )

 cart.    s(10) = (  1.0000000  0.0000000  0.0000000 )
                  (  0.0000000  1.0000000  0.0000000 )
                  (  0.0000000  0.0000000 -1.0000000 )


      isym = 11     inv. 180 deg rotation - cart. axis [0,1,0]   

 cryst.   s(11) = (     1          0          0      )    f =( -0.5000000 )
                  (     0         -1          0      )       (  0.5000000 )
                  (     0          0          1      )       ( -0.5000000 )

 cart.    s(11) = (  1.0000000  0.0000000  0.0000000 )    f =( -0.5000000 )
                  (  0.0000000 -1.0000000  0.0000000 )       (  0.5000000 )
                  (  0.0000000  0.0000000  1.0000000 )       ( -0.3076884 )


      isym = 12     inv. 180 deg rotation - cart. axis [1,0,0]   

 cryst.   s(12) = (    -1          0          0      )    f =(  0.5000000 )
                  (     0          1          0      )       ( -0.5000000 )
                  (     0          0          1      )       ( -0.5000000 )

 cart.    s(12) = ( -1.0000000  0.0000000  0.0000000 )    f =(  0.5000000 )
                  (  0.0000000  1.0000000  0.0000000 )       ( -0.5000000 )
                  (  0.0000000  0.0000000  1.0000000 )       ( -0.3076884 )


      isym = 13     inv. 180 deg rotation - cart. axis [1,1,0]   

 cryst.   s(13) = (     0         -1          0      )
                  (    -1          0          0      )
                  (     0          0          1      )

 cart.    s(13) = (  0.0000000 -1.0000000  0.0000000 )
                  ( -1.0000000  0.0000000  0.0000000 )
                  (  0.0000000  0.0000000  1.0000000 )


      isym = 14     inv. 180 deg rotation - cart. axis [1,-1,0]  

 cryst.   s(14) = (     0          1          0      )
                  (     1          0          0      )
                  (     0          0          1      )

 cart.    s(14) = (  0.0000000  1.0000000  0.0000000 )
                  (  1.0000000  0.0000000  0.0000000 )
                  (  0.0000000  0.0000000  1.0000000 )


      isym = 15     inv.  90 deg rotation - cart. axis [0,0,-1]  

 cryst.   s(15) = (     0          1          0      )    f =(  0.5000000 )
                  (    -1          0          0      )       ( -0.5000000 )
                  (     0          0         -1      )       (  0.5000000 )

 cart.    s(15) = (  0.0000000 -1.0000000  0.0000000 )    f =(  0.5000000 )
                  (  1.0000000  0.0000000  0.0000000 )       ( -0.5000000 )
                  (  0.0000000  0.0000000 -1.0000000 )       (  0.3076884 )


      isym = 16     inv.  90 deg rotation - cart. axis [0,0,1]   

 cryst.   s(16) = (     0         -1          0      )    f =( -0.5000000 )
                  (     1          0          0      )       (  0.5000000 )
                  (     0          0         -1      )       (  0.5000000 )

 cart.    s(16) = (  0.0000000  1.0000000  0.0000000 )    f =( -0.5000000 )
                  ( -1.0000000  0.0000000  0.0000000 )       (  0.5000000 )
                  (  0.0000000  0.0000000 -1.0000000 )       (  0.3076884 )


   Cartesian axes

     site n.     atom                  positions (alat units)
         1           Sn  tau(   1) = (   0.0000000   0.0000000   0.0000000  )
         2           Sn  tau(   2) = (   0.5000000   0.5000000   0.3076884  )
         3           I   tau(   3) = (   0.2985210   0.2985210   0.0000000  )
         4           I   tau(   4) = (   0.7014790   0.7014790   0.0000000  )
         5           I   tau(   5) = (   0.7985210   0.2014790   0.3076884  )
         6           I   tau(   6) = (   0.2014790   0.7985210   0.3076884  )

   Crystallographic axes

     site n.     atom                  positions (cryst. coord.)
         1           Sn  tau(   1) = (  0.0000000  0.0000000  0.0000000  )
         2           Sn  tau(   2) = (  0.5000000  0.5000000  0.5000000  )
         3           I   tau(   3) = (  0.2985210  0.2985210  0.0000000  )
         4           I   tau(   4) = (  0.7014790  0.7014790  0.0000000  )
         5           I   tau(   5) = (  0.7985210  0.2014790  0.5000000  )
         6           I   tau(   6) = (  0.2014790  0.7985210  0.5000000  )

     number of k points=    40
                       cart. coord. in units 2pi/alat
        k(    1) = (   0.0000000   0.0000000   0.0000000), wk =   0.0092593
        k(    2) = (   0.0000000   0.0000000   0.2708367), wk =   0.0185185
        k(    3) = (   0.0000000   0.0000000   0.5416735), wk =   0.0185185
        k(    4) = (   0.0000000   0.0000000  -0.8125102), wk =   0.0092593
        k(    5) = (   0.0000000   0.1666667   0.0000000), wk =   0.0370370
        k(    6) = (   0.0000000   0.1666667   0.2708367), wk =   0.0740741
        k(    7) = (   0.0000000   0.1666667   0.5416735), wk =   0.0740741
        k(    8) = (   0.0000000   0.1666667  -0.8125102), wk =   0.0370370
        k(    9) = (   0.0000000   0.3333333   0.0000000), wk =   0.0370370
        k(   10) = (   0.0000000   0.3333333   0.2708367), wk =   0.0740741
        k(   11) = (   0.0000000   0.3333333   0.5416735), wk =   0.0740741
        k(   12) = (   0.0000000   0.3333333  -0.8125102), wk =   0.0370370
        k(   13) = (   0.0000000  -0.5000000   0.0000000), wk =   0.0185185
        k(   14) = (   0.0000000  -0.5000000   0.2708367), wk =   0.0370370
        k(   15) = (   0.0000000  -0.5000000   0.5416735), wk =   0.0370370
        k(   16) = (   0.0000000  -0.5000000  -0.8125102), wk =   0.0185185
        k(   17) = (   0.1666667   0.1666667   0.0000000), wk =   0.0370370
        k(   18) = (   0.1666667   0.1666667   0.2708367), wk =   0.0740741
        k(   19) = (   0.1666667   0.1666667   0.5416735), wk =   0.0740741
        k(   20) = (   0.1666667   0.1666667  -0.8125102), wk =   0.0370370
        k(   21) = (   0.1666667   0.3333333   0.0000000), wk =   0.0740741
        k(   22) = (   0.1666667   0.3333333   0.2708367), wk =   0.1481481
        k(   23) = (   0.1666667   0.3333333   0.5416735), wk =   0.1481481
        k(   24) = (   0.1666667   0.3333333  -0.8125102), wk =   0.0740741
        k(   25) = (   0.1666667  -0.5000000   0.0000000), wk =   0.0370370
        k(   26) = (   0.1666667  -0.5000000   0.2708367), wk =   0.0740741
        k(   27) = (   0.1666667  -0.5000000   0.5416735), wk =   0.0740741
        k(   28) = (   0.1666667  -0.5000000  -0.8125102), wk =   0.0370370
        k(   29) = (   0.3333333   0.3333333   0.0000000), wk =   0.0370370
        k(   30) = (   0.3333333   0.3333333   0.2708367), wk =   0.0740741
        k(   31) = (   0.3333333   0.3333333   0.5416735), wk =   0.0740741
        k(   32) = (   0.3333333   0.3333333  -0.8125102), wk =   0.0370370
        k(   33) = (   0.3333333  -0.5000000   0.0000000), wk =   0.0370370
        k(   34) = (   0.3333333  -0.5000000   0.2708367), wk =   0.0740741
        k(   35) = (   0.3333333  -0.5000000   0.5416735), wk =   0.0740741
        k(   36) = (   0.3333333  -0.5000000  -0.8125102), wk =   0.0370370
        k(   37) = (  -0.5000000  -0.5000000   0.0000000), wk =   0.0092593
        k(   38) = (  -0.5000000  -0.5000000   0.2708367), wk =   0.0185185
        k(   39) = (  -0.5000000  -0.5000000   0.5416735), wk =   0.0185185
        k(   40) = (  -0.5000000  -0.5000000  -0.8125102), wk =   0.0092593

                       cryst. coord.
        k(    1) = (   0.0000000   0.0000000   0.0000000), wk =   0.0092593
        k(    2) = (   0.0000000   0.0000000   0.1666667), wk =   0.0185185
        k(    3) = (   0.0000000   0.0000000   0.3333333), wk =   0.0185185
        k(    4) = (   0.0000000   0.0000000  -0.5000000), wk =   0.0092593
        k(    5) = (   0.0000000   0.1666667   0.0000000), wk =   0.0370370
        k(    6) = (   0.0000000   0.1666667   0.1666667), wk =   0.0740741
        k(    7) = (   0.0000000   0.1666667   0.3333333), wk =   0.0740741
        k(    8) = (   0.0000000   0.1666667  -0.5000000), wk =   0.0370370
        k(    9) = (   0.0000000   0.3333333   0.0000000), wk =   0.0370370
        k(   10) = (   0.0000000   0.3333333   0.1666667), wk =   0.0740741
        k(   11) = (   0.0000000   0.3333333   0.3333333), wk =   0.0740741
        k(   12) = (   0.0000000   0.3333333  -0.5000000), wk =   0.0370370
        k(   13) = (   0.0000000  -0.5000000   0.0000000), wk =   0.0185185
        k(   14) = (   0.0000000  -0.5000000   0.1666667), wk =   0.0370370
        k(   15) = (   0.0000000  -0.5000000   0.3333333), wk =   0.0370370
        k(   16) = (   0.0000000  -0.5000000  -0.5000000), wk =   0.0185185
        k(   17) = (   0.1666667   0.1666667   0.0000000), wk =   0.0370370
        k(   18) = (   0.1666667   0.1666667   0.1666667), wk =   0.0740741
        k(   19) = (   0.1666667   0.1666667   0.3333333), wk =   0.0740741
        k(   20) = (   0.1666667   0.1666667  -0.5000000), wk =   0.0370370
        k(   21) = (   0.1666667   0.3333333   0.0000000), wk =   0.0740741
        k(   22) = (   0.1666667   0.3333333   0.1666667), wk =   0.1481481
        k(   23) = (   0.1666667   0.3333333   0.3333333), wk =   0.1481481
        k(   24) = (   0.1666667   0.3333333  -0.5000000), wk =   0.0740741
        k(   25) = (   0.1666667  -0.5000000   0.0000000), wk =   0.0370370
        k(   26) = (   0.1666667  -0.5000000   0.1666667), wk =   0.0740741
        k(   27) = (   0.1666667  -0.5000000   0.3333333), wk =   0.0740741
        k(   28) = (   0.1666667  -0.5000000  -0.5000000), wk =   0.0370370
        k(   29) = (   0.3333333   0.3333333   0.0000000), wk =   0.0370370
        k(   30) = (   0.3333333   0.3333333   0.1666667), wk =   0.0740741
        k(   31) = (   0.3333333   0.3333333   0.3333333), wk =   0.0740741
        k(   32) = (   0.3333333   0.3333333  -0.5000000), wk =   0.0370370
        k(   33) = (   0.3333333  -0.5000000   0.0000000), wk =   0.0370370
        k(   34) = (   0.3333333  -0.5000000   0.1666667), wk =   0.0740741
        k(   35) = (   0.3333333  -0.5000000   0.3333333), wk =   0.0740741
        k(   36) = (   0.3333333  -0.5000000  -0.5000000), wk =   0.0370370
        k(   37) = (  -0.5000000  -0.5000000   0.0000000), wk =   0.0092593
        k(   38) = (  -0.5000000  -0.5000000   0.1666667), wk =   0.0185185
        k(   39) = (  -0.5000000  -0.5000000   0.3333333), wk =   0.0185185
        k(   40) = (  -0.5000000  -0.5000000  -0.5000000), wk =   0.0092593

     Dense  grid:   145963 G-vectors     FFT dimensions: (  80,  80,  48)

     Dynamical RAM for                 wfc:       0.24 MB

     Dynamical RAM for     wfc (w. buffer):       9.98 MB

     Dynamical RAM for           str. fact:       0.14 MB

     Dynamical RAM for           local pot:       0.00 MB

     Dynamical RAM for          nlocal pot:       0.94 MB

     Dynamical RAM for                qrad:       2.69 MB

     Dynamical RAM for          rho,v,vnew:       0.50 MB

     Dynamical RAM for               rhoin:       0.17 MB

     Dynamical RAM for            rho*nmix:       1.11 MB

     Dynamical RAM for           G-vectors:       0.30 MB

     Dynamical RAM for          h,s,v(r/c):       0.14 MB

     Dynamical RAM for          <psi|beta>:       0.05 MB

     Dynamical RAM for                 psi:       0.49 MB

     Dynamical RAM for                hpsi:       0.49 MB

     Dynamical RAM for                spsi:       0.49 MB

     Dynamical RAM for      wfcinit/wfcrot:       0.62 MB

     Dynamical RAM for           addusdens:      13.23 MB

     Dynamical RAM for          addusforce:      13.70 MB

     Dynamical RAM for         addusstress:      13.99 MB

     Estimated static dynamical RAM per process >      16.53 MB

     Estimated max dynamical RAM per process >      30.52 MB

     Estimated total dynamical RAM >     976.68 MB

     Initial potential from superposition of free atoms

     starting charge   55.99693, renormalised to   56.00000
     Starting wfcs are   34 randomized atomic wfcs
     Checking if some PAW data can be deallocated... 
       PAW data deallocated on   20 nodes for type:  1
       PAW data deallocated on   12 nodes for type:  2

     total cpu time spent up to now is        5.0 secs

     Self-consistent Calculation

     iteration #  1     ecut=    70.00 Ry     beta= 0.70
     Davidson diagonalization with overlap
     ethr =  1.00E-02,  avg # of iterations =  1.2

     Threshold (ethr) on eigenvalues was too large:
     Diagonalizing with lowered threshold

     Davidson diagonalization with overlap
     ethr =  2.36E-04,  avg # of iterations =  2.4

     total cpu time spent up to now is       20.0 secs

     total energy              =   -2399.94192580 Ry
     estimated scf accuracy    <       0.11844199 Ry

     iteration #  2     ecut=    70.00 Ry     beta= 0.70
     Davidson diagonalization with overlap
     ethr =  2.12E-04,  avg # of iterations =  3.9

     total cpu time spent up to now is       29.9 secs

     total energy              =   -2399.98090643 Ry
     estimated scf accuracy    <       0.05029898 Ry

     iteration #  3     ecut=    70.00 Ry     beta= 0.70
     Davidson diagonalization with overlap
     ethr =  8.98E-05,  avg # of iterations =  2.2

     total cpu time spent up to now is       38.3 secs

     total energy              =   -2399.98933636 Ry
     estimated scf accuracy    <       0.00112127 Ry

     iteration #  4     ecut=    70.00 Ry     beta= 0.70
     Davidson diagonalization with overlap
     ethr =  2.00E-06,  avg # of iterations =  6.0

     total cpu time spent up to now is       52.1 secs

     total energy              =   -2399.99033994 Ry
     estimated scf accuracy    <       0.00086009 Ry

     iteration #  5     ecut=    70.00 Ry     beta= 0.70
     Davidson diagonalization with overlap
     ethr =  1.54E-06,  avg # of iterations =  2.0

     total cpu time spent up to now is       60.2 secs

     total energy              =   -2399.99039841 Ry
     estimated scf accuracy    <       0.00007136 Ry

     iteration #  6     ecut=    70.00 Ry     beta= 0.70
     Davidson diagonalization with overlap
     ethr =  1.27E-07,  avg # of iterations =  5.2

     total cpu time spent up to now is       71.5 secs

     total energy              =   -2399.99044104 Ry
     estimated scf accuracy    <       0.00002278 Ry

     iteration #  7     ecut=    70.00 Ry     beta= 0.70
     Davidson diagonalization with overlap
     ethr =  4.07E-08,  avg # of iterations =  2.0

     total cpu time spent up to now is       79.7 secs

     total energy              =   -2399.99044237 Ry
     estimated scf accuracy    <       0.00000204 Ry

     iteration #  8     ecut=    70.00 Ry     beta= 0.70
     Davidson diagonalization with overlap
     ethr =  3.63E-09,  avg # of iterations =  5.2

     total cpu time spent up to now is       90.8 secs

     End of self-consistent calculation

          k = 0.0000 0.0000 0.0000 ( 18231 PWs)   bands (ev):

   -18.3194 -18.3164 -18.3090 -18.3086 -18.3056 -18.3056 -18.3053 -18.3053
   -18.3048 -18.3048  -9.3438  -8.8363  -8.8363  -8.7176  -4.1158  -2.2595
    -0.1084  -0.1084   0.4264   0.7348   1.2465   1.3477   1.5942   1.5942
     2.0024   2.0024   2.3757   2.8709

     occupation numbers 
     1.0000   1.0000   1.0000   1.0000   1.0000   1.0000   1.0000   1.0000
     1.0000   1.0000   1.0000   1.0000   1.0000   1.0000   1.0000   1.0000
     1.0000   1.0000   1.0000   1.0000   1.0000   1.0000   1.0000   1.0000
     1.0000   1.0000   1.0000   1.0000

          k = 0.0000 0.0000 0.2708 ( 18259 PWs)   bands (ev):

   -18.3187 -18.3161 -18.3089 -18.3086 -18.3067 -18.3067 -18.3051 -18.3051
   -18.3044 -18.3043  -9.2729  -8.8065  -8.8065  -8.7176  -4.0912  -2.5083
    -0.0107  -0.0107   0.1419   0.6108   0.8421   1.0641   1.0641   1.9254
     1.9732   1.9732   2.2751   3.0828

     occupation numbers 
     1.0000   1.0000   1.0000   1.0000   1.0000   1.0000   1.0000   1.0000
     1.0000   1.0000   1.0000   1.0000   1.0000   1.0000   1.0000   1.0000
     1.0000   1.0000   1.0000   1.0000   1.0000   1.0000   1.0000   1.0000
     1.0000   1.0000   1.0000   1.0000

          k = 0.0000 0.0000 0.5417 ( 18276 PWs)   bands (ev):

   -18.3171 -18.3156 -18.3090 -18.3090 -18.3088 -18.3086 -18.3057 -18.3057
   -18.3025 -18.3024  -9.0912  -8.7542  -8.7451  -8.7451  -3.9771  -3.0983
    -0.1341   0.1299   0.1299   0.2262   0.4701   0.4701   1.1415   1.7766
     1.7766   1.9822   2.0855   2.8922

     occupation numbers 
     1.0000   1.0000   1.0000   1.0000   1.0000   1.0000   1.0000   1.0000
     1.0000   1.0000   1.0000   1.0000   1.0000   1.0000   1.0000   1.0000
     1.0000   1.0000   1.0000   1.0000   1.0000   1.0000   1.0000   1.0000
     1.0000   1.0000   1.0000   1.0000

          k = 0.0000 0.0000-0.8125 ( 18160 PWs)   bands (ev):

   -18.3159 -18.3159 -18.3101 -18.3101 -18.3086 -18.3086 -18.3058 -18.3058
   -18.3014 -18.3014  -8.8857  -8.8857  -8.7136  -8.7136  -3.6595  -3.6595
    -0.0499  -0.0499  -0.0265  -0.0265   0.5244   0.5244   1.5618   1.5618
     1.6158   1.6158   2.3640   2.3640

     occupation numbers 
     1.0000   1.0000   1.0000   1.0000   1.0000   1.0000   1.0000   1.0000
     1.0000   1.0000   1.0000   1.0000   1.0000   1.0000   1.0000   1.0000
     1.0000   1.0000   1.0000   1.0000   1.0000   1.0000   1.0000   1.0000
     1.0000   1.0000   1.0000   1.0000

          k = 0.0000 0.1667 0.0000 ( 18271 PWs)   bands (ev):

   -18.3192 -18.3166 -18.3089 -18.3087 -18.3056 -18.3056 -18.3053 -18.3053
   -18.3049 -18.3048  -9.3178  -8.8913  -8.8241  -8.7091  -4.0243  -2.4663
    -0.0430   0.1033   0.4673   0.7907   1.1614   1.2209   1.6085   1.6517
     1.9557   2.0048   2.3034   2.7243

     occupation numbers 
     1.0000   1.0000   1.0000   1.0000   1.0000   1.0000   1.0000   1.0000
     1.0000   1.0000   1.0000   1.0000   1.0000   1.0000   1.0000   1.0000
     1.0000   1.0000   1.0000   1.0000   1.0000   1.0000   1.0000   1.0000
     1.0000   1.0000   1.0000   1.0000

          k = 0.0000 0.1667 0.2708 ( 18229 PWs)   bands (ev):

   -18.3185 -18.3162 -18.3088 -18.3086 -18.3067 -18.3067 -18.3051 -18.3051
   -18.3044 -18.3043  -9.2489  -8.8583  -8.7964  -8.7066  -4.0078  -2.6619
    -0.1315   0.0143   0.3746   0.6101   0.8313   1.1432   1.1831   1.8498
     1.9176   1.9656   2.2407   2.9522

     occupation numbers 
     1.0000   1.0000   1.0000   1.0000   1.0000   1.0000   1.0000   1.0000
     1.0000   1.0000   1.0000   1.0000   1.0000   1.0000   1.0000   1.0000
     1.0000   1.0000   1.0000   1.0000   1.0000   1.0000   1.0000   1.0000
     1.0000   1.0000   1.0000   1.0000

          k = 0.0000 0.1667 0.5417 ( 18234 PWs)   bands (ev):

   -18.3171 -18.3158 -18.3090 -18.3089 -18.3087 -18.3086 -18.3056 -18.3056
   -18.3024 -18.3024  -9.0735  -8.8006  -8.7415  -8.7228  -3.9224  -3.1625
    -0.3358  -0.1310   0.1838   0.2586   0.6318   0.8530   1.2180   1.7255
     1.7408   1.9853   2.1325   2.8680

     occupation numbers 
     1.0000   1.0000   1.0000   1.0000   1.0000   1.0000   1.0000   1.0000
     1.0000   1.0000   1.0000   1.0000   1.0000   1.0000   1.0000   1.0000
     1.0000   1.0000   1.0000   1.0000   1.0000   1.0000   1.0000   1.0000
     1.0000   1.0000   1.0000   1.0000

          k = 0.0000 0.1667-0.8125 ( 18248 PWs)   bands (ev):

   -18.3160 -18.3160 -18.3101 -18.3101 -18.3086 -18.3086 -18.3059 -18.3059
   -18.3014 -18.3014  -8.8810  -8.8810  -8.7184  -8.7184  -3.6550  -3.6550
    -0.3018  -0.3018   0.0098   0.0098   0.8122   0.8122   1.5301   1.5301
     1.6404   1.6404   2.4348   2.4348

     occupation numbers 
     1.0000   1.0000   1.0000   1.0000   1.0000   1.0000   1.0000   1.0000
     1.0000   1.0000   1.0000   1.0000   1.0000   1.0000   1.0000   1.0000
     1.0000   1.0000   1.0000   1.0000   1.0000   1.0000   1.0000   1.0000
     1.0000   1.0000   1.0000   1.0000

          k = 0.0000 0.3333 0.0000 ( 18248 PWs)   bands (ev):

   -18.3186 -18.3171 -18.3088 -18.3087 -18.3056 -18.3056 -18.3053 -18.3053
   -18.3049 -18.3049  -9.2437  -9.0059  -8.7917  -8.7176  -3.7640  -2.9069
     0.1384   0.4459   0.5858   0.9376   0.9949   1.0294   1.6447   1.6945
     1.8237   1.9911   2.2013   2.3821

     occupation numbers 
     1.0000   1.0000   1.0000   1.0000   1.0000   1.0000   1.0000   1.0000
     1.0000   1.0000   1.0000   1.0000   1.0000   1.0000   1.0000   1.0000
     1.0000   1.0000   1.0000   1.0000   1.0000   1.0000   1.0000   1.0000
     1.0000   1.0000   1.0000   1.0000

          k = 0.0000 0.3333 0.2708 ( 18245 PWs)   bands (ev):

   -18.3180 -18.3167 -18.3088 -18.3087 -18.3067 -18.3067 -18.3051 -18.3051
   -18.3044 -18.3044  -9.1804  -8.9629  -8.7697  -8.7106  -3.7719  -3.0188
    -0.1922  -0.0458   0.7233   0.7439   0.8393   1.3116   1.3856   1.5996
     1.8907   1.9554   2.1427   2.6124

     occupation numbers 
     1.0000   1.0000   1.0000   1.0000   1.0000   1.0000   1.0000   1.0000
     1.0000   1.0000   1.0000   1.0000   1.0000   1.0000   1.0000   1.0000
     1.0000   1.0000   1.0000   1.0000   1.0000   1.0000   1.0000   1.0000
     1.0000   1.0000   1.0000   1.0000

          k = 0.0000 0.3333 0.5417 ( 18261 PWs)   bands (ev):

   -18.3169 -18.3162 -18.3089 -18.3089 -18.3087 -18.3086 -18.3056 -18.3056
   -18.3025 -18.3024  -9.0238  -8.8718  -8.7323  -8.7161  -3.7705  -3.3332
    -0.5157  -0.4184   0.2174   0.2671   1.0631   1.2061   1.3514   1.7073
     1.7197   1.9548   2.2129   2.7475

     occupation numbers 
     1.0000   1.0000   1.0000   1.0000   1.0000   1.0000   1.0000   1.0000
     1.0000   1.0000   1.0000   1.0000   1.0000   1.0000   1.0000   1.0000
     1.0000   1.0000   1.0000   1.0000   1.0000   1.0000   1.0000   1.0000
     1.0000   1.0000   1.0000   1.0000

          k = 0.0000 0.3333-0.8125 ( 18280 PWs)   bands (ev):

   -18.3162 -18.3162 -18.3100 -18.3100 -18.3086 -18.3086 -18.3059 -18.3059
   -18.3014 -18.3014  -8.8706  -8.8706  -8.7290  -8.7290  -3.6458  -3.6458
    -0.5535  -0.5535   0.0147   0.0147   1.1334   1.1334   1.5506   1.5506
     1.7469   1.7469   2.5501   2.5501

     occupation numbers 
     1.0000   1.0000   1.0000   1.0000   1.0000   1.0000   1.0000   1.0000
     1.0000   1.0000   1.0000   1.0000   1.0000   1.0000   1.0000   1.0000
     1.0000   1.0000   1.0000   1.0000   1.0000   1.0000   1.0000   1.0000
     1.0000   1.0000   1.0000   1.0000

          k = 0.0000-0.5000 0.0000 ( 18230 PWs)   bands (ev):

   -18.3179 -18.3179 -18.3088 -18.3088 -18.3055 -18.3055 -18.3053 -18.3053
   -18.3049 -18.3049  -9.1330  -9.1330  -8.7505  -8.7505  -3.3725  -3.3725
     0.3783   0.3783   0.7696   0.7696   1.0677   1.0677   1.6833   1.6833
     1.8363   1.8363   2.1774   2.1774

     occupation numbers 
     1.0000   1.0000   1.0000   1.0000   1.0000   1.0000   1.0000   1.0000
     1.0000   1.0000   1.0000   1.0000   1.0000   1.0000   1.0000   1.0000
     1.0000   1.0000   1.0000   1.0000   1.0000   1.0000   1.0000   1.0000
     1.0000   1.0000   1.0000   1.0000

          k = 0.0000-0.5000 0.2708 ( 18258 PWs)   bands (ev):

   -18.3174 -18.3174 -18.3087 -18.3087 -18.3067 -18.3067 -18.3052 -18.3052
   -18.3044 -18.3044  -9.0788  -9.0788  -8.7363  -8.7363  -3.4219  -3.4219
    -0.1504  -0.1504   0.8132   0.8132   1.1759   1.1759   1.4621   1.4621
     1.9738   1.9738   2.2079   2.2079

     occupation numbers 
     1.0000   1.0000   1.0000   1.0000   1.0000   1.0000   1.0000   1.0000
     1.0000   1.0000   1.0000   1.0000   1.0000   1.0000   1.0000   1.0000
     1.0000   1.0000   1.0000   1.0000   1.0000   1.0000   1.0000   1.0000
     1.0000   1.0000   1.0000   1.0000

          k = 0.0000-0.5000 0.5417 ( 18278 PWs)   bands (ev):

   -18.3166 -18.3166 -18.3088 -18.3088 -18.3087 -18.3087 -18.3056 -18.3056
   -18.3025 -18.3025  -8.9516  -8.9516  -8.7217  -8.7217  -3.5566  -3.5566
    -0.5490  -0.5490   0.2472   0.2472   1.3026   1.3026   1.5360   1.5360
     1.8442   1.8442   2.4748   2.4748

     occupation numbers 
     1.0000   1.0000   1.0000   1.0000   1.0000   1.0000   1.0000   1.0000
     1.0000   1.0000   1.0000   1.0000   1.0000   1.0000   1.0000   1.0000
     1.0000   1.0000   1.0000   1.0000   1.0000   1.0000   1.0000   1.0000
     1.0000   1.0000   1.0000   1.0000

          k = 0.0000-0.5000-0.8125 ( 18288 PWs)   bands (ev):

   -18.3163 -18.3163 -18.3099 -18.3099 -18.3087 -18.3087 -18.3059 -18.3059
   -18.3014 -18.3014  -8.8649  -8.8649  -8.7349  -8.7349  -3.6411  -3.6411
    -0.6461  -0.6461   0.0169   0.0169   1.1682   1.1682   1.6877   1.6877
     1.8039   1.8039   2.6075   2.6075

     occupation numbers 
     1.0000   1.0000   1.0000   1.0000   1.0000   1.0000   1.0000   1.0000
     1.0000   1.0000   1.0000   1.0000   1.0000   1.0000   1.0000   1.0000
     1.0000   1.0000   1.0000   1.0000   1.0000   1.0000   1.0000   1.0000
     1.0000   1.0000   1.0000   1.0000

          k = 0.1667 0.1667 0.0000 ( 18255 PWs)   bands (ev):

   -18.3190 -18.3168 -18.3089 -18.3087 -18.3056 -18.3056 -18.3053 -18.3053
   -18.3049 -18.3048  -9.2928  -8.9086  -8.8395  -8.7096  -3.9395  -2.6097
    -0.0715   0.3196   0.5058   0.8441   1.0898   1.1517   1.5881   1.6863
     1.9343   1.9941   2.2223   2.6262

     occupation numbers 
     1.0000   1.0000   1.0000   1.0000   1.0000   1.0000   1.0000   1.0000
     1.0000   1.0000   1.0000   1.0000   1.0000   1.0000   1.0000   1.0000
     1.0000   1.0000   1.0000   1.0000   1.0000   1.0000   1.0000   1.0000
     1.0000   1.0000   1.0000   1.0000

          k = 0.1667 0.1667 0.2708 ( 18257 PWs)   bands (ev):

   -18.3183 -18.3164 -18.3088 -18.3087 -18.3067 -18.3067 -18.3051 -18.3051
   -18.3044 -18.3043  -9.2258  -8.8760  -8.8096  -8.7053  -3.9322  -2.7796
    -0.1152   0.0270   0.3305   0.7399   0.8094   1.1746   1.3131   1.7651
     1.9182   1.9187   2.2129   2.8436

     occupation numbers 
     1.0000   1.0000   1.0000   1.0000   1.0000   1.0000   1.0000   1.0000
     1.0000   1.0000   1.0000   1.0000   1.0000   1.0000   1.0000   1.0000
     1.0000   1.0000   1.0000   1.0000   1.0000   1.0000   1.0000   1.0000
     1.0000   1.0000   1.0000   1.0000

          k = 0.1667 0.1667 0.5417 ( 18219 PWs)   bands (ev):

   -18.3170 -18.3159 -18.3090 -18.3089 -18.3087 -18.3086 -18.3056 -18.3056
   -18.3024 -18.3024  -9.0570  -8.8190  -8.7480  -8.7168  -3.8768  -3.2215
    -0.4601  -0.0282   0.1183   0.3700   0.4171   1.1671   1.2870   1.6478
     1.7806   1.9942   2.1627   2.7847

     occupation numbers 
     1.0000   1.0000   1.0000   1.0000   1.0000   1.0000   1.0000   1.0000
     1.0000   1.0000   1.0000   1.0000   1.0000   1.0000   1.0000   1.0000
     1.0000   1.0000   1.0000   1.0000   1.0000   1.0000   1.0000   1.0000
     1.0000   1.0000   1.0000   1.0000

          k = 0.1667 0.1667-0.8125 ( 18240 PWs)   bands (ev):

   -18.3162 -18.3159 -18.3101 -18.3100 -18.3086 -18.3086 -18.3059 -18.3059
   -18.3014 -18.3014  -8.8821  -8.8728  -8.7273  -8.7163  -3.6763  -3.6370
    -0.5138  -0.2210  -0.0871   0.2442   0.5308   1.2010   1.4304   1.5788
     1.6270   1.7246   2.4563   2.4890

     occupation numbers 
     1.0000   1.0000   1.0000   1.0000   1.0000   1.0000   1.0000   1.0000
     1.0000   1.0000   1.0000   1.0000   1.0000   1.0000   1.0000   1.0000
     1.0000   1.0000   1.0000   1.0000   1.0000   1.0000   1.0000   1.0000
     1.0000   1.0000   1.0000   1.0000

          k = 0.1667 0.3333 0.0000 ( 18248 PWs)   bands (ev):

   -18.3186 -18.3173 -18.3088 -18.3087 -18.3056 -18.3055 -18.3053 -18.3053
   -18.3049 -18.3048  -9.2217  -8.9996  -8.8161  -8.7295  -3.7007  -2.9525
     0.0512   0.4870   0.6168   0.9814   0.9870   1.0567   1.6083   1.6926
     1.8279   1.9828   2.1091   2.3753

     occupation numbers 
     1.0000   1.0000   1.0000   1.0000   1.0000   1.0000   1.0000   1.0000
     1.0000   1.0000   1.0000   1.0000   1.0000   1.0000   1.0000   1.0000
     1.0000   1.0000   1.0000   1.0000   1.0000   1.0000   1.0000   1.0000
     1.0000   1.0000   1.0000   1.0000

          k = 0.1667 0.3333 0.2708 ( 18239 PWs)   bands (ev):

   -18.3180 -18.3168 -18.3088 -18.3087 -18.3067 -18.3067 -18.3051 -18.3051
   -18.3044 -18.3043  -9.1605  -8.9584  -8.7906  -8.7200  -3.7198  -3.0678
    -0.1336  -0.0049   0.5019   0.7964   0.8795   1.3290   1.4031   1.5801
     1.8822   1.9690   2.1261   2.5834

     occupation numbers 
     1.0000   1.0000   1.0000   1.0000   1.0000   1.0000   1.0000   1.0000
     1.0000   1.0000   1.0000   1.0000   1.0000   1.0000   1.0000   1.0000
     1.0000   1.0000   1.0000   1.0000   1.0000   1.0000   1.0000   1.0000
     1.0000   1.0000   1.0000   1.0000

          k = 0.1667 0.3333 0.5417 ( 18254 PWs)   bands (ev):

   -18.3168 -18.3162 -18.3090 -18.3088 -18.3087 -18.3086 -18.3057 -18.3056
   -18.3025 -18.3024  -9.0106  -8.8737  -8.7425  -8.7184  -3.7496  -3.3744
    -0.5185  -0.2378   0.1379   0.2753   0.7916   1.3827   1.4170   1.6398
     1.7621   1.9697   2.2364   2.5895

     occupation numbers 
     1.0000   1.0000   1.0000   1.0000   1.0000   1.0000   1.0000   1.0000
     1.0000   1.0000   1.0000   1.0000   1.0000   1.0000   1.0000   1.0000
     1.0000   1.0000   1.0000   1.0000   1.0000   1.0000   1.0000   1.0000
     1.0000   1.0000   1.0000   1.0000

          k = 0.1667 0.3333-0.8125 ( 18256 PWs)   bands (ev):

   -18.3162 -18.3160 -18.3101 -18.3099 -18.3086 -18.3086 -18.3059 -18.3059
   -18.3014 -18.3014  -8.8754  -8.8651  -8.7347  -8.7227  -3.6802  -3.6410
    -0.5997  -0.3539  -0.1023   0.1172   0.8922   1.3567   1.3935   1.6544
     1.7250   1.7980   2.4560   2.4935

     occupation numbers 
     1.0000   1.0000   1.0000   1.0000   1.0000   1.0000   1.0000   1.0000
     1.0000   1.0000   1.0000   1.0000   1.0000   1.0000   1.0000   1.0000
     1.0000   1.0000   1.0000   1.0000   1.0000   1.0000   1.0000   1.0000
     1.0000   1.0000   1.0000   1.0000

          k = 0.1667-0.5000 0.0000 ( 18248 PWs)   bands (ev):

   -18.3179 -18.3179 -18.3088 -18.3088 -18.3056 -18.3056 -18.3053 -18.3053
   -18.3049 -18.3049  -9.1167  -9.1167  -8.7708  -8.7708  -3.3499  -3.3499
     0.2915   0.2915   0.7852   0.7852   1.1262   1.1262   1.6562   1.6562
     1.8416   1.8416   2.1594   2.1594

     occupation numbers 
     1.0000   1.0000   1.0000   1.0000   1.0000   1.0000   1.0000   1.0000
     1.0000   1.0000   1.0000   1.0000   1.0000   1.0000   1.0000   1.0000
     1.0000   1.0000   1.0000   1.0000   1.0000   1.0000   1.0000   1.0000
     1.0000   1.0000   1.0000   1.0000

          k = 0.1667-0.5000 0.2708 ( 18228 PWs)   bands (ev):

   -18.3174 -18.3174 -18.3087 -18.3087 -18.3067 -18.3067 -18.3051 -18.3051
   -18.3044 -18.3044  -9.0646  -9.0646  -8.7534  -8.7534  -3.4110  -3.4110
    -0.0972  -0.0972   0.7486   0.7486   1.0698   1.0698   1.5060   1.5060
     1.9664   1.9664   2.2556   2.2556

     occupation numbers 
     1.0000   1.0000   1.0000   1.0000   1.0000   1.0000   1.0000   1.0000
     1.0000   1.0000   1.0000   1.0000   1.0000   1.0000   1.0000   1.0000
     1.0000   1.0000   1.0000   1.0000   1.0000   1.0000   1.0000   1.0000
     1.0000   1.0000   1.0000   1.0000

          k = 0.1667-0.5000 0.5417 ( 18254 PWs)   bands (ev):

   -18.3165 -18.3165 -18.3089 -18.3089 -18.3087 -18.3087 -18.3056 -18.3056
   -18.3024 -18.3024  -8.9443  -8.9443  -8.7294  -8.7294  -3.5682  -3.5682
    -0.4389  -0.4389   0.1903   0.1903   1.2543   1.2543   1.5130   1.5130
     1.8439   1.8439   2.4089   2.4089

     occupation numbers 
     1.0000   1.0000   1.0000   1.0000   1.0000   1.0000   1.0000   1.0000
     1.0000   1.0000   1.0000   1.0000   1.0000   1.0000   1.0000   1.0000
     1.0000   1.0000   1.0000   1.0000   1.0000   1.0000   1.0000   1.0000
     1.0000   1.0000   1.0000   1.0000

          k = 0.1667-0.5000-0.8125 ( 18256 PWs)   bands (ev):

   -18.3162 -18.3162 -18.3100 -18.3100 -18.3086 -18.3086 -18.3059 -18.3059
   -18.3014 -18.3014  -8.8666  -8.8666  -8.7321  -8.7321  -3.6628  -3.6628
    -0.5258  -0.5258  -0.0333  -0.0333   1.2369   1.2369   1.5713   1.5713
     1.8130   1.8130   2.4223   2.4223

     occupation numbers 
     1.0000   1.0000   1.0000   1.0000   1.0000   1.0000   1.0000   1.0000
     1.0000   1.0000   1.0000   1.0000   1.0000   1.0000   1.0000   1.0000
     1.0000   1.0000   1.0000   1.0000   1.0000   1.0000   1.0000   1.0000
     1.0000   1.0000   1.0000   1.0000

          k = 0.3333 0.3333 0.0000 ( 18241 PWs)   bands (ev):

   -18.3183 -18.3175 -18.3088 -18.3088 -18.3056 -18.3055 -18.3053 -18.3053
   -18.3048 -18.3048  -9.1605  -9.0088  -8.8460  -8.7674  -3.5298  -3.0912
     0.0170   0.3542   0.7025   0.9250   1.1156   1.2085   1.5758   1.6547
     1.7765   1.9117   2.0528   2.3033

     occupation numbers 
     1.0000   1.0000   1.0000   1.0000   1.0000   1.0000   1.0000   1.0000
     1.0000   1.0000   1.0000   1.0000   1.0000   1.0000   1.0000   1.0000
     1.0000   1.0000   1.0000   1.0000   1.0000   1.0000   1.0000   1.0000
     1.0000   1.0000   1.0000   1.0000

          k = 0.3333 0.3333 0.2708 ( 18235 PWs)   bands (ev):

   -18.3177 -18.3171 -18.3087 -18.3087 -18.3067 -18.3067 -18.3051 -18.3051
   -18.3044 -18.3044  -9.1052  -8.9693  -8.8157  -8.7512  -3.5789  -3.2025
    -0.0460   0.1136   0.3780   0.7516   0.8506   1.1207   1.4469   1.7263
     1.7926   2.0428   2.1343   2.5037

     occupation numbers 
     1.0000   1.0000   1.0000   1.0000   1.0000   1.0000   1.0000   1.0000
     1.0000   1.0000   1.0000   1.0000   1.0000   1.0000   1.0000   1.0000
     1.0000   1.0000   1.0000   1.0000   1.0000   1.0000   1.0000   1.0000
     1.0000   1.0000   1.0000   1.0000

          k = 0.3333 0.3333 0.5417 ( 18246 PWs)   bands (ev):

   -18.3166 -18.3163 -18.3090 -18.3089 -18.3087 -18.3087 -18.3056 -18.3056
   -18.3024 -18.3024  -8.9749  -8.8892  -8.7535  -8.7301  -3.6879  -3.4751
    -0.3763  -0.0452   0.0593   0.3992   0.4023   1.3204   1.5717   1.6284
     1.7901   1.9712   2.2336   2.3889

     occupation numbers 
     1.0000   1.0000   1.0000   1.0000   1.0000   1.0000   1.0000   1.0000
     1.0000   1.0000   1.0000   1.0000   1.0000   1.0000   1.0000   1.0000
     1.0000   1.0000   1.0000   1.0000   1.0000   1.0000   1.0000   1.0000
     1.0000   1.0000   1.0000   1.0000

          k = 0.3333 0.3333-0.8125 ( 18264 PWs)   bands (ev):

   -18.3161 -18.3160 -18.3102 -18.3100 -18.3087 -18.3087 -18.3059 -18.3059
   -18.3014 -18.3014  -8.8750  -8.8647  -8.7335  -8.7215  -3.7087  -3.6710
    -0.4328  -0.2592  -0.1946   0.3360   0.5449   1.3897   1.4732   1.6960
     1.7629   1.8444   2.1804   2.3356

     occupation numbers 
     1.0000   1.0000   1.0000   1.0000   1.0000   1.0000   1.0000   1.0000
     1.0000   1.0000   1.0000   1.0000   1.0000   1.0000   1.0000   1.0000
     1.0000   1.0000   1.0000   1.0000   1.0000   1.0000   1.0000   1.0000
     1.0000   1.0000   1.0000   1.0000

          k = 0.3333-0.5000 0.0000 ( 18228 PWs)   bands (ev):

   -18.3179 -18.3179 -18.3088 -18.3088 -18.3056 -18.3056 -18.3053 -18.3053
   -18.3048 -18.3048  -9.0768  -9.0768  -8.8186  -8.8186  -3.3033  -3.3033
     0.1397   0.1397   0.8193   0.8193   1.2541   1.2541   1.5996   1.5996
     1.7695   1.7695   2.1741   2.1741

     occupation numbers 
     1.0000   1.0000   1.0000   1.0000   1.0000   1.0000   1.0000   1.0000
     1.0000   1.0000   1.0000   1.0000   1.0000   1.0000   1.0000   1.0000
     1.0000   1.0000   1.0000   1.0000   1.0000   1.0000   1.0000   1.0000
     1.0000   1.0000   1.0000   1.0000

          k = 0.3333-0.5000 0.2708 ( 18218 PWs)   bands (ev):

   -18.3173 -18.3173 -18.3087 -18.3087 -18.3067 -18.3067 -18.3051 -18.3051
   -18.3044 -18.3044  -9.0302  -9.0302  -8.7935  -8.7935  -3.3892  -3.3892
     0.0455   0.0455   0.6223   0.6223   0.8429   0.8429   1.6176   1.6176
     1.9088   1.9088   2.3481   2.3481

     occupation numbers 
     1.0000   1.0000   1.0000   1.0000   1.0000   1.0000   1.0000   1.0000
     1.0000   1.0000   1.0000   1.0000   1.0000   1.0000   1.0000   1.0000
     1.0000   1.0000   1.0000   1.0000   1.0000   1.0000   1.0000   1.0000
     1.0000   1.0000   1.0000   1.0000

          k = 0.3333-0.5000 0.5417 ( 18260 PWs)   bands (ev):

   -18.3164 -18.3164 -18.3090 -18.3090 -18.3087 -18.3087 -18.3057 -18.3057
   -18.3024 -18.3024  -8.9280  -8.9280  -8.7465  -8.7465  -3.5908  -3.5908
    -0.1407  -0.1407   0.1035   0.1035   0.8548   0.8548   1.6782   1.6782
     1.8624   1.8624   2.2953   2.2953

     occupation numbers 
     1.0000   1.0000   1.0000   1.0000   1.0000   1.0000   1.0000   1.0000
     1.0000   1.0000   1.0000   1.0000   1.0000   1.0000   1.0000   1.0000
     1.0000   1.0000   1.0000   1.0000   1.0000   1.0000   1.0000   1.0000
     1.0000   1.0000   1.0000   1.0000

          k = 0.3333-0.5000-0.8125 ( 18248 PWs)   bands (ev):

   -18.3160 -18.3160 -18.3101 -18.3101 -18.3087 -18.3087 -18.3059 -18.3059
   -18.3014 -18.3014  -8.8699  -8.8699  -8.7268  -8.7268  -3.7043  -3.7043
    -0.2751  -0.2751  -0.0333  -0.0333   0.9741   0.9741   1.6364   1.6364
     1.8298   1.8298   2.1731   2.1731

     occupation numbers 
     1.0000   1.0000   1.0000   1.0000   1.0000   1.0000   1.0000   1.0000
     1.0000   1.0000   1.0000   1.0000   1.0000   1.0000   1.0000   1.0000
     1.0000   1.0000   1.0000   1.0000   1.0000   1.0000   1.0000   1.0000
     1.0000   1.0000   1.0000   1.0000

          k =-0.5000-0.5000 0.0000 ( 18240 PWs)   bands (ev):

   -18.3179 -18.3179 -18.3088 -18.3088 -18.3056 -18.3056 -18.3053 -18.3053
   -18.3048 -18.3048  -9.0500  -9.0500  -8.8492  -8.8492  -3.2795  -3.2795
     0.0706   0.0706   0.8381   0.8381   1.3437   1.3437   1.5697   1.5697
     1.6838   1.6838   2.1988   2.1988

     occupation numbers 
     1.0000   1.0000   1.0000   1.0000   1.0000   1.0000   1.0000   1.0000
     1.0000   1.0000   1.0000   1.0000   1.0000   1.0000   1.0000   1.0000
     1.0000   1.0000   1.0000   1.0000   1.0000   1.0000   1.0000   1.0000
     1.0000   1.0000   1.0000   1.0000

          k =-0.5000-0.5000 0.2708 ( 18264 PWs)   bands (ev):

   -18.3174 -18.3174 -18.3087 -18.3087 -18.3068 -18.3068 -18.3051 -18.3051
   -18.3044 -18.3044  -9.0077  -9.0077  -8.8188  -8.8188  -3.3782  -3.3782
     0.1640   0.1640   0.5269   0.5269   0.7247   0.7247   1.7198   1.7198
     1.8253   1.8253   2.3936   2.3936

     occupation numbers 
     1.0000   1.0000   1.0000   1.0000   1.0000   1.0000   1.0000   1.0000
     1.0000   1.0000   1.0000   1.0000   1.0000   1.0000   1.0000   1.0000
     1.0000   1.0000   1.0000   1.0000   1.0000   1.0000   1.0000   1.0000
     1.0000   1.0000   1.0000   1.0000

          k =-0.5000-0.5000 0.5417 ( 18280 PWs)   bands (ev):

   -18.3164 -18.3164 -18.3090 -18.3090 -18.3087 -18.3087 -18.3057 -18.3057
   -18.3024 -18.3024  -8.9186  -8.9186  -8.7563  -8.7563  -3.6017  -3.6017
     0.0207   0.0207   0.2849   0.2849   0.4143   0.4143   1.7948   1.7948
     1.8647   1.8647   2.2321   2.2321

     occupation numbers 
     1.0000   1.0000   1.0000   1.0000   1.0000   1.0000   1.0000   1.0000
     1.0000   1.0000   1.0000   1.0000   1.0000   1.0000   1.0000   1.0000
     1.0000   1.0000   1.0000   1.0000   1.0000   1.0000   1.0000   1.0000
     1.0000   1.0000   1.0000   1.0000

          k =-0.5000-0.5000-0.8125 ( 18296 PWs)   bands (ev):

   -18.3160 -18.3160 -18.3102 -18.3102 -18.3087 -18.3087 -18.3059 -18.3059
   -18.3014 -18.3014  -8.8714  -8.8714  -8.7242  -8.7242  -3.7243  -3.7243
    -0.2430  -0.2430   0.2717   0.2717   0.5526   0.5526   1.8185   1.8185
     1.8339   1.8339   2.0148   2.0148

     occupation numbers 
     1.0000   1.0000   1.0000   1.0000   1.0000   1.0000   1.0000   1.0000
     1.0000   1.0000   1.0000   1.0000   1.0000   1.0000   1.0000   1.0000
     1.0000   1.0000   1.0000   1.0000   1.0000   1.0000   1.0000   1.0000
     1.0000   1.0000   1.0000   1.0000

     highest occupied level (ev):     3.0828

!    total energy              =   -2399.99044344 Ry

     total all-electron energy =    -81641.235791 Ry
     estimated scf accuracy    <       0.00000041 Ry

     The total energy is the sum of the following terms:
     one-electron contribution =    -203.79317071 Ry
     hartree contribution      =     130.15808266 Ry
     xc contribution           =    -159.02129935 Ry
     ewald contribution        =    -219.54274839 Ry
     one-center paw contrib.   =   -1947.79130765 Ry
      -> PAW hartree energy AE =     108.41638337 Ry
      -> PAW hartree energy PS =    -107.65022299 Ry
      -> PAW xc energy AE      =    -328.96378950 Ry
      -> PAW xc energy PS      =      47.26248372 Ry
      -> total E_H with PAW    =     130.92424304 Ry
      -> total E_XC with PAW   =    -440.72260512 Ry

     convergence has been achieved in   8 iterations

     Forces acting on atoms (cartesian axes, Ry/au):

     atom    1 type  1   force =     0.00000000    0.00000000    0.00000000
     atom    2 type  1   force =     0.00000000    0.00000000   -0.00000000
     atom    3 type  2   force =    -0.00021315   -0.00021315   -0.00000000
     atom    4 type  2   force =     0.00021315    0.00021315    0.00000000
     atom    5 type  2   force =    -0.00021315    0.00021315   -0.00000000
     atom    6 type  2   force =     0.00021315   -0.00021315    0.00000000
     The non-local contrib.  to forces
     atom    1 type  1   force =     0.00000000    0.00000000    0.00000000
     atom    2 type  1   force =     0.00000000    0.00000000   -0.00000000
     atom    3 type  2   force =     0.01431830    0.01431830    0.00000000
     atom    4 type  2   force =    -0.01431830   -0.01431830    0.00000000
     atom    5 type  2   force =     0.01431830   -0.01431830   -0.00000000
     atom    6 type  2   force =    -0.01431830    0.01431830    0.00000000
     The ionic contribution  to forces
     atom    1 type  1   force =    -0.00000000   -0.00000000    0.00000000
     atom    2 type  1   force =    -0.00000000   -0.00000000   -0.00000000
     atom    3 type  2   force =    -0.90990984   -0.90990984   -0.00000000
     atom    4 type  2   force =     0.90990984    0.90990984   -0.00000000
     atom    5 type  2   force =    -0.90990984    0.90990984   -0.00000000
     atom    6 type  2   force =     0.90990984   -0.90990984   -0.00000000
     The local contribution  to forces
     atom    1 type  1   force =     0.00000000    0.00000000    0.00000000
     atom    2 type  1   force =     0.00000000    0.00000000    0.00000000
     atom    3 type  2   force =     0.89713064    0.89713064   -0.00000000
     atom    4 type  2   force =    -0.89713064   -0.89713064    0.00000000
     atom    5 type  2   force =     0.89713064   -0.89713064    0.00000000
     atom    6 type  2   force =    -0.89713064    0.89713064    0.00000000
     The core correction contribution to forces
     atom    1 type  1   force =     0.00000000    0.00000000    0.00000000
     atom    2 type  1   force =     0.00000000    0.00000000    0.00000000
     atom    3 type  2   force =    -0.00181608   -0.00181608    0.00000000
     atom    4 type  2   force =     0.00181608    0.00181608    0.00000000
     atom    5 type  2   force =    -0.00181608    0.00181608    0.00000000
     atom    6 type  2   force =     0.00181608   -0.00181608    0.00000000
     The Hubbard contrib.    to forces
     atom    1 type  1   force =     0.00000000    0.00000000    0.00000000
     atom    2 type  1   force =     0.00000000    0.00000000    0.00000000
     atom    3 type  2   force =     0.00000000    0.00000000    0.00000000
     atom    4 type  2   force =     0.00000000    0.00000000    0.00000000
     atom    5 type  2   force =     0.00000000    0.00000000    0.00000000
     atom    6 type  2   force =     0.00000000    0.00000000    0.00000000
     The SCF correction term to forces
     atom    1 type  1   force =     0.00000000   -0.00000000    0.00000000
     atom    2 type  1   force =     0.00000000   -0.00000000    0.00000000
     atom    3 type  2   force =     0.00006383    0.00006383   -0.00000000
     atom    4 type  2   force =    -0.00006383   -0.00006383   -0.00000000
     atom    5 type  2   force =     0.00006383   -0.00006383    0.00000000
     atom    6 type  2   force =    -0.00006383    0.00006383    0.00000000

     Total force =     0.000603     Total SCF correction =     0.000181
     SCF correction compared to forces is large: reduce conv_thr to get better values


     Computing stress (Cartesian axis) and pressure

          total   stress  (Ry/bohr**3)                   (kbar)     P=       -1.95
  -0.00001461   0.00000000   0.00000000           -2.15        0.00        0.00
   0.00000000  -0.00001461   0.00000000            0.00       -2.15        0.00
   0.00000000   0.00000000  -0.00001047            0.00        0.00       -1.54

     kinetic stress (kbar)   7315.32      0.00      0.00
                                0.00   7315.32      0.00
                                0.00      0.00   7289.26

     local   stress (kbar)  -1446.26      0.00      0.00
                                0.00  -1446.26     -0.00
                                0.00     -0.00  -5849.30

     nonloc. stress (kbar)    116.15      0.00      0.00
                                0.00    116.15      0.00
                                0.00      0.00    115.48

     hartree stress (kbar)   2829.29     -0.00     -0.00
                               -0.00   2829.29      0.00
                               -0.00      0.00   4718.30

     exc-cor stress (kbar)   6161.24      0.00     -0.00
                                0.00   6161.24      0.00
                               -0.00      0.00   6162.28

     corecor stress (kbar)  -8297.12      0.00      0.00
                                0.00  -8297.12      0.00
                                0.00      0.00  -8296.00

     ewald   stress (kbar)  -6680.77      0.00     -0.00
                                0.00  -6680.77     -0.00
                               -0.00     -0.00  -4141.56

     hubbard stress (kbar)      0.00      0.00      0.00
                                0.00      0.00      0.00
                                0.00      0.00      0.00

     DFT-D   stress (kbar)      0.00      0.00      0.00
                                0.00      0.00      0.00
                                0.00      0.00      0.00

     XDM     stress (kbar)      0.00      0.00      0.00
                                0.00      0.00      0.00
                                0.00      0.00      0.00

     dft-nl  stress (kbar)      0.00      0.00      0.00
                                0.00      0.00      0.00
                                0.00      0.00      0.00

     TS-vdW  stress (kbar)      0.00      0.00      0.00
                                0.00      0.00      0.00
                                0.00      0.00      0.00



     Writing output data file ./out/SnI2tetr.save/

     init_run     :      4.02s CPU      4.12s WALL (       1 calls)
     electrons    :     84.50s CPU     85.86s WALL (       1 calls)
     forces       :      1.88s CPU      1.89s WALL (       1 calls)
     stress       :      3.29s CPU      3.31s WALL (       1 calls)

     Called by init_run:
     wfcinit      :      3.07s CPU      3.12s WALL (       1 calls)
     wfcinit:atom :      0.03s CPU      0.03s WALL (      40 calls)
     wfcinit:wfcr :      2.86s CPU      2.90s WALL (      40 calls)
     potinit      :      0.34s CPU      0.37s WALL (       1 calls)
     hinit0       :      0.39s CPU      0.39s WALL (       1 calls)

     Called by electrons:
     c_bands      :     71.99s CPU     73.17s WALL (       9 calls)
     sum_band     :     10.36s CPU     10.51s WALL (       9 calls)
     v_of_rho     :      0.24s CPU      0.24s WALL (       9 calls)
     v_h          :      0.05s CPU      0.05s WALL (       9 calls)
     v_xc         :      0.23s CPU      0.24s WALL (      11 calls)
     newd         :      0.91s CPU      0.93s WALL (       9 calls)
     PAW_pot      :      1.18s CPU      1.21s WALL (       9 calls)
     mix_rho      :      0.04s CPU      0.04s WALL (       9 calls)

     Called by c_bands:
     init_us_2    :      1.15s CPU      1.21s WALL (     840 calls)
     cegterg      :     69.47s CPU     70.19s WALL (     360 calls)

     Called by sum_band:
     sum_band:wei :      0.00s CPU      0.00s WALL (       9 calls)
     sum_band:loo :      9.53s CPU      9.65s WALL (       9 calls)
     sum_band:buf :      0.11s CPU      0.12s WALL (     360 calls)
     sum_band:ini :      0.47s CPU      0.48s WALL (     360 calls)
     sum_band:cal :      2.47s CPU      2.47s WALL (     360 calls)
     sum_band:bec :      0.06s CPU      0.06s WALL (     360 calls)
     addusdens    :      0.75s CPU      0.77s WALL (       9 calls)
     addusd:skk   :      0.00s CPU      0.00s WALL (      18 calls)
     addusd:dgemm :      0.30s CPU      0.33s WALL (      18 calls)
     addusd:qvan2 :      0.38s CPU      0.38s WALL (      18 calls)

     Called by *egterg:
     cdiaghg      :      2.61s CPU      2.62s WALL (    1527 calls)
     cegterg:over :      3.96s CPU      3.98s WALL (    1207 calls)
     cegterg:upda :      2.03s CPU      2.04s WALL (    1207 calls)
     cegterg:last :      5.12s CPU      5.13s WALL (     846 calls)
     h_psi        :     50.12s CPU     50.80s WALL (    1607 calls)
     s_psi        :      6.18s CPU      6.21s WALL (    1607 calls)
     g_psi        :      0.12s CPU      0.13s WALL (    1207 calls)

     Called by h_psi:
     h_psi:calbec :      7.99s CPU      8.04s WALL (    1607 calls)
     vloc_psi     :     35.77s CPU     36.37s WALL (    1607 calls)
     add_vuspsi   :      6.14s CPU      6.17s WALL (    1607 calls)

     General routines
     calbec       :     11.68s CPU     11.73s WALL (    2167 calls)
     fft          :      0.16s CPU      0.17s WALL (     125 calls)
     ffts         :      0.01s CPU      0.01s WALL (       9 calls)
     fftw         :     39.83s CPU     40.50s WALL (   69908 calls)

     Parallel routines
     fft_scatt_xy :      2.57s CPU      2.60s WALL (   70042 calls)
     fft_scatt_yz :     11.18s CPU     11.39s WALL (   70042 calls)

     PAW routines
     PAW_pot      :      1.18s CPU      1.21s WALL (       9 calls)
     PAW_symme    :      0.02s CPU      0.02s WALL (      18 calls)

     PWSCF        :   1m35.49s CPU   1m37.99s WALL


   This run was terminated on:  12:26:34  15Jan2021            

=------------------------------------------------------------------------------=
   JOB DONE.
=------------------------------------------------------------------------------=
