
     Program PWSCF v.6.7MaX starts on 14Jan2021 at 14:28:43 

     This program is part of the open-source Quantum ESPRESSO suite
     for quantum simulation of materials; please cite
         "P. Giannozzi et al., J. Phys.:Condens. Matter 21 395502 (2009);
         "P. Giannozzi et al., J. Phys.:Condens. Matter 29 465901 (2017);
          URL http://www.quantum-espresso.org", 
     in publications or presentations arising from this work. More details at
     http://www.quantum-espresso.org/quote

     Parallel version (MPI), running on    19 processors

     MPI processes distributed on     1 nodes
     R & G space division:  proc/nbgrp/npool/nimage =      19
     Waiting for input...
     Reading input from standard input

     Current dimensions of program PWSCF are:
     Max number of different atomic species (ntypx) = 10
     Max number of k-points (npk) =  40000
     Max angular momentum in pseudopotentials (lmaxx) =  3
     file Cs.pbe-spn-kjpaw_psl.1.0.0.UPF: wavefunction(s)  5S 6S renormalized
     file I.pbe-n-kjpaw_psl.1.0.0.UPF: wavefunction(s)  5S renormalized

     Subspace diagonalization in iterative solution of the eigenvalue problem:
     a serial algorithm will be used

     Found symmetry operation: I + (  0.0000 -0.5000 -0.5000)
     This is a supercell, fractional translations are disabled
     Message from routine setup:
     using ibrav=0 with symmetry is DISCOURAGED, use correct ibrav instead

     Parallelization info
     --------------------
     sticks:   dense  smooth     PW     G-vecs:    dense   smooth      PW
     Min         220     220     60                10808    10808    1546
     Max         221     221     61                10815    10815    1549
     Sum        4197    4197   1153               205453   205453   29423


     Title: 
     CsIhexagonal                                                               


     bravais-lattice index     =            0
     lattice parameter (alat)  =      14.8517  a.u.
     unit-cell volume          =    3275.8799 (a.u.)^3
     number of atoms/cell      =            8
     number of atomic types    =            2
     number of electrons       =        64.00
     number of Kohn-Sham states=           32
     kinetic-energy cutoff     =      60.0000  Ry
     charge density cutoff     =     240.0000  Ry
     scf convergence threshold =      1.0E-06
     mixing beta               =       0.7000
     number of iterations used =            8  plain     mixing
     Exchange-correlation= SLA  PW   PBX  PBC
                           (   1   4   3   4   0   0   0)

     celldm(1)=  14.851694  celldm(2)=   0.000000  celldm(3)=   0.000000
     celldm(4)=   0.000000  celldm(5)=   0.000000  celldm(6)=   0.000000

     crystal axes: (cart. coord. in units of alat)
               a(1) = (   1.000000   0.000000   0.000000 )  
               a(2) = (   0.000000   1.000000   0.000000 )  
               a(3) = (   0.000000   0.000000   1.000000 )  

     reciprocal axes: (cart. coord. in units 2 pi/alat)
               b(1) = (  1.000000  0.000000  0.000000 )  
               b(2) = (  0.000000  1.000000  0.000000 )  
               b(3) = (  0.000000  0.000000  1.000000 )  


     PseudoPot. # 1 for Cs read from file:
     ../../../pseudo/Cs.pbe-spn-kjpaw_psl.1.0.0.UPF
     MD5 check sum: b82c75cc2e1f4ff73b6412cffeb9c584
     Pseudo is Projector augmented-wave + core cor, Zval =  9.0
     Generated using &quot;atomic&quot; code by A. Dal Corso  v.6.4.1
     Shape of augmentation charge: PSQ
     Using radial grid of 1251 points,  9 beta functions with: 
                l(1) =   0
                l(2) =   0
                l(3) =   0
                l(4) =   1
                l(5) =   1
                l(6) =   2
                l(7) =   2
                l(8) =   3
                l(9) =   3
     Q(r) pseudized with 0 coefficients 


     PseudoPot. # 2 for I  read from file:
     ../../../pseudo/I.pbe-n-kjpaw_psl.1.0.0.UPF
     MD5 check sum: cd3d296c3308a581e1559a0c8a554cb5
     Pseudo is Projector augmented-wave + core cor, Zval =  7.0
     Generated using &quot;atomic&quot; code by A. Dal Corso  v.6.3
     Shape of augmentation charge: PSQ
     Using radial grid of 1247 points,  6 beta functions with: 
                l(1) =   0
                l(2) =   0
                l(3) =   1
                l(4) =   1
                l(5) =   2
                l(6) =   2
     Q(r) pseudized with 0 coefficients 


     atomic species   valence    mass     pseudopotential
        Cs             9.00   132.90000     Cs( 1.00)
        I              7.00   126.90000     I ( 1.00)

     48 Sym. Ops., with inversion, found


                                    s                        frac. trans.

      isym =  1     identity                                     

 cryst.   s( 1) = (     1          0          0      )
                  (     0          1          0      )
                  (     0          0          1      )

 cart.    s( 1) = (  1.0000000  0.0000000  0.0000000 )
                  (  0.0000000  1.0000000  0.0000000 )
                  (  0.0000000  0.0000000  1.0000000 )


      isym =  2     180 deg rotation - cart. axis [0,0,1]        

 cryst.   s( 2) = (    -1          0          0      )
                  (     0         -1          0      )
                  (     0          0          1      )

 cart.    s( 2) = ( -1.0000000  0.0000000  0.0000000 )
                  (  0.0000000 -1.0000000  0.0000000 )
                  (  0.0000000  0.0000000  1.0000000 )


      isym =  3     180 deg rotation - cart. axis [0,1,0]        

 cryst.   s( 3) = (    -1          0          0      )
                  (     0          1          0      )
                  (     0          0         -1      )

 cart.    s( 3) = ( -1.0000000  0.0000000  0.0000000 )
                  (  0.0000000  1.0000000  0.0000000 )
                  (  0.0000000  0.0000000 -1.0000000 )


      isym =  4     180 deg rotation - cart. axis [1,0,0]        

 cryst.   s( 4) = (     1          0          0      )
                  (     0         -1          0      )
                  (     0          0         -1      )

 cart.    s( 4) = (  1.0000000  0.0000000  0.0000000 )
                  (  0.0000000 -1.0000000  0.0000000 )
                  (  0.0000000  0.0000000 -1.0000000 )


      isym =  5     180 deg rotation - cart. axis [1,1,0]        

 cryst.   s( 5) = (     0          1          0      )
                  (     1          0          0      )
                  (     0          0         -1      )

 cart.    s( 5) = (  0.0000000  1.0000000  0.0000000 )
                  (  1.0000000  0.0000000  0.0000000 )
                  (  0.0000000  0.0000000 -1.0000000 )


      isym =  6     180 deg rotation - cart. axis [1,-1,0]       

 cryst.   s( 6) = (     0         -1          0      )
                  (    -1          0          0      )
                  (     0          0         -1      )

 cart.    s( 6) = (  0.0000000 -1.0000000  0.0000000 )
                  ( -1.0000000  0.0000000  0.0000000 )
                  (  0.0000000  0.0000000 -1.0000000 )


      isym =  7      90 deg rotation - cart. axis [0,0,-1]       

 cryst.   s( 7) = (     0         -1          0      )
                  (     1          0          0      )
                  (     0          0          1      )

 cart.    s( 7) = (  0.0000000  1.0000000  0.0000000 )
                  ( -1.0000000  0.0000000  0.0000000 )
                  (  0.0000000  0.0000000  1.0000000 )


      isym =  8      90 deg rotation - cart. axis [0,0,1]        

 cryst.   s( 8) = (     0          1          0      )
                  (    -1          0          0      )
                  (     0          0          1      )

 cart.    s( 8) = (  0.0000000 -1.0000000  0.0000000 )
                  (  1.0000000  0.0000000  0.0000000 )
                  (  0.0000000  0.0000000  1.0000000 )


      isym =  9     180 deg rotation - cart. axis [1,0,1]        

 cryst.   s( 9) = (     0          0          1      )
                  (     0         -1          0      )
                  (     1          0          0      )

 cart.    s( 9) = (  0.0000000  0.0000000  1.0000000 )
                  (  0.0000000 -1.0000000  0.0000000 )
                  (  1.0000000  0.0000000  0.0000000 )


      isym = 10     180 deg rotation - cart. axis [-1,0,1]       

 cryst.   s(10) = (     0          0         -1      )
                  (     0         -1          0      )
                  (    -1          0          0      )

 cart.    s(10) = (  0.0000000  0.0000000 -1.0000000 )
                  (  0.0000000 -1.0000000  0.0000000 )
                  ( -1.0000000  0.0000000  0.0000000 )


      isym = 11      90 deg rotation - cart. axis [0,1,0]        

 cryst.   s(11) = (     0          0         -1      )
                  (     0          1          0      )
                  (     1          0          0      )

 cart.    s(11) = (  0.0000000  0.0000000  1.0000000 )
                  (  0.0000000  1.0000000  0.0000000 )
                  ( -1.0000000  0.0000000  0.0000000 )


      isym = 12      90 deg rotation - cart. axis [0,-1,0]       

 cryst.   s(12) = (     0          0          1      )
                  (     0          1          0      )
                  (    -1          0          0      )

 cart.    s(12) = (  0.0000000  0.0000000 -1.0000000 )
                  (  0.0000000  1.0000000  0.0000000 )
                  (  1.0000000  0.0000000  0.0000000 )


      isym = 13     180 deg rotation - cart. axis [0,1,1]        

 cryst.   s(13) = (    -1          0          0      )
                  (     0          0          1      )
                  (     0          1          0      )

 cart.    s(13) = ( -1.0000000  0.0000000  0.0000000 )
                  (  0.0000000  0.0000000  1.0000000 )
                  (  0.0000000  1.0000000  0.0000000 )


      isym = 14     180 deg rotation - cart. axis [0,1,-1]       

 cryst.   s(14) = (    -1          0          0      )
                  (     0          0         -1      )
                  (     0         -1          0      )

 cart.    s(14) = ( -1.0000000  0.0000000  0.0000000 )
                  (  0.0000000  0.0000000 -1.0000000 )
                  (  0.0000000 -1.0000000  0.0000000 )


      isym = 15      90 deg rotation - cart. axis [-1,0,0]       

 cryst.   s(15) = (     1          0          0      )
                  (     0          0         -1      )
                  (     0          1          0      )

 cart.    s(15) = (  1.0000000  0.0000000  0.0000000 )
                  (  0.0000000  0.0000000  1.0000000 )
                  (  0.0000000 -1.0000000  0.0000000 )


      isym = 16      90 deg rotation - cart. axis [1,0,0]        

 cryst.   s(16) = (     1          0          0      )
                  (     0          0          1      )
                  (     0         -1          0      )

 cart.    s(16) = (  1.0000000  0.0000000  0.0000000 )
                  (  0.0000000  0.0000000 -1.0000000 )
                  (  0.0000000  1.0000000  0.0000000 )


      isym = 17     120 deg rotation - cart. axis [-1,-1,-1]     

 cryst.   s(17) = (     0          0          1      )
                  (     1          0          0      )
                  (     0          1          0      )

 cart.    s(17) = (  0.0000000  1.0000000  0.0000000 )
                  (  0.0000000  0.0000000  1.0000000 )
                  (  1.0000000  0.0000000  0.0000000 )


      isym = 18     120 deg rotation - cart. axis [-1,1,1]       

 cryst.   s(18) = (     0          0         -1      )
                  (    -1          0          0      )
                  (     0          1          0      )

 cart.    s(18) = (  0.0000000 -1.0000000  0.0000000 )
                  (  0.0000000  0.0000000  1.0000000 )
                  ( -1.0000000  0.0000000  0.0000000 )


      isym = 19     120 deg rotation - cart. axis [1,1,-1]       

 cryst.   s(19) = (     0          0         -1      )
                  (     1          0          0      )
                  (     0         -1          0      )

 cart.    s(19) = (  0.0000000  1.0000000  0.0000000 )
                  (  0.0000000  0.0000000 -1.0000000 )
                  ( -1.0000000  0.0000000  0.0000000 )


      isym = 20     120 deg rotation - cart. axis [1,-1,1]       

 cryst.   s(20) = (     0          0          1      )
                  (    -1          0          0      )
                  (     0         -1          0      )

 cart.    s(20) = (  0.0000000 -1.0000000  0.0000000 )
                  (  0.0000000  0.0000000 -1.0000000 )
                  (  1.0000000  0.0000000  0.0000000 )


      isym = 21     120 deg rotation - cart. axis [1,1,1]        

 cryst.   s(21) = (     0          1          0      )
                  (     0          0          1      )
                  (     1          0          0      )

 cart.    s(21) = (  0.0000000  0.0000000  1.0000000 )
                  (  1.0000000  0.0000000  0.0000000 )
                  (  0.0000000  1.0000000  0.0000000 )


      isym = 22     120 deg rotation - cart. axis [-1,1,-1]      

 cryst.   s(22) = (     0         -1          0      )
                  (     0          0         -1      )
                  (     1          0          0      )

 cart.    s(22) = (  0.0000000  0.0000000  1.0000000 )
                  ( -1.0000000  0.0000000  0.0000000 )
                  (  0.0000000 -1.0000000  0.0000000 )


      isym = 23     120 deg rotation - cart. axis [1,-1,-1]      

 cryst.   s(23) = (     0         -1          0      )
                  (     0          0          1      )
                  (    -1          0          0      )

 cart.    s(23) = (  0.0000000  0.0000000 -1.0000000 )
                  ( -1.0000000  0.0000000  0.0000000 )
                  (  0.0000000  1.0000000  0.0000000 )


      isym = 24     120 deg rotation - cart. axis [-1,-1,1]      

 cryst.   s(24) = (     0          1          0      )
                  (     0          0         -1      )
                  (    -1          0          0      )

 cart.    s(24) = (  0.0000000  0.0000000 -1.0000000 )
                  (  1.0000000  0.0000000  0.0000000 )
                  (  0.0000000 -1.0000000  0.0000000 )


      isym = 25     inversion                                    

 cryst.   s(25) = (    -1          0          0      )
                  (     0         -1          0      )
                  (     0          0         -1      )

 cart.    s(25) = ( -1.0000000  0.0000000  0.0000000 )
                  (  0.0000000 -1.0000000  0.0000000 )
                  (  0.0000000  0.0000000 -1.0000000 )


      isym = 26     inv. 180 deg rotation - cart. axis [0,0,1]   

 cryst.   s(26) = (     1          0          0      )
                  (     0          1          0      )
                  (     0          0         -1      )

 cart.    s(26) = (  1.0000000  0.0000000  0.0000000 )
                  (  0.0000000  1.0000000  0.0000000 )
                  (  0.0000000  0.0000000 -1.0000000 )


      isym = 27     inv. 180 deg rotation - cart. axis [0,1,0]   

 cryst.   s(27) = (     1          0          0      )
                  (     0         -1          0      )
                  (     0          0          1      )

 cart.    s(27) = (  1.0000000  0.0000000  0.0000000 )
                  (  0.0000000 -1.0000000  0.0000000 )
                  (  0.0000000  0.0000000  1.0000000 )


      isym = 28     inv. 180 deg rotation - cart. axis [1,0,0]   

 cryst.   s(28) = (    -1          0          0      )
                  (     0          1          0      )
                  (     0          0          1      )

 cart.    s(28) = ( -1.0000000  0.0000000  0.0000000 )
                  (  0.0000000  1.0000000  0.0000000 )
                  (  0.0000000  0.0000000  1.0000000 )


      isym = 29     inv. 180 deg rotation - cart. axis [1,1,0]   

 cryst.   s(29) = (     0         -1          0      )
                  (    -1          0          0      )
                  (     0          0          1      )

 cart.    s(29) = (  0.0000000 -1.0000000  0.0000000 )
                  ( -1.0000000  0.0000000  0.0000000 )
                  (  0.0000000  0.0000000  1.0000000 )


      isym = 30     inv. 180 deg rotation - cart. axis [1,-1,0]  

 cryst.   s(30) = (     0          1          0      )
                  (     1          0          0      )
                  (     0          0          1      )

 cart.    s(30) = (  0.0000000  1.0000000  0.0000000 )
                  (  1.0000000  0.0000000  0.0000000 )
                  (  0.0000000  0.0000000  1.0000000 )


      isym = 31     inv.  90 deg rotation - cart. axis [0,0,-1]  

 cryst.   s(31) = (     0          1          0      )
                  (    -1          0          0      )
                  (     0          0         -1      )

 cart.    s(31) = (  0.0000000 -1.0000000  0.0000000 )
                  (  1.0000000  0.0000000  0.0000000 )
                  (  0.0000000  0.0000000 -1.0000000 )


      isym = 32     inv.  90 deg rotation - cart. axis [0,0,1]   

 cryst.   s(32) = (     0         -1          0      )
                  (     1          0          0      )
                  (     0          0         -1      )

 cart.    s(32) = (  0.0000000  1.0000000  0.0000000 )
                  ( -1.0000000  0.0000000  0.0000000 )
                  (  0.0000000  0.0000000 -1.0000000 )


      isym = 33     inv. 180 deg rotation - cart. axis [1,0,1]   

 cryst.   s(33) = (     0          0         -1      )
                  (     0          1          0      )
                  (    -1          0          0      )

 cart.    s(33) = (  0.0000000  0.0000000 -1.0000000 )
                  (  0.0000000  1.0000000  0.0000000 )
                  ( -1.0000000  0.0000000  0.0000000 )


      isym = 34     inv. 180 deg rotation - cart. axis [-1,0,1]  

 cryst.   s(34) = (     0          0          1      )
                  (     0          1          0      )
                  (     1          0          0      )

 cart.    s(34) = (  0.0000000  0.0000000  1.0000000 )
                  (  0.0000000  1.0000000  0.0000000 )
                  (  1.0000000  0.0000000  0.0000000 )


      isym = 35     inv.  90 deg rotation - cart. axis [0,1,0]   

 cryst.   s(35) = (     0          0          1      )
                  (     0         -1          0      )
                  (    -1          0          0      )

 cart.    s(35) = (  0.0000000  0.0000000 -1.0000000 )
                  (  0.0000000 -1.0000000  0.0000000 )
                  (  1.0000000  0.0000000  0.0000000 )


      isym = 36     inv.  90 deg rotation - cart. axis [0,-1,0]  

 cryst.   s(36) = (     0          0         -1      )
                  (     0         -1          0      )
                  (     1          0          0      )

 cart.    s(36) = (  0.0000000  0.0000000  1.0000000 )
                  (  0.0000000 -1.0000000  0.0000000 )
                  ( -1.0000000  0.0000000  0.0000000 )


      isym = 37     inv. 180 deg rotation - cart. axis [0,1,1]   

 cryst.   s(37) = (     1          0          0      )
                  (     0          0         -1      )
                  (     0         -1          0      )

 cart.    s(37) = (  1.0000000  0.0000000  0.0000000 )
                  (  0.0000000  0.0000000 -1.0000000 )
                  (  0.0000000 -1.0000000  0.0000000 )


      isym = 38     inv. 180 deg rotation - cart. axis [0,1,-1]  

 cryst.   s(38) = (     1          0          0      )
                  (     0          0          1      )
                  (     0          1          0      )

 cart.    s(38) = (  1.0000000  0.0000000  0.0000000 )
                  (  0.0000000  0.0000000  1.0000000 )
                  (  0.0000000  1.0000000  0.0000000 )


      isym = 39     inv.  90 deg rotation - cart. axis [-1,0,0]  

 cryst.   s(39) = (    -1          0          0      )
                  (     0          0          1      )
                  (     0         -1          0      )

 cart.    s(39) = ( -1.0000000  0.0000000  0.0000000 )
                  (  0.0000000  0.0000000 -1.0000000 )
                  (  0.0000000  1.0000000  0.0000000 )


      isym = 40     inv.  90 deg rotation - cart. axis [1,0,0]   

 cryst.   s(40) = (    -1          0          0      )
                  (     0          0         -1      )
                  (     0          1          0      )

 cart.    s(40) = ( -1.0000000  0.0000000  0.0000000 )
                  (  0.0000000  0.0000000  1.0000000 )
                  (  0.0000000 -1.0000000  0.0000000 )


      isym = 41     inv. 120 deg rotation - cart. axis [-1,-1,-1]

 cryst.   s(41) = (     0          0         -1      )
                  (    -1          0          0      )
                  (     0         -1          0      )

 cart.    s(41) = (  0.0000000 -1.0000000  0.0000000 )
                  (  0.0000000  0.0000000 -1.0000000 )
                  ( -1.0000000  0.0000000  0.0000000 )


      isym = 42     inv. 120 deg rotation - cart. axis [-1,1,1]  

 cryst.   s(42) = (     0          0          1      )
                  (     1          0          0      )
                  (     0         -1          0      )

 cart.    s(42) = (  0.0000000  1.0000000  0.0000000 )
                  (  0.0000000  0.0000000 -1.0000000 )
                  (  1.0000000  0.0000000  0.0000000 )


      isym = 43     inv. 120 deg rotation - cart. axis [1,1,-1]  

 cryst.   s(43) = (     0          0          1      )
                  (    -1          0          0      )
                  (     0          1          0      )

 cart.    s(43) = (  0.0000000 -1.0000000  0.0000000 )
                  (  0.0000000  0.0000000  1.0000000 )
                  (  1.0000000  0.0000000  0.0000000 )


      isym = 44     inv. 120 deg rotation - cart. axis [1,-1,1]  

 cryst.   s(44) = (     0          0         -1      )
                  (     1          0          0      )
                  (     0          1          0      )

 cart.    s(44) = (  0.0000000  1.0000000  0.0000000 )
                  (  0.0000000  0.0000000  1.0000000 )
                  ( -1.0000000  0.0000000  0.0000000 )


      isym = 45     inv. 120 deg rotation - cart. axis [1,1,1]   

 cryst.   s(45) = (     0         -1          0      )
                  (     0          0         -1      )
                  (    -1          0          0      )

 cart.    s(45) = (  0.0000000  0.0000000 -1.0000000 )
                  ( -1.0000000  0.0000000  0.0000000 )
                  (  0.0000000 -1.0000000  0.0000000 )


      isym = 46     inv. 120 deg rotation - cart. axis [-1,1,-1] 

 cryst.   s(46) = (     0          1          0      )
                  (     0          0          1      )
                  (    -1          0          0      )

 cart.    s(46) = (  0.0000000  0.0000000 -1.0000000 )
                  (  1.0000000  0.0000000  0.0000000 )
                  (  0.0000000  1.0000000  0.0000000 )


      isym = 47     inv. 120 deg rotation - cart. axis [1,-1,-1] 

 cryst.   s(47) = (     0          1          0      )
                  (     0          0         -1      )
                  (     1          0          0      )

 cart.    s(47) = (  0.0000000  0.0000000  1.0000000 )
                  (  1.0000000  0.0000000  0.0000000 )
                  (  0.0000000 -1.0000000  0.0000000 )


      isym = 48     inv. 120 deg rotation - cart. axis [-1,-1,1] 

 cryst.   s(48) = (     0         -1          0      )
                  (     0          0          1      )
                  (     1          0          0      )

 cart.    s(48) = (  0.0000000  0.0000000  1.0000000 )
                  ( -1.0000000  0.0000000  0.0000000 )
                  (  0.0000000  1.0000000  0.0000000 )


   Cartesian axes

     site n.     atom                  positions (alat units)
         1           Cs  tau(   1) = (   0.0000000   0.0000000   0.0000000  )
         2           Cs  tau(   2) = (   0.0000000   0.5000000   0.5000000  )
         3           Cs  tau(   3) = (   0.5000000   0.0000000   0.5000000  )
         4           Cs  tau(   4) = (   0.5000000   0.5000000   0.0000000  )
         5           I   tau(   5) = (   0.5000000   0.0000000   0.0000000  )
         6           I   tau(   6) = (   0.5000000   0.5000000   0.5000000  )
         7           I   tau(   7) = (   0.0000000   0.0000000   0.5000000  )
         8           I   tau(   8) = (   0.0000000   0.5000000   0.0000000  )

   Crystallographic axes

     site n.     atom                  positions (cryst. coord.)
         1           Cs  tau(   1) = (  0.0000000  0.0000000  0.0000000  )
         2           Cs  tau(   2) = (  0.0000000  0.5000000  0.5000000  )
         3           Cs  tau(   3) = (  0.5000000  0.0000000  0.5000000  )
         4           Cs  tau(   4) = (  0.5000000  0.5000000  0.0000000  )
         5           I   tau(   5) = (  0.5000000  0.0000000  0.0000000  )
         6           I   tau(   6) = (  0.5000000  0.5000000  0.5000000  )
         7           I   tau(   7) = (  0.0000000  0.0000000  0.5000000  )
         8           I   tau(   8) = (  0.0000000  0.5000000  0.0000000  )

     number of k points=    35
                       cart. coord. in units 2pi/alat
        k(    1) = (   0.0000000   0.0000000   0.0000000), wk =   0.0039062
        k(    2) = (   0.0000000   0.0000000   0.1250000), wk =   0.0234375
        k(    3) = (   0.0000000   0.0000000   0.2500000), wk =   0.0234375
        k(    4) = (   0.0000000   0.0000000   0.3750000), wk =   0.0234375
        k(    5) = (   0.0000000   0.0000000  -0.5000000), wk =   0.0117188
        k(    6) = (   0.0000000   0.1250000   0.1250000), wk =   0.0468750
        k(    7) = (   0.0000000   0.1250000   0.2500000), wk =   0.0937500
        k(    8) = (   0.0000000   0.1250000   0.3750000), wk =   0.0937500
        k(    9) = (   0.0000000   0.1250000  -0.5000000), wk =   0.0468750
        k(   10) = (   0.0000000   0.2500000   0.2500000), wk =   0.0468750
        k(   11) = (   0.0000000   0.2500000   0.3750000), wk =   0.0937500
        k(   12) = (   0.0000000   0.2500000  -0.5000000), wk =   0.0468750
        k(   13) = (   0.0000000   0.3750000   0.3750000), wk =   0.0468750
        k(   14) = (   0.0000000   0.3750000  -0.5000000), wk =   0.0468750
        k(   15) = (   0.0000000  -0.5000000  -0.5000000), wk =   0.0117188
        k(   16) = (   0.1250000   0.1250000   0.1250000), wk =   0.0312500
        k(   17) = (   0.1250000   0.1250000   0.2500000), wk =   0.0937500
        k(   18) = (   0.1250000   0.1250000   0.3750000), wk =   0.0937500
        k(   19) = (   0.1250000   0.1250000  -0.5000000), wk =   0.0468750
        k(   20) = (   0.1250000   0.2500000   0.2500000), wk =   0.0937500
        k(   21) = (   0.1250000   0.2500000   0.3750000), wk =   0.1875000
        k(   22) = (   0.1250000   0.2500000  -0.5000000), wk =   0.0937500
        k(   23) = (   0.1250000   0.3750000   0.3750000), wk =   0.0937500
        k(   24) = (   0.1250000   0.3750000  -0.5000000), wk =   0.0937500
        k(   25) = (   0.1250000  -0.5000000  -0.5000000), wk =   0.0234375
        k(   26) = (   0.2500000   0.2500000   0.2500000), wk =   0.0312500
        k(   27) = (   0.2500000   0.2500000   0.3750000), wk =   0.0937500
        k(   28) = (   0.2500000   0.2500000  -0.5000000), wk =   0.0468750
        k(   29) = (   0.2500000   0.3750000   0.3750000), wk =   0.0937500
        k(   30) = (   0.2500000   0.3750000  -0.5000000), wk =   0.0937500
        k(   31) = (   0.2500000  -0.5000000  -0.5000000), wk =   0.0234375
        k(   32) = (   0.3750000   0.3750000   0.3750000), wk =   0.0312500
        k(   33) = (   0.3750000   0.3750000  -0.5000000), wk =   0.0468750
        k(   34) = (   0.3750000  -0.5000000  -0.5000000), wk =   0.0234375
        k(   35) = (  -0.5000000  -0.5000000  -0.5000000), wk =   0.0039062

                       cryst. coord.
        k(    1) = (   0.0000000   0.0000000   0.0000000), wk =   0.0039062
        k(    2) = (   0.0000000   0.0000000   0.1250000), wk =   0.0234375
        k(    3) = (   0.0000000   0.0000000   0.2500000), wk =   0.0234375
        k(    4) = (   0.0000000   0.0000000   0.3750000), wk =   0.0234375
        k(    5) = (   0.0000000   0.0000000  -0.5000000), wk =   0.0117188
        k(    6) = (   0.0000000   0.1250000   0.1250000), wk =   0.0468750
        k(    7) = (   0.0000000   0.1250000   0.2500000), wk =   0.0937500
        k(    8) = (   0.0000000   0.1250000   0.3750000), wk =   0.0937500
        k(    9) = (   0.0000000   0.1250000  -0.5000000), wk =   0.0468750
        k(   10) = (   0.0000000   0.2500000   0.2500000), wk =   0.0468750
        k(   11) = (   0.0000000   0.2500000   0.3750000), wk =   0.0937500
        k(   12) = (   0.0000000   0.2500000  -0.5000000), wk =   0.0468750
        k(   13) = (   0.0000000   0.3750000   0.3750000), wk =   0.0468750
        k(   14) = (   0.0000000   0.3750000  -0.5000000), wk =   0.0468750
        k(   15) = (   0.0000000  -0.5000000  -0.5000000), wk =   0.0117188
        k(   16) = (   0.1250000   0.1250000   0.1250000), wk =   0.0312500
        k(   17) = (   0.1250000   0.1250000   0.2500000), wk =   0.0937500
        k(   18) = (   0.1250000   0.1250000   0.3750000), wk =   0.0937500
        k(   19) = (   0.1250000   0.1250000  -0.5000000), wk =   0.0468750
        k(   20) = (   0.1250000   0.2500000   0.2500000), wk =   0.0937500
        k(   21) = (   0.1250000   0.2500000   0.3750000), wk =   0.1875000
        k(   22) = (   0.1250000   0.2500000  -0.5000000), wk =   0.0937500
        k(   23) = (   0.1250000   0.3750000   0.3750000), wk =   0.0937500
        k(   24) = (   0.1250000   0.3750000  -0.5000000), wk =   0.0937500
        k(   25) = (   0.1250000  -0.5000000  -0.5000000), wk =   0.0234375
        k(   26) = (   0.2500000   0.2500000   0.2500000), wk =   0.0312500
        k(   27) = (   0.2500000   0.2500000   0.3750000), wk =   0.0937500
        k(   28) = (   0.2500000   0.2500000  -0.5000000), wk =   0.0468750
        k(   29) = (   0.2500000   0.3750000   0.3750000), wk =   0.0937500
        k(   30) = (   0.2500000   0.3750000  -0.5000000), wk =   0.0937500
        k(   31) = (   0.2500000  -0.5000000  -0.5000000), wk =   0.0234375
        k(   32) = (   0.3750000   0.3750000   0.3750000), wk =   0.0312500
        k(   33) = (   0.3750000   0.3750000  -0.5000000), wk =   0.0468750
        k(   34) = (   0.3750000  -0.5000000  -0.5000000), wk =   0.0234375
        k(   35) = (  -0.5000000  -0.5000000  -0.5000000), wk =   0.0039062

     Dense  grid:   205453 G-vectors     FFT dimensions: (  75,  75,  75)

     Dynamical RAM for                 wfc:       0.66 MB

     Dynamical RAM for     wfc (w. buffer):      23.78 MB

     Dynamical RAM for           str. fact:       0.33 MB

     Dynamical RAM for           local pot:       0.00 MB

     Dynamical RAM for          nlocal pot:       4.21 MB

     Dynamical RAM for                qrad:       7.46 MB

     Dynamical RAM for          rho,v,vnew:       1.01 MB

     Dynamical RAM for               rhoin:       0.34 MB

     Dynamical RAM for            rho*nmix:       2.64 MB

     Dynamical RAM for           G-vectors:       0.70 MB

     Dynamical RAM for          h,s,v(r/c):       0.19 MB

     Dynamical RAM for          <psi|beta>:       0.10 MB

     Dynamical RAM for                 psi:       1.32 MB

     Dynamical RAM for                hpsi:       1.32 MB

     Dynamical RAM for                spsi:       1.32 MB

     Dynamical RAM for      wfcinit/wfcrot:       1.52 MB

     Dynamical RAM for           addusdens:      97.69 MB

     Dynamical RAM for          addusforce:      98.82 MB

     Dynamical RAM for         addusstress:     101.49 MB

     Estimated static dynamical RAM per process >      41.83 MB

     Estimated max dynamical RAM per process >     143.32 MB

     Estimated total dynamical RAM >       2.66 GB

     Initial potential from superposition of free atoms

     starting charge   63.84126, renormalised to   64.00000
     Starting wfcs are   36 randomized atomic wfcs
     Checking if some PAW data can be deallocated... 
       PAW data deallocated on    8 nodes for type:  1
       PAW data deallocated on   11 nodes for type:  2

     total cpu time spent up to now is       13.1 secs

     Self-consistent Calculation

     iteration #  1     ecut=    60.00 Ry     beta= 0.70
     Davidson diagonalization with overlap
     ethr =  1.00E-02,  avg # of iterations =  1.0

     Threshold (ethr) on eigenvalues was too large:
     Diagonalizing with lowered threshold

     Davidson diagonalization with overlap
     ethr =  4.26E-04,  avg # of iterations =  4.1

     total cpu time spent up to now is       67.3 secs

     total energy              =   -3179.52270475 Ry
     estimated scf accuracy    <       0.19537626 Ry

     iteration #  2     ecut=    60.00 Ry     beta= 0.70
     Davidson diagonalization with overlap
     ethr =  3.05E-04,  avg # of iterations =  4.9

     total cpu time spent up to now is      102.9 secs

     total energy              =   -3179.60884823 Ry
     estimated scf accuracy    <       0.03589578 Ry

     iteration #  3     ecut=    60.00 Ry     beta= 0.70
     Davidson diagonalization with overlap
     ethr =  5.61E-05,  avg # of iterations =  2.3

     total cpu time spent up to now is      132.0 secs

     total energy              =   -3179.61217684 Ry
     estimated scf accuracy    <       0.00476619 Ry

     iteration #  4     ecut=    60.00 Ry     beta= 0.70
     Davidson diagonalization with overlap
     ethr =  7.45E-06,  avg # of iterations =  6.4

     total cpu time spent up to now is      184.9 secs

     total energy              =   -3179.61623696 Ry
     estimated scf accuracy    <       0.00399334 Ry

     iteration #  5     ecut=    60.00 Ry     beta= 0.70
     Davidson diagonalization with overlap
     ethr =  6.24E-06,  avg # of iterations =  4.5

     total cpu time spent up to now is      217.4 secs

     total energy              =   -3179.61755989 Ry
     estimated scf accuracy    <       0.00051829 Ry

     iteration #  6     ecut=    60.00 Ry     beta= 0.70
     Davidson diagonalization with overlap
     ethr =  8.10E-07,  avg # of iterations =  4.9

     total cpu time spent up to now is      257.7 secs

     total energy              =   -3179.61774022 Ry
     estimated scf accuracy    <       0.00005484 Ry

     iteration #  7     ecut=    60.00 Ry     beta= 0.70
     Davidson diagonalization with overlap
     ethr =  8.57E-08,  avg # of iterations =  8.0

     total cpu time spent up to now is      326.2 secs

     total energy              =   -3179.61782284 Ry
     estimated scf accuracy    <       0.00000288 Ry

     iteration #  8     ecut=    60.00 Ry     beta= 0.70
     Davidson diagonalization with overlap
     ethr =  4.49E-09,  avg # of iterations =  9.7

     total cpu time spent up to now is      407.2 secs

     total energy              =   -3179.61782975 Ry
     estimated scf accuracy    <       0.00000669 Ry

     iteration #  9     ecut=    60.00 Ry     beta= 0.70
     Davidson diagonalization with overlap
     ethr =  4.49E-09,  avg # of iterations =  1.3

     total cpu time spent up to now is      431.6 secs

     total energy              =   -3179.61782987 Ry
     estimated scf accuracy    <       0.00000526 Ry

     iteration # 10     ecut=    60.00 Ry     beta= 0.70
     Davidson diagonalization with overlap
     ethr =  4.49E-09,  avg # of iterations =  7.1

     total cpu time spent up to now is      489.8 secs

     total energy              =   -3179.61785049 Ry
     estimated scf accuracy    <       0.00004920 Ry

     iteration # 11     ecut=    60.00 Ry     beta= 0.70
     Davidson diagonalization with overlap
     ethr =  4.49E-09,  avg # of iterations =  1.8

     total cpu time spent up to now is      514.7 secs

     total energy              =   -3179.61781842 Ry
     estimated scf accuracy    <       0.00005346 Ry

     iteration # 12     ecut=    60.00 Ry     beta= 0.70
     Davidson diagonalization with overlap
     ethr =  4.49E-09,  avg # of iterations =  6.6

     total cpu time spent up to now is      568.1 secs

     End of self-consistent calculation

          k = 0.0000 0.0000 0.0000 ( 25677 PWs)   bands (ev):

   -19.0131 -19.0047 -19.0047 -19.0047  -9.1933  -9.1640  -9.1639  -9.1639
    -5.9520  -5.9520  -5.9520  -5.8649  -5.8649  -5.8649  -5.8649  -5.8649
    -5.8649  -5.8063  -5.8063  -5.8063   0.6853   0.6853   0.6853   0.8796
     0.8796   0.8796   0.8797   0.8797   0.8797   0.9766   0.9766   0.9766

     occupation numbers 
     1.0000   1.0000   1.0000   1.0000   1.0000   1.0000   1.0000   1.0000
     1.0000   1.0000   1.0000   1.0000   1.0000   1.0000   1.0000   1.0000
     1.0000   1.0000   1.0000   1.0000   1.0000   1.0000   1.0000   1.0000
     1.0000   1.0000   1.0000   1.0000   1.0000   1.0000   1.0000   1.0000

          k = 0.0000 0.0000 0.1250 ( 25689 PWs)   bands (ev):

   -19.0127 -19.0050 -19.0047 -19.0046  -9.1950  -9.1680  -9.1668  -9.1667
    -5.9487  -5.9487  -5.9357  -5.8682  -5.8682  -5.8627  -5.8627  -5.8542
    -5.8542  -5.8085  -5.8085  -5.8008   0.6519   0.6896   0.6896   0.8332
     0.8333   0.8684   0.8684   0.8812   0.8812   0.9091   0.9704   0.9704

     occupation numbers 
     1.0000   1.0000   1.0000   1.0000   1.0000   1.0000   1.0000   1.0000
     1.0000   1.0000   1.0000   1.0000   1.0000   1.0000   1.0000   1.0000
     1.0000   1.0000   1.0000   1.0000   1.0000   1.0000   1.0000   1.0000
     1.0000   1.0000   1.0000   1.0000   1.0000   1.0000   1.0000   1.0000

          k = 0.0000 0.0000 0.2500 ( 25725 PWs)   bands (ev):

   -19.0118 -19.0059 -19.0046 -19.0046  -9.1986  -9.1781  -9.1735  -9.1734
    -5.9392  -5.9392  -5.8938  -5.8777  -5.8777  -5.8562  -5.8562  -5.8282
    -5.8281  -5.8147  -5.8147  -5.7901   0.5759   0.7031   0.7031   0.7251
     0.7251   0.7534   0.8384   0.8384   0.8864   0.8864   0.9542   0.9542

     occupation numbers 
     1.0000   1.0000   1.0000   1.0000   1.0000   1.0000   1.0000   1.0000
     1.0000   1.0000   1.0000   1.0000   1.0000   1.0000   1.0000   1.0000
     1.0000   1.0000   1.0000   1.0000   1.0000   1.0000   1.0000   1.0000
     1.0000   1.0000   1.0000   1.0000   1.0000   1.0000   1.0000   1.0000

          k = 0.0000 0.0000 0.3750 ( 25732 PWs)   bands (ev):

   -19.0104 -19.0072 -19.0046 -19.0046  -9.2006  -9.1897  -9.1802  -9.1801
    -5.9251  -5.9251  -5.8918  -5.8918  -5.8466  -5.8466  -5.8436  -5.8242
    -5.8242  -5.8019  -5.8019  -5.7872   0.5118   0.5990   0.6217   0.6217
     0.7265   0.7265   0.7989   0.7989   0.8967   0.8967   0.9330   0.9330

     occupation numbers 
     1.0000   1.0000   1.0000   1.0000   1.0000   1.0000   1.0000   1.0000
     1.0000   1.0000   1.0000   1.0000   1.0000   1.0000   1.0000   1.0000
     1.0000   1.0000   1.0000   1.0000   1.0000   1.0000   1.0000   1.0000
     1.0000   1.0000   1.0000   1.0000   1.0000   1.0000   1.0000   1.0000

          k = 0.0000 0.0000-0.5000 ( 25628 PWs)   bands (ev):

   -19.0088 -19.0088 -19.0046 -19.0046  -9.1980  -9.1979  -9.1829  -9.1828
    -5.9084  -5.9084  -5.9084  -5.9084  -5.8354  -5.8354  -5.8354  -5.8354
    -5.8043  -5.8043  -5.7909  -5.7909   0.5118   0.5119   0.5801   0.5801
     0.7593   0.7593   0.7594   0.7594   0.9126   0.9126   0.9126   0.9126

     occupation numbers 
     1.0000   1.0000   1.0000   1.0000   1.0000   1.0000   1.0000   1.0000
     1.0000   1.0000   1.0000   1.0000   1.0000   1.0000   1.0000   1.0000
     1.0000   1.0000   1.0000   1.0000   1.0000   1.0000   1.0000   1.0000
     1.0000   1.0000   1.0000   1.0000   1.0000   1.0000   1.0000   1.0000

          k = 0.0000 0.1250 0.1250 ( 25672 PWs)   bands (ev):

   -19.0124 -19.0049 -19.0049 -19.0046  -9.1967  -9.1708  -9.1707  -9.1696
    -5.9454  -5.9327  -5.9327  -5.8659  -5.8659  -5.8591  -5.8555  -5.8521
    -5.8521  -5.8107  -5.8048  -5.8009   0.6531   0.6531   0.6939   0.7986
     0.8372   0.8372   0.8472   0.8701   0.8701   0.8749   0.9335   0.9640

     occupation numbers 
     1.0000   1.0000   1.0000   1.0000   1.0000   1.0000   1.0000   1.0000
     1.0000   1.0000   1.0000   1.0000   1.0000   1.0000   1.0000   1.0000
     1.0000   1.0000   1.0000   1.0000   1.0000   1.0000   1.0000   1.0000
     1.0000   1.0000   1.0000   1.0000   1.0000   1.0000   1.0000   1.0000

          k = 0.0000 0.1250 0.2500 ( 25714 PWs)   bands (ev):

   -19.0115 -19.0058 -19.0049 -19.0047  -9.2004  -9.1807  -9.1773  -9.1764
    -5.9360  -5.9239  -5.8916  -5.8752  -5.8664  -5.8594  -5.8459  -5.8303
    -5.8265  -5.8171  -5.8093  -5.7907   0.5725   0.6466   0.6975   0.7072
     0.7346   0.7469   0.8143   0.8405   0.8446   0.8758   0.9075   0.9471

     occupation numbers 
     1.0000   1.0000   1.0000   1.0000   1.0000   1.0000   1.0000   1.0000
     1.0000   1.0000   1.0000   1.0000   1.0000   1.0000   1.0000   1.0000
     1.0000   1.0000   1.0000   1.0000   1.0000   1.0000   1.0000   1.0000
     1.0000   1.0000   1.0000   1.0000   1.0000   1.0000   1.0000   1.0000

          k = 0.0000 0.1250 0.3750 ( 25741 PWs)   bands (ev):

   -19.0102 -19.0071 -19.0048 -19.0047  -9.2026  -9.1921  -9.1838  -9.1833
    -5.9221  -5.9107  -5.8892  -5.8796  -5.8496  -5.8452  -5.8343  -5.8267
    -5.8179  -5.8031  -5.8010  -5.7869   0.5052   0.5858   0.5909   0.5971
     0.7193   0.7302   0.7768   0.8016   0.8545   0.8868   0.8871   0.9250

     occupation numbers 
     1.0000   1.0000   1.0000   1.0000   1.0000   1.0000   1.0000   1.0000
     1.0000   1.0000   1.0000   1.0000   1.0000   1.0000   1.0000   1.0000
     1.0000   1.0000   1.0000   1.0000   1.0000   1.0000   1.0000   1.0000
     1.0000   1.0000   1.0000   1.0000   1.0000   1.0000   1.0000   1.0000

          k = 0.0000 0.1250-0.5000 ( 25720 PWs)   bands (ev):

   -19.0086 -19.0086 -19.0047 -19.0047  -9.2001  -9.2001  -9.1863  -9.1863
    -5.9056  -5.9056  -5.8951  -5.8951  -5.8381  -5.8381  -5.8284  -5.8284
    -5.8026  -5.8026  -5.7911  -5.7911   0.5022   0.5022   0.5558   0.5558
     0.7416   0.7417   0.7626   0.7626   0.8687   0.8687   0.9036   0.9036

     occupation numbers 
     1.0000   1.0000   1.0000   1.0000   1.0000   1.0000   1.0000   1.0000
     1.0000   1.0000   1.0000   1.0000   1.0000   1.0000   1.0000   1.0000
     1.0000   1.0000   1.0000   1.0000   1.0000   1.0000   1.0000   1.0000
     1.0000   1.0000   1.0000   1.0000   1.0000   1.0000   1.0000   1.0000

          k = 0.0000 0.2500 0.2500 ( 25760 PWs)   bands (ev):

   -19.0107 -19.0056 -19.0056 -19.0048  -9.2044  -9.1869  -9.1869  -9.1837
    -5.9270  -5.8849  -5.8849  -5.8684  -5.8683  -5.8441  -5.8313  -5.8238
    -5.8216  -5.8216  -5.8023  -5.7887   0.5553   0.5553   0.6166   0.6562
     0.7199   0.7588   0.7588   0.7719   0.8326   0.8475   0.8475   0.9284

     occupation numbers 
     1.0000   1.0000   1.0000   1.0000   1.0000   1.0000   1.0000   1.0000
     1.0000   1.0000   1.0000   1.0000   1.0000   1.0000   1.0000   1.0000
     1.0000   1.0000   1.0000   1.0000   1.0000   1.0000   1.0000   1.0000
     1.0000   1.0000   1.0000   1.0000   1.0000   1.0000   1.0000   1.0000

          k = 0.0000 0.2500 0.3750 ( 25721 PWs)   bands (ev):

   -19.0095 -19.0068 -19.0054 -19.0049  -9.2070  -9.1977  -9.1928  -9.1911
    -5.9135  -5.8818  -5.8744  -5.8581  -5.8499  -5.8407  -5.8340  -5.8127
    -5.8062  -5.8061  -5.7984  -5.7845   0.4808   0.5131   0.5278   0.5391
     0.7089   0.7354   0.7418   0.7664   0.7955   0.8102   0.8604   0.9038

     occupation numbers 
     1.0000   1.0000   1.0000   1.0000   1.0000   1.0000   1.0000   1.0000
     1.0000   1.0000   1.0000   1.0000   1.0000   1.0000   1.0000   1.0000
     1.0000   1.0000   1.0000   1.0000   1.0000   1.0000   1.0000   1.0000
     1.0000   1.0000   1.0000   1.0000   1.0000   1.0000   1.0000   1.0000

          k = 0.0000 0.2500-0.5000 ( 25690 PWs)   bands (ev):

   -19.0081 -19.0081 -19.0051 -19.0051  -9.2052  -9.2051  -9.1947  -9.1947
    -5.8977  -5.8976  -5.8621  -5.8620  -5.8460  -5.8460  -5.8157  -5.8157
    -5.7952  -5.7952  -5.7914  -5.7914   0.4695   0.4695   0.4887   0.4887
     0.7101   0.7101   0.7728   0.7729   0.7770   0.7770   0.8797   0.8798

     occupation numbers 
     1.0000   1.0000   1.0000   1.0000   1.0000   1.0000   1.0000   1.0000
     1.0000   1.0000   1.0000   1.0000   1.0000   1.0000   1.0000   1.0000
     1.0000   1.0000   1.0000   1.0000   1.0000   1.0000   1.0000   1.0000
     1.0000   1.0000   1.0000   1.0000   1.0000   1.0000   1.0000   1.0000

          k = 0.0000 0.3750 0.3750 ( 25676 PWs)   bands (ev):

   -19.0085 -19.0063 -19.0063 -19.0053  -9.2104  -9.2028  -9.2028  -9.1993
    -5.9008  -5.8708  -5.8707  -5.8449  -5.8341  -5.8341  -5.8257  -5.8032
    -5.8029  -5.7933  -5.7933  -5.7797   0.4388   0.4388   0.4505   0.4645
     0.7031   0.7037   0.7038   0.7333   0.7621   0.8256   0.8257   0.8759

     occupation numbers 
     1.0000   1.0000   1.0000   1.0000   1.0000   1.0000   1.0000   1.0000
     1.0000   1.0000   1.0000   1.0000   1.0000   1.0000   1.0000   1.0000
     1.0000   1.0000   1.0000   1.0000   1.0000   1.0000   1.0000   1.0000
     1.0000   1.0000   1.0000   1.0000   1.0000   1.0000   1.0000   1.0000

          k = 0.0000 0.3750-0.5000 ( 25750 PWs)   bands (ev):

   -19.0074 -19.0074 -19.0058 -19.0058  -9.2094  -9.2093  -9.2038  -9.2037
    -5.8858  -5.8857  -5.8578  -5.8578  -5.8271  -5.8271  -5.8098  -5.8098
    -5.7900  -5.7900  -5.7841  -5.7841   0.4164   0.4164   0.4180   0.4180
     0.6885   0.6885   0.7087   0.7087   0.7909   0.7909   0.8482   0.8482

     occupation numbers 
     1.0000   1.0000   1.0000   1.0000   1.0000   1.0000   1.0000   1.0000
     1.0000   1.0000   1.0000   1.0000   1.0000   1.0000   1.0000   1.0000
     1.0000   1.0000   1.0000   1.0000   1.0000   1.0000   1.0000   1.0000
     1.0000   1.0000   1.0000   1.0000   1.0000   1.0000   1.0000   1.0000

          k = 0.0000-0.5000-0.5000 ( 25708 PWs)   bands (ev):

   -19.0066 -19.0066 -19.0066 -19.0066  -9.2094  -9.2093  -9.2093  -9.2093
    -5.8718  -5.8718  -5.8717  -5.8717  -5.8106  -5.8106  -5.8106  -5.8106
    -5.7837  -5.7837  -5.7837  -5.7837   0.3883   0.3883   0.3883   0.3883
     0.6844   0.6844   0.6844   0.6844   0.8167   0.8168   0.8168   0.8168

     occupation numbers 
     1.0000   1.0000   1.0000   1.0000   1.0000   1.0000   1.0000   1.0000
     1.0000   1.0000   1.0000   1.0000   1.0000   1.0000   1.0000   1.0000
     1.0000   1.0000   1.0000   1.0000   1.0000   1.0000   1.0000   1.0000
     1.0000   1.0000   1.0000   1.0000   1.0000   1.0000   1.0000   1.0000

          k = 0.1250 0.1250 0.1250 ( 25710 PWs)   bands (ev):

   -19.0121 -19.0049 -19.0049 -19.0049  -9.1984  -9.1736  -9.1735  -9.1735
    -5.9296  -5.9296  -5.9296  -5.8570  -5.8570  -5.8570  -5.8532  -5.8532
    -5.8532  -5.8068  -5.8068  -5.8009   0.6529   0.6529   0.6530   0.8068
     0.8069   0.8069   0.8414   0.8483   0.8483   0.8484   0.9278   0.9278

     occupation numbers 
     1.0000   1.0000   1.0000   1.0000   1.0000   1.0000   1.0000   1.0000
     1.0000   1.0000   1.0000   1.0000   1.0000   1.0000   1.0000   1.0000
     1.0000   1.0000   1.0000   1.0000   1.0000   1.0000   1.0000   1.0000
     1.0000   1.0000   1.0000   1.0000   1.0000   1.0000   1.0000   1.0000

          k = 0.1250 0.1250 0.2500 ( 25730 PWs)   bands (ev):

   -19.0112 -19.0057 -19.0049 -19.0049  -9.2022  -9.1834  -9.1803  -9.1802
    -5.9210  -5.9210  -5.8895  -5.8642  -5.8642  -5.8510  -5.8466  -5.8286
    -5.8286  -5.8126  -5.8103  -5.7914   0.5676   0.6364   0.6364   0.7137
     0.7336   0.7336   0.8158   0.8158   0.8187   0.8525   0.8921   0.9129

     occupation numbers 
     1.0000   1.0000   1.0000   1.0000   1.0000   1.0000   1.0000   1.0000
     1.0000   1.0000   1.0000   1.0000   1.0000   1.0000   1.0000   1.0000
     1.0000   1.0000   1.0000   1.0000   1.0000   1.0000   1.0000   1.0000
     1.0000   1.0000   1.0000   1.0000   1.0000   1.0000   1.0000   1.0000

          k = 0.1250 0.1250 0.3750 ( 25723 PWs)   bands (ev):

   -19.0099 -19.0070 -19.0049 -19.0049  -9.2046  -9.1945  -9.1869  -9.1869
    -5.9080  -5.9080  -5.8771  -5.8771  -5.8465  -5.8421  -5.8323  -5.8213
    -5.8190  -5.8022  -5.8022  -5.7867   0.4971   0.5690   0.5690   0.5710
     0.7203   0.7203   0.7789   0.7789   0.8312   0.8612   0.8679   0.8935

     occupation numbers 
     1.0000   1.0000   1.0000   1.0000   1.0000   1.0000   1.0000   1.0000
     1.0000   1.0000   1.0000   1.0000   1.0000   1.0000   1.0000   1.0000
     1.0000   1.0000   1.0000   1.0000   1.0000   1.0000   1.0000   1.0000
     1.0000   1.0000   1.0000   1.0000   1.0000   1.0000   1.0000   1.0000

          k = 0.1250 0.1250-0.5000 ( 25706 PWs)   bands (ev):

   -19.0084 -19.0084 -19.0049 -19.0049  -9.2024  -9.2023  -9.1897  -9.1896
    -5.8944  -5.8944  -5.8907  -5.8907  -5.8317  -5.8317  -5.8300  -5.8300
    -5.8011  -5.8011  -5.7912  -5.7912   0.4912   0.4913   0.5327   0.5328
     0.7414   0.7415   0.7465   0.7465   0.8474   0.8474   0.8751   0.8752

     occupation numbers 
     1.0000   1.0000   1.0000   1.0000   1.0000   1.0000   1.0000   1.0000
     1.0000   1.0000   1.0000   1.0000   1.0000   1.0000   1.0000   1.0000
     1.0000   1.0000   1.0000   1.0000   1.0000   1.0000   1.0000   1.0000
     1.0000   1.0000   1.0000   1.0000   1.0000   1.0000   1.0000   1.0000

          k = 0.1250 0.2500 0.2500 ( 25720 PWs)   bands (ev):

   -19.0105 -19.0056 -19.0056 -19.0050  -9.2063  -9.1897  -9.1897  -9.1873
    -5.9127  -5.8830  -5.8830  -5.8575  -5.8575  -5.8424  -5.8292  -5.8234
    -5.8234  -5.8178  -5.8038  -5.7893   0.5443   0.5443   0.5835   0.6340
     0.7176   0.7464   0.7464   0.7722   0.8208   0.8208   0.8281   0.8892

     occupation numbers 
     1.0000   1.0000   1.0000   1.0000   1.0000   1.0000   1.0000   1.0000
     1.0000   1.0000   1.0000   1.0000   1.0000   1.0000   1.0000   1.0000
     1.0000   1.0000   1.0000   1.0000   1.0000   1.0000   1.0000   1.0000
     1.0000   1.0000   1.0000   1.0000   1.0000   1.0000   1.0000   1.0000

          k = 0.1250 0.2500 0.3750 ( 25710 PWs)   bands (ev):

   -19.0093 -19.0067 -19.0054 -19.0051  -9.2092  -9.2003  -9.1958  -9.1945
    -5.9002  -5.8747  -5.8680  -5.8499  -5.8480  -5.8387  -5.8270  -5.8136
    -5.8076  -5.8049  -5.7994  -5.7845   0.4686   0.4953   0.5050   0.5212
     0.7060   0.7263   0.7360   0.7555   0.7855   0.7891   0.8308   0.8672

     occupation numbers 
     1.0000   1.0000   1.0000   1.0000   1.0000   1.0000   1.0000   1.0000
     1.0000   1.0000   1.0000   1.0000   1.0000   1.0000   1.0000   1.0000
     1.0000   1.0000   1.0000   1.0000   1.0000   1.0000   1.0000   1.0000
     1.0000   1.0000   1.0000   1.0000   1.0000   1.0000   1.0000   1.0000

          k = 0.1250 0.2500-0.5000 ( 25700 PWs)   bands (ev):

   -19.0080 -19.0080 -19.0052 -19.0052  -9.2075  -9.2075  -9.1979  -9.1979
    -5.8856  -5.8856  -5.8597  -5.8597  -5.8380  -5.8380  -5.8169  -5.8169
    -5.7946  -5.7946  -5.7913  -5.7913   0.4551   0.4552   0.4686   0.4686
     0.7099   0.7099   0.7520   0.7520   0.7680   0.7681   0.8466   0.8466

     occupation numbers 
     1.0000   1.0000   1.0000   1.0000   1.0000   1.0000   1.0000   1.0000
     1.0000   1.0000   1.0000   1.0000   1.0000   1.0000   1.0000   1.0000
     1.0000   1.0000   1.0000   1.0000   1.0000   1.0000   1.0000   1.0000
     1.0000   1.0000   1.0000   1.0000   1.0000   1.0000   1.0000   1.0000

          k = 0.1250 0.3750 0.3750 ( 25703 PWs)   bands (ev):

   -19.0084 -19.0063 -19.0063 -19.0054  -9.2127  -9.2056  -9.2056  -9.2025
    -5.8884  -5.8608  -5.8608  -5.8369  -5.8326  -5.8326  -5.8247  -5.8037
    -5.8017  -5.7938  -5.7937  -5.7798   0.4223   0.4223   0.4311   0.4460
     0.6997   0.6997   0.7022   0.7300   0.7420   0.7981   0.7981   0.8416

     occupation numbers 
     1.0000   1.0000   1.0000   1.0000   1.0000   1.0000   1.0000   1.0000
     1.0000   1.0000   1.0000   1.0000   1.0000   1.0000   1.0000   1.0000
     1.0000   1.0000   1.0000   1.0000   1.0000   1.0000   1.0000   1.0000
     1.0000   1.0000   1.0000   1.0000   1.0000   1.0000   1.0000   1.0000

          k = 0.1250 0.3750-0.5000 ( 25742 PWs)   bands (ev):

   -19.0073 -19.0073 -19.0058 -19.0058  -9.2119  -9.2119  -9.2068  -9.2067
    -5.8745  -5.8745  -5.8487  -5.8487  -5.8260  -5.8259  -5.8100  -5.8100
    -5.7894  -5.7894  -5.7838  -5.7838   0.3983   0.3983   0.4009   0.4009
     0.6869   0.6869   0.7051   0.7051   0.7667   0.7667   0.8172   0.8173

     occupation numbers 
     1.0000   1.0000   1.0000   1.0000   1.0000   1.0000   1.0000   1.0000
     1.0000   1.0000   1.0000   1.0000   1.0000   1.0000   1.0000   1.0000
     1.0000   1.0000   1.0000   1.0000   1.0000   1.0000   1.0000   1.0000
     1.0000   1.0000   1.0000   1.0000   1.0000   1.0000   1.0000   1.0000

          k = 0.1250-0.5000-0.5000 ( 25700 PWs)   bands (ev):

   -19.0066 -19.0066 -19.0066 -19.0066  -9.2121  -9.2120  -9.2120  -9.2120
    -5.8616  -5.8616  -5.8616  -5.8615  -5.8105  -5.8105  -5.8105  -5.8105
    -5.7830  -5.7830  -5.7830  -5.7830   0.3707   0.3707   0.3707   0.3707
     0.6823   0.6823   0.6824   0.6824   0.7890   0.7891   0.7891   0.7891

     occupation numbers 
     1.0000   1.0000   1.0000   1.0000   1.0000   1.0000   1.0000   1.0000
     1.0000   1.0000   1.0000   1.0000   1.0000   1.0000   1.0000   1.0000
     1.0000   1.0000   1.0000   1.0000   1.0000   1.0000   1.0000   1.0000
     1.0000   1.0000   1.0000   1.0000   1.0000   1.0000   1.0000   1.0000

          k = 0.2500 0.2500 0.2500 ( 25731 PWs)   bands (ev):

   -19.0098 -19.0056 -19.0056 -19.0056  -9.2108  -9.1964  -9.1964  -9.1964
    -5.8768  -5.8768  -5.8768  -5.8378  -5.8377  -5.8377  -5.8230  -5.8230
    -5.8230  -5.8082  -5.8082  -5.7880   0.5035   0.5035   0.5035   0.5622
     0.7169   0.7169   0.7169   0.7738   0.7738   0.7738   0.8162   0.8162

     occupation numbers 
     1.0000   1.0000   1.0000   1.0000   1.0000   1.0000   1.0000   1.0000
     1.0000   1.0000   1.0000   1.0000   1.0000   1.0000   1.0000   1.0000
     1.0000   1.0000   1.0000   1.0000   1.0000   1.0000   1.0000   1.0000
     1.0000   1.0000   1.0000   1.0000   1.0000   1.0000   1.0000   1.0000

          k = 0.2500 0.2500 0.3750 ( 25698 PWs)   bands (ev):

   -19.0088 -19.0065 -19.0055 -19.0055  -9.2141  -9.2064  -9.2030  -9.2030
    -5.8675  -5.8675  -5.8422  -5.8422  -5.8392  -5.8308  -5.8148  -5.8102
    -5.8100  -5.8013  -5.8013  -5.7832   0.4292   0.4419   0.4420   0.4661
     0.7017   0.7018   0.7224   0.7374   0.7374   0.7653   0.7785   0.8012

     occupation numbers 
     1.0000   1.0000   1.0000   1.0000   1.0000   1.0000   1.0000   1.0000
     1.0000   1.0000   1.0000   1.0000   1.0000   1.0000   1.0000   1.0000
     1.0000   1.0000   1.0000   1.0000   1.0000   1.0000   1.0000   1.0000
     1.0000   1.0000   1.0000   1.0000   1.0000   1.0000   1.0000   1.0000

          k = 0.2500 0.2500-0.5000 ( 25664 PWs)   bands (ev):

   -19.0076 -19.0076 -19.0055 -19.0055  -9.2130  -9.2130  -9.2058  -9.2057
    -5.8600  -5.8600  -5.8492  -5.8492  -5.8228  -5.8228  -5.8195  -5.8195
    -5.7907  -5.7907  -5.7906  -5.7906   0.4111   0.4111   0.4121   0.4121
     0.7080   0.7080   0.7152   0.7153   0.7371   0.7371   0.7877   0.7878

     occupation numbers 
     1.0000   1.0000   1.0000   1.0000   1.0000   1.0000   1.0000   1.0000
     1.0000   1.0000   1.0000   1.0000   1.0000   1.0000   1.0000   1.0000
     1.0000   1.0000   1.0000   1.0000   1.0000   1.0000   1.0000   1.0000
     1.0000   1.0000   1.0000   1.0000   1.0000   1.0000   1.0000   1.0000

          k = 0.2500 0.3750 0.3750 ( 25718 PWs)   bands (ev):

   -19.0080 -19.0063 -19.0063 -19.0057  -9.2182  -9.2123  -9.2122  -9.2104
    -5.8582  -5.8394  -5.8394  -5.8275  -5.8275  -5.8221  -5.8198  -5.8060
    -5.7969  -5.7936  -5.7936  -5.7788   0.3745   0.3746   0.3770   0.3929
     0.6901   0.6901   0.7006   0.7044   0.7217   0.7425   0.7425   0.7702

     occupation numbers 
     1.0000   1.0000   1.0000   1.0000   1.0000   1.0000   1.0000   1.0000
     1.0000   1.0000   1.0000   1.0000   1.0000   1.0000   1.0000   1.0000
     1.0000   1.0000   1.0000   1.0000   1.0000   1.0000   1.0000   1.0000
     1.0000   1.0000   1.0000   1.0000   1.0000   1.0000   1.0000   1.0000

          k = 0.2500 0.3750-0.5000 ( 25694 PWs)   bands (ev):

   -19.0071 -19.0071 -19.0060 -19.0060  -9.2180  -9.2179  -9.2141  -9.2140
    -5.8479  -5.8479  -5.8285  -5.8285  -5.8227  -5.8227  -5.8109  -5.8109
    -5.7871  -5.7871  -5.7820  -5.7820   0.3478   0.3478   0.3522   0.3522
     0.6837   0.6837   0.6957   0.6957   0.7181   0.7181   0.7531   0.7532

     occupation numbers 
     1.0000   1.0000   1.0000   1.0000   1.0000   1.0000   1.0000   1.0000
     1.0000   1.0000   1.0000   1.0000   1.0000   1.0000   1.0000   1.0000
     1.0000   1.0000   1.0000   1.0000   1.0000   1.0000   1.0000   1.0000
     1.0000   1.0000   1.0000   1.0000   1.0000   1.0000   1.0000   1.0000

          k = 0.2500-0.5000-0.5000 ( 25688 PWs)   bands (ev):

   -19.0065 -19.0065 -19.0065 -19.0065  -9.2188  -9.2187  -9.2187  -9.2187
    -5.8378  -5.8378  -5.8378  -5.8378  -5.8103  -5.8103  -5.8103  -5.8103
    -5.7802  -5.7802  -5.7802  -5.7802   0.3219   0.3219   0.3219   0.3219
     0.6774   0.6774   0.6774   0.6774   0.7314   0.7315   0.7315   0.7315

     occupation numbers 
     1.0000   1.0000   1.0000   1.0000   1.0000   1.0000   1.0000   1.0000
     1.0000   1.0000   1.0000   1.0000   1.0000   1.0000   1.0000   1.0000
     1.0000   1.0000   1.0000   1.0000   1.0000   1.0000   1.0000   1.0000
     1.0000   1.0000   1.0000   1.0000   1.0000   1.0000   1.0000   1.0000

          k = 0.3750 0.3750 0.3750 ( 25704 PWs)   bands (ev):

   -19.0075 -19.0062 -19.0062 -19.0062  -9.2230  -9.2189  -9.2188  -9.2188
    -5.8280  -5.8280  -5.8280  -5.8182  -5.8182  -5.8182  -5.8095  -5.8095
    -5.7874  -5.7874  -5.7874  -5.7752   0.3161   0.3161   0.3161   0.3270
     0.6814   0.6814   0.6814   0.7005   0.7005   0.7005   0.7118   0.7118

     occupation numbers 
     1.0000   1.0000   1.0000   1.0000   1.0000   1.0000   1.0000   1.0000
     1.0000   1.0000   1.0000   1.0000   1.0000   1.0000   1.0000   1.0000
     1.0000   1.0000   1.0000   1.0000   1.0000   1.0000   1.0000   1.0000
     1.0000   1.0000   1.0000   1.0000   1.0000   1.0000   1.0000   1.0000

          k = 0.3750 0.3750-0.5000 ( 25658 PWs)   bands (ev):

   -19.0068 -19.0068 -19.0062 -19.0062  -9.2236  -9.2236  -9.2216  -9.2215
    -5.8249  -5.8249  -5.8165  -5.8165  -5.8138  -5.8138  -5.8124  -5.8124
    -5.7811  -5.7811  -5.7766  -5.7766   0.2893   0.2893   0.2931   0.2931
     0.6809   0.6809   0.6831   0.6831   0.6837   0.6837   0.7041   0.7042

     occupation numbers 
     1.0000   1.0000   1.0000   1.0000   1.0000   1.0000   1.0000   1.0000
     1.0000   1.0000   1.0000   1.0000   1.0000   1.0000   1.0000   1.0000
     1.0000   1.0000   1.0000   1.0000   1.0000   1.0000   1.0000   1.0000
     1.0000   1.0000   1.0000   1.0000   1.0000   1.0000   1.0000   1.0000

          k = 0.3750-0.5000-0.5000 ( 25684 PWs)   bands (ev):

   -19.0065 -19.0065 -19.0065 -19.0065  -9.2254  -9.2253  -9.2253  -9.2253
    -5.8170  -5.8170  -5.8170  -5.8169  -5.8101  -5.8101  -5.8101  -5.8101
    -5.7743  -5.7743  -5.7743  -5.7743   0.2645   0.2645   0.2646   0.2646
     0.6725   0.6725   0.6725   0.6725   0.6861   0.6862   0.6862   0.6862

     occupation numbers 
     1.0000   1.0000   1.0000   1.0000   1.0000   1.0000   1.0000   1.0000
     1.0000   1.0000   1.0000   1.0000   1.0000   1.0000   1.0000   1.0000
     1.0000   1.0000   1.0000   1.0000   1.0000   1.0000   1.0000   1.0000
     1.0000   1.0000   1.0000   1.0000   1.0000   1.0000   1.0000   1.0000

          k =-0.5000-0.5000-0.5000 ( 25768 PWs)   bands (ev):

   -19.0065 -19.0065 -19.0065 -19.0065  -9.2281  -9.2280  -9.2280  -9.2280
    -5.8101  -5.8101  -5.8101  -5.8101  -5.8101  -5.8101  -5.8101  -5.8101
    -5.7700  -5.7700  -5.7700  -5.7700   0.2387   0.2387   0.2387   0.2387
     0.6705   0.6705   0.6705   0.6705   0.6705   0.6705   0.6705   0.6705

     occupation numbers 
     1.0000   1.0000   1.0000   1.0000   1.0000   1.0000   1.0000   1.0000
     1.0000   1.0000   1.0000   1.0000   1.0000   1.0000   1.0000   1.0000
     1.0000   1.0000   1.0000   1.0000   1.0000   1.0000   1.0000   1.0000
     1.0000   1.0000   1.0000   1.0000   1.0000   1.0000   1.0000   1.0000

     highest occupied level (ev):     0.9766

!    total energy              =   -3179.61782787 Ry

     total all-electron energy =   -119228.281845 Ry
     estimated scf accuracy    <       0.00000026 Ry

     The total energy is the sum of the following terms:
     one-electron contribution =     -41.42361717 Ry
     hartree contribution      =      44.68911185 Ry
     xc contribution           =    -147.82288596 Ry
     ewald contribution        =    -197.50970197 Ry
     one-center paw contrib.   =   -2837.55073462 Ry
      -> PAW hartree energy AE =      25.66583726 Ry
      -> PAW hartree energy PS =     -25.55617938 Ry
      -> PAW xc energy AE      =    -383.53573501 Ry
      -> PAW xc energy PS      =      20.51969869 Ry
      -> total E_H with PAW    =      44.79876973 Ry
      -> total E_XC with PAW   =    -510.83892228 Ry

     convergence has been achieved in  12 iterations

     Forces acting on atoms (cartesian axes, Ry/au):

     atom    1 type  1   force =     0.00000000    0.00000000    0.00000000
     atom    2 type  1   force =     0.00000000    0.00000000    0.00000000
     atom    3 type  1   force =     0.00000000    0.00000000    0.00000000
     atom    4 type  1   force =     0.00000000    0.00000000    0.00000000
     atom    5 type  2   force =     0.00000000    0.00000000    0.00000000
     atom    6 type  2   force =     0.00000000    0.00000000    0.00000000
     atom    7 type  2   force =     0.00000000    0.00000000    0.00000000
     atom    8 type  2   force =     0.00000000    0.00000000    0.00000000
     The non-local contrib.  to forces
     atom    1 type  1   force =     0.00000000    0.00000000    0.00000000
     atom    2 type  1   force =     0.00000000    0.00000000    0.00000000
     atom    3 type  1   force =     0.00000000    0.00000000    0.00000000
     atom    4 type  1   force =     0.00000000    0.00000000    0.00000000
     atom    5 type  2   force =     0.00000000    0.00000000    0.00000000
     atom    6 type  2   force =     0.00000000    0.00000000    0.00000000
     atom    7 type  2   force =     0.00000000    0.00000000    0.00000000
     atom    8 type  2   force =     0.00000000    0.00000000    0.00000000
     The ionic contribution  to forces
     atom    1 type  1   force =    -0.00000000   -0.00000000   -0.00000000
     atom    2 type  1   force =    -0.00000000    0.00000000    0.00000000
     atom    3 type  1   force =     0.00000000   -0.00000000    0.00000000
     atom    4 type  1   force =     0.00000000    0.00000000   -0.00000000
     atom    5 type  2   force =     0.00000000   -0.00000000   -0.00000000
     atom    6 type  2   force =     0.00000000    0.00000000    0.00000000
     atom    7 type  2   force =    -0.00000000   -0.00000000    0.00000000
     atom    8 type  2   force =    -0.00000000    0.00000000   -0.00000000
     The local contribution  to forces
     atom    1 type  1   force =    -0.00000000   -0.00000000   -0.00000000
     atom    2 type  1   force =    -0.00000000    0.00000000    0.00000000
     atom    3 type  1   force =     0.00000000   -0.00000000    0.00000000
     atom    4 type  1   force =     0.00000000    0.00000000   -0.00000000
     atom    5 type  2   force =     0.00000000   -0.00000000   -0.00000000
     atom    6 type  2   force =     0.00000000    0.00000000    0.00000000
     atom    7 type  2   force =    -0.00000000   -0.00000000    0.00000000
     atom    8 type  2   force =    -0.00000000    0.00000000   -0.00000000
     The core correction contribution to forces
     atom    1 type  1   force =     0.00000000    0.00000000    0.00000000
     atom    2 type  1   force =     0.00000000   -0.00000000   -0.00000000
     atom    3 type  1   force =    -0.00000000    0.00000000   -0.00000000
     atom    4 type  1   force =    -0.00000000   -0.00000000    0.00000000
     atom    5 type  2   force =    -0.00000000    0.00000000    0.00000000
     atom    6 type  2   force =    -0.00000000   -0.00000000   -0.00000000
     atom    7 type  2   force =     0.00000000    0.00000000   -0.00000000
     atom    8 type  2   force =     0.00000000   -0.00000000    0.00000000
     The Hubbard contrib.    to forces
     atom    1 type  1   force =     0.00000000    0.00000000    0.00000000
     atom    2 type  1   force =     0.00000000    0.00000000    0.00000000
     atom    3 type  1   force =     0.00000000    0.00000000    0.00000000
     atom    4 type  1   force =     0.00000000    0.00000000    0.00000000
     atom    5 type  2   force =     0.00000000    0.00000000    0.00000000
     atom    6 type  2   force =     0.00000000    0.00000000    0.00000000
     atom    7 type  2   force =     0.00000000    0.00000000    0.00000000
     atom    8 type  2   force =     0.00000000    0.00000000    0.00000000
     The SCF correction term to forces
     atom    1 type  1   force =     0.00000000    0.00000000    0.00000000
     atom    2 type  1   force =    -0.00000000   -0.00000000   -0.00000000
     atom    3 type  1   force =     0.00000000    0.00000000   -0.00000000
     atom    4 type  1   force =    -0.00000000    0.00000000    0.00000000
     atom    5 type  2   force =    -0.00000000   -0.00000000    0.00000000
     atom    6 type  2   force =     0.00000000    0.00000000   -0.00000000
     atom    7 type  2   force =    -0.00000000   -0.00000000   -0.00000000
     atom    8 type  2   force =    -0.00000000   -0.00000000    0.00000000

     Total force =     0.000000     Total SCF correction =     0.000000


     Computing stress (Cartesian axis) and pressure

          total   stress  (Ry/bohr**3)                   (kbar)     P=       -0.31
  -0.00000211   0.00000000   0.00000000           -0.31        0.00        0.00
   0.00000000  -0.00000211   0.00000000            0.00       -0.31        0.00
   0.00000000   0.00000000  -0.00000211            0.00        0.00       -0.31

     kinetic stress (kbar)   2520.95      0.00      0.00
                                0.00   2520.95      0.00
                                0.00      0.00   2520.95

     local   stress (kbar)  -1291.43     -0.00      0.00
                               -0.00  -1291.43      0.00
                                0.00      0.00  -1291.43

     nonloc. stress (kbar)   2086.23      0.00      0.00
                                0.00   2086.23      0.00
                                0.00      0.00   2086.23

     hartree stress (kbar)    668.93     -0.00      0.00
                               -0.00    668.93      0.00
                                0.00      0.00    668.93

     exc-cor stress (kbar)   3650.91     -0.00     -0.00
                               -0.00   3650.91     -0.00
                               -0.00     -0.00   3650.91

     corecor stress (kbar)  -4679.47      0.00      0.00
                                0.00  -4679.47     -0.00
                                0.00     -0.00  -4679.47

     ewald   stress (kbar)  -2956.43      0.00     -0.00
                                0.00  -2956.43     -0.00
                               -0.00     -0.00  -2956.43

     hubbard stress (kbar)      0.00      0.00      0.00
                                0.00      0.00      0.00
                                0.00      0.00      0.00

     DFT-D   stress (kbar)      0.00      0.00      0.00
                                0.00      0.00      0.00
                                0.00      0.00      0.00

     XDM     stress (kbar)      0.00      0.00      0.00
                                0.00      0.00      0.00
                                0.00      0.00      0.00

     dft-nl  stress (kbar)      0.00      0.00      0.00
                                0.00      0.00      0.00
                                0.00      0.00      0.00

     TS-vdW  stress (kbar)      0.00      0.00      0.00
                                0.00      0.00      0.00
                                0.00      0.00      0.00



     Writing output data file ./out/CsIhex.save/

     init_run     :     11.98s CPU     12.18s WALL (       1 calls)
     electrons    :    550.52s CPU    555.07s WALL (       1 calls)
     forces       :      8.83s CPU      8.89s WALL (       1 calls)
     stress       :     14.00s CPU     14.10s WALL (       1 calls)

     Called by init_run:
     wfcinit      :     10.21s CPU     10.30s WALL (       1 calls)
     wfcinit:atom :      0.04s CPU      0.04s WALL (      35 calls)
     wfcinit:wfcr :      9.77s CPU      9.85s WALL (      35 calls)
     potinit      :      0.72s CPU      0.75s WALL (       1 calls)
     hinit0       :      0.29s CPU      0.29s WALL (       1 calls)

     Called by electrons:
     c_bands      :    490.92s CPU    494.07s WALL (      13 calls)
     sum_band     :     47.16s CPU     47.96s WALL (      13 calls)
     v_of_rho     :      0.52s CPU      0.52s WALL (      13 calls)
     v_h          :      0.04s CPU      0.04s WALL (      13 calls)
     v_xc         :      0.55s CPU      0.56s WALL (      15 calls)
     newd         :      5.16s CPU      5.72s WALL (      13 calls)
     PAW_pot      :      7.59s CPU      7.63s WALL (      13 calls)
     mix_rho      :      0.13s CPU      0.13s WALL (      13 calls)

     Called by c_bands:
     init_us_2    :      4.46s CPU      4.55s WALL (    1015 calls)
     cegterg      :    475.32s CPU    477.88s WALL (     455 calls)

     Called by sum_band:
     sum_band:wei :      0.00s CPU      0.00s WALL (      13 calls)
     sum_band:loo :     42.68s CPU     42.97s WALL (      13 calls)
     sum_band:buf :      0.23s CPU      0.24s WALL (     455 calls)
     sum_band:ini :      2.01s CPU      2.04s WALL (     455 calls)
     sum_band:cal :     22.20s CPU     22.26s WALL (     455 calls)
     sum_band:bec :      0.20s CPU      0.20s WALL (     455 calls)
     addusdens    :      4.18s CPU      4.68s WALL (      13 calls)
     addusd:skk   :      0.01s CPU      0.01s WALL (      26 calls)
     addusd:dgemm :      1.51s CPU      1.99s WALL (      26 calls)
     addusd:qvan2 :      2.22s CPU      2.22s WALL (      26 calls)

     Called by *egterg:
     cdiaghg      :      6.18s CPU      6.22s WALL (    2606 calls)
     cegterg:over :     26.27s CPU     26.37s WALL (    2186 calls)
     cegterg:upda :     11.71s CPU     11.75s WALL (    2186 calls)
     cegterg:last :     31.25s CPU     31.36s WALL (    1588 calls)
     h_psi        :    311.67s CPU    313.74s WALL (    2676 calls)
     s_psi        :     87.75s CPU     88.01s WALL (    2676 calls)
     g_psi        :      0.61s CPU      0.61s WALL (    2186 calls)

     Called by h_psi:
     h_psi:calbec :     88.51s CPU     88.77s WALL (    2676 calls)
     vloc_psi     :    131.47s CPU    133.01s WALL (    2676 calls)
     add_vuspsi   :     91.09s CPU     91.37s WALL (    2676 calls)

     General routines
     calbec       :    119.10s CPU    119.45s WALL (    3306 calls)
     fft          :      0.41s CPU      0.41s WALL (     169 calls)
     ffts         :      0.03s CPU      0.03s WALL (      13 calls)
     fftw         :    141.21s CPU    142.86s WALL (  128792 calls)

     Parallel routines
     fft_scatt_xy :     11.32s CPU     11.44s WALL (  128974 calls)
     fft_scatt_yz :     24.09s CPU     24.37s WALL (  128974 calls)

     PAW routines
     PAW_pot      :      7.59s CPU      7.63s WALL (      13 calls)
     PAW_symme    :      0.10s CPU      0.10s WALL (      26 calls)

     PWSCF        :   9m46.86s CPU   9m52.89s WALL


   This run was terminated on:  14:38:36  14Jan2021            

=------------------------------------------------------------------------------=
   JOB DONE.
=------------------------------------------------------------------------------=
