
     Program PWSCF v.6.0 (svn rev. 13079) starts on 26Jan2021 at 19:20:22 

     This program is part of the open-source Quantum ESPRESSO suite
     for quantum simulation of materials; please cite
         "P. Giannozzi et al., J. Phys.:Condens. Matter 21 395502 (2009);
          URL http://www.quantum-espresso.org", 
     in publications or presentations arising from this work. More details at
     http://www.quantum-espresso.org/quote

     Parallel version (MPI & OpenMP), running on      96 processor cores
     Number of MPI processes:                48
     Threads/MPI process:                     2
     R & G space division:  proc/nbgrp/npool/nimage =      48
     Waiting for input...
     Reading input from standard input

     Current dimensions of program PWSCF are:
     Max number of different atomic species (ntypx) = 10
     Max number of k-points (npk) =  40000
     Max angular momentum in pseudopotentials (lmaxx) =  3
               file Cs.rel-pbesol-spn-rrkjus_psl.1.0.0.UPF: wavefunction(s)  5S 6S renormalized
               file Sn.rel-pbesol-dn-rrkjus_psl.1.0.0.UPF: wavefunction(s)  5S 4D 4D renormalized
               file I.rel-pbesol-n-rrkjus_psl.1.0.0.UPF: wavefunction(s)  5S renormalized

     Subspace diagonalization in iterative solution of the eigenvalue problem:
     a serial algorithm will be used


     Parallelization info
     --------------------
     sticks:   dense  smooth     PW     G-vecs:    dense   smooth      PW
     Min         107      86     23                14667    10498    1499
     Max         108      87     24                14680    10509    1512
     Sum        5183    4145   1133               704507   504115   72215


     Title: 
     CsSnI3                                                                     


     bravais-lattice index     =            8
     lattice parameter (alat)  =       9.1317  a.u.
     unit-cell volume          =    6370.5385 (a.u.)^3
     number of atoms/cell      =           20
     number of atomic types    =            3
     number of electrons       =       176.00
     number of Kohn-Sham states=          176
     kinetic-energy cutoff     =      70.0000  Ry
     charge density cutoff     =     350.0000  Ry
     convergence threshold     =      1.0E-06
     mixing beta               =       0.3500
     number of iterations used =            8  plain     mixing
     Exchange-correlation      = PBESOL ( 1  4 10  8 0 0)
     Non magnetic calculation with spin-orbit


     celldm(1)=   9.131705  celldm(2)=   2.227728  celldm(3)=   3.755420
     celldm(4)=   0.000000  celldm(5)=   0.000000  celldm(6)=   0.000000

     crystal axes: (cart. coord. in units of alat)
               a(1) = (   1.000000   0.000000   0.000000 )  
               a(2) = (   0.000000   2.227728   0.000000 )  
               a(3) = (   0.000000   0.000000   3.755420 )  

     reciprocal axes: (cart. coord. in units 2 pi/alat)
               b(1) = (  1.000000  0.000000  0.000000 )  
               b(2) = (  0.000000  0.448888  0.000000 )  
               b(3) = (  0.000000  0.000000  0.266282 )  


     PseudoPot. # 1 for Cs read from file:
     /scratch/cmalosso/degironcoli/pseudo/pseudo-usp/Cs.rel-pbesol-spn-rrkjus_psl.1.0.0.UPF
     MD5 check sum: 846889b67fb1b19751b5b37931589d70
     Pseudo is Ultrasoft + core correction, Zval =  9.0
     Generated using "atomic" code by A. Dal Corso  v.6.4.1
     Using radial grid of 1251 points, 15 beta functions with: 
                l(1) =   0
                l(2) =   0
                l(3) =   0
                l(4) =   1
                l(5) =   1
                l(6) =   1
                l(7) =   1
                l(8) =   2
                l(9) =   2
               l(10) =   2
               l(11) =   2
               l(12) =   3
               l(13) =   3
               l(14) =   3
               l(15) =   3
     Q(r) pseudized with 0 coefficients 


     PseudoPot. # 2 for Sn read from file:
     /scratch/cmalosso/degironcoli/pseudo/pseudo-usp/Sn.rel-pbesol-dn-rrkjus_psl.1.0.0.UPF
     MD5 check sum: c1cf6ea56b96a3656bdf0d1db379e093
     Pseudo is Ultrasoft + core correction, Zval = 14.0
     Generated using "atomic" code by A. Dal Corso  v.6.3
     Using radial grid of 1243 points, 10 beta functions with: 
                l(1) =   0
                l(2) =   0
                l(3) =   1
                l(4) =   1
                l(5) =   1
                l(6) =   1
                l(7) =   2
                l(8) =   2
                l(9) =   2
               l(10) =   2
     Q(r) pseudized with 0 coefficients 


     PseudoPot. # 3 for  I read from file:
     /scratch/cmalosso/degironcoli/pseudo/pseudo-usp/I.rel-pbesol-n-rrkjus_psl.1.0.0.UPF
     MD5 check sum: 0f96c6bfb1b448f280658f96eb466b08
     Pseudo is Ultrasoft + core correction, Zval =  7.0
     Generated using "atomic" code by A. Dal Corso  v.6.3
     Using radial grid of 1247 points, 10 beta functions with: 
                l(1) =   0
                l(2) =   0
                l(3) =   1
                l(4) =   1
                l(5) =   1
                l(6) =   1
                l(7) =   2
                l(8) =   2
                l(9) =   2
               l(10) =   2
     Q(r) pseudized with 0 coefficients 


     atomic species   valence    mass     pseudopotential
        Cs             9.00   132.90000     Cs( 1.00)
        Sn            14.00   118.70000     Sn( 1.00)
        I              7.00   126.90000      I( 1.00)

      4 Sym. Ops., with inversion, found ( 2 have fractional translation)
          (note:  4 additional sym.ops. were found but ignored
           their fractional translations are incommensurate with FFT grid)

                                    s                        frac. trans.

      isym =  1     identity                                     

 cryst.   s( 1) = (     1          0          0      )
                  (     0          1          0      )
                  (     0          0          1      )

 cart.    s( 1) = (  1.0000000  0.0000000  0.0000000 )
                  (  0.0000000  1.0000000  0.0000000 )
                  (  0.0000000  0.0000000  1.0000000 )


      isym =  2     180 deg rotation - cart. axis [1,0,0]        

 cryst.   s( 2) = (     1          0          0      )    f =( -0.5000000 )
                  (     0         -1          0      )       (  0.0000000 )
                  (     0          0         -1      )       (  0.0000000 )

 cart.    s( 2) = (  1.0000000  0.0000000  0.0000000 )    f =( -0.5000000 )
                  (  0.0000000 -1.0000000  0.0000000 )       (  0.0000000 )
                  (  0.0000000  0.0000000 -1.0000000 )       (  0.0000000 )


      isym =  3     inversion                                    

 cryst.   s( 3) = (    -1          0          0      )
                  (     0         -1          0      )
                  (     0          0         -1      )

 cart.    s( 3) = ( -1.0000000  0.0000000  0.0000000 )
                  (  0.0000000 -1.0000000  0.0000000 )
                  (  0.0000000  0.0000000 -1.0000000 )


      isym =  4     inv. 180 deg rotation - cart. axis [1,0,0]   

 cryst.   s( 4) = (    -1          0          0      )    f =(  0.5000000 )
                  (     0          1          0      )       (  0.0000000 )
                  (     0          0          1      )       (  0.0000000 )

 cart.    s( 4) = ( -1.0000000  0.0000000  0.0000000 )    f =(  0.5000000 )
                  (  0.0000000  1.0000000  0.0000000 )       (  0.0000000 )
                  (  0.0000000  0.0000000  1.0000000 )       (  0.0000000 )


     double point group C_2h (2/m) 
     there are  8 classes and  4 irreducible representations
     the character table:

       E     -E    C2    -C2   i     -i    s_h   -s_h 
                                                      
G_3+   1.00 -1.00  0.00  0.00  1.00 -1.00  0.00  0.00
G_4+   1.00 -1.00  0.00  0.00  1.00 -1.00  0.00  0.00
G_3-   1.00 -1.00  0.00  0.00 -1.00  1.00  0.00  0.00
G_4-   1.00 -1.00  0.00  0.00 -1.00  1.00  0.00  0.00

     imaginary part

       E     -E    C2    -C2   i     -i    s_h   -s_h 
                                                      
G_3+   0.00  0.00  1.00 -1.00  0.00  0.00  1.00 -1.00
G_4+   0.00  0.00 -1.00  1.00  0.00  0.00 -1.00  1.00
G_3-   0.00  0.00  1.00 -1.00  0.00  0.00 -1.00  1.00
G_4-   0.00  0.00 -1.00  1.00  0.00  0.00  1.00 -1.00

     the symmetry operations in each class and the name of the first element:

     E             1
          identity                                               
     -E           -1
          identity E                                             
     C2            2
          180 deg rotation - cart. axis [1,0,0]                  
     -C2          -2
          180 deg rotation - cart. axis [1,0,0] E                
     i             3
          inversion                                              
     -i           -3
          inversion E                                            
     s_h           4
          inv. 180 deg rotation - cart. axis [1,0,0]             
     -s_h         -4
          inv. 180 deg rotation - cart. axis [1,0,0] E           

   Cartesian axes

     site n.     atom                  positions (alat units)
         1           Cs  tau(   1) = (   0.2500000   0.1859640   2.5168147  )
         2           Cs  tau(   2) = (   0.7500000   2.0417636   1.2386050  )
         3           Cs  tau(   3) = (   0.2500000   1.2998278   3.1163149  )
         4           Cs  tau(   4) = (   0.7500000   0.9278998   0.6391048  )
         5           Sn  tau(   5) = (   0.2500000   0.7615710   1.6485466  )
         6           Sn  tau(   6) = (   0.7500000   1.4661567   2.1068731  )
         7           Sn  tau(   7) = (   0.2500000   1.8754348   0.2291632  )
         8           Sn  tau(   8) = (   0.7500000   0.3522928   3.5262565  )
         9           I   tau(   9) = (   0.7500000   0.0581437   0.4202578  )
        10           I   tau(  10) = (   0.2500000   2.1695839   3.3351619  )
        11           I   tau(  11) = (   0.7500000   1.1720075   1.4574521  )
        12           I   tau(  12) = (   0.2500000   1.0557201   2.2979676  )
        13           I   tau(  13) = (   0.7500000   0.6531118   2.9738192  )
        14           I   tau(  14) = (   0.2500000   1.5746158   0.7816005  )
        15           I   tau(  15) = (   0.7500000   1.7669756   2.6593103  )
        16           I   tau(  16) = (   0.2500000   0.4607520   1.0961094  )
        17           I   tau(  17) = (   0.7500000   0.3753632   1.8734812  )
        18           I   tau(  18) = (   0.2500000   1.8523644   1.8819384  )
        19           I   tau(  19) = (   0.7500000   1.4892270   0.0042286  )
        20           I   tau(  20) = (   0.2500000   0.7385006   3.7511911  )

   Crystallographic axes

     site n.     atom                  positions (cryst. coord.)
         1           Cs  tau(   1) = (  0.2500000  0.0834770  0.6701820  )
         2           Cs  tau(   2) = (  0.7500000  0.9165230  0.3298180  )
         3           Cs  tau(   3) = (  0.2500000  0.5834770  0.8298180  )
         4           Cs  tau(   4) = (  0.7500000  0.4165230  0.1701820  )
         5           Sn  tau(   5) = (  0.2500000  0.3418600  0.4389780  )
         6           Sn  tau(   6) = (  0.7500000  0.6581400  0.5610220  )
         7           Sn  tau(   7) = (  0.2500000  0.8418600  0.0610220  )
         8           Sn  tau(   8) = (  0.7500000  0.1581400  0.9389780  )
         9           I   tau(   9) = (  0.7500000  0.0261000  0.1119070  )
        10           I   tau(  10) = (  0.2500000  0.9739000  0.8880930  )
        11           I   tau(  11) = (  0.7500000  0.5261000  0.3880930  )
        12           I   tau(  12) = (  0.2500000  0.4739000  0.6119070  )
        13           I   tau(  13) = (  0.7500000  0.2931740  0.7918740  )
        14           I   tau(  14) = (  0.2500000  0.7068260  0.2081260  )
        15           I   tau(  15) = (  0.7500000  0.7931740  0.7081260  )
        16           I   tau(  16) = (  0.2500000  0.2068260  0.2918740  )
        17           I   tau(  17) = (  0.7500000  0.1684960  0.4988740  )
        18           I   tau(  18) = (  0.2500000  0.8315040  0.5011260  )
        19           I   tau(  19) = (  0.7500000  0.6684960  0.0011260  )
        20           I   tau(  20) = (  0.2500000  0.3315040  0.9988740  )

     number of k points=    39
                       cart. coord. in units 2pi/alat
        k(    1) = (   0.1000000   0.0448888   0.0266282), wk =   0.0320000
        k(    2) = (   0.1000000   0.0448888   0.0798845), wk =   0.0320000
        k(    3) = (   0.1000000   0.0448888  -0.1331409), wk =   0.0320000
        k(    4) = (   0.1000000   0.1346664   0.0266282), wk =   0.0320000
        k(    5) = (   0.1000000   0.1346664   0.0798845), wk =   0.0320000
        k(    6) = (   0.1000000   0.1346664  -0.1331409), wk =   0.0320000
        k(    7) = (   0.1000000  -0.2244440   0.0266282), wk =   0.0320000
        k(    8) = (   0.1000000  -0.2244440   0.0798845), wk =   0.0320000
        k(    9) = (   0.1000000  -0.2244440  -0.1331409), wk =   0.0160000
        k(   10) = (   0.3000000   0.0448888   0.0266282), wk =   0.0320000
        k(   11) = (   0.3000000   0.0448888   0.0798845), wk =   0.0320000
        k(   12) = (   0.3000000   0.0448888  -0.1331409), wk =   0.0320000
        k(   13) = (   0.3000000   0.1346664   0.0266282), wk =   0.0320000
        k(   14) = (   0.3000000   0.1346664   0.0798845), wk =   0.0320000
        k(   15) = (   0.3000000   0.1346664  -0.1331409), wk =   0.0320000
        k(   16) = (   0.3000000  -0.2244440   0.0266282), wk =   0.0320000
        k(   17) = (   0.3000000  -0.2244440   0.0798845), wk =   0.0320000
        k(   18) = (   0.3000000  -0.2244440  -0.1331409), wk =   0.0160000
        k(   19) = (  -0.5000000   0.0448888   0.0266282), wk =   0.0160000
        k(   20) = (  -0.5000000   0.0448888   0.0798845), wk =   0.0160000
        k(   21) = (  -0.5000000   0.0448888  -0.1331409), wk =   0.0160000
        k(   22) = (  -0.5000000   0.1346664   0.0266282), wk =   0.0160000
        k(   23) = (  -0.5000000   0.1346664   0.0798845), wk =   0.0160000
        k(   24) = (  -0.5000000   0.1346664  -0.1331409), wk =   0.0160000
        k(   25) = (  -0.5000000  -0.2244440   0.0266282), wk =   0.0160000
        k(   26) = (  -0.5000000  -0.2244440   0.0798845), wk =   0.0160000
        k(   27) = (  -0.5000000  -0.2244440  -0.1331409), wk =   0.0080000
        k(   28) = (  -0.1000000   0.0448888  -0.0266282), wk =   0.0320000
        k(   29) = (  -0.1000000   0.0448888  -0.0798845), wk =   0.0320000
        k(   30) = (  -0.1000000   0.1346664  -0.0266282), wk =   0.0320000
        k(   31) = (  -0.1000000   0.1346664  -0.0798845), wk =   0.0320000
        k(   32) = (  -0.3000000   0.0448888  -0.0266282), wk =   0.0320000
        k(   33) = (  -0.3000000   0.0448888  -0.0798845), wk =   0.0320000
        k(   34) = (  -0.3000000   0.1346664  -0.0266282), wk =   0.0320000
        k(   35) = (  -0.3000000   0.1346664  -0.0798845), wk =   0.0320000
        k(   36) = (   0.5000000   0.0448888  -0.0266282), wk =   0.0160000
        k(   37) = (   0.5000000   0.0448888  -0.0798845), wk =   0.0160000
        k(   38) = (   0.5000000   0.1346664  -0.0266282), wk =   0.0160000
        k(   39) = (   0.5000000   0.1346664  -0.0798845), wk =   0.0160000

                       cryst. coord.
        k(    1) = (   0.1000000   0.1000000   0.1000000), wk =   0.0320000
        k(    2) = (   0.1000000   0.1000000   0.3000000), wk =   0.0320000
        k(    3) = (   0.1000000   0.1000000  -0.5000000), wk =   0.0320000
        k(    4) = (   0.1000000   0.3000000   0.1000000), wk =   0.0320000
        k(    5) = (   0.1000000   0.3000000   0.3000000), wk =   0.0320000
        k(    6) = (   0.1000000   0.3000000  -0.5000000), wk =   0.0320000
        k(    7) = (   0.1000000  -0.5000000   0.1000000), wk =   0.0320000
        k(    8) = (   0.1000000  -0.5000000   0.3000000), wk =   0.0320000
        k(    9) = (   0.1000000  -0.5000000  -0.5000000), wk =   0.0160000
        k(   10) = (   0.3000000   0.1000000   0.1000000), wk =   0.0320000
        k(   11) = (   0.3000000   0.1000000   0.3000000), wk =   0.0320000
        k(   12) = (   0.3000000   0.1000000  -0.5000000), wk =   0.0320000
        k(   13) = (   0.3000000   0.3000000   0.1000000), wk =   0.0320000
        k(   14) = (   0.3000000   0.3000000   0.3000000), wk =   0.0320000
        k(   15) = (   0.3000000   0.3000000  -0.5000000), wk =   0.0320000
        k(   16) = (   0.3000000  -0.5000000   0.1000000), wk =   0.0320000
        k(   17) = (   0.3000000  -0.5000000   0.3000000), wk =   0.0320000
        k(   18) = (   0.3000000  -0.5000000  -0.5000000), wk =   0.0160000
        k(   19) = (  -0.5000000   0.1000000   0.1000000), wk =   0.0160000
        k(   20) = (  -0.5000000   0.1000000   0.3000000), wk =   0.0160000
        k(   21) = (  -0.5000000   0.1000000  -0.5000000), wk =   0.0160000
        k(   22) = (  -0.5000000   0.3000000   0.1000000), wk =   0.0160000
        k(   23) = (  -0.5000000   0.3000000   0.3000000), wk =   0.0160000
        k(   24) = (  -0.5000000   0.3000000  -0.5000000), wk =   0.0160000
        k(   25) = (  -0.5000000  -0.5000000   0.1000000), wk =   0.0160000
        k(   26) = (  -0.5000000  -0.5000000   0.3000000), wk =   0.0160000
        k(   27) = (  -0.5000000  -0.5000000  -0.5000000), wk =   0.0080000
        k(   28) = (  -0.1000000   0.1000000  -0.1000000), wk =   0.0320000
        k(   29) = (  -0.1000000   0.1000000  -0.3000000), wk =   0.0320000
        k(   30) = (  -0.1000000   0.3000000  -0.1000000), wk =   0.0320000
        k(   31) = (  -0.1000000   0.3000000  -0.3000000), wk =   0.0320000
        k(   32) = (  -0.3000000   0.1000000  -0.1000000), wk =   0.0320000
        k(   33) = (  -0.3000000   0.1000000  -0.3000000), wk =   0.0320000
        k(   34) = (  -0.3000000   0.3000000  -0.1000000), wk =   0.0320000
        k(   35) = (  -0.3000000   0.3000000  -0.3000000), wk =   0.0320000
        k(   36) = (   0.5000000   0.1000000  -0.1000000), wk =   0.0160000
        k(   37) = (   0.5000000   0.1000000  -0.3000000), wk =   0.0160000
        k(   38) = (   0.5000000   0.3000000  -0.1000000), wk =   0.0160000
        k(   39) = (   0.5000000   0.3000000  -0.3000000), wk =   0.0160000

     Dense  grid:   704507 G-vectors     FFT dimensions: (  60, 125, 216)

     Smooth grid:   504115 G-vectors     FFT dimensions: (  50, 120, 192)

     Estimated max dynamical RAM per process >     400.19Mb

     Estimated total allocated dynamical RAM >   19208.92Mb

     Initial potential from superposition of free atoms

     starting charge  175.84164, renormalised to  176.00000
     Starting wfc are  208 randomized atomic wfcs

     total cpu time spent up to now is       67.8 secs

     per-process dynamical memory:   483.0 Mb

     Self-consistent Calculation

     iteration #  1     ecut=    70.00 Ry     beta=0.35
     Davidson diagonalization with overlap
     ethr =  1.00E-02,  avg # of iterations =  1.1

     Threshold (ethr) on eigenvalues was too large:
     Diagonalizing with lowered threshold

     Davidson diagonalization with overlap
     ethr =  3.14E-04,  avg # of iterations =  3.0

     total cpu time spent up to now is      421.4 secs

     total energy              =   -1268.06844040 Ry
     Harris-Foulkes estimate   =   -1268.26678006 Ry
     estimated scf accuracy    <       0.42575701 Ry

     iteration #  2     ecut=    70.00 Ry     beta=0.35
     Davidson diagonalization with overlap
     ethr =  2.42E-04,  avg # of iterations =  2.0

     total cpu time spent up to now is      589.2 secs

     total energy              =   -1268.14094414 Ry
     Harris-Foulkes estimate   =   -1268.15637436 Ry
     estimated scf accuracy    <       0.05535599 Ry

     iteration #  3     ecut=    70.00 Ry     beta=0.35
     Davidson diagonalization with overlap
     ethr =  3.15E-05,  avg # of iterations =  3.0

     total cpu time spent up to now is      771.6 secs

     total energy              =   -1268.14942862 Ry
     Harris-Foulkes estimate   =   -1268.14993823 Ry
     estimated scf accuracy    <       0.01044761 Ry

     iteration #  4     ecut=    70.00 Ry     beta=0.35
     Davidson diagonalization with overlap
     ethr =  5.94E-06,  avg # of iterations =  2.3

     total cpu time spent up to now is      928.2 secs

     total energy              =   -1268.15066346 Ry
     Harris-Foulkes estimate   =   -1268.15025854 Ry
     estimated scf accuracy    <       0.00204966 Ry

     iteration #  5     ecut=    70.00 Ry     beta=0.35
     Davidson diagonalization with overlap
     ethr =  1.16E-06,  avg # of iterations =  3.2

     total cpu time spent up to now is     1104.9 secs

     total energy              =   -1268.15091448 Ry
     Harris-Foulkes estimate   =   -1268.15096364 Ry
     estimated scf accuracy    <       0.00023381 Ry

     iteration #  6     ecut=    70.00 Ry     beta=0.35
     Davidson diagonalization with overlap
     ethr =  1.33E-07,  avg # of iterations =  3.9

     total cpu time spent up to now is     1324.4 secs

     total energy              =   -1268.15099550 Ry
     Harris-Foulkes estimate   =   -1268.15099186 Ry
     estimated scf accuracy    <       0.00002518 Ry

     iteration #  7     ecut=    70.00 Ry     beta=0.35
     Davidson diagonalization with overlap
     ethr =  1.43E-08,  avg # of iterations =  2.0

     total cpu time spent up to now is     1491.1 secs

     total energy              =   -1268.15100010 Ry
     Harris-Foulkes estimate   =   -1268.15099839 Ry
     estimated scf accuracy    <       0.00000642 Ry

     iteration #  8     ecut=    70.00 Ry     beta=0.35
     Davidson diagonalization with overlap
     ethr =  3.65E-09,  avg # of iterations =  4.0

     total cpu time spent up to now is     1709.8 secs

     total energy              =   -1268.15100172 Ry
     Harris-Foulkes estimate   =   -1268.15100208 Ry
     estimated scf accuracy    <       0.00000167 Ry

     iteration #  9     ecut=    70.00 Ry     beta=0.35
     Davidson diagonalization with overlap
     ethr =  9.48E-10,  avg # of iterations =  2.7

     total cpu time spent up to now is     1871.4 secs

     End of self-consistent calculation

          k = 0.1000 0.0449 0.0266 ( 62992 PWs)   bands (ev):

   -18.4365 -18.4365 -18.4365 -18.4365 -18.4364 -18.4364 -18.4363 -18.4363
   -18.4238 -18.4238 -18.4238 -18.4238 -18.4237 -18.4237 -18.4237 -18.4237
   -17.8468 -17.8468 -17.8466 -17.8466 -17.8459 -17.8459 -17.8457 -17.8457
   -17.3976 -17.3976 -17.3975 -17.3975 -17.3975 -17.3975 -17.3975 -17.3975
   -17.3891 -17.3891 -17.3891 -17.3891 -17.3890 -17.3890 -17.3890 -17.3890
   -17.3805 -17.3805 -17.3805 -17.3805 -17.3803 -17.3803 -17.3803 -17.3803
    -8.9104  -8.9104  -8.8883  -8.8883  -8.7132  -8.7132  -8.6634  -8.6634
    -8.5765  -8.5765  -8.5599  -8.5599  -8.5410  -8.5410  -8.5088  -8.5088
    -8.4094  -8.4094  -8.3938  -8.3938  -8.3715  -8.3715  -8.3365  -8.3365
    -5.7890  -5.7890  -5.7851  -5.7851  -5.7691  -5.7691  -5.7614  -5.7614
    -4.1902  -4.1902  -4.1859  -4.1859  -4.1644  -4.1644  -4.1547  -4.1547
    -4.1453  -4.1453  -4.1406  -4.1406  -4.1275  -4.1275  -4.1233  -4.1233
    -3.0503  -3.0503  -3.0318  -3.0318  -2.9717  -2.9717  -2.9080  -2.9080
    -0.1054  -0.1054   0.0496   0.0496   0.4050   0.4050   0.4647   0.4647
     0.5110   0.5110   0.6248   0.6248   0.6719   0.6719   0.7249   0.7249
     0.8894   0.8894   0.9385   0.9385   0.9811   0.9811   1.0640   1.0640
     1.1022   1.1022   1.1878   1.1878   1.3602   1.3602   1.3887   1.3887
     1.4297   1.4297   1.5086   1.5086   1.5381   1.5381   1.6741   1.6741
     1.8114   1.8114   1.8590   1.8590   1.8928   1.8928   1.9491   1.9491
     1.9814   1.9814   2.0191   2.0191   2.1699   2.1699   2.2048   2.2048
     2.2437   2.2437   2.2934   2.2934   2.3486   2.3486   2.4078   2.4078
     2.5631   2.5631   2.6278   2.6278   2.7625   2.7625   2.9952   2.9952

     occupation numbers 
     1.0000   1.0000   1.0000   1.0000   1.0000   1.0000   1.0000   1.0000
     1.0000   1.0000   1.0000   1.0000   1.0000   1.0000   1.0000   1.0000
     1.0000   1.0000   1.0000   1.0000   1.0000   1.0000   1.0000   1.0000
     1.0000   1.0000   1.0000   1.0000   1.0000   1.0000   1.0000   1.0000
     1.0000   1.0000   1.0000   1.0000   1.0000   1.0000   1.0000   1.0000
     1.0000   1.0000   1.0000   1.0000   1.0000   1.0000   1.0000   1.0000
     1.0000   1.0000   1.0000   1.0000   1.0000   1.0000   1.0000   1.0000
     1.0000   1.0000   1.0000   1.0000   1.0000   1.0000   1.0000   1.0000
     1.0000   1.0000   1.0000   1.0000   1.0000   1.0000   1.0000   1.0000
     1.0000   1.0000   1.0000   1.0000   1.0000   1.0000   1.0000   1.0000
     1.0000   1.0000   1.0000   1.0000   1.0000   1.0000   1.0000   1.0000
     1.0000   1.0000   1.0000   1.0000   1.0000   1.0000   1.0000   1.0000
     1.0000   1.0000   1.0000   1.0000   1.0000   1.0000   1.0000   1.0000
     1.0000   1.0000   1.0000   1.0000   1.0000   1.0000   1.0000   1.0000
     1.0000   1.0000   1.0000   1.0000   1.0000   1.0000   1.0000   1.0000
     1.0000   1.0000   1.0000   1.0000   1.0000   1.0000   1.0000   1.0000
     1.0000   1.0000   1.0000   1.0000   1.0000   1.0000   1.0000   1.0000
     1.0000   1.0000   1.0000   1.0000   1.0000   1.0000   1.0000   1.0000
     1.0000   1.0000   1.0000   1.0000   1.0000   1.0000   1.0000   1.0000
     1.0000   1.0000   1.0000   1.0000   1.0000   1.0000   1.0000   1.0000
     1.0000   1.0000   1.0000   1.0000   1.0000   1.0000   1.0000   1.0000
     1.0000   1.0000   1.0000   1.0000   1.0000   1.0000   1.0000   1.0000

          k = 0.1000 0.0449 0.0799 ( 62964 PWs)   bands (ev):

   -18.4365 -18.4365 -18.4365 -18.4365 -18.4363 -18.4363 -18.4363 -18.4363
   -18.4238 -18.4238 -18.4238 -18.4238 -18.4237 -18.4237 -18.4237 -18.4237
   -17.8468 -17.8468 -17.8466 -17.8466 -17.8459 -17.8459 -17.8457 -17.8457
   -17.3976 -17.3976 -17.3975 -17.3975 -17.3975 -17.3975 -17.3975 -17.3975
   -17.3891 -17.3891 -17.3891 -17.3891 -17.3890 -17.3890 -17.3890 -17.3890
   -17.3805 -17.3805 -17.3805 -17.3805 -17.3803 -17.3803 -17.3803 -17.3803
    -8.9068  -8.9068  -8.8933  -8.8933  -8.7032  -8.7032  -8.6725  -8.6725
    -8.5756  -8.5756  -8.5668  -8.5668  -8.5312  -8.5312  -8.5128  -8.5128
    -8.4079  -8.4079  -8.3992  -8.3992  -8.3619  -8.3619  -8.3416  -8.3416
    -5.7886  -5.7886  -5.7859  -5.7859  -5.7677  -5.7677  -5.7624  -5.7624
    -4.1900  -4.1900  -4.1872  -4.1872  -4.1632  -4.1632  -4.1545  -4.1545
    -4.1454  -4.1454  -4.1417  -4.1417  -4.1262  -4.1262  -4.1236  -4.1236
    -3.0480  -3.0480  -3.0373  -3.0373  -2.9577  -2.9577  -2.9190  -2.9190
    -0.0808  -0.0808   0.0161   0.0161   0.4145   0.4145   0.4600   0.4600
     0.5211   0.5211   0.5990   0.5990   0.6980   0.6980   0.7312   0.7312
     0.8823   0.8823   0.9353   0.9353   0.9896   0.9896   1.0471   1.0471
     1.1110   1.1110   1.1776   1.1776   1.3668   1.3668   1.3891   1.3891
     1.4381   1.4381   1.5001   1.5001   1.5606   1.5606   1.6446   1.6446
     1.8199   1.8199   1.8496   1.8496   1.9025   1.9025   1.9342   1.9342
     1.9830   1.9830   2.0193   2.0193   2.1691   2.1691   2.1946   2.1946
     2.2478   2.2478   2.2875   2.2875   2.3735   2.3735   2.4142   2.4142
     2.5692   2.5692   2.6150   2.6150   2.8051   2.8051   2.9503   2.9503

     occupation numbers 
     1.0000   1.0000   1.0000   1.0000   1.0000   1.0000   1.0000   1.0000
     1.0000   1.0000   1.0000   1.0000   1.0000   1.0000   1.0000   1.0000
     1.0000   1.0000   1.0000   1.0000   1.0000   1.0000   1.0000   1.0000
     1.0000   1.0000   1.0000   1.0000   1.0000   1.0000   1.0000   1.0000
     1.0000   1.0000   1.0000   1.0000   1.0000   1.0000   1.0000   1.0000
     1.0000   1.0000   1.0000   1.0000   1.0000   1.0000   1.0000   1.0000
     1.0000   1.0000   1.0000   1.0000   1.0000   1.0000   1.0000   1.0000
     1.0000   1.0000   1.0000   1.0000   1.0000   1.0000   1.0000   1.0000
     1.0000   1.0000   1.0000   1.0000   1.0000   1.0000   1.0000   1.0000
     1.0000   1.0000   1.0000   1.0000   1.0000   1.0000   1.0000   1.0000
     1.0000   1.0000   1.0000   1.0000   1.0000   1.0000   1.0000   1.0000
     1.0000   1.0000   1.0000   1.0000   1.0000   1.0000   1.0000   1.0000
     1.0000   1.0000   1.0000   1.0000   1.0000   1.0000   1.0000   1.0000
     1.0000   1.0000   1.0000   1.0000   1.0000   1.0000   1.0000   1.0000
     1.0000   1.0000   1.0000   1.0000   1.0000   1.0000   1.0000   1.0000
     1.0000   1.0000   1.0000   1.0000   1.0000   1.0000   1.0000   1.0000
     1.0000   1.0000   1.0000   1.0000   1.0000   1.0000   1.0000   1.0000
     1.0000   1.0000   1.0000   1.0000   1.0000   1.0000   1.0000   1.0000
     1.0000   1.0000   1.0000   1.0000   1.0000   1.0000   1.0000   1.0000
     1.0000   1.0000   1.0000   1.0000   1.0000   1.0000   1.0000   1.0000
     1.0000   1.0000   1.0000   1.0000   1.0000   1.0000   1.0000   1.0000
     1.0000   1.0000   1.0000   1.0000   1.0000   1.0000   1.0000   1.0000

          k = 0.1000 0.0449-0.1331 ( 62960 PWs)   bands (ev):

   -18.4365 -18.4365 -18.4365 -18.4365 -18.4363 -18.4363 -18.4363 -18.4363
   -18.4238 -18.4238 -18.4238 -18.4238 -18.4237 -18.4237 -18.4237 -18.4237
   -17.8467 -17.8467 -17.8467 -17.8467 -17.8458 -17.8458 -17.8458 -17.8458
   -17.3975 -17.3975 -17.3975 -17.3975 -17.3975 -17.3975 -17.3975 -17.3975
   -17.3891 -17.3891 -17.3891 -17.3891 -17.3890 -17.3890 -17.3890 -17.3890
   -17.3805 -17.3805 -17.3805 -17.3805 -17.3803 -17.3803 -17.3803 -17.3803
    -8.9005  -8.9005  -8.9004  -8.9004  -8.6877  -8.6877  -8.6875  -8.6875
    -8.5725  -8.5725  -8.5725  -8.5725  -8.5208  -8.5208  -8.5207  -8.5207
    -8.4046  -8.4046  -8.4042  -8.4042  -8.3507  -8.3507  -8.3506  -8.3506
    -5.7882  -5.7882  -5.7866  -5.7866  -5.7664  -5.7664  -5.7634  -5.7634
    -4.1895  -4.1895  -4.1884  -4.1884  -4.1624  -4.1624  -4.1546  -4.1546
    -4.1446  -4.1446  -4.1431  -4.1431  -4.1251  -4.1251  -4.1243  -4.1243
    -3.0438  -3.0438  -3.0431  -3.0431  -2.9381  -2.9381  -2.9372  -2.9372
    -0.0480  -0.0480  -0.0219  -0.0219   0.4223   0.4223   0.4541   0.4541
     0.5324   0.5324   0.5824   0.5824   0.7110   0.7110   0.7360   0.7360
     0.8753   0.8753   0.9362   0.9362   0.9968   0.9968   1.0329   1.0329
     1.1187   1.1187   1.1695   1.1695   1.3773   1.3773   1.3812   1.3812
     1.4461   1.4461   1.4945   1.4945   1.5856   1.5856   1.6146   1.6146
     1.8278   1.8278   1.8440   1.8440   1.9093   1.9093   1.9219   1.9219
     1.9836   1.9836   2.0196   2.0196   2.1686   2.1686   2.1890   2.1890
     2.2500   2.2500   2.2853   2.2853   2.3876   2.3876   2.4165   2.4165
     2.5779   2.5779   2.6026   2.6026   2.8758   2.8758   2.8784   2.8784

     occupation numbers 
     1.0000   1.0000   1.0000   1.0000   1.0000   1.0000   1.0000   1.0000
     1.0000   1.0000   1.0000   1.0000   1.0000   1.0000   1.0000   1.0000
     1.0000   1.0000   1.0000   1.0000   1.0000   1.0000   1.0000   1.0000
     1.0000   1.0000   1.0000   1.0000   1.0000   1.0000   1.0000   1.0000
     1.0000   1.0000   1.0000   1.0000   1.0000   1.0000   1.0000   1.0000
     1.0000   1.0000   1.0000   1.0000   1.0000   1.0000   1.0000   1.0000
     1.0000   1.0000   1.0000   1.0000   1.0000   1.0000   1.0000   1.0000
     1.0000   1.0000   1.0000   1.0000   1.0000   1.0000   1.0000   1.0000
     1.0000   1.0000   1.0000   1.0000   1.0000   1.0000   1.0000   1.0000
     1.0000   1.0000   1.0000   1.0000   1.0000   1.0000   1.0000   1.0000
     1.0000   1.0000   1.0000   1.0000   1.0000   1.0000   1.0000   1.0000
     1.0000   1.0000   1.0000   1.0000   1.0000   1.0000   1.0000   1.0000
     1.0000   1.0000   1.0000   1.0000   1.0000   1.0000   1.0000   1.0000
     1.0000   1.0000   1.0000   1.0000   1.0000   1.0000   1.0000   1.0000
     1.0000   1.0000   1.0000   1.0000   1.0000   1.0000   1.0000   1.0000
     1.0000   1.0000   1.0000   1.0000   1.0000   1.0000   1.0000   1.0000
     1.0000   1.0000   1.0000   1.0000   1.0000   1.0000   1.0000   1.0000
     1.0000   1.0000   1.0000   1.0000   1.0000   1.0000   1.0000   1.0000
     1.0000   1.0000   1.0000   1.0000   1.0000   1.0000   1.0000   1.0000
     1.0000   1.0000   1.0000   1.0000   1.0000   1.0000   1.0000   1.0000
     1.0000   1.0000   1.0000   1.0000   1.0000   1.0000   1.0000   1.0000
     1.0000   1.0000   1.0000   1.0000   1.0000   1.0000   1.0000   1.0000

          k = 0.1000 0.1347 0.0266 ( 62975 PWs)   bands (ev):

   -18.4365 -18.4365 -18.4365 -18.4365 -18.4363 -18.4363 -18.4363 -18.4363
   -18.4238 -18.4238 -18.4238 -18.4238 -18.4237 -18.4237 -18.4237 -18.4237
   -17.8466 -17.8466 -17.8464 -17.8464 -17.8461 -17.8461 -17.8459 -17.8459
   -17.3975 -17.3975 -17.3975 -17.3975 -17.3975 -17.3975 -17.3975 -17.3975
   -17.3891 -17.3891 -17.3891 -17.3891 -17.3890 -17.3890 -17.3890 -17.3890
   -17.3805 -17.3805 -17.3805 -17.3805 -17.3803 -17.3803 -17.3803 -17.3803
    -8.8955  -8.8955  -8.8800  -8.8800  -8.7221  -8.7221  -8.7035  -8.7035
    -8.5962  -8.5962  -8.5946  -8.5946  -8.4996  -8.4996  -8.4734  -8.4734
    -8.3958  -8.3958  -8.3895  -8.3895  -8.3749  -8.3749  -8.3450  -8.3450
    -5.7862  -5.7862  -5.7814  -5.7814  -5.7733  -5.7733  -5.7662  -5.7662
    -4.1884  -4.1884  -4.1816  -4.1816  -4.1706  -4.1706  -4.1600  -4.1600
    -4.1448  -4.1448  -4.1421  -4.1421  -4.1291  -4.1291  -4.1274  -4.1274
    -3.0542  -3.0542  -3.0403  -3.0403  -2.9447  -2.9447  -2.9072  -2.9072
    -0.0679  -0.0679   0.0380   0.0380   0.3720   0.3720   0.4295   0.4295
     0.5096   0.5096   0.6190   0.6190   0.6719   0.6719   0.7225   0.7225
     0.8854   0.8854   0.9138   0.9138   0.9949   0.9949   1.0664   1.0664
     1.1577   1.1577   1.2252   1.2252   1.3665   1.3665   1.4104   1.4104
     1.4266   1.4266   1.5052   1.5052   1.5902   1.5902   1.6447   1.6447
     1.7857   1.7857   1.8325   1.8325   1.8926   1.8926   1.9433   1.9433
     1.9939   1.9939   2.0378   2.0378   2.1439   2.1439   2.1909   2.1909
     2.2578   2.2578   2.2973   2.2973   2.3611   2.3611   2.4031   2.4031
     2.4854   2.4854   2.5740   2.5740   2.8603   2.8603   2.9794   2.9794

     occupation numbers 
     1.0000   1.0000   1.0000   1.0000   1.0000   1.0000   1.0000   1.0000
     1.0000   1.0000   1.0000   1.0000   1.0000   1.0000   1.0000   1.0000
     1.0000   1.0000   1.0000   1.0000   1.0000   1.0000   1.0000   1.0000
     1.0000   1.0000   1.0000   1.0000   1.0000   1.0000   1.0000   1.0000
     1.0000   1.0000   1.0000   1.0000   1.0000   1.0000   1.0000   1.0000
     1.0000   1.0000   1.0000   1.0000   1.0000   1.0000   1.0000   1.0000
     1.0000   1.0000   1.0000   1.0000   1.0000   1.0000   1.0000   1.0000
     1.0000   1.0000   1.0000   1.0000   1.0000   1.0000   1.0000   1.0000
     1.0000   1.0000   1.0000   1.0000   1.0000   1.0000   1.0000   1.0000
     1.0000   1.0000   1.0000   1.0000   1.0000   1.0000   1.0000   1.0000
     1.0000   1.0000   1.0000   1.0000   1.0000   1.0000   1.0000   1.0000
     1.0000   1.0000   1.0000   1.0000   1.0000   1.0000   1.0000   1.0000
     1.0000   1.0000   1.0000   1.0000   1.0000   1.0000   1.0000   1.0000
     1.0000   1.0000   1.0000   1.0000   1.0000   1.0000   1.0000   1.0000
     1.0000   1.0000   1.0000   1.0000   1.0000   1.0000   1.0000   1.0000
     1.0000   1.0000   1.0000   1.0000   1.0000   1.0000   1.0000   1.0000
     1.0000   1.0000   1.0000   1.0000   1.0000   1.0000   1.0000   1.0000
     1.0000   1.0000   1.0000   1.0000   1.0000   1.0000   1.0000   1.0000
     1.0000   1.0000   1.0000   1.0000   1.0000   1.0000   1.0000   1.0000
     1.0000   1.0000   1.0000   1.0000   1.0000   1.0000   1.0000   1.0000
     1.0000   1.0000   1.0000   1.0000   1.0000   1.0000   1.0000   1.0000
     1.0000   1.0000   1.0000   1.0000   1.0000   1.0000   1.0000   1.0000

          k = 0.1000 0.1347 0.0799 ( 62973 PWs)   bands (ev):

   -18.4365 -18.4365 -18.4365 -18.4365 -18.4363 -18.4363 -18.4363 -18.4363
   -18.4238 -18.4238 -18.4238 -18.4238 -18.4237 -18.4237 -18.4237 -18.4237
   -17.8466 -17.8466 -17.8465 -17.8465 -17.8460 -17.8460 -17.8459 -17.8459
   -17.3975 -17.3975 -17.3975 -17.3975 -17.3975 -17.3975 -17.3975 -17.3975
   -17.3891 -17.3891 -17.3891 -17.3891 -17.3890 -17.3890 -17.3890 -17.3890
   -17.3805 -17.3805 -17.3805 -17.3805 -17.3803 -17.3803 -17.3803 -17.3803
    -8.8929  -8.8929  -8.8833  -8.8833  -8.7177  -8.7177  -8.7062  -8.7062
    -8.5971  -8.5971  -8.5946  -8.5946  -8.4960  -8.4960  -8.4795  -8.4795
    -8.3960  -8.3960  -8.3885  -8.3885  -8.3684  -8.3684  -8.3497  -8.3497
    -5.7856  -5.7856  -5.7828  -5.7828  -5.7716  -5.7716  -5.7670  -5.7670
    -4.1880  -4.1880  -4.1839  -4.1839  -4.1686  -4.1686  -4.1613  -4.1613
    -4.1444  -4.1444  -4.1418  -4.1418  -4.1286  -4.1286  -4.1273  -4.1273
    -3.0515  -3.0515  -3.0430  -3.0430  -2.9377  -2.9377  -2.9145  -2.9145
    -0.0489  -0.0489   0.0184   0.0184   0.3783   0.3783   0.4184   0.4184
     0.5285   0.5285   0.6043   0.6043   0.6764   0.6764   0.7195   0.7195
     0.8868   0.8868   0.9055   0.9055   0.9967   0.9967   1.0425   1.0425
     1.1824   1.1824   1.2355   1.2355   1.3636   1.3636   1.4002   1.4002
     1.4414   1.4414   1.4978   1.4978   1.5942   1.5942   1.6316   1.6316
     1.7973   1.7973   1.8326   1.8326   1.8950   1.8950   1.9247   1.9247
     2.0090   2.0090   2.0391   2.0391   2.1487   2.1487   2.1829   2.1829
     2.2588   2.2588   2.2884   2.2884   2.3739   2.3739   2.3988   2.3988
     2.5067   2.5067   2.5627   2.5627   2.8754   2.8754   2.9508   2.9508

     occupation numbers 
     1.0000   1.0000   1.0000   1.0000   1.0000   1.0000   1.0000   1.0000
     1.0000   1.0000   1.0000   1.0000   1.0000   1.0000   1.0000   1.0000
     1.0000   1.0000   1.0000   1.0000   1.0000   1.0000   1.0000   1.0000
     1.0000   1.0000   1.0000   1.0000   1.0000   1.0000   1.0000   1.0000
     1.0000   1.0000   1.0000   1.0000   1.0000   1.0000   1.0000   1.0000
     1.0000   1.0000   1.0000   1.0000   1.0000   1.0000   1.0000   1.0000
     1.0000   1.0000   1.0000   1.0000   1.0000   1.0000   1.0000   1.0000
     1.0000   1.0000   1.0000   1.0000   1.0000   1.0000   1.0000   1.0000
     1.0000   1.0000   1.0000   1.0000   1.0000   1.0000   1.0000   1.0000
     1.0000   1.0000   1.0000   1.0000   1.0000   1.0000   1.0000   1.0000
     1.0000   1.0000   1.0000   1.0000   1.0000   1.0000   1.0000   1.0000
     1.0000   1.0000   1.0000   1.0000   1.0000   1.0000   1.0000   1.0000
     1.0000   1.0000   1.0000   1.0000   1.0000   1.0000   1.0000   1.0000
     1.0000   1.0000   1.0000   1.0000   1.0000   1.0000   1.0000   1.0000
     1.0000   1.0000   1.0000   1.0000   1.0000   1.0000   1.0000   1.0000
     1.0000   1.0000   1.0000   1.0000   1.0000   1.0000   1.0000   1.0000
     1.0000   1.0000   1.0000   1.0000   1.0000   1.0000   1.0000   1.0000
     1.0000   1.0000   1.0000   1.0000   1.0000   1.0000   1.0000   1.0000
     1.0000   1.0000   1.0000   1.0000   1.0000   1.0000   1.0000   1.0000
     1.0000   1.0000   1.0000   1.0000   1.0000   1.0000   1.0000   1.0000
     1.0000   1.0000   1.0000   1.0000   1.0000   1.0000   1.0000   1.0000
     1.0000   1.0000   1.0000   1.0000   1.0000   1.0000   1.0000   1.0000

          k = 0.1000 0.1347-0.1331 ( 62952 PWs)   bands (ev):

   -18.4365 -18.4365 -18.4365 -18.4365 -18.4363 -18.4363 -18.4363 -18.4363
   -18.4238 -18.4238 -18.4238 -18.4238 -18.4237 -18.4237 -18.4237 -18.4237
   -17.8465 -17.8465 -17.8465 -17.8465 -17.8460 -17.8460 -17.8460 -17.8460
   -17.3975 -17.3975 -17.3975 -17.3975 -17.3975 -17.3975 -17.3975 -17.3975
   -17.3891 -17.3891 -17.3891 -17.3891 -17.3890 -17.3890 -17.3890 -17.3890
   -17.3805 -17.3805 -17.3805 -17.3805 -17.3803 -17.3803 -17.3803 -17.3803
    -8.8883  -8.8883  -8.8883  -8.8883  -8.7116  -8.7116  -8.7114  -8.7114
    -8.5962  -8.5962  -8.5962  -8.5962  -8.4885  -8.4885  -8.4885  -8.4885
    -8.3925  -8.3925  -8.3921  -8.3921  -8.3583  -8.3583  -8.3581  -8.3581
    -5.7847  -5.7847  -5.7842  -5.7842  -5.7703  -5.7703  -5.7679  -5.7679
    -4.1872  -4.1872  -4.1856  -4.1856  -4.1673  -4.1673  -4.1624  -4.1624
    -4.1441  -4.1441  -4.1418  -4.1418  -4.1283  -4.1283  -4.1273  -4.1273
    -3.0475  -3.0475  -3.0470  -3.0470  -2.9264  -2.9264  -2.9259  -2.9259
    -0.0247  -0.0247  -0.0063  -0.0063   0.3861   0.3861   0.4076   0.4076
     0.5503   0.5503   0.5813   0.5813   0.6926   0.6926   0.7082   0.7082
     0.8862   0.8862   0.9010   0.9010   1.0038   1.0038   1.0242   1.0242
     1.2030   1.2030   1.2345   1.2345   1.3631   1.3631   1.3905   1.3905
     1.4695   1.4695   1.4753   1.4753   1.6061   1.6061   1.6154   1.6154
     1.8047   1.8047   1.8344   1.8344   1.8987   1.8987   1.9109   1.9109
     2.0183   2.0183   2.0377   2.0377   2.1540   2.1540   2.1755   2.1755
     2.2613   2.2613   2.2823   2.2823   2.3854   2.3854   2.3916   2.3916
     2.5338   2.5338   2.5419   2.5419   2.9069   2.9069   2.9111   2.9111

     occupation numbers 
     1.0000   1.0000   1.0000   1.0000   1.0000   1.0000   1.0000   1.0000
     1.0000   1.0000   1.0000   1.0000   1.0000   1.0000   1.0000   1.0000
     1.0000   1.0000   1.0000   1.0000   1.0000   1.0000   1.0000   1.0000
     1.0000   1.0000   1.0000   1.0000   1.0000   1.0000   1.0000   1.0000
     1.0000   1.0000   1.0000   1.0000   1.0000   1.0000   1.0000   1.0000
     1.0000   1.0000   1.0000   1.0000   1.0000   1.0000   1.0000   1.0000
     1.0000   1.0000   1.0000   1.0000   1.0000   1.0000   1.0000   1.0000
     1.0000   1.0000   1.0000   1.0000   1.0000   1.0000   1.0000   1.0000
     1.0000   1.0000   1.0000   1.0000   1.0000   1.0000   1.0000   1.0000
     1.0000   1.0000   1.0000   1.0000   1.0000   1.0000   1.0000   1.0000
     1.0000   1.0000   1.0000   1.0000   1.0000   1.0000   1.0000   1.0000
     1.0000   1.0000   1.0000   1.0000   1.0000   1.0000   1.0000   1.0000
     1.0000   1.0000   1.0000   1.0000   1.0000   1.0000   1.0000   1.0000
     1.0000   1.0000   1.0000   1.0000   1.0000   1.0000   1.0000   1.0000
     1.0000   1.0000   1.0000   1.0000   1.0000   1.0000   1.0000   1.0000
     1.0000   1.0000   1.0000   1.0000   1.0000   1.0000   1.0000   1.0000
     1.0000   1.0000   1.0000   1.0000   1.0000   1.0000   1.0000   1.0000
     1.0000   1.0000   1.0000   1.0000   1.0000   1.0000   1.0000   1.0000
     1.0000   1.0000   1.0000   1.0000   1.0000   1.0000   1.0000   1.0000
     1.0000   1.0000   1.0000   1.0000   1.0000   1.0000   1.0000   1.0000
     1.0000   1.0000   1.0000   1.0000   1.0000   1.0000   1.0000   1.0000
     1.0000   1.0000   1.0000   1.0000   1.0000   1.0000   1.0000   1.0000

          k = 0.1000-0.2244 0.0266 ( 62968 PWs)   bands (ev):

   -18.4365 -18.4365 -18.4365 -18.4365 -18.4363 -18.4363 -18.4363 -18.4363
   -18.4238 -18.4238 -18.4238 -18.4238 -18.4237 -18.4237 -18.4237 -18.4237
   -17.8464 -17.8464 -17.8464 -17.8464 -17.8461 -17.8461 -17.8461 -17.8461
   -17.3975 -17.3975 -17.3975 -17.3975 -17.3975 -17.3975 -17.3975 -17.3975
   -17.3891 -17.3891 -17.3891 -17.3891 -17.3890 -17.3890 -17.3890 -17.3890
   -17.3805 -17.3805 -17.3805 -17.3805 -17.3803 -17.3803 -17.3803 -17.3803
    -8.8792  -8.8792  -8.8791  -8.8791  -8.7278  -8.7278  -8.7276  -8.7276
    -8.6056  -8.6056  -8.6055  -8.6055  -8.4710  -8.4710  -8.4708  -8.4708
    -8.3894  -8.3894  -8.3885  -8.3885  -8.3621  -8.3621  -8.3614  -8.3614
    -5.7824  -5.7824  -5.7791  -5.7791  -5.7753  -5.7753  -5.7719  -5.7719
    -4.1833  -4.1833  -4.1820  -4.1820  -4.1711  -4.1711  -4.1683  -4.1683
    -4.1446  -4.1446  -4.1426  -4.1426  -4.1310  -4.1310  -4.1286  -4.1286
    -3.0502  -3.0502  -3.0500  -3.0500  -2.9185  -2.9185  -2.9182  -2.9182
    -0.0284  -0.0284   0.0155   0.0155   0.3550   0.3550   0.3998   0.3998
     0.5162   0.5162   0.5948   0.5948   0.6828   0.6828   0.7379   0.7379
     0.8799   0.8799   0.9025   0.9025   1.0076   1.0076   1.0653   1.0653
     1.2156   1.2156   1.2173   1.2173   1.3426   1.3426   1.4227   1.4227
     1.4373   1.4373   1.5032   1.5032   1.6289   1.6289   1.6415   1.6415
     1.7966   1.7966   1.7971   1.7971   1.8642   1.8642   1.9334   1.9334
     2.0169   2.0169   2.0322   2.0322   2.1521   2.1521   2.1936   2.1936
     2.2711   2.2711   2.2929   2.2929   2.3737   2.3737   2.3747   2.3747
     2.4905   2.4905   2.5109   2.5109   2.9039   2.9039   2.9675   2.9675

     occupation numbers 
     1.0000   1.0000   1.0000   1.0000   1.0000   1.0000   1.0000   1.0000
     1.0000   1.0000   1.0000   1.0000   1.0000   1.0000   1.0000   1.0000
     1.0000   1.0000   1.0000   1.0000   1.0000   1.0000   1.0000   1.0000
     1.0000   1.0000   1.0000   1.0000   1.0000   1.0000   1.0000   1.0000
     1.0000   1.0000   1.0000   1.0000   1.0000   1.0000   1.0000   1.0000
     1.0000   1.0000   1.0000   1.0000   1.0000   1.0000   1.0000   1.0000
     1.0000   1.0000   1.0000   1.0000   1.0000   1.0000   1.0000   1.0000
     1.0000   1.0000   1.0000   1.0000   1.0000   1.0000   1.0000   1.0000
     1.0000   1.0000   1.0000   1.0000   1.0000   1.0000   1.0000   1.0000
     1.0000   1.0000   1.0000   1.0000   1.0000   1.0000   1.0000   1.0000
     1.0000   1.0000   1.0000   1.0000   1.0000   1.0000   1.0000   1.0000
     1.0000   1.0000   1.0000   1.0000   1.0000   1.0000   1.0000   1.0000
     1.0000   1.0000   1.0000   1.0000   1.0000   1.0000   1.0000   1.0000
     1.0000   1.0000   1.0000   1.0000   1.0000   1.0000   1.0000   1.0000
     1.0000   1.0000   1.0000   1.0000   1.0000   1.0000   1.0000   1.0000
     1.0000   1.0000   1.0000   1.0000   1.0000   1.0000   1.0000   1.0000
     1.0000   1.0000   1.0000   1.0000   1.0000   1.0000   1.0000   1.0000
     1.0000   1.0000   1.0000   1.0000   1.0000   1.0000   1.0000   1.0000
     1.0000   1.0000   1.0000   1.0000   1.0000   1.0000   1.0000   1.0000
     1.0000   1.0000   1.0000   1.0000   1.0000   1.0000   1.0000   1.0000
     1.0000   1.0000   1.0000   1.0000   1.0000   1.0000   1.0000   1.0000
     1.0000   1.0000   1.0000   1.0000   1.0000   1.0000   1.0000   1.0000

          k = 0.1000-0.2244 0.0799 ( 63000 PWs)   bands (ev):

   -18.4365 -18.4365 -18.4365 -18.4365 -18.4364 -18.4364 -18.4363 -18.4363
   -18.4238 -18.4238 -18.4238 -18.4238 -18.4237 -18.4237 -18.4237 -18.4237
   -17.8464 -17.8464 -17.8464 -17.8464 -17.8461 -17.8461 -17.8461 -17.8461
   -17.3976 -17.3976 -17.3975 -17.3975 -17.3975 -17.3975 -17.3975 -17.3975
   -17.3891 -17.3891 -17.3891 -17.3891 -17.3890 -17.3890 -17.3890 -17.3890
   -17.3805 -17.3805 -17.3805 -17.3805 -17.3803 -17.3803 -17.3803 -17.3803
    -8.8792  -8.8792  -8.8792  -8.8792  -8.7279  -8.7279  -8.7278  -8.7278
    -8.6044  -8.6044  -8.6043  -8.6043  -8.4743  -8.4743  -8.4742  -8.4742
    -8.3830  -8.3830  -8.3822  -8.3822  -8.3662  -8.3662  -8.3655  -8.3655
    -5.7820  -5.7820  -5.7802  -5.7802  -5.7742  -5.7742  -5.7723  -5.7723
    -4.1836  -4.1836  -4.1828  -4.1828  -4.1706  -4.1706  -4.1690  -4.1690
    -4.1440  -4.1440  -4.1428  -4.1428  -4.1301  -4.1301  -4.1286  -4.1286
    -3.0496  -3.0496  -3.0494  -3.0494  -2.9192  -2.9192  -2.9190  -2.9190
    -0.0176  -0.0176   0.0101   0.0101   0.3587   0.3587   0.3876   0.3876
     0.5398   0.5398   0.5975   0.5975   0.6699   0.6699   0.7138   0.7138
     0.8804   0.8804   0.8951   0.8951   1.0129   1.0129   1.0446   1.0446
     1.2370   1.2370   1.2402   1.2402   1.3621   1.3621   1.4097   1.4097
     1.4378   1.4378   1.4811   1.4811   1.6339   1.6339   1.6415   1.6415
     1.7945   1.7945   1.7956   1.7956   1.8765   1.8765   1.9187   1.9187
     2.0297   2.0297   2.0403   2.0403   2.1566   2.1566   2.1826   2.1826
     2.2732   2.2732   2.2861   2.2861   2.3753   2.3753   2.3754   2.3754
     2.4980   2.4980   2.5126   2.5126   2.9071   2.9071   2.9475   2.9475

     occupation numbers 
     1.0000   1.0000   1.0000   1.0000   1.0000   1.0000   1.0000   1.0000
     1.0000   1.0000   1.0000   1.0000   1.0000   1.0000   1.0000   1.0000
     1.0000   1.0000   1.0000   1.0000   1.0000   1.0000   1.0000   1.0000
     1.0000   1.0000   1.0000   1.0000   1.0000   1.0000   1.0000   1.0000
     1.0000   1.0000   1.0000   1.0000   1.0000   1.0000   1.0000   1.0000
     1.0000   1.0000   1.0000   1.0000   1.0000   1.0000   1.0000   1.0000
     1.0000   1.0000   1.0000   1.0000   1.0000   1.0000   1.0000   1.0000
     1.0000   1.0000   1.0000   1.0000   1.0000   1.0000   1.0000   1.0000
     1.0000   1.0000   1.0000   1.0000   1.0000   1.0000   1.0000   1.0000
     1.0000   1.0000   1.0000   1.0000   1.0000   1.0000   1.0000   1.0000
     1.0000   1.0000   1.0000   1.0000   1.0000   1.0000   1.0000   1.0000
     1.0000   1.0000   1.0000   1.0000   1.0000   1.0000   1.0000   1.0000
     1.0000   1.0000   1.0000   1.0000   1.0000   1.0000   1.0000   1.0000
     1.0000   1.0000   1.0000   1.0000   1.0000   1.0000   1.0000   1.0000
     1.0000   1.0000   1.0000   1.0000   1.0000   1.0000   1.0000   1.0000
     1.0000   1.0000   1.0000   1.0000   1.0000   1.0000   1.0000   1.0000
     1.0000   1.0000   1.0000   1.0000   1.0000   1.0000   1.0000   1.0000
     1.0000   1.0000   1.0000   1.0000   1.0000   1.0000   1.0000   1.0000
     1.0000   1.0000   1.0000   1.0000   1.0000   1.0000   1.0000   1.0000
     1.0000   1.0000   1.0000   1.0000   1.0000   1.0000   1.0000   1.0000
     1.0000   1.0000   1.0000   1.0000   1.0000   1.0000   1.0000   1.0000
     1.0000   1.0000   1.0000   1.0000   1.0000   1.0000   1.0000   1.0000

          k = 0.1000-0.2244-0.1331 ( 62996 PWs)   bands (ev):

   -18.4365 -18.4365 -18.4365 -18.4365 -18.4364 -18.4364 -18.4363 -18.4363
   -18.4238 -18.4238 -18.4238 -18.4238 -18.4237 -18.4237 -18.4237 -18.4237
   -17.8464 -17.8464 -17.8464 -17.8464 -17.8461 -17.8461 -17.8461 -17.8461
   -17.3976 -17.3976 -17.3975 -17.3975 -17.3975 -17.3975 -17.3975 -17.3975
   -17.3891 -17.3891 -17.3891 -17.3891 -17.3890 -17.3890 -17.3890 -17.3890
   -17.3805 -17.3805 -17.3805 -17.3805 -17.3803 -17.3803 -17.3803 -17.3803
    -8.8792  -8.8792  -8.8792  -8.8792  -8.7279  -8.7279  -8.7279  -8.7279
    -8.6036  -8.6036  -8.6036  -8.6036  -8.4763  -8.4763  -8.4763  -8.4763
    -8.3754  -8.3754  -8.3754  -8.3754  -8.3717  -8.3717  -8.3717  -8.3717
    -5.7813  -5.7813  -5.7813  -5.7813  -5.7731  -5.7731  -5.7731  -5.7731
    -4.1835  -4.1835  -4.1835  -4.1835  -4.1698  -4.1698  -4.1698  -4.1698
    -4.1433  -4.1433  -4.1433  -4.1433  -4.1291  -4.1291  -4.1291  -4.1291
    -3.0491  -3.0491  -3.0491  -3.0491  -2.9196  -2.9196  -2.9196  -2.9196
    -0.0021  -0.0021  -0.0021  -0.0021   0.3706   0.3706   0.3706   0.3706
     0.5756   0.5756   0.5756   0.5756   0.6813   0.6813   0.6813   0.6813
     0.8865   0.8865   0.8865   0.8865   1.0245   1.0245   1.0245   1.0245
     1.2519   1.2519   1.2519   1.2519   1.3877   1.3877   1.3877   1.3877
     1.4522   1.4522   1.4522   1.4522   1.6394   1.6394   1.6394   1.6394
     1.7936   1.7936   1.7936   1.7936   1.8971   1.8971   1.8971   1.8971
     2.0416   2.0416   2.0416   2.0416   2.1672   2.1672   2.1672   2.1672
     2.2782   2.2782   2.2782   2.2782   2.3761   2.3761   2.3761   2.3761
     2.5082   2.5082   2.5082   2.5082   2.9220   2.9220   2.9220   2.9220

     occupation numbers 
     1.0000   1.0000   1.0000   1.0000   1.0000   1.0000   1.0000   1.0000
     1.0000   1.0000   1.0000   1.0000   1.0000   1.0000   1.0000   1.0000
     1.0000   1.0000   1.0000   1.0000   1.0000   1.0000   1.0000   1.0000
     1.0000   1.0000   1.0000   1.0000   1.0000   1.0000   1.0000   1.0000
     1.0000   1.0000   1.0000   1.0000   1.0000   1.0000   1.0000   1.0000
     1.0000   1.0000   1.0000   1.0000   1.0000   1.0000   1.0000   1.0000
     1.0000   1.0000   1.0000   1.0000   1.0000   1.0000   1.0000   1.0000
     1.0000   1.0000   1.0000   1.0000   1.0000   1.0000   1.0000   1.0000
     1.0000   1.0000   1.0000   1.0000   1.0000   1.0000   1.0000   1.0000
     1.0000   1.0000   1.0000   1.0000   1.0000   1.0000   1.0000   1.0000
     1.0000   1.0000   1.0000   1.0000   1.0000   1.0000   1.0000   1.0000
     1.0000   1.0000   1.0000   1.0000   1.0000   1.0000   1.0000   1.0000
     1.0000   1.0000   1.0000   1.0000   1.0000   1.0000   1.0000   1.0000
     1.0000   1.0000   1.0000   1.0000   1.0000   1.0000   1.0000   1.0000
     1.0000   1.0000   1.0000   1.0000   1.0000   1.0000   1.0000   1.0000
     1.0000   1.0000   1.0000   1.0000   1.0000   1.0000   1.0000   1.0000
     1.0000   1.0000   1.0000   1.0000   1.0000   1.0000   1.0000   1.0000
     1.0000   1.0000   1.0000   1.0000   1.0000   1.0000   1.0000   1.0000
     1.0000   1.0000   1.0000   1.0000   1.0000   1.0000   1.0000   1.0000
     1.0000   1.0000   1.0000   1.0000   1.0000   1.0000   1.0000   1.0000
     1.0000   1.0000   1.0000   1.0000   1.0000   1.0000   1.0000   1.0000
     1.0000   1.0000   1.0000   1.0000   1.0000   1.0000   1.0000   1.0000

          k = 0.3000 0.0449 0.0266 ( 63000 PWs)   bands (ev):

   -18.4368 -18.4368 -18.4368 -18.4368 -18.4367 -18.4367 -18.4367 -18.4367
   -18.4234 -18.4234 -18.4234 -18.4234 -18.4233 -18.4233 -18.4233 -18.4233
   -17.8402 -17.8402 -17.8401 -17.8401 -17.8395 -17.8395 -17.8394 -17.8394
   -17.3981 -17.3981 -17.3981 -17.3981 -17.3981 -17.3981 -17.3981 -17.3981
   -17.3891 -17.3891 -17.3891 -17.3891 -17.3890 -17.3890 -17.3890 -17.3890
   -17.3799 -17.3799 -17.3799 -17.3799 -17.3798 -17.3798 -17.3798 -17.3798
    -8.7716  -8.7716  -8.7555  -8.7555  -8.6286  -8.6286  -8.5991  -8.5991
    -8.5091  -8.5091  -8.4918  -8.4918  -8.4782  -8.4782  -8.4567  -8.4567
    -8.3982  -8.3982  -8.3933  -8.3933  -8.3829  -8.3829  -8.3745  -8.3745
    -5.8173  -5.8173  -5.8118  -5.8118  -5.8050  -5.8050  -5.8000  -5.8000
    -4.2566  -4.2566  -4.2501  -4.2501  -4.2251  -4.2251  -4.2164  -4.2164
    -4.1659  -4.1659  -4.1646  -4.1646  -4.1585  -4.1585  -4.1544  -4.1544
    -3.2402  -3.2402  -3.2248  -3.2248  -3.1348  -3.1348  -3.1334  -3.1334
    -0.0299  -0.0299   0.0082   0.0082   0.0622   0.0622   0.0863   0.0863
     0.2307   0.2307   0.3071   0.3071   0.4707   0.4707   0.5457   0.5457
     0.5782   0.5782   0.6328   0.6328   0.7130   0.7130   0.7664   0.7664
     1.0003   1.0003   1.0454   1.0454   1.2875   1.2875   1.3225   1.3225
     1.4047   1.4047   1.4932   1.4932   1.5618   1.5618   1.6104   1.6104
     1.6747   1.6747   1.7126   1.7126   1.8057   1.8057   1.8348   1.8348
     1.8580   1.8580   1.9610   1.9610   1.9887   1.9887   2.0330   2.0330
     2.0892   2.0892   2.1461   2.1461   2.2838   2.2838   2.3775   2.3775
     2.5784   2.5784   2.7704   2.7704   2.9501   2.9501   3.0382   3.0382

     occupation numbers 
     1.0000   1.0000   1.0000   1.0000   1.0000   1.0000   1.0000   1.0000
     1.0000   1.0000   1.0000   1.0000   1.0000   1.0000   1.0000   1.0000
     1.0000   1.0000   1.0000   1.0000   1.0000   1.0000   1.0000   1.0000
     1.0000   1.0000   1.0000   1.0000   1.0000   1.0000   1.0000   1.0000
     1.0000   1.0000   1.0000   1.0000   1.0000   1.0000   1.0000   1.0000
     1.0000   1.0000   1.0000   1.0000   1.0000   1.0000   1.0000   1.0000
     1.0000   1.0000   1.0000   1.0000   1.0000   1.0000   1.0000   1.0000
     1.0000   1.0000   1.0000   1.0000   1.0000   1.0000   1.0000   1.0000
     1.0000   1.0000   1.0000   1.0000   1.0000   1.0000   1.0000   1.0000
     1.0000   1.0000   1.0000   1.0000   1.0000   1.0000   1.0000   1.0000
     1.0000   1.0000   1.0000   1.0000   1.0000   1.0000   1.0000   1.0000
     1.0000   1.0000   1.0000   1.0000   1.0000   1.0000   1.0000   1.0000
     1.0000   1.0000   1.0000   1.0000   1.0000   1.0000   1.0000   1.0000
     1.0000   1.0000   1.0000   1.0000   1.0000   1.0000   1.0000   1.0000
     1.0000   1.0000   1.0000   1.0000   1.0000   1.0000   1.0000   1.0000
     1.0000   1.0000   1.0000   1.0000   1.0000   1.0000   1.0000   1.0000
     1.0000   1.0000   1.0000   1.0000   1.0000   1.0000   1.0000   1.0000
     1.0000   1.0000   1.0000   1.0000   1.0000   1.0000   1.0000   1.0000
     1.0000   1.0000   1.0000   1.0000   1.0000   1.0000   1.0000   1.0000
     1.0000   1.0000   1.0000   1.0000   1.0000   1.0000   1.0000   1.0000
     1.0000   1.0000   1.0000   1.0000   1.0000   1.0000   1.0000   1.0000
     1.0000   1.0000   1.0000   1.0000   1.0000   1.0000   1.0000   1.0000

          k = 0.3000 0.0449 0.0799 ( 63008 PWs)   bands (ev):

   -18.4368 -18.4368 -18.4368 -18.4368 -18.4367 -18.4367 -18.4367 -18.4367
   -18.4234 -18.4234 -18.4234 -18.4234 -18.4233 -18.4233 -18.4233 -18.4233
   -17.8402 -17.8402 -17.8401 -17.8401 -17.8395 -17.8395 -17.8394 -17.8394
   -17.3981 -17.3981 -17.3981 -17.3981 -17.3981 -17.3981 -17.3981 -17.3981
   -17.3891 -17.3891 -17.3891 -17.3891 -17.3890 -17.3890 -17.3890 -17.3890
   -17.3799 -17.3799 -17.3799 -17.3799 -17.3798 -17.3798 -17.3798 -17.3798
    -8.7689  -8.7689  -8.7591  -8.7591  -8.6226  -8.6226  -8.6045  -8.6045
    -8.5069  -8.5069  -8.4972  -8.4972  -8.4723  -8.4723  -8.4600  -8.4600
    -8.3967  -8.3967  -8.3932  -8.3932  -8.3819  -8.3819  -8.3763  -8.3763
    -5.8172  -5.8172  -5.8122  -5.8122  -5.8043  -5.8043  -5.8004  -5.8004
    -4.2567  -4.2567  -4.2503  -4.2503  -4.2248  -4.2248  -4.2167  -4.2167
    -4.1658  -4.1658  -4.1650  -4.1650  -4.1576  -4.1576  -4.1547  -4.1547
    -3.2373  -3.2373  -3.2278  -3.2278  -3.1347  -3.1347  -3.1337  -3.1337
    -0.0231  -0.0231   0.0013   0.0013   0.0522   0.0522   0.0875   0.0875
     0.2501   0.2501   0.3137   0.3137   0.4779   0.4779   0.5432   0.5432
     0.5756   0.5756   0.6102   0.6102   0.7174   0.7174   0.7612   0.7612
     0.9919   0.9919   1.0508   1.0508   1.2573   1.2573   1.3212   1.3212
     1.4158   1.4158   1.5066   1.5066   1.5686   1.5686   1.6223   1.6223
     1.6752   1.6752   1.7214   1.7214   1.7982   1.7982   1.8242   1.8242
     1.8749   1.8749   1.9480   1.9480   2.0005   2.0005   2.0318   2.0318
     2.0878   2.0878   2.1354   2.1354   2.2991   2.2991   2.3699   2.3699
     2.6098   2.6098   2.7287   2.7287   2.9581   2.9581   3.0329   3.0329

     occupation numbers 
     1.0000   1.0000   1.0000   1.0000   1.0000   1.0000   1.0000   1.0000
     1.0000   1.0000   1.0000   1.0000   1.0000   1.0000   1.0000   1.0000
     1.0000   1.0000   1.0000   1.0000   1.0000   1.0000   1.0000   1.0000
     1.0000   1.0000   1.0000   1.0000   1.0000   1.0000   1.0000   1.0000
     1.0000   1.0000   1.0000   1.0000   1.0000   1.0000   1.0000   1.0000
     1.0000   1.0000   1.0000   1.0000   1.0000   1.0000   1.0000   1.0000
     1.0000   1.0000   1.0000   1.0000   1.0000   1.0000   1.0000   1.0000
     1.0000   1.0000   1.0000   1.0000   1.0000   1.0000   1.0000   1.0000
     1.0000   1.0000   1.0000   1.0000   1.0000   1.0000   1.0000   1.0000
     1.0000   1.0000   1.0000   1.0000   1.0000   1.0000   1.0000   1.0000
     1.0000   1.0000   1.0000   1.0000   1.0000   1.0000   1.0000   1.0000
     1.0000   1.0000   1.0000   1.0000   1.0000   1.0000   1.0000   1.0000
     1.0000   1.0000   1.0000   1.0000   1.0000   1.0000   1.0000   1.0000
     1.0000   1.0000   1.0000   1.0000   1.0000   1.0000   1.0000   1.0000
     1.0000   1.0000   1.0000   1.0000   1.0000   1.0000   1.0000   1.0000
     1.0000   1.0000   1.0000   1.0000   1.0000   1.0000   1.0000   1.0000
     1.0000   1.0000   1.0000   1.0000   1.0000   1.0000   1.0000   1.0000
     1.0000   1.0000   1.0000   1.0000   1.0000   1.0000   1.0000   1.0000
     1.0000   1.0000   1.0000   1.0000   1.0000   1.0000   1.0000   1.0000
     1.0000   1.0000   1.0000   1.0000   1.0000   1.0000   1.0000   1.0000
     1.0000   1.0000   1.0000   1.0000   1.0000   1.0000   1.0000   1.0000
     1.0000   1.0000   1.0000   1.0000   1.0000   1.0000   1.0000   1.0000

          k = 0.3000 0.0449-0.1331 ( 62988 PWs)   bands (ev):

   -18.4368 -18.4368 -18.4368 -18.4368 -18.4367 -18.4367 -18.4367 -18.4367
   -18.4234 -18.4234 -18.4234 -18.4234 -18.4233 -18.4233 -18.4233 -18.4233
   -17.8402 -17.8402 -17.8402 -17.8402 -17.8394 -17.8394 -17.8394 -17.8394
   -17.3981 -17.3981 -17.3981 -17.3981 -17.3981 -17.3981 -17.3981 -17.3981
   -17.3891 -17.3891 -17.3891 -17.3891 -17.3890 -17.3890 -17.3890 -17.3890
   -17.3799 -17.3799 -17.3799 -17.3799 -17.3798 -17.3798 -17.3798 -17.3798
    -8.7643  -8.7643  -8.7642  -8.7642  -8.6134  -8.6134  -8.6133  -8.6133
    -8.5028  -8.5028  -8.5027  -8.5027  -8.4658  -8.4658  -8.4654  -8.4654
    -8.3950  -8.3950  -8.3940  -8.3940  -8.3796  -8.3796  -8.3789  -8.3789
    -5.8171  -5.8171  -5.8125  -5.8125  -5.8038  -5.8038  -5.8006  -5.8006
    -4.2567  -4.2567  -4.2504  -4.2504  -4.2246  -4.2246  -4.2169  -4.2169
    -4.1656  -4.1656  -4.1653  -4.1653  -4.1569  -4.1569  -4.1551  -4.1551
    -3.2330  -3.2330  -3.2322  -3.2322  -3.1345  -3.1345  -3.1339  -3.1339
    -0.0131  -0.0131  -0.0092  -0.0092   0.0484   0.0484   0.0863   0.0863
     0.2648   0.2648   0.3145   0.3145   0.4929   0.4929   0.5308   0.5308
     0.5764   0.5764   0.5919   0.5919   0.7359   0.7359   0.7446   0.7446
     0.9888   0.9888   1.0523   1.0523   1.2455   1.2455   1.3131   1.3131
     1.4256   1.4256   1.5087   1.5087   1.5907   1.5907   1.6081   1.6081
     1.6885   1.6885   1.7199   1.7199   1.7961   1.7961   1.8171   1.8171
     1.8914   1.8914   1.9327   1.9327   2.0097   2.0097   2.0301   2.0301
     2.0875   2.0875   2.1272   2.1272   2.3128   2.3128   2.3614   2.3614
     2.6560   2.6560   2.6769   2.6769   2.9627   2.9627   3.0293   3.0293

     occupation numbers 
     1.0000   1.0000   1.0000   1.0000   1.0000   1.0000   1.0000   1.0000
     1.0000   1.0000   1.0000   1.0000   1.0000   1.0000   1.0000   1.0000
     1.0000   1.0000   1.0000   1.0000   1.0000   1.0000   1.0000   1.0000
     1.0000   1.0000   1.0000   1.0000   1.0000   1.0000   1.0000   1.0000
     1.0000   1.0000   1.0000   1.0000   1.0000   1.0000   1.0000   1.0000
     1.0000   1.0000   1.0000   1.0000   1.0000   1.0000   1.0000   1.0000
     1.0000   1.0000   1.0000   1.0000   1.0000   1.0000   1.0000   1.0000
     1.0000   1.0000   1.0000   1.0000   1.0000   1.0000   1.0000   1.0000
     1.0000   1.0000   1.0000   1.0000   1.0000   1.0000   1.0000   1.0000
     1.0000   1.0000   1.0000   1.0000   1.0000   1.0000   1.0000   1.0000
     1.0000   1.0000   1.0000   1.0000   1.0000   1.0000   1.0000   1.0000
     1.0000   1.0000   1.0000   1.0000   1.0000   1.0000   1.0000   1.0000
     1.0000   1.0000   1.0000   1.0000   1.0000   1.0000   1.0000   1.0000
     1.0000   1.0000   1.0000   1.0000   1.0000   1.0000   1.0000   1.0000
     1.0000   1.0000   1.0000   1.0000   1.0000   1.0000   1.0000   1.0000
     1.0000   1.0000   1.0000   1.0000   1.0000   1.0000   1.0000   1.0000
     1.0000   1.0000   1.0000   1.0000   1.0000   1.0000   1.0000   1.0000
     1.0000   1.0000   1.0000   1.0000   1.0000   1.0000   1.0000   1.0000
     1.0000   1.0000   1.0000   1.0000   1.0000   1.0000   1.0000   1.0000
     1.0000   1.0000   1.0000   1.0000   1.0000   1.0000   1.0000   1.0000
     1.0000   1.0000   1.0000   1.0000   1.0000   1.0000   1.0000   1.0000
     1.0000   1.0000   1.0000   1.0000   1.0000   1.0000   1.0000   1.0000

          k = 0.3000 0.1347 0.0266 ( 63026 PWs)   bands (ev):

   -18.4368 -18.4368 -18.4368 -18.4368 -18.4367 -18.4367 -18.4367 -18.4367
   -18.4234 -18.4234 -18.4234 -18.4234 -18.4233 -18.4233 -18.4233 -18.4233
   -17.8401 -17.8401 -17.8399 -17.8399 -17.8397 -17.8397 -17.8395 -17.8395
   -17.3981 -17.3981 -17.3981 -17.3981 -17.3981 -17.3981 -17.3981 -17.3981
   -17.3891 -17.3891 -17.3891 -17.3891 -17.3890 -17.3890 -17.3890 -17.3890
   -17.3799 -17.3799 -17.3799 -17.3799 -17.3798 -17.3798 -17.3798 -17.3798
    -8.7608  -8.7608  -8.7497  -8.7497  -8.6341  -8.6341  -8.6202  -8.6202
    -8.5256  -8.5256  -8.5181  -8.5181  -8.4509  -8.4509  -8.4356  -8.4356
    -8.3954  -8.3954  -8.3896  -8.3896  -8.3815  -8.3815  -8.3769  -8.3769
    -5.8159  -5.8159  -5.8112  -5.8112  -5.8062  -5.8062  -5.8019  -5.8019
    -4.2524  -4.2524  -4.2458  -4.2458  -4.2310  -4.2310  -4.2240  -4.2240
    -4.1665  -4.1665  -4.1633  -4.1633  -4.1596  -4.1596  -4.1543  -4.1543
    -3.2253  -3.2253  -3.2149  -3.2149  -3.1431  -3.1431  -3.1417  -3.1417
    -0.0661  -0.0661  -0.0090  -0.0090   0.0736   0.0736   0.1187   0.1187
     0.2524   0.2524   0.3346   0.3346   0.4197   0.4197   0.4916   0.4916
     0.5656   0.5656   0.6050   0.6050   0.7533   0.7533   0.7979   0.7979
     1.0244   1.0244   1.0570   1.0570   1.2975   1.2975   1.3329   1.3329
     1.3956   1.3956   1.4456   1.4456   1.6003   1.6003   1.6647   1.6647
     1.6957   1.6957   1.7390   1.7390   1.7706   1.7706   1.8087   1.8087
     1.8478   1.8478   1.9195   1.9195   1.9735   1.9735   2.0710   2.0710
     2.1168   2.1168   2.1466   2.1466   2.2813   2.2813   2.3014   2.3014
     2.6286   2.6286   2.8197   2.8197   2.9196   2.9196   2.9755   2.9755

     occupation numbers 
     1.0000   1.0000   1.0000   1.0000   1.0000   1.0000   1.0000   1.0000
     1.0000   1.0000   1.0000   1.0000   1.0000   1.0000   1.0000   1.0000
     1.0000   1.0000   1.0000   1.0000   1.0000   1.0000   1.0000   1.0000
     1.0000   1.0000   1.0000   1.0000   1.0000   1.0000   1.0000   1.0000
     1.0000   1.0000   1.0000   1.0000   1.0000   1.0000   1.0000   1.0000
     1.0000   1.0000   1.0000   1.0000   1.0000   1.0000   1.0000   1.0000
     1.0000   1.0000   1.0000   1.0000   1.0000   1.0000   1.0000   1.0000
     1.0000   1.0000   1.0000   1.0000   1.0000   1.0000   1.0000   1.0000
     1.0000   1.0000   1.0000   1.0000   1.0000   1.0000   1.0000   1.0000
     1.0000   1.0000   1.0000   1.0000   1.0000   1.0000   1.0000   1.0000
     1.0000   1.0000   1.0000   1.0000   1.0000   1.0000   1.0000   1.0000
     1.0000   1.0000   1.0000   1.0000   1.0000   1.0000   1.0000   1.0000
     1.0000   1.0000   1.0000   1.0000   1.0000   1.0000   1.0000   1.0000
     1.0000   1.0000   1.0000   1.0000   1.0000   1.0000   1.0000   1.0000
     1.0000   1.0000   1.0000   1.0000   1.0000   1.0000   1.0000   1.0000
     1.0000   1.0000   1.0000   1.0000   1.0000   1.0000   1.0000   1.0000
     1.0000   1.0000   1.0000   1.0000   1.0000   1.0000   1.0000   1.0000
     1.0000   1.0000   1.0000   1.0000   1.0000   1.0000   1.0000   1.0000
     1.0000   1.0000   1.0000   1.0000   1.0000   1.0000   1.0000   1.0000
     1.0000   1.0000   1.0000   1.0000   1.0000   1.0000   1.0000   1.0000
     1.0000   1.0000   1.0000   1.0000   1.0000   1.0000   1.0000   1.0000
     1.0000   1.0000   1.0000   1.0000   1.0000   1.0000   1.0000   1.0000

          k = 0.3000 0.1347 0.0799 ( 63043 PWs)   bands (ev):

   -18.4369 -18.4369 -18.4368 -18.4368 -18.4367 -18.4367 -18.4367 -18.4367
   -18.4234 -18.4234 -18.4234 -18.4234 -18.4233 -18.4233 -18.4233 -18.4233
   -17.8401 -17.8401 -17.8400 -17.8400 -17.8396 -17.8396 -17.8395 -17.8395
   -17.3981 -17.3981 -17.3981 -17.3981 -17.3981 -17.3981 -17.3981 -17.3981
   -17.3891 -17.3891 -17.3891 -17.3891 -17.3890 -17.3890 -17.3890 -17.3890
   -17.3799 -17.3799 -17.3799 -17.3799 -17.3798 -17.3798 -17.3798 -17.3798
    -8.7589  -8.7589  -8.7521  -8.7521  -8.6311  -8.6311  -8.6226  -8.6226
    -8.5243  -8.5243  -8.5196  -8.5196  -8.4485  -8.4485  -8.4391  -8.4391
    -8.3937  -8.3937  -8.3896  -8.3896  -8.3811  -8.3811  -8.3778  -8.3778
    -5.8157  -5.8157  -5.8119  -5.8119  -5.8052  -5.8052  -5.8024  -5.8024
    -4.2519  -4.2519  -4.2465  -4.2465  -4.2304  -4.2304  -4.2249  -4.2249
    -4.1658  -4.1658  -4.1637  -4.1637  -4.1588  -4.1588  -4.1550  -4.1550
    -3.2233  -3.2233  -3.2169  -3.2169  -3.1430  -3.1430  -3.1420  -3.1420
    -0.0549  -0.0549  -0.0190  -0.0190   0.0754   0.0754   0.1132   0.1132
     0.2600   0.2600   0.3239   0.3239   0.4354   0.4354   0.4871   0.4871
     0.5731   0.5731   0.6137   0.6137   0.7395   0.7395   0.7796   0.7796
     1.0171   1.0171   1.0587   1.0587   1.2834   1.2834   1.3433   1.3433
     1.4107   1.4107   1.4589   1.4589   1.5983   1.5983   1.6587   1.6587
     1.6939   1.6939   1.7362   1.7362   1.7782   1.7782   1.8008   1.8008
     1.8522   1.8522   1.9078   1.9078   1.9948   1.9948   2.0604   2.0604
     2.1219   2.1219   2.1446   2.1446   2.2757   2.2757   2.3071   2.3071
     2.6610   2.6610   2.7802   2.7802   2.9282   2.9282   2.9687   2.9687

     occupation numbers 
     1.0000   1.0000   1.0000   1.0000   1.0000   1.0000   1.0000   1.0000
     1.0000   1.0000   1.0000   1.0000   1.0000   1.0000   1.0000   1.0000
     1.0000   1.0000   1.0000   1.0000   1.0000   1.0000   1.0000   1.0000
     1.0000   1.0000   1.0000   1.0000   1.0000   1.0000   1.0000   1.0000
     1.0000   1.0000   1.0000   1.0000   1.0000   1.0000   1.0000   1.0000
     1.0000   1.0000   1.0000   1.0000   1.0000   1.0000   1.0000   1.0000
     1.0000   1.0000   1.0000   1.0000   1.0000   1.0000   1.0000   1.0000
     1.0000   1.0000   1.0000   1.0000   1.0000   1.0000   1.0000   1.0000
     1.0000   1.0000   1.0000   1.0000   1.0000   1.0000   1.0000   1.0000
     1.0000   1.0000   1.0000   1.0000   1.0000   1.0000   1.0000   1.0000
     1.0000   1.0000   1.0000   1.0000   1.0000   1.0000   1.0000   1.0000
     1.0000   1.0000   1.0000   1.0000   1.0000   1.0000   1.0000   1.0000
     1.0000   1.0000   1.0000   1.0000   1.0000   1.0000   1.0000   1.0000
     1.0000   1.0000   1.0000   1.0000   1.0000   1.0000   1.0000   1.0000
     1.0000   1.0000   1.0000   1.0000   1.0000   1.0000   1.0000   1.0000
     1.0000   1.0000   1.0000   1.0000   1.0000   1.0000   1.0000   1.0000
     1.0000   1.0000   1.0000   1.0000   1.0000   1.0000   1.0000   1.0000
     1.0000   1.0000   1.0000   1.0000   1.0000   1.0000   1.0000   1.0000
     1.0000   1.0000   1.0000   1.0000   1.0000   1.0000   1.0000   1.0000
     1.0000   1.0000   1.0000   1.0000   1.0000   1.0000   1.0000   1.0000
     1.0000   1.0000   1.0000   1.0000   1.0000   1.0000   1.0000   1.0000
     1.0000   1.0000   1.0000   1.0000   1.0000   1.0000   1.0000   1.0000

          k = 0.3000 0.1347-0.1331 ( 63026 PWs)   bands (ev):

   -18.4369 -18.4369 -18.4368 -18.4368 -18.4367 -18.4367 -18.4367 -18.4367
   -18.4234 -18.4234 -18.4234 -18.4234 -18.4233 -18.4233 -18.4233 -18.4233
   -17.8400 -17.8400 -17.8400 -17.8400 -17.8396 -17.8396 -17.8396 -17.8396
   -17.3981 -17.3981 -17.3981 -17.3981 -17.3981 -17.3981 -17.3981 -17.3981
   -17.3891 -17.3891 -17.3891 -17.3891 -17.3890 -17.3890 -17.3890 -17.3890
   -17.3799 -17.3799 -17.3799 -17.3799 -17.3798 -17.3798 -17.3798 -17.3798
    -8.7556  -8.7556  -8.7556  -8.7556  -8.6267  -8.6267  -8.6267  -8.6267
    -8.5221  -8.5221  -8.5220  -8.5220  -8.4443  -8.4443  -8.4440  -8.4440
    -8.3916  -8.3916  -8.3908  -8.3908  -8.3799  -8.3799  -8.3792  -8.3792
    -5.8156  -5.8156  -5.8123  -5.8123  -5.8044  -5.8044  -5.8028  -5.8028
    -4.2514  -4.2514  -4.2470  -4.2470  -4.2298  -4.2298  -4.2256  -4.2256
    -4.1652  -4.1652  -4.1641  -4.1641  -4.1581  -4.1581  -4.1557  -4.1557
    -3.2204  -3.2204  -3.2198  -3.2198  -3.1427  -3.1427  -3.1423  -3.1423
    -0.0384  -0.0384  -0.0350  -0.0350   0.0771   0.0771   0.1094   0.1094
     0.2666   0.2666   0.3156   0.3156   0.4491   0.4491   0.4802   0.4802
     0.5810   0.5810   0.6163   0.6163   0.7363   0.7363   0.7627   0.7627
     1.0139   1.0139   1.0585   1.0585   1.2809   1.2809   1.3411   1.3411
     1.4232   1.4232   1.4669   1.4669   1.6076   1.6076   1.6360   1.6360
     1.7062   1.7062   1.7283   1.7283   1.7878   1.7878   1.7896   1.7896
     1.8629   1.8629   1.8957   1.8957   2.0131   2.0131   2.0471   2.0471
     2.1272   2.1272   2.1416   2.1416   2.2753   2.2753   2.3081   2.3081
     2.7044   2.7044   2.7334   2.7334   2.9339   2.9339   2.9633   2.9633

     occupation numbers 
     1.0000   1.0000   1.0000   1.0000   1.0000   1.0000   1.0000   1.0000
     1.0000   1.0000   1.0000   1.0000   1.0000   1.0000   1.0000   1.0000
     1.0000   1.0000   1.0000   1.0000   1.0000   1.0000   1.0000   1.0000
     1.0000   1.0000   1.0000   1.0000   1.0000   1.0000   1.0000   1.0000
     1.0000   1.0000   1.0000   1.0000   1.0000   1.0000   1.0000   1.0000
     1.0000   1.0000   1.0000   1.0000   1.0000   1.0000   1.0000   1.0000
     1.0000   1.0000   1.0000   1.0000   1.0000   1.0000   1.0000   1.0000
     1.0000   1.0000   1.0000   1.0000   1.0000   1.0000   1.0000   1.0000
     1.0000   1.0000   1.0000   1.0000   1.0000   1.0000   1.0000   1.0000
     1.0000   1.0000   1.0000   1.0000   1.0000   1.0000   1.0000   1.0000
     1.0000   1.0000   1.0000   1.0000   1.0000   1.0000   1.0000   1.0000
     1.0000   1.0000   1.0000   1.0000   1.0000   1.0000   1.0000   1.0000
     1.0000   1.0000   1.0000   1.0000   1.0000   1.0000   1.0000   1.0000
     1.0000   1.0000   1.0000   1.0000   1.0000   1.0000   1.0000   1.0000
     1.0000   1.0000   1.0000   1.0000   1.0000   1.0000   1.0000   1.0000
     1.0000   1.0000   1.0000   1.0000   1.0000   1.0000   1.0000   1.0000
     1.0000   1.0000   1.0000   1.0000   1.0000   1.0000   1.0000   1.0000
     1.0000   1.0000   1.0000   1.0000   1.0000   1.0000   1.0000   1.0000
     1.0000   1.0000   1.0000   1.0000   1.0000   1.0000   1.0000   1.0000
     1.0000   1.0000   1.0000   1.0000   1.0000   1.0000   1.0000   1.0000
     1.0000   1.0000   1.0000   1.0000   1.0000   1.0000   1.0000   1.0000
     1.0000   1.0000   1.0000   1.0000   1.0000   1.0000   1.0000   1.0000

          k = 0.3000-0.2244 0.0266 ( 63012 PWs)   bands (ev):

   -18.4368 -18.4368 -18.4368 -18.4368 -18.4367 -18.4367 -18.4367 -18.4367
   -18.4234 -18.4234 -18.4234 -18.4234 -18.4233 -18.4233 -18.4233 -18.4233
   -17.8399 -17.8399 -17.8399 -17.8399 -17.8397 -17.8397 -17.8397 -17.8397
   -17.3981 -17.3981 -17.3981 -17.3981 -17.3981 -17.3981 -17.3981 -17.3981
   -17.3891 -17.3891 -17.3891 -17.3891 -17.3890 -17.3890 -17.3890 -17.3890
   -17.3799 -17.3799 -17.3799 -17.3799 -17.3798 -17.3798 -17.3798 -17.3798
    -8.7493  -8.7493  -8.7492  -8.7492  -8.6364  -8.6364  -8.6358  -8.6358
    -8.5298  -8.5298  -8.5292  -8.5292  -8.4348  -8.4348  -8.4345  -8.4345
    -8.3908  -8.3908  -8.3887  -8.3887  -8.3805  -8.3805  -8.3787  -8.3787
    -5.8144  -5.8144  -5.8111  -5.8111  -5.8073  -5.8073  -5.8031  -5.8031
    -4.2459  -4.2459  -4.2431  -4.2431  -4.2344  -4.2344  -4.2333  -4.2333
    -4.1658  -4.1658  -4.1635  -4.1635  -4.1583  -4.1583  -4.1561  -4.1561
    -3.2115  -3.2115  -3.2100  -3.2100  -3.1497  -3.1497  -3.1488  -3.1488
    -0.0724  -0.0724  -0.0231  -0.0231   0.0927   0.0927   0.1048   0.1048
     0.2944   0.2944   0.3133   0.3133   0.4017   0.4017   0.4561   0.4561
     0.5734   0.5734   0.6088   0.6088   0.7565   0.7565   0.8251   0.8251
     1.0382   1.0382   1.0461   1.0461   1.3194   1.3194   1.3278   1.3278
     1.4031   1.4031   1.4125   1.4125   1.6487   1.6487   1.6551   1.6551
     1.6974   1.6974   1.7369   1.7369   1.7760   1.7760   1.8113   1.8113
     1.8548   1.8548   1.8683   1.8683   1.9609   1.9609   2.0759   2.0759
     2.1848   2.1848   2.1995   2.1995   2.2257   2.2257   2.2305   2.2305
     2.7304   2.7304   2.7952   2.7952   2.8920   2.8920   2.9288   2.9288

     occupation numbers 
     1.0000   1.0000   1.0000   1.0000   1.0000   1.0000   1.0000   1.0000
     1.0000   1.0000   1.0000   1.0000   1.0000   1.0000   1.0000   1.0000
     1.0000   1.0000   1.0000   1.0000   1.0000   1.0000   1.0000   1.0000
     1.0000   1.0000   1.0000   1.0000   1.0000   1.0000   1.0000   1.0000
     1.0000   1.0000   1.0000   1.0000   1.0000   1.0000   1.0000   1.0000
     1.0000   1.0000   1.0000   1.0000   1.0000   1.0000   1.0000   1.0000
     1.0000   1.0000   1.0000   1.0000   1.0000   1.0000   1.0000   1.0000
     1.0000   1.0000   1.0000   1.0000   1.0000   1.0000   1.0000   1.0000
     1.0000   1.0000   1.0000   1.0000   1.0000   1.0000   1.0000   1.0000
     1.0000   1.0000   1.0000   1.0000   1.0000   1.0000   1.0000   1.0000
     1.0000   1.0000   1.0000   1.0000   1.0000   1.0000   1.0000   1.0000
     1.0000   1.0000   1.0000   1.0000   1.0000   1.0000   1.0000   1.0000
     1.0000   1.0000   1.0000   1.0000   1.0000   1.0000   1.0000   1.0000
     1.0000   1.0000   1.0000   1.0000   1.0000   1.0000   1.0000   1.0000
     1.0000   1.0000   1.0000   1.0000   1.0000   1.0000   1.0000   1.0000
     1.0000   1.0000   1.0000   1.0000   1.0000   1.0000   1.0000   1.0000
     1.0000   1.0000   1.0000   1.0000   1.0000   1.0000   1.0000   1.0000
     1.0000   1.0000   1.0000   1.0000   1.0000   1.0000   1.0000   1.0000
     1.0000   1.0000   1.0000   1.0000   1.0000   1.0000   1.0000   1.0000
     1.0000   1.0000   1.0000   1.0000   1.0000   1.0000   1.0000   1.0000
     1.0000   1.0000   1.0000   1.0000   1.0000   1.0000   1.0000   1.0000
     1.0000   1.0000   1.0000   1.0000   1.0000   1.0000   1.0000   1.0000

          k = 0.3000-0.2244 0.0799 ( 63014 PWs)   bands (ev):

   -18.4368 -18.4368 -18.4368 -18.4368 -18.4367 -18.4367 -18.4367 -18.4367
   -18.4234 -18.4234 -18.4234 -18.4234 -18.4233 -18.4233 -18.4233 -18.4233
   -17.8399 -17.8399 -17.8399 -17.8399 -17.8397 -17.8397 -17.8397 -17.8397
   -17.3981 -17.3981 -17.3981 -17.3981 -17.3981 -17.3981 -17.3981 -17.3981
   -17.3891 -17.3891 -17.3891 -17.3891 -17.3890 -17.3890 -17.3890 -17.3890
   -17.3799 -17.3799 -17.3799 -17.3799 -17.3798 -17.3798 -17.3798 -17.3798
    -8.7492  -8.7492  -8.7492  -8.7492  -8.6364  -8.6364  -8.6360  -8.6360
    -8.5292  -8.5292  -8.5287  -8.5287  -8.4359  -8.4359  -8.4357  -8.4357
    -8.3892  -8.3892  -8.3876  -8.3876  -8.3810  -8.3810  -8.3796  -8.3796
    -5.8140  -5.8140  -5.8122  -5.8122  -5.8060  -5.8060  -5.8036  -5.8036
    -4.2449  -4.2449  -4.2430  -4.2430  -4.2350  -4.2350  -4.2342  -4.2342
    -4.1647  -4.1647  -4.1633  -4.1633  -4.1584  -4.1584  -4.1569  -4.1569
    -3.2112  -3.2112  -3.2103  -3.2103  -3.1496  -3.1496  -3.1491  -3.1491
    -0.0601  -0.0601  -0.0279  -0.0279   0.0883   0.0883   0.0980   0.0980
     0.2965   0.2965   0.3083   0.3083   0.4219   0.4219   0.4554   0.4554
     0.5778   0.5778   0.6021   0.6021   0.7540   0.7540   0.7985   0.7985
     1.0411   1.0411   1.0444   1.0444   1.3346   1.3346   1.3357   1.3357
     1.4106   1.4106   1.4224   1.4224   1.6397   1.6397   1.6503   1.6503
     1.7023   1.7023   1.7280   1.7280   1.7740   1.7740   1.7858   1.7858
     1.8598   1.8598   1.8700   1.8700   1.9836   1.9836   2.0487   2.0487
     2.1931   2.1931   2.2059   2.2059   2.2313   2.2313   2.2345   2.2345
     2.7545   2.7545   2.8065   2.8065   2.8723   2.8723   2.9067   2.9067

     occupation numbers 
     1.0000   1.0000   1.0000   1.0000   1.0000   1.0000   1.0000   1.0000
     1.0000   1.0000   1.0000   1.0000   1.0000   1.0000   1.0000   1.0000
     1.0000   1.0000   1.0000   1.0000   1.0000   1.0000   1.0000   1.0000
     1.0000   1.0000   1.0000   1.0000   1.0000   1.0000   1.0000   1.0000
     1.0000   1.0000   1.0000   1.0000   1.0000   1.0000   1.0000   1.0000
     1.0000   1.0000   1.0000   1.0000   1.0000   1.0000   1.0000   1.0000
     1.0000   1.0000   1.0000   1.0000   1.0000   1.0000   1.0000   1.0000
     1.0000   1.0000   1.0000   1.0000   1.0000   1.0000   1.0000   1.0000
     1.0000   1.0000   1.0000   1.0000   1.0000   1.0000   1.0000   1.0000
     1.0000   1.0000   1.0000   1.0000   1.0000   1.0000   1.0000   1.0000
     1.0000   1.0000   1.0000   1.0000   1.0000   1.0000   1.0000   1.0000
     1.0000   1.0000   1.0000   1.0000   1.0000   1.0000   1.0000   1.0000
     1.0000   1.0000   1.0000   1.0000   1.0000   1.0000   1.0000   1.0000
     1.0000   1.0000   1.0000   1.0000   1.0000   1.0000   1.0000   1.0000
     1.0000   1.0000   1.0000   1.0000   1.0000   1.0000   1.0000   1.0000
     1.0000   1.0000   1.0000   1.0000   1.0000   1.0000   1.0000   1.0000
     1.0000   1.0000   1.0000   1.0000   1.0000   1.0000   1.0000   1.0000
     1.0000   1.0000   1.0000   1.0000   1.0000   1.0000   1.0000   1.0000
     1.0000   1.0000   1.0000   1.0000   1.0000   1.0000   1.0000   1.0000
     1.0000   1.0000   1.0000   1.0000   1.0000   1.0000   1.0000   1.0000
[...]
     1.8662   1.8662   1.8694   1.8694   1.9410   1.9410   1.9445   1.9445
     2.1313   2.1313   2.1322   2.1322   2.2013   2.2013   2.2123   2.2123
     2.7124   2.7124   2.7138   2.7138   2.8918   2.8918   2.8944   2.8944

     occupation numbers 
     1.0000   1.0000   1.0000   1.0000   1.0000   1.0000   1.0000   1.0000
     1.0000   1.0000   1.0000   1.0000   1.0000   1.0000   1.0000   1.0000
     1.0000   1.0000   1.0000   1.0000   1.0000   1.0000   1.0000   1.0000
     1.0000   1.0000   1.0000   1.0000   1.0000   1.0000   1.0000   1.0000
     1.0000   1.0000   1.0000   1.0000   1.0000   1.0000   1.0000   1.0000
     1.0000   1.0000   1.0000   1.0000   1.0000   1.0000   1.0000   1.0000
     1.0000   1.0000   1.0000   1.0000   1.0000   1.0000   1.0000   1.0000
     1.0000   1.0000   1.0000   1.0000   1.0000   1.0000   1.0000   1.0000
     1.0000   1.0000   1.0000   1.0000   1.0000   1.0000   1.0000   1.0000
     1.0000   1.0000   1.0000   1.0000   1.0000   1.0000   1.0000   1.0000
     1.0000   1.0000   1.0000   1.0000   1.0000   1.0000   1.0000   1.0000
     1.0000   1.0000   1.0000   1.0000   1.0000   1.0000   1.0000   1.0000
     1.0000   1.0000   1.0000   1.0000   1.0000   1.0000   1.0000   1.0000
     1.0000   1.0000   1.0000   1.0000   1.0000   1.0000   1.0000   1.0000
     1.0000   1.0000   1.0000   1.0000   1.0000   1.0000   1.0000   1.0000
     1.0000   1.0000   1.0000   1.0000   1.0000   1.0000   1.0000   1.0000
     1.0000   1.0000   1.0000   1.0000   1.0000   1.0000   1.0000   1.0000
     1.0000   1.0000   1.0000   1.0000   1.0000   1.0000   1.0000   1.0000
     1.0000   1.0000   1.0000   1.0000   1.0000   1.0000   1.0000   1.0000
     1.0000   1.0000   1.0000   1.0000   1.0000   1.0000   1.0000   1.0000
     1.0000   1.0000   1.0000   1.0000   1.0000   1.0000   1.0000   1.0000
     1.0000   1.0000   1.0000   1.0000   1.0000   1.0000   1.0000   1.0000

          k = 0.5000 0.1347-0.0799 ( 63034 PWs)   bands (ev):

   -18.4370 -18.4370 -18.4370 -18.4370 -18.4370 -18.4370 -18.4370 -18.4370
   -18.4231 -18.4231 -18.4231 -18.4231 -18.4231 -18.4231 -18.4231 -18.4231
   -17.8360 -17.8360 -17.8360 -17.8360 -17.8356 -17.8356 -17.8356 -17.8356
   -17.3985 -17.3985 -17.3985 -17.3985 -17.3985 -17.3985 -17.3985 -17.3985
   -17.3891 -17.3891 -17.3891 -17.3891 -17.3891 -17.3891 -17.3891 -17.3891
   -17.3794 -17.3794 -17.3794 -17.3794 -17.3794 -17.3794 -17.3794 -17.3794
    -8.6103  -8.6103  -8.6103  -8.6103  -8.6083  -8.6083  -8.6083  -8.6083
    -8.4410  -8.4410  -8.4408  -8.4408  -8.4341  -8.4341  -8.4338  -8.4338
    -8.4171  -8.4171  -8.4170  -8.4170  -8.4071  -8.4071  -8.4070  -8.4070
    -5.8393  -5.8393  -5.8393  -5.8393  -5.8199  -5.8199  -5.8199  -5.8199
    -4.3065  -4.3065  -4.3065  -4.3065  -4.2709  -4.2709  -4.2707  -4.2707
    -4.1746  -4.1746  -4.1742  -4.1742  -4.1508  -4.1508  -4.1507  -4.1507
    -3.3230  -3.3230  -3.3227  -3.3227  -3.3052  -3.3052  -3.3050  -3.3050
    -0.1491  -0.1491  -0.1412  -0.1412  -0.1253  -0.1253  -0.1159  -0.1159
     0.2963   0.2963   0.3013   0.3013   0.3588   0.3588   0.3589   0.3589
     0.5389   0.5389   0.5394   0.5394   0.6277   0.6277   0.6309   0.6309
     1.0798   1.0798   1.0880   1.0880   1.1607   1.1607   1.1731   1.1731
     1.4072   1.4072   1.4271   1.4271   1.5217   1.5217   1.5456   1.5456
     1.6265   1.6265   1.6289   1.6289   1.7125   1.7125   1.7192   1.7192
     1.8725   1.8725   1.8762   1.8762   1.9381   1.9381   1.9451   1.9451
     2.1131   2.1131   2.1149   2.1149   2.2123   2.2123   2.2272   2.2272
     2.7297   2.7297   2.7328   2.7328   2.8750   2.8750   2.8801   2.8801

     occupation numbers 
     1.0000   1.0000   1.0000   1.0000   1.0000   1.0000   1.0000   1.0000
     1.0000   1.0000   1.0000   1.0000   1.0000   1.0000   1.0000   1.0000
     1.0000   1.0000   1.0000   1.0000   1.0000   1.0000   1.0000   1.0000
     1.0000   1.0000   1.0000   1.0000   1.0000   1.0000   1.0000   1.0000
     1.0000   1.0000   1.0000   1.0000   1.0000   1.0000   1.0000   1.0000
     1.0000   1.0000   1.0000   1.0000   1.0000   1.0000   1.0000   1.0000
     1.0000   1.0000   1.0000   1.0000   1.0000   1.0000   1.0000   1.0000
     1.0000   1.0000   1.0000   1.0000   1.0000   1.0000   1.0000   1.0000
     1.0000   1.0000   1.0000   1.0000   1.0000   1.0000   1.0000   1.0000
     1.0000   1.0000   1.0000   1.0000   1.0000   1.0000   1.0000   1.0000
     1.0000   1.0000   1.0000   1.0000   1.0000   1.0000   1.0000   1.0000
     1.0000   1.0000   1.0000   1.0000   1.0000   1.0000   1.0000   1.0000
     1.0000   1.0000   1.0000   1.0000   1.0000   1.0000   1.0000   1.0000
     1.0000   1.0000   1.0000   1.0000   1.0000   1.0000   1.0000   1.0000
     1.0000   1.0000   1.0000   1.0000   1.0000   1.0000   1.0000   1.0000
     1.0000   1.0000   1.0000   1.0000   1.0000   1.0000   1.0000   1.0000
     1.0000   1.0000   1.0000   1.0000   1.0000   1.0000   1.0000   1.0000
     1.0000   1.0000   1.0000   1.0000   1.0000   1.0000   1.0000   1.0000
     1.0000   1.0000   1.0000   1.0000   1.0000   1.0000   1.0000   1.0000
     1.0000   1.0000   1.0000   1.0000   1.0000   1.0000   1.0000   1.0000
     1.0000   1.0000   1.0000   1.0000   1.0000   1.0000   1.0000   1.0000
     1.0000   1.0000   1.0000   1.0000   1.0000   1.0000   1.0000   1.0000

     highest occupied level (ev):     3.0382

!    total energy              =   -1268.15100190 Ry
     Harris-Foulkes estimate   =   -1268.15100190 Ry
     estimated scf accuracy    <       0.00000033 Ry

     The total energy is the sum of the following terms:

     one-electron contribution =    -488.12221914 Ry
     hartree contribution      =     316.28890447 Ry
     xc contribution           =    -462.74808561 Ry
     ewald contribution        =    -633.56960162 Ry

     convergence has been achieved in   9 iterations

     Forces acting on atoms (Ry/au):

     atom    1 type  1   force =     0.00000000   -0.00085242    0.00054246
     atom    2 type  1   force =     0.00000000    0.00085242   -0.00054246
     atom    3 type  1   force =     0.00000000   -0.00085546   -0.00053918
     atom    4 type  1   force =     0.00000000    0.00085546    0.00053918
     atom    5 type  2   force =     0.00000000   -0.00127179   -0.00064407
     atom    6 type  2   force =     0.00000000    0.00127179    0.00064407
     atom    7 type  2   force =     0.00000000   -0.00127652    0.00064410
     atom    8 type  2   force =     0.00000000    0.00127652   -0.00064410
     atom    9 type  3   force =     0.00000000   -0.00291932   -0.00373374
     atom   10 type  3   force =     0.00000000    0.00291932    0.00373374
     atom   11 type  3   force =     0.00000000   -0.00291959    0.00373372
     atom   12 type  3   force =     0.00000000    0.00291959   -0.00373372
     atom   13 type  3   force =    -0.00000000   -0.00208208    0.00304234
     atom   14 type  3   force =     0.00000000    0.00208208   -0.00304234
     atom   15 type  3   force =     0.00000000   -0.00208250   -0.00304217
     atom   16 type  3   force =     0.00000000    0.00208250    0.00304217
     atom   17 type  3   force =     0.00000000    0.00247334   -0.00191845
     atom   18 type  3   force =    -0.00000000   -0.00247334    0.00191845
     atom   19 type  3   force =     0.00000000    0.00247375    0.00191796
     atom   20 type  3   force =     0.00000000   -0.00247375   -0.00191796
     The non-local contrib.  to forces
     atom    1 type  1   force =     0.00000000    0.00236434   -0.00220123
     atom    2 type  1   force =     0.00000000   -0.00236434    0.00220123
     atom    3 type  1   force =     0.00000000    0.00236759    0.00219998
     atom    4 type  1   force =     0.00000000   -0.00236759   -0.00219998
     atom    5 type  2   force =     0.00000000   -0.08506757   -0.12869489
     atom    6 type  2   force =     0.00000000    0.08506757    0.12869489
     atom    7 type  2   force =     0.00000000   -0.08507056    0.12869498
     atom    8 type  2   force =     0.00000000    0.08507056   -0.12869498
     atom    9 type  3   force =     0.00000000   -0.04877883   -0.04805158
     atom   10 type  3   force =     0.00000000    0.04877883    0.04805158
     atom   11 type  3   force =     0.00000000   -0.04877873    0.04805159
     atom   12 type  3   force =     0.00000000    0.04877873   -0.04805159
     atom   13 type  3   force =     0.00000000   -0.03257310    0.05537522
     atom   14 type  3   force =     0.00000000    0.03257310   -0.05537522
     atom   15 type  3   force =     0.00000000   -0.03257369   -0.05537537
     atom   16 type  3   force =     0.00000000    0.03257369    0.05537537
     atom   17 type  3   force =     0.00000000    0.05559576   -0.01738987
     atom   18 type  3   force =     0.00000000   -0.05559576    0.01738987
     atom   19 type  3   force =     0.00000000    0.05559484    0.01739001
     atom   20 type  3   force =     0.00000000   -0.05559484   -0.01739001
     The ionic contribution  to forces
     atom    1 type  1   force =    -0.00000000    0.02273773    0.42856976
     atom    2 type  1   force =     0.00000000   -0.02273773   -0.42856976
     atom    3 type  1   force =    -0.00000000    0.02273773   -0.42856976
     atom    4 type  1   force =     0.00000000   -0.02273773    0.42856976
     atom    5 type  2   force =    -0.00000000   -2.44382133   -1.60292982
     atom    6 type  2   force =     0.00000000    2.44382133    1.60292982
     atom    7 type  2   force =    -0.00000000   -2.44382133    1.60292982
     atom    8 type  2   force =     0.00000000    2.44382133   -1.60292982
     atom    9 type  3   force =    -0.00000000    3.00608889    5.13288889
     atom   10 type  3   force =    -0.00000000   -3.00608889   -5.13288889
     atom   11 type  3   force =    -0.00000000    3.00608889   -5.13288889
     atom   12 type  3   force =    -0.00000000   -3.00608889    5.13288889
     atom   13 type  3   force =    -0.00000000    2.02422847   -3.75281495
     atom   14 type  3   force =     0.00000000   -2.02422847    3.75281495
     atom   15 type  3   force =    -0.00000000    2.02422847    3.75281495
     atom   16 type  3   force =     0.00000000   -2.02422847   -3.75281495
     atom   17 type  3   force =    -0.00000000   -4.20564469    2.10270402
     atom   18 type  3   force =     0.00000000    4.20564469   -2.10270402
     atom   19 type  3   force =     0.00000000   -4.20564469   -2.10270402
     atom   20 type  3   force =     0.00000000    4.20564469    2.10270402
     The local contribution  to forces
     atom    1 type  1   force =     0.00000000   -0.02577698   -0.42559779
     atom    2 type  1   force =    -0.00000000    0.02577698    0.42559779
     atom    3 type  1   force =    -0.00000000   -0.02578597    0.42560488
     atom    4 type  1   force =     0.00000000    0.02578597   -0.42560488
     atom    5 type  2   force =    -0.00000000    2.52814150    1.73085425
     atom    6 type  2   force =     0.00000000   -2.52814150   -1.73085425
     atom    7 type  2   force =     0.00000000    2.52813241   -1.73085196
     atom    8 type  2   force =     0.00000000   -2.52813241    1.73085196
     atom    9 type  3   force =    -0.00000000   -2.96534385   -5.09372743
     atom   10 type  3   force =     0.00000000    2.96534385    5.09372743
     atom   11 type  3   force =     0.00000000   -2.96534502    5.09372782
     atom   12 type  3   force =    -0.00000000    2.96534502   -5.09372782
     atom   13 type  3   force =    -0.00000000   -1.99702715    3.70581986
     atom   14 type  3   force =     0.00000000    1.99702715   -3.70581986
     atom   15 type  3   force =    -0.00000000   -1.99702921   -3.70581945
     atom   16 type  3   force =     0.00000000    1.99702921    3.70581945
     atom   17 type  3   force =    -0.00000000    4.15886131   -2.08919299
     atom   18 type  3   force =     0.00000000   -4.15886131    2.08919299
     atom   19 type  3   force =    -0.00000000    4.15886038    2.08919141
     atom   20 type  3   force =     0.00000000   -4.15886038   -2.08919141
     The core correction contribution to forces
     atom    1 type  1   force =    -0.00000000   -0.00003166    0.00008050
     atom    2 type  1   force =     0.00000000    0.00003166   -0.00008050
     atom    3 type  1   force =    -0.00000000   -0.00003257   -0.00007992
     atom    4 type  1   force =     0.00000000    0.00003257    0.00007992
     atom    5 type  2   force =     0.00000000    0.00021752    0.00014193
     atom    6 type  2   force =    -0.00000000   -0.00021752   -0.00014193
     atom    7 type  2   force =     0.00000000    0.00021557   -0.00014181
     atom    8 type  2   force =    -0.00000000   -0.00021557    0.00014181
     atom    9 type  3   force =     0.00000000    0.00515092    0.00533749
     atom   10 type  3   force =    -0.00000000   -0.00515092   -0.00533749
     atom   11 type  3   force =     0.00000000    0.00515087   -0.00533749
     atom   12 type  3   force =     0.00000000   -0.00515087    0.00533749
     atom   13 type  3   force =    -0.00000000    0.00322254   -0.00555713
     atom   14 type  3   force =    -0.00000000   -0.00322254    0.00555713
     atom   15 type  3   force =     0.00000000    0.00322257    0.00555719
     atom   16 type  3   force =     0.00000000   -0.00322257   -0.00555719
     atom   17 type  3   force =     0.00000000   -0.00623952    0.00203400
     atom   18 type  3   force =    -0.00000000    0.00623952   -0.00203400
     atom   19 type  3   force =    -0.00000000   -0.00623936   -0.00203408
     atom   20 type  3   force =     0.00000000    0.00623936    0.00203408
     The Hubbard contrib.    to forces
     atom    1 type  1   force =     0.00000000    0.00000000    0.00000000
     atom    2 type  1   force =     0.00000000    0.00000000    0.00000000
     atom    3 type  1   force =     0.00000000    0.00000000    0.00000000
     atom    4 type  1   force =     0.00000000    0.00000000    0.00000000
     atom    5 type  2   force =     0.00000000    0.00000000    0.00000000
     atom    6 type  2   force =     0.00000000    0.00000000    0.00000000
     atom    7 type  2   force =     0.00000000    0.00000000    0.00000000
     atom    8 type  2   force =     0.00000000    0.00000000    0.00000000
     atom    9 type  3   force =     0.00000000    0.00000000    0.00000000
     atom   10 type  3   force =     0.00000000    0.00000000    0.00000000
     atom   11 type  3   force =     0.00000000    0.00000000    0.00000000
     atom   12 type  3   force =     0.00000000    0.00000000    0.00000000
     atom   13 type  3   force =     0.00000000    0.00000000    0.00000000
     atom   14 type  3   force =     0.00000000    0.00000000    0.00000000
     atom   15 type  3   force =     0.00000000    0.00000000    0.00000000
     atom   16 type  3   force =     0.00000000    0.00000000    0.00000000
     atom   17 type  3   force =     0.00000000    0.00000000    0.00000000
     atom   18 type  3   force =     0.00000000    0.00000000    0.00000000
     atom   19 type  3   force =     0.00000000    0.00000000    0.00000000
     atom   20 type  3   force =     0.00000000    0.00000000    0.00000000
     The SCF correction term to forces
     atom    1 type  1   force =     0.00000000   -0.00014585   -0.00030879
     atom    2 type  1   force =    -0.00000000    0.00014585    0.00030879
     atom    3 type  1   force =     0.00000000   -0.00014224    0.00030565
     atom    4 type  1   force =    -0.00000000    0.00014224   -0.00030565
     atom    5 type  2   force =    -0.00000000   -0.00074191   -0.00001554
     atom    6 type  2   force =    -0.00000000    0.00074191    0.00001554
     atom    7 type  2   force =     0.00000000   -0.00073262    0.00001307
     atom    8 type  2   force =    -0.00000000    0.00073262   -0.00001307
     atom    9 type  3   force =     0.00000000   -0.00003645   -0.00018110
     atom   10 type  3   force =    -0.00000000    0.00003645    0.00018110
     atom   11 type  3   force =    -0.00000000   -0.00003560    0.00018069
     atom   12 type  3   force =     0.00000000    0.00003560   -0.00018069
     atom   13 type  3   force =     0.00000000    0.00006715    0.00021934
     atom   14 type  3   force =    -0.00000000   -0.00006715   -0.00021934
     atom   15 type  3   force =     0.00000000    0.00006936   -0.00021949
     atom   16 type  3   force =    -0.00000000   -0.00006936    0.00021949
     atom   17 type  3   force =     0.00000000   -0.00009952   -0.00007361
     atom   18 type  3   force =    -0.00000000    0.00009952    0.00007361
     atom   19 type  3   force =    -0.00000000   -0.00009743    0.00007464
     atom   20 type  3   force =     0.00000000    0.00009743   -0.00007464

     Total force =     0.013988     Total SCF correction =     0.001745
     SCF correction compared to forces is large: reduce conv_thr to get better values


     entering subroutine stress ...

     Message from routine stres:
     noncollinear stress + GGA not implemented

     Writing output data file CsSnI3.save

     init_run     :    106.06s CPU     65.04s WALL (       1 calls)
     electrons    :   3028.86s CPU   1803.75s WALL (       1 calls)
     forces       :    248.77s CPU    235.15s WALL (       1 calls)

     Called by init_run:
     wfcinit      :     96.93s CPU     57.87s WALL (       1 calls)
     wfcinit:atom :      0.38s CPU      0.51s WALL (      39 calls)
     wfcinit:wfcr :     93.72s CPU     54.39s WALL (      39 calls)
     potinit      :      0.92s CPU      0.83s WALL (       1 calls)

     Called by electrons:
     c_bands      :   2509.02s CPU   1503.27s WALL (      10 calls)
     sum_band     :    475.04s CPU    268.80s WALL (      10 calls)
     v_of_rho     :      1.12s CPU      0.76s WALL (      10 calls)
     v_h          :      0.11s CPU      0.07s WALL (      10 calls)
     v_xc         :      1.12s CPU      0.77s WALL (      11 calls)
     newd         :     46.59s CPU     32.85s WALL (      10 calls)
     mix_rho      :      0.83s CPU      0.58s WALL (      10 calls)

     Called by c_bands:
     init_us_2    :     12.24s CPU      9.97s WALL (     858 calls)
     cegterg      :   2418.00s CPU   1413.94s WALL (     390 calls)

     Called by sum_band:
     sum_band:bec :     53.27s CPU     34.46s WALL (     390 calls)
     addusdens    :     33.97s CPU     25.08s WALL (      10 calls)

     Called by *egterg:
     h_psi        :   1628.69s CPU    885.29s WALL (    1493 calls)
     s_psi        :    261.40s CPU    173.58s WALL (    1493 calls)
     g_psi        :      5.02s CPU      3.14s WALL (    1064 calls)
     cdiaghg      :    158.58s CPU     98.74s WALL (    1415 calls)
     cegterg:over :    194.55s CPU    128.98s WALL (    1064 calls)
     cegterg:upda :     94.77s CPU     51.25s WALL (    1064 calls)
     cegterg:last :     46.01s CPU     25.13s WALL (     390 calls)

     Called by h_psi:
     h_psi:pot    :   1615.14s CPU    874.01s WALL (    1493 calls)
     h_psi:calbec :    269.42s CPU    155.85s WALL (    1493 calls)
     vloc_psi     :   1099.45s CPU    569.47s WALL (    1493 calls)
     add_vuspsi   :    246.21s CPU    148.67s WALL (    1493 calls)

     General routines
     calbec       :    400.43s CPU    235.77s WALL (    2039 calls)
     fft          :      3.91s CPU      3.11s WALL (     315 calls)
     ffts         :      0.73s CPU      0.55s WALL (      80 calls)
     fftw         :   1169.75s CPU    611.23s WALL (  888464 calls)
     interpolate  :      1.44s CPU      1.03s WALL (      80 calls)

     Parallel routines
     fft_scatter  :    850.14s CPU    449.26s WALL (  888859 calls)

     PWSCF        : 56m49.07s CPU    35m46.41s WALL


   This run was terminated on:  19:56: 8  26Jan2021            

=------------------------------------------------------------------------------=
   JOB DONE.
=------------------------------------------------------------------------------=
