
     Program PWSCF v.6.4.1 starts on 25Jan2021 at 18:23: 2 

     This program is part of the open-source Quantum ESPRESSO suite
     for quantum simulation of materials; please cite
         "P. Giannozzi et al., J. Phys.:Condens. Matter 21 395502 (2009);
         "P. Giannozzi et al., J. Phys.:Condens. Matter 29 465901 (2017);
          URL http://www.quantum-espresso.org", 
     in publications or presentations arising from this work. More details at
     http://www.quantum-espresso.org/quote

     Parallel version (MPI & OpenMP), running on      96 processor cores
     Number of MPI processes:                48
     Threads/MPI process:                     2

     MPI processes distributed on     2 nodes
     R & G space division:  proc/nbgrp/npool/nimage =      48
     Waiting for input...
     Reading input from standard input

     Current dimensions of program PWSCF are:
     Max number of different atomic species (ntypx) = 10
     Max number of k-points (npk) =  40000
     Max angular momentum in pseudopotentials (lmaxx) =  3
               file Cs.rel-pbesol-spn-rrkjus_psl.1.0.0.UPF: wavefunction(s)  5S 6S renormalized
               file Sn.rel-pbesol-dn-rrkjus_psl.1.0.0.UPF: wavefunction(s)  5S 4D 4D renormalized
               file I.rel-pbesol-n-rrkjus_psl.1.0.0.UPF: wavefunction(s)  5S renormalized

     Subspace diagonalization in iterative solution of the eigenvalue problem:
     one sub-group per band group will be used
     scalapack distributed-memory algorithm (size of sub-group:  4*  4 procs)

 
     Parallelization info
     --------------------
     sticks:   dense  smooth     PW     G-vecs:    dense   smooth      PW
     Min         107      86     23                14667    10498    1499
     Max         108      87     24                14680    10509    1512
     Sum        5183    4145   1133               704507   504115   72215
 

     Title: 
     CsSnI3                                                                     


     bravais-lattice index     =            8
     lattice parameter (alat)  =       9.1317  a.u.
     unit-cell volume          =    6370.5385 (a.u.)^3
     number of atoms/cell      =           20
     number of atomic types    =            3
     number of electrons       =       176.00
     number of Kohn-Sham states=          176
     kinetic-energy cutoff     =      70.0000  Ry
     charge density cutoff     =     350.0000  Ry
     convergence threshold     =      1.0E-06
     mixing beta               =       0.3500
     number of iterations used =            8  plain     mixing
     Exchange-correlation      = PBESOL ( 1  4 10  8 0 0)
     Non magnetic calculation with spin-orbit


     celldm(1)=   9.131705  celldm(2)=   2.227728  celldm(3)=   3.755420
     celldm(4)=   0.000000  celldm(5)=   0.000000  celldm(6)=   0.000000

     crystal axes: (cart. coord. in units of alat)
               a(1) = (   1.000000   0.000000   0.000000 )  
               a(2) = (   0.000000   2.227728   0.000000 )  
               a(3) = (   0.000000   0.000000   3.755420 )  

     reciprocal axes: (cart. coord. in units 2 pi/alat)
               b(1) = (  1.000000  0.000000  0.000000 )  
               b(2) = (  0.000000  0.448888  0.000000 )  
               b(3) = (  0.000000  0.000000  0.266282 )  


     PseudoPot. # 1 for Cs read from file:
     /marconi_scratch/userexternal/cmalosso/degironcoli/pseudo/pseudo-usp/Cs.rel-pbesol-spn-rrkjus_psl.1.0.0.UPF
     MD5 check sum: 846889b67fb1b19751b5b37931589d70
     Pseudo is Ultrasoft + core correction, Zval =  9.0
     Generated using "atomic" code by A. Dal Corso v.6.4.1
     Using radial grid of 1251 points, 15 beta functions with: 
                l(1) =   0
                l(2) =   0
                l(3) =   0
                l(4) =   1
                l(5) =   1
                l(6) =   1
                l(7) =   1
                l(8) =   2
                l(9) =   2
               l(10) =   2
               l(11) =   2
               l(12) =   3
               l(13) =   3
               l(14) =   3
               l(15) =   3
     Q(r) pseudized with 0 coefficients 


     PseudoPot. # 2 for Sn read from file:
     /marconi_scratch/userexternal/cmalosso/degironcoli/pseudo/pseudo-usp/Sn.rel-pbesol-dn-rrkjus_psl.1.0.0.UPF
     MD5 check sum: c1cf6ea56b96a3656bdf0d1db379e093
     Pseudo is Ultrasoft + core correction, Zval = 14.0
     Generated using "atomic" code by A. Dal Corso v.6.3
     Using radial grid of 1243 points, 10 beta functions with: 
                l(1) =   0
                l(2) =   0
                l(3) =   1
                l(4) =   1
                l(5) =   1
                l(6) =   1
                l(7) =   2
                l(8) =   2
                l(9) =   2
               l(10) =   2
     Q(r) pseudized with 0 coefficients 


     PseudoPot. # 3 for I  read from file:
     /marconi_scratch/userexternal/cmalosso/degironcoli/pseudo/pseudo-usp/I.rel-pbesol-n-rrkjus_psl.1.0.0.UPF
     MD5 check sum: 0f96c6bfb1b448f280658f96eb466b08
     Pseudo is Ultrasoft + core correction, Zval =  7.0
     Generated using "atomic" code by A. Dal Corso v.6.3
     Using radial grid of 1247 points, 10 beta functions with: 
                l(1) =   0
                l(2) =   0
                l(3) =   1
                l(4) =   1
                l(5) =   1
                l(6) =   1
                l(7) =   2
                l(8) =   2
                l(9) =   2
               l(10) =   2
     Q(r) pseudized with 0 coefficients 


     atomic species   valence    mass     pseudopotential
        Cs             9.00   132.90000     Cs( 1.00)
        Sn            14.00   118.70000     Sn( 1.00)
        I              7.00   126.90000     I ( 1.00)

      8 Sym. Ops., with inversion, found ( 6 have fractional translation)


                                    s                        frac. trans.

      isym =  1     identity                                     

 cryst.   s( 1) = (     1          0          0      )
                  (     0          1          0      )
                  (     0          0          1      )

 cart.    s( 1) = (  1.0000000  0.0000000  0.0000000 )
                  (  0.0000000  1.0000000  0.0000000 )
                  (  0.0000000  0.0000000  1.0000000 )


      isym =  2     180 deg rotation - cart. axis [0,0,1]        

 cryst.   s( 2) = (    -1          0          0      )    f =(  0.0000000 )
                  (     0         -1          0      )       (  0.5000000 )
                  (     0          0          1      )       (  0.5000000 )

 cart.    s( 2) = ( -1.0000000  0.0000000  0.0000000 )    f =(  0.0000000 )
                  (  0.0000000 -1.0000000  0.0000000 )       (  1.1138638 )
                  (  0.0000000  0.0000000  1.0000000 )       (  1.8777098 )


      isym =  3     180 deg rotation - cart. axis [0,1,0]        

 cryst.   s( 3) = (    -1          0          0      )    f =(  0.5000000 )
                  (     0          1          0      )       ( -0.5000000 )
                  (     0          0         -1      )       ( -0.5000000 )

 cart.    s( 3) = ( -1.0000000  0.0000000  0.0000000 )    f =(  0.5000000 )
                  (  0.0000000  1.0000000  0.0000000 )       ( -1.1138638 )
                  (  0.0000000  0.0000000 -1.0000000 )       ( -1.8777098 )


      isym =  4     180 deg rotation - cart. axis [1,0,0]        

 cryst.   s( 4) = (     1          0          0      )    f =( -0.5000000 )
                  (     0         -1          0      )       (  0.0000000 )
                  (     0          0         -1      )       (  0.0000000 )

 cart.    s( 4) = (  1.0000000  0.0000000  0.0000000 )    f =( -0.5000000 )
                  (  0.0000000 -1.0000000  0.0000000 )       (  0.0000000 )
                  (  0.0000000  0.0000000 -1.0000000 )       (  0.0000000 )


      isym =  5     inversion                                    

 cryst.   s( 5) = (    -1          0          0      )
                  (     0         -1          0      )
                  (     0          0         -1      )

 cart.    s( 5) = ( -1.0000000  0.0000000  0.0000000 )
                  (  0.0000000 -1.0000000  0.0000000 )
                  (  0.0000000  0.0000000 -1.0000000 )


      isym =  6     inv. 180 deg rotation - cart. axis [0,0,1]   

 cryst.   s( 6) = (     1          0          0      )    f =(  0.0000000 )
                  (     0          1          0      )       ( -0.5000000 )
                  (     0          0         -1      )       ( -0.5000000 )

 cart.    s( 6) = (  1.0000000  0.0000000  0.0000000 )    f =(  0.0000000 )
                  (  0.0000000  1.0000000  0.0000000 )       ( -1.1138638 )
                  (  0.0000000  0.0000000 -1.0000000 )       ( -1.8777098 )


      isym =  7     inv. 180 deg rotation - cart. axis [0,1,0]   

 cryst.   s( 7) = (     1          0          0      )    f =( -0.5000000 )
                  (     0         -1          0      )       (  0.5000000 )
                  (     0          0          1      )       (  0.5000000 )

 cart.    s( 7) = (  1.0000000  0.0000000  0.0000000 )    f =( -0.5000000 )
                  (  0.0000000 -1.0000000  0.0000000 )       (  1.1138638 )
                  (  0.0000000  0.0000000  1.0000000 )       (  1.8777098 )


      isym =  8     inv. 180 deg rotation - cart. axis [1,0,0]   

 cryst.   s( 8) = (    -1          0          0      )    f =(  0.5000000 )
                  (     0          1          0      )       (  0.0000000 )
                  (     0          0          1      )       (  0.0000000 )

 cart.    s( 8) = ( -1.0000000  0.0000000  0.0000000 )    f =(  0.5000000 )
                  (  0.0000000  1.0000000  0.0000000 )       (  0.0000000 )
                  (  0.0000000  0.0000000  1.0000000 )       (  0.0000000 )


     double point group D_2h (mmm) 
     there are 10 classes and  2 irreducible representations
     the character table:

       E     -E     C2    C2'  C2''  i     -i     s_v   s_v' s_v''
                   -C2   -C2'  -C2''             -s_v  -s_v' -s_v'
G_5+   2.00 -2.00  0.00  0.00  0.00  2.00 -2.00  0.00  0.00  0.00
G_5-   2.00 -2.00  0.00  0.00  0.00 -2.00  2.00  0.00  0.00  0.00

     the symmetry operations in each class and the name of the first element:

     E             1
          identity                                               
     -E           -1
          identity E                                             
      C2  -C2      2   -2
          180 deg rotation - cart. axis [0,0,1]                  
      C2' -C2'     4   -4
          180 deg rotation - cart. axis [1,0,0]                  
     C2'' -C2''    3   -3
          180 deg rotation - cart. axis [0,1,0]                  
     i             5
          inversion                                              
     -i           -5
          inversion E                                            
      s_v -s_v     6   -6
          inv. 180 deg rotation - cart. axis [0,0,1]             
      s_v'-s_v'    8   -8
          inv. 180 deg rotation - cart. axis [1,0,0]             
     s_v''-s_v'    7   -7
          inv. 180 deg rotation - cart. axis [0,1,0]             

   Cartesian axes

     site n.     atom                  positions (alat units)
         1           Cs  tau(   1) = (   0.2500000   0.1859640   2.5168147  )
         2           Cs  tau(   2) = (   0.7500000   2.0417636   1.2386050  )
         3           Cs  tau(   3) = (   0.2500000   1.2998278   3.1163149  )
         4           Cs  tau(   4) = (   0.7500000   0.9278998   0.6391048  )
         5           Sn  tau(   5) = (   0.2500000   0.7615710   1.6485466  )
         6           Sn  tau(   6) = (   0.7500000   1.4661567   2.1068731  )
         7           Sn  tau(   7) = (   0.2500000   1.8754348   0.2291632  )
         8           Sn  tau(   8) = (   0.7500000   0.3522928   3.5262565  )
         9           I   tau(   9) = (   0.7500000   0.0581437   0.4202578  )
        10           I   tau(  10) = (   0.2500000   2.1695839   3.3351619  )
        11           I   tau(  11) = (   0.7500000   1.1720075   1.4574521  )
        12           I   tau(  12) = (   0.2500000   1.0557201   2.2979676  )
        13           I   tau(  13) = (   0.7500000   0.6531118   2.9738192  )
        14           I   tau(  14) = (   0.2500000   1.5746158   0.7816005  )
        15           I   tau(  15) = (   0.7500000   1.7669756   2.6593103  )
        16           I   tau(  16) = (   0.2500000   0.4607520   1.0961094  )
        17           I   tau(  17) = (   0.7500000   0.3753632   1.8734812  )
        18           I   tau(  18) = (   0.2500000   1.8523644   1.8819384  )
        19           I   tau(  19) = (   0.7500000   1.4892270   0.0042286  )
        20           I   tau(  20) = (   0.2500000   0.7385006   3.7511911  )

   Crystallographic axes

     site n.     atom                  positions (cryst. coord.)
         1           Cs  tau(   1) = (  0.2500000  0.0834770  0.6701820  )
         2           Cs  tau(   2) = (  0.7500000  0.9165230  0.3298180  )
         3           Cs  tau(   3) = (  0.2500000  0.5834770  0.8298180  )
         4           Cs  tau(   4) = (  0.7500000  0.4165230  0.1701820  )
         5           Sn  tau(   5) = (  0.2500000  0.3418600  0.4389780  )
         6           Sn  tau(   6) = (  0.7500000  0.6581400  0.5610220  )
         7           Sn  tau(   7) = (  0.2500000  0.8418600  0.0610220  )
         8           Sn  tau(   8) = (  0.7500000  0.1581400  0.9389780  )
         9           I   tau(   9) = (  0.7500000  0.0261000  0.1119070  )
        10           I   tau(  10) = (  0.2500000  0.9739000  0.8880930  )
        11           I   tau(  11) = (  0.7500000  0.5261000  0.3880930  )
        12           I   tau(  12) = (  0.2500000  0.4739000  0.6119070  )
        13           I   tau(  13) = (  0.7500000  0.2931740  0.7918740  )
        14           I   tau(  14) = (  0.2500000  0.7068260  0.2081260  )
        15           I   tau(  15) = (  0.7500000  0.7931740  0.7081260  )
        16           I   tau(  16) = (  0.2500000  0.2068260  0.2918740  )
        17           I   tau(  17) = (  0.7500000  0.1684960  0.4988740  )
        18           I   tau(  18) = (  0.2500000  0.8315040  0.5011260  )
        19           I   tau(  19) = (  0.7500000  0.6684960  0.0011260  )
        20           I   tau(  20) = (  0.2500000  0.3315040  0.9988740  )

     number of k points=    27
                       cart. coord. in units 2pi/alat
        k(    1) = (   0.1000000   0.0448888   0.0266282), wk =   0.0640000
        k(    2) = (   0.1000000   0.0448888   0.0798845), wk =   0.0640000
        k(    3) = (   0.1000000   0.0448888  -0.1331409), wk =   0.0320000
        k(    4) = (   0.1000000   0.1346664   0.0266282), wk =   0.0640000
        k(    5) = (   0.1000000   0.1346664   0.0798845), wk =   0.0640000
        k(    6) = (   0.1000000   0.1346664  -0.1331409), wk =   0.0320000
        k(    7) = (   0.1000000  -0.2244440   0.0266282), wk =   0.0320000
        k(    8) = (   0.1000000  -0.2244440   0.0798845), wk =   0.0320000
        k(    9) = (   0.1000000  -0.2244440  -0.1331409), wk =   0.0160000
        k(   10) = (   0.3000000   0.0448888   0.0266282), wk =   0.0640000
        k(   11) = (   0.3000000   0.0448888   0.0798845), wk =   0.0640000
        k(   12) = (   0.3000000   0.0448888  -0.1331409), wk =   0.0320000
        k(   13) = (   0.3000000   0.1346664   0.0266282), wk =   0.0640000
        k(   14) = (   0.3000000   0.1346664   0.0798845), wk =   0.0640000
        k(   15) = (   0.3000000   0.1346664  -0.1331409), wk =   0.0320000
        k(   16) = (   0.3000000  -0.2244440   0.0266282), wk =   0.0320000
        k(   17) = (   0.3000000  -0.2244440   0.0798845), wk =   0.0320000
        k(   18) = (   0.3000000  -0.2244440  -0.1331409), wk =   0.0160000
        k(   19) = (  -0.5000000   0.0448888   0.0266282), wk =   0.0320000
        k(   20) = (  -0.5000000   0.0448888   0.0798845), wk =   0.0320000
        k(   21) = (  -0.5000000   0.0448888  -0.1331409), wk =   0.0160000
        k(   22) = (  -0.5000000   0.1346664   0.0266282), wk =   0.0320000
        k(   23) = (  -0.5000000   0.1346664   0.0798845), wk =   0.0320000
        k(   24) = (  -0.5000000   0.1346664  -0.1331409), wk =   0.0160000
        k(   25) = (  -0.5000000  -0.2244440   0.0266282), wk =   0.0160000
        k(   26) = (  -0.5000000  -0.2244440   0.0798845), wk =   0.0160000
        k(   27) = (  -0.5000000  -0.2244440  -0.1331409), wk =   0.0080000

                       cryst. coord.
        k(    1) = (   0.1000000   0.1000000   0.1000000), wk =   0.0640000
        k(    2) = (   0.1000000   0.1000000   0.3000000), wk =   0.0640000
        k(    3) = (   0.1000000   0.1000000  -0.5000000), wk =   0.0320000
        k(    4) = (   0.1000000   0.3000000   0.1000000), wk =   0.0640000
        k(    5) = (   0.1000000   0.3000000   0.3000000), wk =   0.0640000
        k(    6) = (   0.1000000   0.3000000  -0.5000000), wk =   0.0320000
        k(    7) = (   0.1000000  -0.5000000   0.1000000), wk =   0.0320000
        k(    8) = (   0.1000000  -0.5000000   0.3000000), wk =   0.0320000
        k(    9) = (   0.1000000  -0.5000000  -0.5000000), wk =   0.0160000
        k(   10) = (   0.3000000   0.1000000   0.1000000), wk =   0.0640000
        k(   11) = (   0.3000000   0.1000000   0.3000000), wk =   0.0640000
        k(   12) = (   0.3000000   0.1000000  -0.5000000), wk =   0.0320000
        k(   13) = (   0.3000000   0.3000000   0.1000000), wk =   0.0640000
        k(   14) = (   0.3000000   0.3000000   0.3000000), wk =   0.0640000
        k(   15) = (   0.3000000   0.3000000  -0.5000000), wk =   0.0320000
        k(   16) = (   0.3000000  -0.5000000   0.1000000), wk =   0.0320000
        k(   17) = (   0.3000000  -0.5000000   0.3000000), wk =   0.0320000
        k(   18) = (   0.3000000  -0.5000000  -0.5000000), wk =   0.0160000
        k(   19) = (  -0.5000000   0.1000000   0.1000000), wk =   0.0320000
        k(   20) = (  -0.5000000   0.1000000   0.3000000), wk =   0.0320000
        k(   21) = (  -0.5000000   0.1000000  -0.5000000), wk =   0.0160000
        k(   22) = (  -0.5000000   0.3000000   0.1000000), wk =   0.0320000
        k(   23) = (  -0.5000000   0.3000000   0.3000000), wk =   0.0320000
        k(   24) = (  -0.5000000   0.3000000  -0.5000000), wk =   0.0160000
        k(   25) = (  -0.5000000  -0.5000000   0.1000000), wk =   0.0160000
        k(   26) = (  -0.5000000  -0.5000000   0.3000000), wk =   0.0160000
        k(   27) = (  -0.5000000  -0.5000000  -0.5000000), wk =   0.0080000

     Dense  grid:   704507 G-vectors     FFT dimensions: (  60, 128, 216)

     Smooth grid:   504115 G-vectors     FFT dimensions: (  50, 120, 192)

     Dynamical RAM for                 wfc:       7.05 MB

     Dynamical RAM for     wfc (w. buffer):     197.31 MB

     Dynamical RAM for           str. fact:       0.67 MB

     Dynamical RAM for           local pot:       0.00 MB

     Dynamical RAM for          nlocal pot:      15.94 MB

     Dynamical RAM for                qrad:      52.33 MB

     Dynamical RAM for          rho,v,vnew:       6.20 MB

     Dynamical RAM for               rhoin:       2.07 MB

     Dynamical RAM for            rho*nmix:      14.33 MB

     Dynamical RAM for           G-vectors:       0.92 MB

     Dynamical RAM for          h,s,v(r/c):       1.42 MB

     Dynamical RAM for          <psi|beta>:       4.28 MB

     Dynamical RAM for                 psi:      28.19 MB

     Dynamical RAM for                hpsi:      28.19 MB

     Dynamical RAM for                spsi:      28.19 MB

     Dynamical RAM for      wfcinit/wfcrot:      13.48 MB

     Dynamical RAM for           addusdens:     460.26 MB

     Dynamical RAM for          addusforce:     471.59 MB

     Dynamical RAM for         addusstress:     464.29 MB

     Estimated static dynamical RAM per process >     293.02 MB

     Estimated max dynamical RAM per process >     764.61 MB

     Estimated total dynamical RAM >      35.84 GB

     Initial potential from superposition of free atoms

     starting charge  175.84164, renormalised to  176.00000
     Starting wfcs are  208 randomized atomic wfcs

     total cpu time spent up to now is      700.0 secs

     Self-consistent Calculation

     iteration #  1     ecut=    70.00 Ry     beta= 0.35
     Davidson diagonalization with overlap
     ethr =  1.00E-02,  avg # of iterations =  1.1

     Threshold (ethr) on eigenvalues was too large:
     Diagonalizing with lowered threshold

     Davidson diagonalization with overlap
     ethr =  3.14E-04,  avg # of iterations =  3.0

     total cpu time spent up to now is     4734.2 secs

     total energy              =   -1268.06844906 Ry
     Harris-Foulkes estimate   =   -1268.26679789 Ry
     estimated scf accuracy    <       0.42577233 Ry

     iteration #  2     ecut=    70.00 Ry     beta= 0.35
     Davidson diagonalization with overlap
     ethr =  2.42E-04,  avg # of iterations =  2.0

     total cpu time spent up to now is     7238.9 secs

     total energy              =   -1268.14095923 Ry
     Harris-Foulkes estimate   =   -1268.15639537 Ry
     estimated scf accuracy    <       0.05537092 Ry

     iteration #  3     ecut=    70.00 Ry     beta= 0.35
     Davidson diagonalization with overlap
     ethr =  3.15E-05,  avg # of iterations =  3.0

     total cpu time spent up to now is     9620.3 secs

     WARNING: integrated charge=   176.00036284, expected=   176.00000000

     total energy              =   -1268.14945209 Ry
     Harris-Foulkes estimate   =   -1268.14995601 Ry
     estimated scf accuracy    <       0.01044176 Ry

     iteration #  4     ecut=    70.00 Ry     beta= 0.35
     Davidson diagonalization with overlap
     ethr =  5.93E-06,  avg # of iterations =  2.6

     total cpu time spent up to now is    11568.5 secs

     WARNING: integrated charge=   176.00017927, expected=   176.00000000

     total energy              =   -1268.15068060 Ry
     Harris-Foulkes estimate   =   -1268.15027685 Ry
     estimated scf accuracy    <       0.00205394 Ry

     iteration #  5     ecut=    70.00 Ry     beta= 0.35
     Davidson diagonalization with overlap
     ethr =  1.17E-06,  avg # of iterations =  3.3

     total cpu time spent up to now is    12793.9 secs

     WARNING: integrated charge=   176.00376828, expected=   176.00000000

     total energy              =   -1268.15093054 Ry
     Harris-Foulkes estimate   =   -1268.15098373 Ry
     estimated scf accuracy    <       0.00024450 Ry

     iteration #  6     ecut=    70.00 Ry     beta= 0.35
     Davidson diagonalization with overlap
     ethr =  1.39E-07,  avg # of iterations =  3.9

     total cpu time spent up to now is    14296.1 secs

     WARNING: integrated charge=   176.00284796, expected=   176.00000000

     total energy              =   -1268.15101333 Ry
     Harris-Foulkes estimate   =   -1268.15100802 Ry
     estimated scf accuracy    <       0.00002465 Ry

     iteration #  7     ecut=    70.00 Ry     beta= 0.35
     Davidson diagonalization with overlap
     ethr =  1.40E-08,  avg # of iterations =  2.1

     total cpu time spent up to now is    15591.3 secs

     WARNING: integrated charge=   176.00372912, expected=   176.00000000

     total energy              =   -1268.15100981 Ry
     Harris-Foulkes estimate   =   -1268.15101650 Ry
     estimated scf accuracy    <       0.00034561 Ry

     iteration #  8     ecut=    70.00 Ry     beta= 0.35
     Davidson diagonalization with overlap
     ethr =  1.40E-08,  avg # of iterations =  2.9

     total cpu time spent up to now is    17004.1 secs

     WARNING: integrated charge=   176.00305756, expected=   176.00000000

     total energy              =   -1268.15101835 Ry
     Harris-Foulkes estimate   =   -1268.15101704 Ry
     estimated scf accuracy    <       0.00000679 Ry

     iteration #  9     ecut=    70.00 Ry     beta= 0.35
     Davidson diagonalization with overlap
     ethr =  3.86E-09,  avg # of iterations =  3.7

     total cpu time spent up to now is    18979.8 secs

     End of self-consistent calculation

          k = 0.1000 0.0449 0.0266 ( 62992 PWs)   bands (ev):

   -18.4362 -18.4362 -18.4362 -18.4362 -18.4360 -18.4360 -18.4360 -18.4360
   -18.4235 -18.4235 -18.4234 -18.4234 -18.4234 -18.4234 -18.4234 -18.4234
   -17.8456 -17.8456 -17.8454 -17.8454 -17.8448 -17.8448 -17.8446 -17.8446
   -17.3973 -17.3973 -17.3973 -17.3973 -17.3972 -17.3972 -17.3972 -17.3972
   -17.3888 -17.3888 -17.3888 -17.3888 -17.3887 -17.3887 -17.3887 -17.3887
   -17.3802 -17.3802 -17.3802 -17.3802 -17.3799 -17.3799 -17.3799 -17.3799
    -8.9110  -8.9110  -8.8889  -8.8889  -8.7136  -8.7136  -8.6637  -8.6637
    -8.5771  -8.5771  -8.5602  -8.5602  -8.5412  -8.5412  -8.5090  -8.5090
    -8.4088  -8.4088  -8.3932  -8.3932  -8.3710  -8.3710  -8.3362  -8.3362
    -5.7880  -5.7880  -5.7841  -5.7841  -5.7682  -5.7682  -5.7604  -5.7604
    -4.1893  -4.1893  -4.1850  -4.1850  -4.1635  -4.1635  -4.1539  -4.1539
    -4.1444  -4.1444  -4.1397  -4.1397  -4.1265  -4.1265  -4.1224  -4.1224
    -3.0506  -3.0506  -3.0321  -3.0321  -2.9721  -2.9721  -2.9083  -2.9083
    -0.1058  -0.1058   0.0491   0.0491   0.4048   0.4048   0.4646   0.4646
     0.5108   0.5108   0.6245   0.6245   0.6716   0.6716   0.7245   0.7245
     0.8892   0.8892   0.9384   0.9384   0.9807   0.9807   1.0638   1.0638
     1.1023   1.1023   1.1876   1.1876   1.3600   1.3600   1.3886   1.3886
     1.4296   1.4296   1.5086   1.5086   1.5380   1.5380   1.6741   1.6741
     1.8111   1.8111   1.8587   1.8587   1.8928   1.8928   1.9488   1.9488
     1.9812   1.9812   2.0189   2.0189   2.1700   2.1700   2.2050   2.2050
     2.2440   2.2440   2.2937   2.2937   2.3484   2.3484   2.4080   2.4080
     2.5630   2.5630   2.6275   2.6275   2.7623   2.7623   2.9950   2.9950

     occupation numbers 
     1.0000   1.0000   1.0000   1.0000   1.0000   1.0000   1.0000   1.0000
     1.0000   1.0000   1.0000   1.0000   1.0000   1.0000   1.0000   1.0000
     1.0000   1.0000   1.0000   1.0000   1.0000   1.0000   1.0000   1.0000
     1.0000   1.0000   1.0000   1.0000   1.0000   1.0000   1.0000   1.0000
     1.0000   1.0000   1.0000   1.0000   1.0000   1.0000   1.0000   1.0000
     1.0000   1.0000   1.0000   1.0000   1.0000   1.0000   1.0000   1.0000
     1.0000   1.0000   1.0000   1.0000   1.0000   1.0000   1.0000   1.0000
     1.0000   1.0000   1.0000   1.0000   1.0000   1.0000   1.0000   1.0000
     1.0000   1.0000   1.0000   1.0000   1.0000   1.0000   1.0000   1.0000
     1.0000   1.0000   1.0000   1.0000   1.0000   1.0000   1.0000   1.0000
     1.0000   1.0000   1.0000   1.0000   1.0000   1.0000   1.0000   1.0000
     1.0000   1.0000   1.0000   1.0000   1.0000   1.0000   1.0000   1.0000
     1.0000   1.0000   1.0000   1.0000   1.0000   1.0000   1.0000   1.0000
     1.0000   1.0000   1.0000   1.0000   1.0000   1.0000   1.0000   1.0000
     1.0000   1.0000   1.0000   1.0000   1.0000   1.0000   1.0000   1.0000
     1.0000   1.0000   1.0000   1.0000   1.0000   1.0000   1.0000   1.0000
     1.0000   1.0000   1.0000   1.0000   1.0000   1.0000   1.0000   1.0000
     1.0000   1.0000   1.0000   1.0000   1.0000   1.0000   1.0000   1.0000
     1.0000   1.0000   1.0000   1.0000   1.0000   1.0000   1.0000   1.0000
     1.0000   1.0000   1.0000   1.0000   1.0000   1.0000   1.0000   1.0000
     1.0000   1.0000   1.0000   1.0000   1.0000   1.0000   1.0000   1.0000
     1.0000   1.0000   1.0000   1.0000   1.0000   1.0000   1.0000   1.0000

          k = 0.1000 0.0449 0.0799 ( 62964 PWs)   bands (ev):

   -18.4362 -18.4362 -18.4362 -18.4362 -18.4360 -18.4360 -18.4360 -18.4360
   -18.4234 -18.4234 -18.4234 -18.4234 -18.4234 -18.4234 -18.4234 -18.4234
   -17.8456 -17.8456 -17.8455 -17.8455 -17.8447 -17.8447 -17.8446 -17.8446
   -17.3973 -17.3973 -17.3973 -17.3973 -17.3972 -17.3972 -17.3972 -17.3972
   -17.3888 -17.3888 -17.3888 -17.3888 -17.3887 -17.3887 -17.3887 -17.3887
   -17.3802 -17.3802 -17.3802 -17.3802 -17.3799 -17.3799 -17.3799 -17.3799
    -8.9074  -8.9074  -8.8939  -8.8939  -8.7036  -8.7036  -8.6728  -8.6728
    -8.5761  -8.5761  -8.5671  -8.5671  -8.5314  -8.5314  -8.5131  -8.5131
    -8.4073  -8.4073  -8.3987  -8.3987  -8.3614  -8.3614  -8.3412  -8.3412
    -5.7876  -5.7876  -5.7849  -5.7849  -5.7667  -5.7667  -5.7614  -5.7614
    -4.1891  -4.1891  -4.1863  -4.1863  -4.1623  -4.1623  -4.1536  -4.1536
    -4.1445  -4.1445  -4.1408  -4.1408  -4.1253  -4.1253  -4.1227  -4.1227
    -3.0483  -3.0483  -3.0376  -3.0376  -2.9581  -2.9581  -2.9194  -2.9194
    -0.0813  -0.0813   0.0157   0.0157   0.4143   0.4143   0.4599   0.4599
     0.5209   0.5209   0.5987   0.5987   0.6976   0.6976   0.7308   0.7308
     0.8821   0.8821   0.9350   0.9350   0.9893   0.9893   1.0469   1.0469
     1.1110   1.1110   1.1775   1.1775   1.3666   1.3666   1.3891   1.3891
     1.4380   1.4380   1.5001   1.5001   1.5605   1.5605   1.6446   1.6446
     1.8197   1.8197   1.8494   1.8494   1.9024   1.9024   1.9339   1.9339
     1.9828   1.9828   2.0191   2.0191   2.1691   2.1691   2.1948   2.1948
     2.2482   2.2482   2.2878   2.2878   2.3733   2.3733   2.4144   2.4144
     2.5690   2.5690   2.6148   2.6148   2.8049   2.8049   2.9500   2.9500

     occupation numbers 
     1.0000   1.0000   1.0000   1.0000   1.0000   1.0000   1.0000   1.0000
     1.0000   1.0000   1.0000   1.0000   1.0000   1.0000   1.0000   1.0000
     1.0000   1.0000   1.0000   1.0000   1.0000   1.0000   1.0000   1.0000
     1.0000   1.0000   1.0000   1.0000   1.0000   1.0000   1.0000   1.0000
     1.0000   1.0000   1.0000   1.0000   1.0000   1.0000   1.0000   1.0000
     1.0000   1.0000   1.0000   1.0000   1.0000   1.0000   1.0000   1.0000
     1.0000   1.0000   1.0000   1.0000   1.0000   1.0000   1.0000   1.0000
     1.0000   1.0000   1.0000   1.0000   1.0000   1.0000   1.0000   1.0000
     1.0000   1.0000   1.0000   1.0000   1.0000   1.0000   1.0000   1.0000
     1.0000   1.0000   1.0000   1.0000   1.0000   1.0000   1.0000   1.0000
     1.0000   1.0000   1.0000   1.0000   1.0000   1.0000   1.0000   1.0000
     1.0000   1.0000   1.0000   1.0000   1.0000   1.0000   1.0000   1.0000
     1.0000   1.0000   1.0000   1.0000   1.0000   1.0000   1.0000   1.0000
     1.0000   1.0000   1.0000   1.0000   1.0000   1.0000   1.0000   1.0000
     1.0000   1.0000   1.0000   1.0000   1.0000   1.0000   1.0000   1.0000
     1.0000   1.0000   1.0000   1.0000   1.0000   1.0000   1.0000   1.0000
     1.0000   1.0000   1.0000   1.0000   1.0000   1.0000   1.0000   1.0000
     1.0000   1.0000   1.0000   1.0000   1.0000   1.0000   1.0000   1.0000
     1.0000   1.0000   1.0000   1.0000   1.0000   1.0000   1.0000   1.0000
     1.0000   1.0000   1.0000   1.0000   1.0000   1.0000   1.0000   1.0000
     1.0000   1.0000   1.0000   1.0000   1.0000   1.0000   1.0000   1.0000
     1.0000   1.0000   1.0000   1.0000   1.0000   1.0000   1.0000   1.0000

          k = 0.1000 0.0449-0.1331 ( 62960 PWs)   bands (ev):

   -18.4362 -18.4362 -18.4362 -18.4362 -18.4360 -18.4360 -18.4360 -18.4360
   -18.4234 -18.4234 -18.4234 -18.4234 -18.4234 -18.4234 -18.4234 -18.4234
   -17.8455 -17.8455 -17.8455 -17.8455 -17.8447 -17.8447 -17.8447 -17.8447
   -17.3973 -17.3973 -17.3973 -17.3973 -17.3972 -17.3972 -17.3972 -17.3972
   -17.3888 -17.3888 -17.3888 -17.3888 -17.3887 -17.3887 -17.3887 -17.3887
   -17.3802 -17.3802 -17.3802 -17.3802 -17.3799 -17.3799 -17.3799 -17.3799
    -8.9011  -8.9011  -8.9010  -8.9010  -8.6881  -8.6881  -8.6879  -8.6879
    -8.5729  -8.5729  -8.5729  -8.5729  -8.5210  -8.5210  -8.5209  -8.5209
    -8.4040  -8.4040  -8.4037  -8.4037  -8.3503  -8.3503  -8.3502  -8.3502
    -5.7872  -5.7872  -5.7856  -5.7856  -5.7655  -5.7655  -5.7624  -5.7624
    -4.1886  -4.1886  -4.1875  -4.1875  -4.1615  -4.1615  -4.1537  -4.1537
    -4.1437  -4.1437  -4.1422  -4.1422  -4.1242  -4.1242  -4.1233  -4.1233
    -3.0441  -3.0441  -3.0434  -3.0434  -2.9384  -2.9384  -2.9376  -2.9376
    -0.0485  -0.0485  -0.0224  -0.0224   0.4220   0.4220   0.4541   0.4541
     0.5322   0.5322   0.5821   0.5821   0.7105   0.7105   0.7357   0.7357
     0.8751   0.8751   0.9359   0.9359   0.9966   0.9966   1.0326   1.0326
     1.1187   1.1187   1.1694   1.1694   1.3771   1.3771   1.3813   1.3813
     1.4460   1.4460   1.4944   1.4944   1.5855   1.5855   1.6146   1.6146
     1.8275   1.8275   1.8438   1.8438   1.9091   1.9091   1.9216   1.9216
     1.9835   1.9835   2.0195   2.0195   2.1687   2.1687   2.1891   2.1891
     2.2504   2.2504   2.2856   2.2856   2.3874   2.3874   2.4166   2.4166
     2.5776   2.5776   2.6025   2.6025   2.8756   2.8756   2.8782   2.8782

     occupation numbers 
     1.0000   1.0000   1.0000   1.0000   1.0000   1.0000   1.0000   1.0000
     1.0000   1.0000   1.0000   1.0000   1.0000   1.0000   1.0000   1.0000
     1.0000   1.0000   1.0000   1.0000   1.0000   1.0000   1.0000   1.0000
     1.0000   1.0000   1.0000   1.0000   1.0000   1.0000   1.0000   1.0000
     1.0000   1.0000   1.0000   1.0000   1.0000   1.0000   1.0000   1.0000
     1.0000   1.0000   1.0000   1.0000   1.0000   1.0000   1.0000   1.0000
     1.0000   1.0000   1.0000   1.0000   1.0000   1.0000   1.0000   1.0000
     1.0000   1.0000   1.0000   1.0000   1.0000   1.0000   1.0000   1.0000
     1.0000   1.0000   1.0000   1.0000   1.0000   1.0000   1.0000   1.0000
     1.0000   1.0000   1.0000   1.0000   1.0000   1.0000   1.0000   1.0000
     1.0000   1.0000   1.0000   1.0000   1.0000   1.0000   1.0000   1.0000
     1.0000   1.0000   1.0000   1.0000   1.0000   1.0000   1.0000   1.0000
     1.0000   1.0000   1.0000   1.0000   1.0000   1.0000   1.0000   1.0000
     1.0000   1.0000   1.0000   1.0000   1.0000   1.0000   1.0000   1.0000
     1.0000   1.0000   1.0000   1.0000   1.0000   1.0000   1.0000   1.0000
     1.0000   1.0000   1.0000   1.0000   1.0000   1.0000   1.0000   1.0000
     1.0000   1.0000   1.0000   1.0000   1.0000   1.0000   1.0000   1.0000
     1.0000   1.0000   1.0000   1.0000   1.0000   1.0000   1.0000   1.0000
     1.0000   1.0000   1.0000   1.0000   1.0000   1.0000   1.0000   1.0000
     1.0000   1.0000   1.0000   1.0000   1.0000   1.0000   1.0000   1.0000
     1.0000   1.0000   1.0000   1.0000   1.0000   1.0000   1.0000   1.0000
     1.0000   1.0000   1.0000   1.0000   1.0000   1.0000   1.0000   1.0000

          k = 0.1000 0.1347 0.0266 ( 62975 PWs)   bands (ev):

   -18.4362 -18.4362 -18.4362 -18.4362 -18.4360 -18.4360 -18.4360 -18.4360
   -18.4234 -18.4234 -18.4234 -18.4234 -18.4234 -18.4234 -18.4234 -18.4234
   -17.8455 -17.8455 -17.8453 -17.8453 -17.8449 -17.8449 -17.8447 -17.8447
   -17.3973 -17.3973 -17.3973 -17.3973 -17.3972 -17.3972 -17.3972 -17.3972
   -17.3888 -17.3888 -17.3888 -17.3888 -17.3887 -17.3887 -17.3887 -17.3887
   -17.3802 -17.3802 -17.3802 -17.3802 -17.3799 -17.3799 -17.3799 -17.3799
    -8.8961  -8.8961  -8.8806  -8.8806  -8.7224  -8.7224  -8.7036  -8.7036
    -8.5967  -8.5967  -8.5952  -8.5952  -8.4996  -8.4996  -8.4736  -8.4736
    -8.3953  -8.3953  -8.3890  -8.3890  -8.3744  -8.3744  -8.3446  -8.3446
    -5.7852  -5.7852  -5.7804  -5.7804  -5.7723  -5.7723  -5.7652  -5.7652
    -4.1875  -4.1875  -4.1807  -4.1807  -4.1697  -4.1697  -4.1591  -4.1591
    -4.1439  -4.1439  -4.1412  -4.1412  -4.1281  -4.1281  -4.1264  -4.1264
    -3.0545  -3.0545  -3.0406  -3.0406  -2.9450  -2.9450  -2.9076  -2.9076
    -0.0684  -0.0684   0.0375   0.0375   0.3719   0.3719   0.4294   0.4294
     0.5093   0.5093   0.6185   0.6185   0.6716   0.6716   0.7221   0.7221
     0.8853   0.8853   0.9137   0.9137   0.9945   0.9945   1.0663   1.0663
     1.1577   1.1577   1.2251   1.2251   1.3663   1.3663   1.4105   1.4105
     1.4266   1.4266   1.5051   1.5051   1.5900   1.5900   1.6445   1.6445
     1.7855   1.7855   1.8321   1.8321   1.8925   1.8925   1.9431   1.9431
     1.9939   1.9939   2.0378   2.0378   2.1439   2.1439   2.1909   2.1909
     2.2580   2.2580   2.2976   2.2976   2.3613   2.3613   2.4032   2.4032
     2.4851   2.4851   2.5737   2.5737   2.8601   2.8601   2.9792   2.9792

     occupation numbers 
     1.0000   1.0000   1.0000   1.0000   1.0000   1.0000   1.0000   1.0000
     1.0000   1.0000   1.0000   1.0000   1.0000   1.0000   1.0000   1.0000
     1.0000   1.0000   1.0000   1.0000   1.0000   1.0000   1.0000   1.0000
     1.0000   1.0000   1.0000   1.0000   1.0000   1.0000   1.0000   1.0000
     1.0000   1.0000   1.0000   1.0000   1.0000   1.0000   1.0000   1.0000
     1.0000   1.0000   1.0000   1.0000   1.0000   1.0000   1.0000   1.0000
     1.0000   1.0000   1.0000   1.0000   1.0000   1.0000   1.0000   1.0000
     1.0000   1.0000   1.0000   1.0000   1.0000   1.0000   1.0000   1.0000
     1.0000   1.0000   1.0000   1.0000   1.0000   1.0000   1.0000   1.0000
     1.0000   1.0000   1.0000   1.0000   1.0000   1.0000   1.0000   1.0000
     1.0000   1.0000   1.0000   1.0000   1.0000   1.0000   1.0000   1.0000
     1.0000   1.0000   1.0000   1.0000   1.0000   1.0000   1.0000   1.0000
     1.0000   1.0000   1.0000   1.0000   1.0000   1.0000   1.0000   1.0000
     1.0000   1.0000   1.0000   1.0000   1.0000   1.0000   1.0000   1.0000
     1.0000   1.0000   1.0000   1.0000   1.0000   1.0000   1.0000   1.0000
     1.0000   1.0000   1.0000   1.0000   1.0000   1.0000   1.0000   1.0000
     1.0000   1.0000   1.0000   1.0000   1.0000   1.0000   1.0000   1.0000
     1.0000   1.0000   1.0000   1.0000   1.0000   1.0000   1.0000   1.0000
     1.0000   1.0000   1.0000   1.0000   1.0000   1.0000   1.0000   1.0000
     1.0000   1.0000   1.0000   1.0000   1.0000   1.0000   1.0000   1.0000
     1.0000   1.0000   1.0000   1.0000   1.0000   1.0000   1.0000   1.0000
     1.0000   1.0000   1.0000   1.0000   1.0000   1.0000   1.0000   1.0000

          k = 0.1000 0.1347 0.0799 ( 62973 PWs)   bands (ev):

   -18.4362 -18.4362 -18.4362 -18.4362 -18.4360 -18.4360 -18.4360 -18.4360
   -18.4234 -18.4234 -18.4234 -18.4234 -18.4234 -18.4234 -18.4234 -18.4234
   -17.8454 -17.8454 -17.8453 -17.8453 -17.8449 -17.8449 -17.8448 -17.8448
   -17.3973 -17.3973 -17.3972 -17.3972 -17.3972 -17.3972 -17.3972 -17.3972
   -17.3888 -17.3888 -17.3888 -17.3888 -17.3887 -17.3887 -17.3887 -17.3887
   -17.3802 -17.3802 -17.3802 -17.3802 -17.3799 -17.3799 -17.3799 -17.3799
    -8.8935  -8.8935  -8.8840  -8.8840  -8.7180  -8.7180  -8.7064  -8.7064
    -8.5976  -8.5976  -8.5952  -8.5952  -8.4961  -8.4961  -8.4796  -8.4796
    -8.3955  -8.3955  -8.3880  -8.3880  -8.3679  -8.3679  -8.3493  -8.3493
    -5.7846  -5.7846  -5.7819  -5.7819  -5.7707  -5.7707  -5.7661  -5.7661
    -4.1871  -4.1871  -4.1830  -4.1830  -4.1677  -4.1677  -4.1604  -4.1604
    -4.1435  -4.1435  -4.1409  -4.1409  -4.1277  -4.1277  -4.1264  -4.1264
    -3.0518  -3.0518  -3.0432  -3.0432  -2.9380  -2.9380  -2.9149  -2.9149
    -0.0494  -0.0494   0.0179   0.0179   0.3781   0.3781   0.4183   0.4183
     0.5282   0.5282   0.6040   0.6040   0.6761   0.6761   0.7191   0.7191
     0.8867   0.8867   0.9054   0.9054   0.9964   0.9964   1.0423   1.0423
     1.1824   1.1824   1.2355   1.2355   1.3634   1.3634   1.4003   1.4003
     1.4413   1.4413   1.4977   1.4977   1.5940   1.5940   1.6314   1.6314
     1.7971   1.7971   1.8322   1.8322   1.8948   1.8948   1.9244   1.9244
     2.0090   2.0090   2.0391   2.0391   2.1487   2.1487   2.1829   2.1829
     2.2591   2.2591   2.2887   2.2887   2.3741   2.3741   2.3990   2.3990
     2.5064   2.5064   2.5624   2.5624   2.8752   2.8752   2.9506   2.9506

     occupation numbers 
     1.0000   1.0000   1.0000   1.0000   1.0000   1.0000   1.0000   1.0000
     1.0000   1.0000   1.0000   1.0000   1.0000   1.0000   1.0000   1.0000
     1.0000   1.0000   1.0000   1.0000   1.0000   1.0000   1.0000   1.0000
     1.0000   1.0000   1.0000   1.0000   1.0000   1.0000   1.0000   1.0000
     1.0000   1.0000   1.0000   1.0000   1.0000   1.0000   1.0000   1.0000
     1.0000   1.0000   1.0000   1.0000   1.0000   1.0000   1.0000   1.0000
     1.0000   1.0000   1.0000   1.0000   1.0000   1.0000   1.0000   1.0000
     1.0000   1.0000   1.0000   1.0000   1.0000   1.0000   1.0000   1.0000
     1.0000   1.0000   1.0000   1.0000   1.0000   1.0000   1.0000   1.0000
     1.0000   1.0000   1.0000   1.0000   1.0000   1.0000   1.0000   1.0000
     1.0000   1.0000   1.0000   1.0000   1.0000   1.0000   1.0000   1.0000
     1.0000   1.0000   1.0000   1.0000   1.0000   1.0000   1.0000   1.0000
     1.0000   1.0000   1.0000   1.0000   1.0000   1.0000   1.0000   1.0000
     1.0000   1.0000   1.0000   1.0000   1.0000   1.0000   1.0000   1.0000
     1.0000   1.0000   1.0000   1.0000   1.0000   1.0000   1.0000   1.0000
     1.0000   1.0000   1.0000   1.0000   1.0000   1.0000   1.0000   1.0000
     1.0000   1.0000   1.0000   1.0000   1.0000   1.0000   1.0000   1.0000
     1.0000   1.0000   1.0000   1.0000   1.0000   1.0000   1.0000   1.0000
     1.0000   1.0000   1.0000   1.0000   1.0000   1.0000   1.0000   1.0000
     1.0000   1.0000   1.0000   1.0000   1.0000   1.0000   1.0000   1.0000
     1.0000   1.0000   1.0000   1.0000   1.0000   1.0000   1.0000   1.0000
     1.0000   1.0000   1.0000   1.0000   1.0000   1.0000   1.0000   1.0000

          k = 0.1000 0.1347-0.1331 ( 62952 PWs)   bands (ev):

   -18.4362 -18.4362 -18.4362 -18.4362 -18.4360 -18.4360 -18.4360 -18.4360
   -18.4234 -18.4234 -18.4234 -18.4234 -18.4234 -18.4234 -18.4233 -18.4233
   -17.8454 -17.8454 -17.8454 -17.8454 -17.8448 -17.8448 -17.8448 -17.8448
   -17.3973 -17.3973 -17.3972 -17.3972 -17.3972 -17.3972 -17.3972 -17.3972
   -17.3888 -17.3888 -17.3888 -17.3888 -17.3887 -17.3887 -17.3887 -17.3887
   -17.3802 -17.3802 -17.3802 -17.3802 -17.3799 -17.3799 -17.3799 -17.3799
    -8.8890  -8.8890  -8.8890  -8.8890  -8.7117  -8.7117  -8.7116  -8.7116
    -8.5968  -8.5968  -8.5967  -8.5967  -8.4886  -8.4886  -8.4886  -8.4886
    -8.3920  -8.3920  -8.3916  -8.3916  -8.3579  -8.3579  -8.3577  -8.3577
    -5.7837  -5.7837  -5.7832  -5.7832  -5.7693  -5.7693  -5.7670  -5.7670
    -4.1863  -4.1863  -4.1847  -4.1847  -4.1664  -4.1664  -4.1615  -4.1615
    -4.1432  -4.1432  -4.1408  -4.1408  -4.1274  -4.1274  -4.1264  -4.1264
    -3.0478  -3.0478  -3.0473  -3.0473  -2.9268  -2.9268  -2.9262  -2.9262
    -0.0252  -0.0252  -0.0068  -0.0068   0.3858   0.3858   0.4076   0.4076
     0.5500   0.5500   0.5810   0.5810   0.6922   0.6922   0.7079   0.7079
     0.8861   0.8861   0.9009   0.9009   1.0034   1.0034   1.0238   1.0238
     1.2030   1.2030   1.2345   1.2345   1.3629   1.3629   1.3906   1.3906
     1.4694   1.4694   1.4752   1.4752   1.6060   1.6060   1.6152   1.6152
     1.8045   1.8045   1.8341   1.8341   1.8985   1.8985   1.9106   1.9106
     2.0183   2.0183   2.0377   2.0377   2.1540   2.1540   2.1755   2.1755
     2.2616   2.2616   2.2826   2.2826   2.3856   2.3856   2.3918   2.3918
     2.5335   2.5335   2.5415   2.5415   2.9067   2.9067   2.9109   2.9109

     occupation numbers 
     1.0000   1.0000   1.0000   1.0000   1.0000   1.0000   1.0000   1.0000
     1.0000   1.0000   1.0000   1.0000   1.0000   1.0000   1.0000   1.0000
     1.0000   1.0000   1.0000   1.0000   1.0000   1.0000   1.0000   1.0000
     1.0000   1.0000   1.0000   1.0000   1.0000   1.0000   1.0000   1.0000
     1.0000   1.0000   1.0000   1.0000   1.0000   1.0000   1.0000   1.0000
     1.0000   1.0000   1.0000   1.0000   1.0000   1.0000   1.0000   1.0000
     1.0000   1.0000   1.0000   1.0000   1.0000   1.0000   1.0000   1.0000
     1.0000   1.0000   1.0000   1.0000   1.0000   1.0000   1.0000   1.0000
     1.0000   1.0000   1.0000   1.0000   1.0000   1.0000   1.0000   1.0000
     1.0000   1.0000   1.0000   1.0000   1.0000   1.0000   1.0000   1.0000
     1.0000   1.0000   1.0000   1.0000   1.0000   1.0000   1.0000   1.0000
     1.0000   1.0000   1.0000   1.0000   1.0000   1.0000   1.0000   1.0000
     1.0000   1.0000   1.0000   1.0000   1.0000   1.0000   1.0000   1.0000
     1.0000   1.0000   1.0000   1.0000   1.0000   1.0000   1.0000   1.0000
     1.0000   1.0000   1.0000   1.0000   1.0000   1.0000   1.0000   1.0000
     1.0000   1.0000   1.0000   1.0000   1.0000   1.0000   1.0000   1.0000
     1.0000   1.0000   1.0000   1.0000   1.0000   1.0000   1.0000   1.0000
     1.0000   1.0000   1.0000   1.0000   1.0000   1.0000   1.0000   1.0000
     1.0000   1.0000   1.0000   1.0000   1.0000   1.0000   1.0000   1.0000
     1.0000   1.0000   1.0000   1.0000   1.0000   1.0000   1.0000   1.0000
     1.0000   1.0000   1.0000   1.0000   1.0000   1.0000   1.0000   1.0000
     1.0000   1.0000   1.0000   1.0000   1.0000   1.0000   1.0000   1.0000

          k = 0.1000-0.2244 0.0266 ( 62968 PWs)   bands (ev):

   -18.4362 -18.4362 -18.4362 -18.4362 -18.4360 -18.4360 -18.4360 -18.4360
   -18.4234 -18.4234 -18.4234 -18.4234 -18.4234 -18.4234 -18.4234 -18.4234
   -17.8452 -17.8452 -17.8452 -17.8452 -17.8450 -17.8450 -17.8450 -17.8450
   -17.3973 -17.3973 -17.3973 -17.3973 -17.3972 -17.3972 -17.3972 -17.3972
   -17.3888 -17.3888 -17.3888 -17.3888 -17.3887 -17.3887 -17.3887 -17.3887
   -17.3802 -17.3802 -17.3802 -17.3802 -17.3799 -17.3799 -17.3799 -17.3799
    -8.8799  -8.8799  -8.8798  -8.8798  -8.7278  -8.7278  -8.7277  -8.7277
    -8.6063  -8.6063  -8.6061  -8.6061  -8.4711  -8.4711  -8.4710  -8.4710
    -8.3889  -8.3889  -8.3880  -8.3880  -8.3618  -8.3618  -8.3611  -8.3611
    -5.7814  -5.7814  -5.7781  -5.7781  -5.7743  -5.7743  -5.7709  -5.7709
    -4.1824  -4.1824  -4.1811  -4.1811  -4.1702  -4.1702  -4.1674  -4.1674
    -4.1437  -4.1437  -4.1416  -4.1416  -4.1301  -4.1301  -4.1276  -4.1276
    -3.0505  -3.0505  -3.0502  -3.0502  -2.9189  -2.9189  -2.9186  -2.9186
    -0.0289  -0.0289   0.0150   0.0150   0.3549   0.3549   0.3997   0.3997
     0.5158   0.5158   0.5943   0.5943   0.6824   0.6824   0.7375   0.7375
     0.8799   0.8799   0.9023   0.9023   1.0072   1.0072   1.0651   1.0651
     1.2155   1.2155   1.2174   1.2174   1.3425   1.3425   1.4229   1.4229
     1.4372   1.4372   1.5030   1.5030   1.6287   1.6287   1.6412   1.6412
     1.7961   1.7961   1.7968   1.7968   1.8639   1.8639   1.9332   1.9332
     2.0170   2.0170   2.0323   2.0323   2.1520   2.1520   2.1934   2.1934
     2.2715   2.2715   2.2931   2.2931   2.3740   2.3740   2.3750   2.3750
     2.4900   2.4900   2.5105   2.5105   2.9037   2.9037   2.9673   2.9673

     occupation numbers 
     1.0000   1.0000   1.0000   1.0000   1.0000   1.0000   1.0000   1.0000
     1.0000   1.0000   1.0000   1.0000   1.0000   1.0000   1.0000   1.0000
     1.0000   1.0000   1.0000   1.0000   1.0000   1.0000   1.0000   1.0000
     1.0000   1.0000   1.0000   1.0000   1.0000   1.0000   1.0000   1.0000
     1.0000   1.0000   1.0000   1.0000   1.0000   1.0000   1.0000   1.0000
     1.0000   1.0000   1.0000   1.0000   1.0000   1.0000   1.0000   1.0000
     1.0000   1.0000   1.0000   1.0000   1.0000   1.0000   1.0000   1.0000
     1.0000   1.0000   1.0000   1.0000   1.0000   1.0000   1.0000   1.0000
     1.0000   1.0000   1.0000   1.0000   1.0000   1.0000   1.0000   1.0000
     1.0000   1.0000   1.0000   1.0000   1.0000   1.0000   1.0000   1.0000
     1.0000   1.0000   1.0000   1.0000   1.0000   1.0000   1.0000   1.0000
     1.0000   1.0000   1.0000   1.0000   1.0000   1.0000   1.0000   1.0000
     1.0000   1.0000   1.0000   1.0000   1.0000   1.0000   1.0000   1.0000
     1.0000   1.0000   1.0000   1.0000   1.0000   1.0000   1.0000   1.0000
     1.0000   1.0000   1.0000   1.0000   1.0000   1.0000   1.0000   1.0000
     1.0000   1.0000   1.0000   1.0000   1.0000   1.0000   1.0000   1.0000
     1.0000   1.0000   1.0000   1.0000   1.0000   1.0000   1.0000   1.0000
     1.0000   1.0000   1.0000   1.0000   1.0000   1.0000   1.0000   1.0000
     1.0000   1.0000   1.0000   1.0000   1.0000   1.0000   1.0000   1.0000
     1.0000   1.0000   1.0000   1.0000   1.0000   1.0000   1.0000   1.0000
     1.0000   1.0000   1.0000   1.0000   1.0000   1.0000   1.0000   1.0000
     1.0000   1.0000   1.0000   1.0000   1.0000   1.0000   1.0000   1.0000

          k = 0.1000-0.2244 0.0799 ( 63000 PWs)   bands (ev):

   -18.4362 -18.4362 -18.4362 -18.4362 -18.4360 -18.4360 -18.4360 -18.4360
   -18.4234 -18.4234 -18.4234 -18.4234 -18.4234 -18.4234 -18.4234 -18.4234
   -17.8452 -17.8452 -17.8452 -17.8452 -17.8450 -17.8450 -17.8450 -17.8450
   -17.3973 -17.3973 -17.3973 -17.3973 -17.3972 -17.3972 -17.3972 -17.3972
   -17.3888 -17.3888 -17.3888 -17.3888 -17.3887 -17.3887 -17.3887 -17.3887
   -17.3802 -17.3802 -17.3802 -17.3802 -17.3799 -17.3799 -17.3799 -17.3799
    -8.8799  -8.8799  -8.8799  -8.8799  -8.7280  -8.7280  -8.7279  -8.7279
    -8.6050  -8.6050  -8.6049  -8.6049  -8.4744  -8.4744  -8.4743  -8.4743
    -8.3825  -8.3825  -8.3817  -8.3817  -8.3658  -8.3658  -8.3651  -8.3651
    -5.7810  -5.7810  -5.7792  -5.7792  -5.7732  -5.7732  -5.7713  -5.7713
    -4.1827  -4.1827  -4.1819  -4.1819  -4.1697  -4.1697  -4.1681  -4.1681
    -4.1431  -4.1431  -4.1419  -4.1419  -4.1292  -4.1292  -4.1277  -4.1277
    -3.0499  -3.0499  -3.0497  -3.0497  -2.9196  -2.9196  -2.9194  -2.9194
    -0.0181  -0.0181   0.0096   0.0096   0.3586   0.3586   0.3875   0.3875
     0.5395   0.5395   0.5972   0.5972   0.6696   0.6696   0.7134   0.7134
     0.8805   0.8805   0.8950   0.8950   1.0124   1.0124   1.0444   1.0444
     1.2371   1.2371   1.2402   1.2402   1.3621   1.3621   1.4098   1.4098
     1.4376   1.4376   1.4809   1.4809   1.6337   1.6337   1.6413   1.6413
     1.7941   1.7941   1.7951   1.7951   1.8762   1.8762   1.9185   1.9185
     2.0298   2.0298   2.0404   2.0404   2.1564   2.1564   2.1825   2.1825
     2.2736   2.2736   2.2863   2.2863   2.3756   2.3756   2.3757   2.3757
     2.4975   2.4975   2.5122   2.5122   2.9069   2.9069   2.9473   2.9473

     occupation numbers 
     1.0000   1.0000   1.0000   1.0000   1.0000   1.0000   1.0000   1.0000
     1.0000   1.0000   1.0000   1.0000   1.0000   1.0000   1.0000   1.0000
     1.0000   1.0000   1.0000   1.0000   1.0000   1.0000   1.0000   1.0000
     1.0000   1.0000   1.0000   1.0000   1.0000   1.0000   1.0000   1.0000
     1.0000   1.0000   1.0000   1.0000   1.0000   1.0000   1.0000   1.0000
     1.0000   1.0000   1.0000   1.0000   1.0000   1.0000   1.0000   1.0000
     1.0000   1.0000   1.0000   1.0000   1.0000   1.0000   1.0000   1.0000
     1.0000   1.0000   1.0000   1.0000   1.0000   1.0000   1.0000   1.0000
     1.0000   1.0000   1.0000   1.0000   1.0000   1.0000   1.0000   1.0000
     1.0000   1.0000   1.0000   1.0000   1.0000   1.0000   1.0000   1.0000
     1.0000   1.0000   1.0000   1.0000   1.0000   1.0000   1.0000   1.0000
     1.0000   1.0000   1.0000   1.0000   1.0000   1.0000   1.0000   1.0000
     1.0000   1.0000   1.0000   1.0000   1.0000   1.0000   1.0000   1.0000
     1.0000   1.0000   1.0000   1.0000   1.0000   1.0000   1.0000   1.0000
     1.0000   1.0000   1.0000   1.0000   1.0000   1.0000   1.0000   1.0000
     1.0000   1.0000   1.0000   1.0000   1.0000   1.0000   1.0000   1.0000
     1.0000   1.0000   1.0000   1.0000   1.0000   1.0000   1.0000   1.0000
     1.0000   1.0000   1.0000   1.0000   1.0000   1.0000   1.0000   1.0000
     1.0000   1.0000   1.0000   1.0000   1.0000   1.0000   1.0000   1.0000
     1.0000   1.0000   1.0000   1.0000   1.0000   1.0000   1.0000   1.0000
     1.0000   1.0000   1.0000   1.0000   1.0000   1.0000   1.0000   1.0000
     1.0000   1.0000   1.0000   1.0000   1.0000   1.0000   1.0000   1.0000

          k = 0.1000-0.2244-0.1331 ( 62996 PWs)   bands (ev):

   -18.4362 -18.4362 -18.4362 -18.4362 -18.4360 -18.4360 -18.4360 -18.4360
   -18.4234 -18.4234 -18.4234 -18.4234 -18.4234 -18.4234 -18.4234 -18.4234
   -17.8452 -17.8452 -17.8452 -17.8452 -17.8450 -17.8450 -17.8450 -17.8450
   -17.3973 -17.3973 -17.3973 -17.3973 -17.3972 -17.3972 -17.3972 -17.3972
   -17.3888 -17.3888 -17.3888 -17.3888 -17.3887 -17.3887 -17.3887 -17.3887
   -17.3802 -17.3802 -17.3802 -17.3802 -17.3799 -17.3799 -17.3799 -17.3799
    -8.8799  -8.8799  -8.8799  -8.8799  -8.7280  -8.7280  -8.7280  -8.7280
    -8.6042  -8.6042  -8.6042  -8.6042  -8.4763  -8.4763  -8.4763  -8.4763
    -8.3750  -8.3750  -8.3750  -8.3750  -8.3712  -8.3712  -8.3712  -8.3712
    -5.7803  -5.7803  -5.7803  -5.7803  -5.7721  -5.7721  -5.7721  -5.7721
    -4.1826  -4.1826  -4.1826  -4.1826  -4.1689  -4.1689  -4.1689  -4.1689
    -4.1424  -4.1424  -4.1424  -4.1424  -4.1281  -4.1281  -4.1281  -4.1281
    -3.0494  -3.0494  -3.0494  -3.0494  -2.9200  -2.9200  -2.9200  -2.9200
    -0.0026  -0.0026  -0.0026  -0.0026   0.3705   0.3705   0.3705   0.3705
     0.5753   0.5753   0.5753   0.5753   0.6810   0.6810   0.6810   0.6810
     0.8865   0.8865   0.8865   0.8865   1.0241   1.0241   1.0241   1.0241
     1.2520   1.2520   1.2520   1.2520   1.3878   1.3878   1.3878   1.3878
     1.4521   1.4521   1.4521   1.4521   1.6392   1.6392   1.6392   1.6392
     1.7933   1.7933   1.7933   1.7933   1.8969   1.8969   1.8969   1.8969
     2.0417   2.0417   2.0417   2.0417   2.1670   2.1670   2.1670   2.1670
     2.2786   2.2786   2.2786   2.2786   2.3764   2.3764   2.3764   2.3764
     2.5077   2.5077   2.5077   2.5077   2.9219   2.9219   2.9219   2.9219

     occupation numbers 
     1.0000   1.0000   1.0000   1.0000   1.0000   1.0000   1.0000   1.0000
     1.0000   1.0000   1.0000   1.0000   1.0000   1.0000   1.0000   1.0000
     1.0000   1.0000   1.0000   1.0000   1.0000   1.0000   1.0000   1.0000
     1.0000   1.0000   1.0000   1.0000   1.0000   1.0000   1.0000   1.0000
     1.0000   1.0000   1.0000   1.0000   1.0000   1.0000   1.0000   1.0000
     1.0000   1.0000   1.0000   1.0000   1.0000   1.0000   1.0000   1.0000
     1.0000   1.0000   1.0000   1.0000   1.0000   1.0000   1.0000   1.0000
     1.0000   1.0000   1.0000   1.0000   1.0000   1.0000   1.0000   1.0000
     1.0000   1.0000   1.0000   1.0000   1.0000   1.0000   1.0000   1.0000
     1.0000   1.0000   1.0000   1.0000   1.0000   1.0000   1.0000   1.0000
     1.0000   1.0000   1.0000   1.0000   1.0000   1.0000   1.0000   1.0000
     1.0000   1.0000   1.0000   1.0000   1.0000   1.0000   1.0000   1.0000
     1.0000   1.0000   1.0000   1.0000   1.0000   1.0000   1.0000   1.0000
     1.0000   1.0000   1.0000   1.0000   1.0000   1.0000   1.0000   1.0000
     1.0000   1.0000   1.0000   1.0000   1.0000   1.0000   1.0000   1.0000
     1.0000   1.0000   1.0000   1.0000   1.0000   1.0000   1.0000   1.0000
     1.0000   1.0000   1.0000   1.0000   1.0000   1.0000   1.0000   1.0000
     1.0000   1.0000   1.0000   1.0000   1.0000   1.0000   1.0000   1.0000
     1.0000   1.0000   1.0000   1.0000   1.0000   1.0000   1.0000   1.0000
     1.0000   1.0000   1.0000   1.0000   1.0000   1.0000   1.0000   1.0000
     1.0000   1.0000   1.0000   1.0000   1.0000   1.0000   1.0000   1.0000
     1.0000   1.0000   1.0000   1.0000   1.0000   1.0000   1.0000   1.0000

          k = 0.3000 0.0449 0.0266 ( 63000 PWs)   bands (ev):

   -18.4365 -18.4365 -18.4365 -18.4365 -18.4364 -18.4364 -18.4364 -18.4364
   -18.4231 -18.4231 -18.4231 -18.4231 -18.4230 -18.4230 -18.4230 -18.4230
   -17.8391 -17.8391 -17.8389 -17.8389 -17.8384 -17.8384 -17.8382 -17.8382
   -17.3978 -17.3978 -17.3978 -17.3978 -17.3978 -17.3978 -17.3978 -17.3978
   -17.3888 -17.3888 -17.3888 -17.3888 -17.3887 -17.3887 -17.3887 -17.3887
   -17.3796 -17.3796 -17.3796 -17.3796 -17.3795 -17.3795 -17.3794 -17.3794
    -8.7722  -8.7722  -8.7562  -8.7562  -8.6292  -8.6292  -8.5998  -8.5998
    -8.5093  -8.5093  -8.4920  -8.4920  -8.4782  -8.4782  -8.4569  -8.4569
    -8.3976  -8.3976  -8.3927  -8.3927  -8.3825  -8.3825  -8.3740  -8.3740
    -5.8163  -5.8163  -5.8108  -5.8108  -5.8041  -5.8041  -5.7991  -5.7991
    -4.2558  -4.2558  -4.2493  -4.2493  -4.2242  -4.2242  -4.2155  -4.2155
    -4.1650  -4.1650  -4.1637  -4.1637  -4.1576  -4.1576  -4.1534  -4.1534
    -3.2405  -3.2405  -3.2252  -3.2252  -3.1352  -3.1352  -3.1338  -3.1338
    -0.0305  -0.0305   0.0077   0.0077   0.0618   0.0618   0.0858   0.0858
     0.2305   0.2305   0.3068   0.3068   0.4703   0.4703   0.5453   0.5453
     0.5778   0.5778   0.6324   0.6324   0.7130   0.7130   0.7664   0.7664
     1.0004   1.0004   1.0455   1.0455   1.2875   1.2875   1.3224   1.3224
     1.4047   1.4047   1.4930   1.4930   1.5618   1.5618   1.6101   1.6101
     1.6748   1.6748   1.7127   1.7127   1.8058   1.8058   1.8349   1.8349
     1.8580   1.8580   1.9612   1.9612   1.9887   1.9887   2.0333   2.0333
     2.0894   2.0894   2.1460   2.1460   2.2836   2.2836   2.3774   2.3774
     2.5780   2.5780   2.7700   2.7700   2.9497   2.9497   3.0379   3.0379

     occupation numbers 
     1.0000   1.0000   1.0000   1.0000   1.0000   1.0000   1.0000   1.0000
     1.0000   1.0000   1.0000   1.0000   1.0000   1.0000   1.0000   1.0000
     1.0000   1.0000   1.0000   1.0000   1.0000   1.0000   1.0000   1.0000
     1.0000   1.0000   1.0000   1.0000   1.0000   1.0000   1.0000   1.0000
     1.0000   1.0000   1.0000   1.0000   1.0000   1.0000   1.0000   1.0000
     1.0000   1.0000   1.0000   1.0000   1.0000   1.0000   1.0000   1.0000
     1.0000   1.0000   1.0000   1.0000   1.0000   1.0000   1.0000   1.0000
     1.0000   1.0000   1.0000   1.0000   1.0000   1.0000   1.0000   1.0000
     1.0000   1.0000   1.0000   1.0000   1.0000   1.0000   1.0000   1.0000
     1.0000   1.0000   1.0000   1.0000   1.0000   1.0000   1.0000   1.0000
     1.0000   1.0000   1.0000   1.0000   1.0000   1.0000   1.0000   1.0000
     1.0000   1.0000   1.0000   1.0000   1.0000   1.0000   1.0000   1.0000
     1.0000   1.0000   1.0000   1.0000   1.0000   1.0000   1.0000   1.0000
     1.0000   1.0000   1.0000   1.0000   1.0000   1.0000   1.0000   1.0000
     1.0000   1.0000   1.0000   1.0000   1.0000   1.0000   1.0000   1.0000
     1.0000   1.0000   1.0000   1.0000   1.0000   1.0000   1.0000   1.0000
     1.0000   1.0000   1.0000   1.0000   1.0000   1.0000   1.0000   1.0000
     1.0000   1.0000   1.0000   1.0000   1.0000   1.0000   1.0000   1.0000
     1.0000   1.0000   1.0000   1.0000   1.0000   1.0000   1.0000   1.0000
     1.0000   1.0000   1.0000   1.0000   1.0000   1.0000   1.0000   1.0000
     1.0000   1.0000   1.0000   1.0000   1.0000   1.0000   1.0000   1.0000
     1.0000   1.0000   1.0000   1.0000   1.0000   1.0000   1.0000   1.0000

          k = 0.3000 0.0449 0.0799 ( 63008 PWs)   bands (ev):

   -18.4365 -18.4365 -18.4365 -18.4365 -18.4364 -18.4364 -18.4364 -18.4364
   -18.4231 -18.4231 -18.4231 -18.4231 -18.4230 -18.4230 -18.4230 -18.4230
   -17.8390 -17.8390 -17.8390 -17.8390 -17.8383 -17.8383 -17.8383 -17.8383
   -17.3978 -17.3978 -17.3978 -17.3978 -17.3978 -17.3978 -17.3978 -17.3978
   -17.3888 -17.3888 -17.3888 -17.3888 -17.3887 -17.3887 -17.3887 -17.3887
   -17.3796 -17.3796 -17.3796 -17.3796 -17.3795 -17.3795 -17.3794 -17.3794
    -8.7696  -8.7696  -8.7598  -8.7598  -8.6232  -8.6232  -8.6052  -8.6052
    -8.5071  -8.5071  -8.4974  -8.4974  -8.4724  -8.4724  -8.4602  -8.4602
    -8.3961  -8.3961  -8.3926  -8.3926  -8.3814  -8.3814  -8.3758  -8.3758
    -5.8162  -5.8162  -5.8113  -5.8113  -5.8033  -5.8033  -5.7994  -5.7994
    -4.2558  -4.2558  -4.2494  -4.2494  -4.2239  -4.2239  -4.2158  -4.2158
    -4.1649  -4.1649  -4.1640  -4.1640  -4.1567  -4.1567  -4.1538  -4.1538
    -3.2376  -3.2376  -3.2281  -3.2281  -3.1350  -3.1350  -3.1340  -3.1340
    -0.0237  -0.0237   0.0008   0.0008   0.0518   0.0518   0.0870   0.0870
     0.2499   0.2499   0.3134   0.3134   0.4775   0.4775   0.5429   0.5429
     0.5752   0.5752   0.6098   0.6098   0.7174   0.7174   0.7612   0.7612
     0.9919   0.9919   1.0508   1.0508   1.2571   1.2571   1.3212   1.3212
     1.4157   1.4157   1.5065   1.5065   1.5685   1.5685   1.6221   1.6221
     1.6753   1.6753   1.7214   1.7214   1.7982   1.7982   1.8242   1.8242
     1.8750   1.8750   1.9483   1.9483   2.0005   2.0005   2.0320   2.0320
     2.0880   2.0880   2.1355   2.1355   2.2989   2.2989   2.3698   2.3698
     2.6094   2.6094   2.7283   2.7283   2.9577   2.9577   3.0325   3.0325

     occupation numbers 
     1.0000   1.0000   1.0000   1.0000   1.0000   1.0000   1.0000   1.0000
     1.0000   1.0000   1.0000   1.0000   1.0000   1.0000   1.0000   1.0000
     1.0000   1.0000   1.0000   1.0000   1.0000   1.0000   1.0000   1.0000
     1.0000   1.0000   1.0000   1.0000   1.0000   1.0000   1.0000   1.0000
     1.0000   1.0000   1.0000   1.0000   1.0000   1.0000   1.0000   1.0000
     1.0000   1.0000   1.0000   1.0000   1.0000   1.0000   1.0000   1.0000
     1.0000   1.0000   1.0000   1.0000   1.0000   1.0000   1.0000   1.0000
     1.0000   1.0000   1.0000   1.0000   1.0000   1.0000   1.0000   1.0000
     1.0000   1.0000   1.0000   1.0000   1.0000   1.0000   1.0000   1.0000
     1.0000   1.0000   1.0000   1.0000   1.0000   1.0000   1.0000   1.0000
     1.0000   1.0000   1.0000   1.0000   1.0000   1.0000   1.0000   1.0000
     1.0000   1.0000   1.0000   1.0000   1.0000   1.0000   1.0000   1.0000
     1.0000   1.0000   1.0000   1.0000   1.0000   1.0000   1.0000   1.0000
     1.0000   1.0000   1.0000   1.0000   1.0000   1.0000   1.0000   1.0000
     1.0000   1.0000   1.0000   1.0000   1.0000   1.0000   1.0000   1.0000
     1.0000   1.0000   1.0000   1.0000   1.0000   1.0000   1.0000   1.0000
     1.0000   1.0000   1.0000   1.0000   1.0000   1.0000   1.0000   1.0000
     1.0000   1.0000   1.0000   1.0000   1.0000   1.0000   1.0000   1.0000
     1.0000   1.0000   1.0000   1.0000   1.0000   1.0000   1.0000   1.0000
     1.0000   1.0000   1.0000   1.0000   1.0000   1.0000   1.0000   1.0000
     1.0000   1.0000   1.0000   1.0000   1.0000   1.0000   1.0000   1.0000
     1.0000   1.0000   1.0000   1.0000   1.0000   1.0000   1.0000   1.0000

          k = 0.3000 0.0449-0.1331 ( 62988 PWs)   bands (ev):

   -18.4365 -18.4365 -18.4365 -18.4365 -18.4364 -18.4364 -18.4364 -18.4364
   -18.4231 -18.4231 -18.4231 -18.4231 -18.4230 -18.4230 -18.4230 -18.4230
   -17.8390 -17.8390 -17.8390 -17.8390 -17.8383 -17.8383 -17.8383 -17.8383
   -17.3978 -17.3978 -17.3978 -17.3978 -17.3978 -17.3978 -17.3978 -17.3978
   -17.3888 -17.3888 -17.3888 -17.3888 -17.3887 -17.3887 -17.3887 -17.3887
   -17.3796 -17.3796 -17.3796 -17.3796 -17.3795 -17.3795 -17.3794 -17.3794
    -8.7649  -8.7649  -8.7649  -8.7649  -8.6141  -8.6141  -8.6140  -8.6140
    -8.5030  -8.5030  -8.5028  -8.5028  -8.4660  -8.4660  -8.4656  -8.4656
    -8.3945  -8.3945  -8.3934  -8.3934  -8.3791  -8.3791  -8.3784  -8.3784
    -5.8162  -5.8162  -5.8115  -5.8115  -5.8029  -5.8029  -5.7997  -5.7997
    -4.2558  -4.2558  -4.2496  -4.2496  -4.2237  -4.2237  -4.2160  -4.2160
    -4.1647  -4.1647  -4.1644  -4.1644  -4.1560  -4.1560  -4.1542  -4.1542
    -3.2333  -3.2333  -3.2325  -3.2325  -3.1348  -3.1348  -3.1343  -3.1343
    -0.0137  -0.0137  -0.0097  -0.0097   0.0481   0.0481   0.0859   0.0859
     0.2646   0.2646   0.3142   0.3142   0.4925   0.4925   0.5304   0.5304
     0.5760   0.5760   0.5917   0.5917   0.7358   0.7358   0.7447   0.7447
     0.9888   0.9888   1.0523   1.0523   1.2454   1.2454   1.3130   1.3130
     1.4256   1.4256   1.5087   1.5087   1.5905   1.5905   1.6080   1.6080
     1.6886   1.6886   1.7199   1.7199   1.7962   1.7962   1.8170   1.8170
     1.8914   1.8914   1.9330   1.9330   2.0098   2.0098   2.0302   2.0302
     2.0876   2.0876   2.1274   2.1274   2.3127   2.3127   2.3612   2.3612
     2.6556   2.6556   2.6765   2.6765   2.9624   2.9624   3.0289   3.0289

     occupation numbers 
     1.0000   1.0000   1.0000   1.0000   1.0000   1.0000   1.0000   1.0000
     1.0000   1.0000   1.0000   1.0000   1.0000   1.0000   1.0000   1.0000
     1.0000   1.0000   1.0000   1.0000   1.0000   1.0000   1.0000   1.0000
     1.0000   1.0000   1.0000   1.0000   1.0000   1.0000   1.0000   1.0000
     1.0000   1.0000   1.0000   1.0000   1.0000   1.0000   1.0000   1.0000
     1.0000   1.0000   1.0000   1.0000   1.0000   1.0000   1.0000   1.0000
     1.0000   1.0000   1.0000   1.0000   1.0000   1.0000   1.0000   1.0000
     1.0000   1.0000   1.0000   1.0000   1.0000   1.0000   1.0000   1.0000
     1.0000   1.0000   1.0000   1.0000   1.0000   1.0000   1.0000   1.0000
     1.0000   1.0000   1.0000   1.0000   1.0000   1.0000   1.0000   1.0000
     1.0000   1.0000   1.0000   1.0000   1.0000   1.0000   1.0000   1.0000
     1.0000   1.0000   1.0000   1.0000   1.0000   1.0000   1.0000   1.0000
     1.0000   1.0000   1.0000   1.0000   1.0000   1.0000   1.0000   1.0000
     1.0000   1.0000   1.0000   1.0000   1.0000   1.0000   1.0000   1.0000
     1.0000   1.0000   1.0000   1.0000   1.0000   1.0000   1.0000   1.0000
     1.0000   1.0000   1.0000   1.0000   1.0000   1.0000   1.0000   1.0000
     1.0000   1.0000   1.0000   1.0000   1.0000   1.0000   1.0000   1.0000
     1.0000   1.0000   1.0000   1.0000   1.0000   1.0000   1.0000   1.0000
     1.0000   1.0000   1.0000   1.0000   1.0000   1.0000   1.0000   1.0000
     1.0000   1.0000   1.0000   1.0000   1.0000   1.0000   1.0000   1.0000
     1.0000   1.0000   1.0000   1.0000   1.0000   1.0000   1.0000   1.0000
     1.0000   1.0000   1.0000   1.0000   1.0000   1.0000   1.0000   1.0000

          k = 0.3000 0.1347 0.0266 ( 63026 PWs)   bands (ev):

   -18.4365 -18.4365 -18.4365 -18.4365 -18.4364 -18.4364 -18.4364 -18.4364
   -18.4231 -18.4231 -18.4231 -18.4231 -18.4230 -18.4230 -18.4230 -18.4230
   -17.8389 -17.8389 -17.8388 -17.8388 -17.8385 -17.8385 -17.8384 -17.8384
   -17.3978 -17.3978 -17.3978 -17.3978 -17.3978 -17.3978 -17.3978 -17.3978
   -17.3888 -17.3888 -17.3888 -17.3888 -17.3887 -17.3887 -17.3887 -17.3887
   -17.3796 -17.3796 -17.3796 -17.3796 -17.3795 -17.3795 -17.3795 -17.3795
    -8.7615  -8.7615  -8.7505  -8.7505  -8.6345  -8.6345  -8.6207  -8.6207
    -8.5261  -8.5261  -8.5184  -8.5184  -8.4509  -8.4509  -8.4357  -8.4357
    -8.3947  -8.3947  -8.3891  -8.3891  -8.3810  -8.3810  -8.3764  -8.3764
    -5.8149  -5.8149  -5.8102  -5.8102  -5.8053  -5.8053  -5.8009  -5.8009
    -4.2516  -4.2516  -4.2450  -4.2450  -4.2302  -4.2302  -4.2231  -4.2231
    -4.1656  -4.1656  -4.1624  -4.1624  -4.1587  -4.1587  -4.1534  -4.1534
    -3.2256  -3.2256  -3.2152  -3.2152  -3.1435  -3.1435  -3.1421  -3.1421
    -0.0666  -0.0666  -0.0095  -0.0095   0.0731   0.0731   0.1182   0.1182
     0.2522   0.2522   0.3343   0.3343   0.4193   0.4193   0.4913   0.4913
     0.5654   0.5654   0.6047   0.6047   0.7534   0.7534   0.7975   0.7975
     1.0244   1.0244   1.0571   1.0571   1.2973   1.2973   1.3328   1.3328
     1.3957   1.3957   1.4454   1.4454   1.6003   1.6003   1.6645   1.6645
     1.6957   1.6957   1.7390   1.7390   1.7705   1.7705   1.8088   1.8088
     1.8478   1.8478   1.9196   1.9196   1.9735   1.9735   2.0710   2.0710
     2.1170   2.1170   2.1468   2.1468   2.2812   2.2812   2.3014   2.3014
     2.6281   2.6281   2.8193   2.8193   2.9192   2.9192   2.9752   2.9752

     occupation numbers 
     1.0000   1.0000   1.0000   1.0000   1.0000   1.0000   1.0000   1.0000
     1.0000   1.0000   1.0000   1.0000   1.0000   1.0000   1.0000   1.0000
     1.0000   1.0000   1.0000   1.0000   1.0000   1.0000   1.0000   1.0000
     1.0000   1.0000   1.0000   1.0000   1.0000   1.0000   1.0000   1.0000
     1.0000   1.0000   1.0000   1.0000   1.0000   1.0000   1.0000   1.0000
     1.0000   1.0000   1.0000   1.0000   1.0000   1.0000   1.0000   1.0000
     1.0000   1.0000   1.0000   1.0000   1.0000   1.0000   1.0000   1.0000
     1.0000   1.0000   1.0000   1.0000   1.0000   1.0000   1.0000   1.0000
     1.0000   1.0000   1.0000   1.0000   1.0000   1.0000   1.0000   1.0000
     1.0000   1.0000   1.0000   1.0000   1.0000   1.0000   1.0000   1.0000
     1.0000   1.0000   1.0000   1.0000   1.0000   1.0000   1.0000   1.0000
     1.0000   1.0000   1.0000   1.0000   1.0000   1.0000   1.0000   1.0000
     1.0000   1.0000   1.0000   1.0000   1.0000   1.0000   1.0000   1.0000
     1.0000   1.0000   1.0000   1.0000   1.0000   1.0000   1.0000   1.0000
     1.0000   1.0000   1.0000   1.0000   1.0000   1.0000   1.0000   1.0000
     1.0000   1.0000   1.0000   1.0000   1.0000   1.0000   1.0000   1.0000
     1.0000   1.0000   1.0000   1.0000   1.0000   1.0000   1.0000   1.0000
     1.0000   1.0000   1.0000   1.0000   1.0000   1.0000   1.0000   1.0000
     1.0000   1.0000   1.0000   1.0000   1.0000   1.0000   1.0000   1.0000
     1.0000   1.0000   1.0000   1.0000   1.0000   1.0000   1.0000   1.0000
     1.0000   1.0000   1.0000   1.0000   1.0000   1.0000   1.0000   1.0000
     1.0000   1.0000   1.0000   1.0000   1.0000   1.0000   1.0000   1.0000

          k = 0.3000 0.1347 0.0799 ( 63043 PWs)   bands (ev):

   -18.4365 -18.4365 -18.4365 -18.4365 -18.4364 -18.4364 -18.4364 -18.4364
   -18.4231 -18.4231 -18.4231 -18.4231 -18.4230 -18.4230 -18.4230 -18.4230
   -17.8389 -17.8389 -17.8388 -17.8388 -17.8385 -17.8385 -17.8384 -17.8384
   -17.3978 -17.3978 -17.3978 -17.3978 -17.3978 -17.3978 -17.3978 -17.3978
   -17.3888 -17.3888 -17.3888 -17.3888 -17.3887 -17.3887 -17.3887 -17.3887
   -17.3796 -17.3796 -17.3796 -17.3796 -17.3795 -17.3795 -17.3795 -17.3795
    -8.7596  -8.7596  -8.7528  -8.7528  -8.6316  -8.6316  -8.6231  -8.6231
    -8.5248  -8.5248  -8.5200  -8.5200  -8.4485  -8.4485  -8.4391  -8.4391
    -8.3931  -8.3931  -8.3891  -8.3891  -8.3806  -8.3806  -8.3773  -8.3773
    -5.8147  -5.8147  -5.8109  -5.8109  -5.8043  -5.8043  -5.8014  -5.8014
    -4.2510  -4.2510  -4.2456  -4.2456  -4.2295  -4.2295  -4.2240  -4.2240
    -4.1649  -4.1649  -4.1627  -4.1627  -4.1579  -4.1579  -4.1541  -4.1541
    -3.2236  -3.2236  -3.2172  -3.2172  -3.1433  -3.1433  -3.1424  -3.1424
    -0.0554  -0.0554  -0.0195  -0.0195   0.0750   0.0750   0.1127   0.1127
     0.2598   0.2598   0.3237   0.3237   0.4351   0.4351   0.4868   0.4868
     0.5730   0.5730   0.6134   0.6134   0.7396   0.7396   0.7794   0.7794
     1.0171   1.0171   1.0587   1.0587   1.2833   1.2833   1.3434   1.3434
     1.4107   1.4107   1.4588   1.4588   1.5982   1.5982   1.6585   1.6585
     1.6939   1.6939   1.7362   1.7362   1.7782   1.7782   1.8008   1.8008
     1.8523   1.8523   1.9080   1.9080   1.9949   1.9949   2.0605   2.0605
     2.1220   2.1220   2.1448   2.1448   2.2757   2.2757   2.3070   2.3070
     2.6606   2.6606   2.7798   2.7798   2.9278   2.9278   2.9683   2.9683

     occupation numbers 
     1.0000   1.0000   1.0000   1.0000   1.0000   1.0000   1.0000   1.0000
     1.0000   1.0000   1.0000   1.0000   1.0000   1.0000   1.0000   1.0000
     1.0000   1.0000   1.0000   1.0000   1.0000   1.0000   1.0000   1.0000
     1.0000   1.0000   1.0000   1.0000   1.0000   1.0000   1.0000   1.0000
     1.0000   1.0000   1.0000   1.0000   1.0000   1.0000   1.0000   1.0000
     1.0000   1.0000   1.0000   1.0000   1.0000   1.0000   1.0000   1.0000
     1.0000   1.0000   1.0000   1.0000   1.0000   1.0000   1.0000   1.0000
     1.0000   1.0000   1.0000   1.0000   1.0000   1.0000   1.0000   1.0000
     1.0000   1.0000   1.0000   1.0000   1.0000   1.0000   1.0000   1.0000
     1.0000   1.0000   1.0000   1.0000   1.0000   1.0000   1.0000   1.0000
     1.0000   1.0000   1.0000   1.0000   1.0000   1.0000   1.0000   1.0000
     1.0000   1.0000   1.0000   1.0000   1.0000   1.0000   1.0000   1.0000
     1.0000   1.0000   1.0000   1.0000   1.0000   1.0000   1.0000   1.0000
     1.0000   1.0000   1.0000   1.0000   1.0000   1.0000   1.0000   1.0000
     1.0000   1.0000   1.0000   1.0000   1.0000   1.0000   1.0000   1.0000
     1.0000   1.0000   1.0000   1.0000   1.0000   1.0000   1.0000   1.0000
     1.0000   1.0000   1.0000   1.0000   1.0000   1.0000   1.0000   1.0000
     1.0000   1.0000   1.0000   1.0000   1.0000   1.0000   1.0000   1.0000
     1.0000   1.0000   1.0000   1.0000   1.0000   1.0000   1.0000   1.0000
     1.0000   1.0000   1.0000   1.0000   1.0000   1.0000   1.0000   1.0000
     1.0000   1.0000   1.0000   1.0000   1.0000   1.0000   1.0000   1.0000
     1.0000   1.0000   1.0000   1.0000   1.0000   1.0000   1.0000   1.0000

          k = 0.3000 0.1347-0.1331 ( 63026 PWs)   bands (ev):

   -18.4365 -18.4365 -18.4365 -18.4365 -18.4364 -18.4364 -18.4364 -18.4364
   -18.4231 -18.4231 -18.4231 -18.4231 -18.4230 -18.4230 -18.4230 -18.4230
   -17.8389 -17.8389 -17.8389 -17.8389 -17.8384 -17.8384 -17.8384 -17.8384
   -17.3978 -17.3978 -17.3978 -17.3978 -17.3978 -17.3978 -17.3978 -17.3978
   -17.3888 -17.3888 -17.3888 -17.3888 -17.3887 -17.3887 -17.3887 -17.3887
   -17.3796 -17.3796 -17.3796 -17.3796 -17.3795 -17.3795 -17.3794 -17.3794
    -8.7563  -8.7563  -8.7563  -8.7563  -8.6272  -8.6272  -8.6272  -8.6272
    -8.5225  -8.5225  -8.5224  -8.5224  -8.4442  -8.4442  -8.4440  -8.4440
    -8.3911  -8.3911  -8.3903  -8.3903  -8.3794  -8.3794  -8.3787  -8.3787
    -5.8146  -5.8146  -5.8114  -5.8114  -5.8035  -5.8035  -5.8019  -5.8019
    -4.2506  -4.2506  -4.2462  -4.2462  -4.2289  -4.2289  -4.2247  -4.2247
    -4.1643  -4.1643  -4.1632  -4.1632  -4.1571  -4.1571  -4.1548  -4.1548
    -3.2207  -3.2207  -3.2202  -3.2202  -3.1431  -3.1431  -3.1427  -3.1427
    -0.0389  -0.0389  -0.0355  -0.0355   0.0767   0.0767   0.1089   0.1089
     0.2663   0.2663   0.3153   0.3153   0.4488   0.4488   0.4798   0.4798
     0.5808   0.5808   0.6160   0.6160   0.7363   0.7363   0.7625   0.7625
     1.0139   1.0139   1.0586   1.0586   1.2808   1.2808   1.3411   1.3411
     1.4231   1.4231   1.4667   1.4667   1.6075   1.6075   1.6359   1.6359
     1.7062   1.7062   1.7283   1.7283   1.7879   1.7879   1.7896   1.7896
     1.8629   1.8629   1.8958   1.8958   2.0132   2.0132   2.0471   2.0471
     2.1272   2.1272   2.1419   2.1419   2.2752   2.2752   2.3080   2.3080
     2.7040   2.7040   2.7330   2.7330   2.9335   2.9335   2.9629   2.9629

     occupation numbers 
     1.0000   1.0000   1.0000   1.0000   1.0000   1.0000   1.0000   1.0000
     1.0000   1.0000   1.0000   1.0000   1.0000   1.0000   1.0000   1.0000
     1.0000   1.0000   1.0000   1.0000   1.0000   1.0000   1.0000   1.0000
     1.0000   1.0000   1.0000   1.0000   1.0000   1.0000   1.0000   1.0000
     1.0000   1.0000   1.0000   1.0000   1.0000   1.0000   1.0000   1.0000
     1.0000   1.0000   1.0000   1.0000   1.0000   1.0000   1.0000   1.0000
     1.0000   1.0000   1.0000   1.0000   1.0000   1.0000   1.0000   1.0000
     1.0000   1.0000   1.0000   1.0000   1.0000   1.0000   1.0000   1.0000
     1.0000   1.0000   1.0000   1.0000   1.0000   1.0000   1.0000   1.0000
     1.0000   1.0000   1.0000   1.0000   1.0000   1.0000   1.0000   1.0000
     1.0000   1.0000   1.0000   1.0000   1.0000   1.0000   1.0000   1.0000
     1.0000   1.0000   1.0000   1.0000   1.0000   1.0000   1.0000   1.0000
     1.0000   1.0000   1.0000   1.0000   1.0000   1.0000   1.0000   1.0000
     1.0000   1.0000   1.0000   1.0000   1.0000   1.0000   1.0000   1.0000
     1.0000   1.0000   1.0000   1.0000   1.0000   1.0000   1.0000   1.0000
     1.0000   1.0000   1.0000   1.0000   1.0000   1.0000   1.0000   1.0000
     1.0000   1.0000   1.0000   1.0000   1.0000   1.0000   1.0000   1.0000
     1.0000   1.0000   1.0000   1.0000   1.0000   1.0000   1.0000   1.0000
     1.0000   1.0000   1.0000   1.0000   1.0000   1.0000   1.0000   1.0000
     1.0000   1.0000   1.0000   1.0000   1.0000   1.0000   1.0000   1.0000
     1.0000   1.0000   1.0000   1.0000   1.0000   1.0000   1.0000   1.0000
     1.0000   1.0000   1.0000   1.0000   1.0000   1.0000   1.0000   1.0000

          k = 0.3000-0.2244 0.0266 ( 63012 PWs)   bands (ev):

   -18.4365 -18.4365 -18.4365 -18.4365 -18.4364 -18.4364 -18.4364 -18.4364
   -18.4231 -18.4231 -18.4231 -18.4231 -18.4230 -18.4230 -18.4230 -18.4230
   -17.8387 -17.8387 -17.8387 -17.8387 -17.8386 -17.8386 -17.8386 -17.8386
   -17.3978 -17.3978 -17.3978 -17.3978 -17.3978 -17.3978 -17.3978 -17.3978
   -17.3888 -17.3888 -17.3888 -17.3888 -17.3887 -17.3887 -17.3887 -17.3887
   -17.3796 -17.3796 -17.3796 -17.3796 -17.3795 -17.3795 -17.3794 -17.3794
    -8.7500  -8.7500  -8.7500  -8.7500  -8.6367  -8.6367  -8.6361  -8.6361
    -8.5303  -8.5303  -8.5296  -8.5296  -8.4348  -8.4348  -8.4344  -8.4344
    -8.3902  -8.3902  -8.3881  -8.3881  -8.3801  -8.3801  -8.3784  -8.3784
    -5.8135  -5.8135  -5.8101  -5.8101  -5.8063  -5.8063  -5.8021  -5.8021
    -4.2450  -4.2450  -4.2422  -4.2422  -4.2335  -4.2335  -4.2325  -4.2325
    -4.1649  -4.1649  -4.1625  -4.1625  -4.1574  -4.1574  -4.1551  -4.1551
    -3.2119  -3.2119  -3.2103  -3.2103  -3.1500  -3.1500  -3.1491  -3.1491
    -0.0729  -0.0729  -0.0236  -0.0236   0.0922   0.0922   0.1044   0.1044
     0.2942   0.2942   0.3130   0.3130   0.4013   0.4013   0.4558   0.4558
     0.5733   0.5733   0.6085   0.6085   0.7566   0.7566   0.8247   0.8247
     1.0382   1.0382   1.0462   1.0462   1.3190   1.3190   1.3280   1.3280
     1.4033   1.4033   1.4124   1.4124   1.6487   1.6487   1.6550   1.6550
     1.6974   1.6974   1.7368   1.7368   1.7760   1.7760   1.8115   1.8115
     1.8549   1.8549   1.8683   1.8683   1.9610   1.9610   2.0759   2.0759
     2.1848   2.1848   2.1997   2.1997   2.2256   2.2256   2.2305   2.2305
     2.7300   2.7300   2.7948   2.7948   2.8917   2.8917   2.9285   2.9285

     occupation numbers 
     1.0000   1.0000   1.0000   1.0000   1.0000   1.0000   1.0000   1.0000
     1.0000   1.0000   1.0000   1.0000   1.0000   1.0000   1.0000   1.0000
     1.0000   1.0000   1.0000   1.0000   1.0000   1.0000   1.0000   1.0000
     1.0000   1.0000   1.0000   1.0000   1.0000   1.0000   1.0000   1.0000
     1.0000   1.0000   1.0000   1.0000   1.0000   1.0000   1.0000   1.0000
     1.0000   1.0000   1.0000   1.0000   1.0000   1.0000   1.0000   1.0000
     1.0000   1.0000   1.0000   1.0000   1.0000   1.0000   1.0000   1.0000
     1.0000   1.0000   1.0000   1.0000   1.0000   1.0000   1.0000   1.0000
     1.0000   1.0000   1.0000   1.0000   1.0000   1.0000   1.0000   1.0000
     1.0000   1.0000   1.0000   1.0000   1.0000   1.0000   1.0000   1.0000
     1.0000   1.0000   1.0000   1.0000   1.0000   1.0000   1.0000   1.0000
     1.0000   1.0000   1.0000   1.0000   1.0000   1.0000   1.0000   1.0000
     1.0000   1.0000   1.0000   1.0000   1.0000   1.0000   1.0000   1.0000
     1.0000   1.0000   1.0000   1.0000   1.0000   1.0000   1.0000   1.0000
     1.0000   1.0000   1.0000   1.0000   1.0000   1.0000   1.0000   1.0000
     1.0000   1.0000   1.0000   1.0000   1.0000   1.0000   1.0000   1.0000
     1.0000   1.0000   1.0000   1.0000   1.0000   1.0000   1.0000   1.0000
     1.0000   1.0000   1.0000   1.0000   1.0000   1.0000   1.0000   1.0000
     1.0000   1.0000   1.0000   1.0000   1.0000   1.0000   1.0000   1.0000
     1.0000   1.0000   1.0000   1.0000   1.0000   1.0000   1.0000   1.0000
     1.0000   1.0000   1.0000   1.0000   1.0000   1.0000   1.0000   1.0000
     1.0000   1.0000   1.0000   1.0000   1.0000   1.0000   1.0000   1.0000

          k = 0.3000-0.2244 0.0799 ( 63014 PWs)   bands (ev):

   -18.4365 -18.4365 -18.4365 -18.4365 -18.4364 -18.4364 -18.4364 -18.4364
   -18.4231 -18.4231 -18.4231 -18.4231 -18.4230 -18.4230 -18.4230 -18.4230
   -17.8387 -17.8387 -17.8387 -17.8387 -17.8386 -17.8386 -17.8386 -17.8386
   -17.3978 -17.3978 -17.3978 -17.3978 -17.3978 -17.3978 -17.3978 -17.3978
   -17.3888 -17.3888 -17.3888 -17.3888 -17.3887 -17.3887 -17.3887 -17.3887
   -17.3796 -17.3796 -17.3796 -17.3796 -17.3795 -17.3795 -17.3794 -17.3794
    -8.7500  -8.7500  -8.7500  -8.7500  -8.6367  -8.6367  -8.6364  -8.6364
    -8.5296  -8.5296  -8.5292  -8.5292  -8.4358  -8.4358  -8.4356  -8.4356
    -8.3886  -8.3886  -8.3871  -8.3871  -8.3806  -8.3806  -8.3792  -8.3792
    -5.8131  -5.8131  -5.8112  -5.8112  -5.8051  -5.8051  -5.8027  -5.8027
    -4.2440  -4.2440  -4.2421  -4.2421  -4.2342  -4.2342  -4.2333  -4.2333
    -4.1638  -4.1638  -4.1624  -4.1624  -4.1574  -4.1574  -4.1559  -4.1559
    -3.2115  -3.2115  -3.2106  -3.2106  -3.1500  -3.1500  -3.1494  -3.1494
    -0.0607  -0.0607  -0.0284  -0.0284   0.0879   0.0879   0.0976   0.0976
     0.2963   0.2963   0.3080   0.3080   0.4215   0.4215   0.4550   0.4550
     0.5777   0.5777   0.6019   0.6019   0.7539   0.7539   0.7982   0.7982
     1.0411   1.0411   1.0445   1.0445   1.3343   1.3343   1.3358   1.3358
     1.4107   1.4107   1.4222   1.4222   1.6397   1.6397   1.6502   1.6502
     1.7024   1.7024   1.7279   1.7279   1.7739   1.7739   1.7859   1.7859
[...]
     1.0000   1.0000   1.0000   1.0000   1.0000   1.0000   1.0000   1.0000
     1.0000   1.0000   1.0000   1.0000   1.0000   1.0000   1.0000   1.0000
     1.0000   1.0000   1.0000   1.0000   1.0000   1.0000   1.0000   1.0000
     1.0000   1.0000   1.0000   1.0000   1.0000   1.0000   1.0000   1.0000
     1.0000   1.0000   1.0000   1.0000   1.0000   1.0000   1.0000   1.0000
     1.0000   1.0000   1.0000   1.0000   1.0000   1.0000   1.0000   1.0000
     1.0000   1.0000   1.0000   1.0000   1.0000   1.0000   1.0000   1.0000
     1.0000   1.0000   1.0000   1.0000   1.0000   1.0000   1.0000   1.0000
     1.0000   1.0000   1.0000   1.0000   1.0000   1.0000   1.0000   1.0000
     1.0000   1.0000   1.0000   1.0000   1.0000   1.0000   1.0000   1.0000
     1.0000   1.0000   1.0000   1.0000   1.0000   1.0000   1.0000   1.0000
     1.0000   1.0000   1.0000   1.0000   1.0000   1.0000   1.0000   1.0000
     1.0000   1.0000   1.0000   1.0000   1.0000   1.0000   1.0000   1.0000
     1.0000   1.0000   1.0000   1.0000   1.0000   1.0000   1.0000   1.0000
     1.0000   1.0000   1.0000   1.0000   1.0000   1.0000   1.0000   1.0000
     1.0000   1.0000   1.0000   1.0000   1.0000   1.0000   1.0000   1.0000
     1.0000   1.0000   1.0000   1.0000   1.0000   1.0000   1.0000   1.0000
     1.0000   1.0000   1.0000   1.0000   1.0000   1.0000   1.0000   1.0000
     1.0000   1.0000   1.0000   1.0000   1.0000   1.0000   1.0000   1.0000
     1.0000   1.0000   1.0000   1.0000   1.0000   1.0000   1.0000   1.0000
     1.0000   1.0000   1.0000   1.0000   1.0000   1.0000   1.0000   1.0000

          k =-0.5000-0.2244-0.1331 ( 63040 PWs)   bands (ev):

   -18.4367 -18.4367 -18.4367 -18.4367 -18.4367 -18.4367 -18.4367 -18.4367
   -18.4228 -18.4228 -18.4228 -18.4228 -18.4228 -18.4228 -18.4228 -18.4228
   -17.8347 -17.8347 -17.8347 -17.8347 -17.8347 -17.8347 -17.8347 -17.8347
   -17.3982 -17.3982 -17.3982 -17.3982 -17.3982 -17.3982 -17.3982 -17.3982
   -17.3888 -17.3888 -17.3888 -17.3888 -17.3888 -17.3888 -17.3888 -17.3888
   -17.3791 -17.3791 -17.3791 -17.3791 -17.3791 -17.3791 -17.3791 -17.3791
    -8.6103  -8.6103  -8.6103  -8.6103  -8.6102  -8.6102  -8.6102  -8.6102
    -8.4378  -8.4378  -8.4378  -8.4378  -8.4373  -8.4373  -8.4373  -8.4373
    -8.4115  -8.4115  -8.4115  -8.4115  -8.4111  -8.4111  -8.4111  -8.4111
    -5.8286  -5.8286  -5.8286  -5.8286  -5.8286  -5.8286  -5.8286  -5.8286
    -4.2890  -4.2890  -4.2890  -4.2890  -4.2869  -4.2869  -4.2869  -4.2869
    -4.1622  -4.1622  -4.1622  -4.1622  -4.1610  -4.1610  -4.1610  -4.1610
    -3.3150  -3.3150  -3.3150  -3.3150  -3.3139  -3.3139  -3.3139  -3.3139
    -0.1100  -0.1100  -0.1100  -0.1100  -0.0875  -0.0875  -0.0875  -0.0875
     0.2670   0.2670   0.2670   0.2670   0.3029   0.3029   0.3029   0.3029
     0.5827   0.5827   0.5827   0.5827   0.6044   0.6044   0.6044   0.6044
     1.0863   1.0863   1.0863   1.0863   1.0900   1.0900   1.0900   1.0900
     1.4546   1.4546   1.4546   1.4546   1.5111   1.5111   1.5111   1.5111
     1.6506   1.6506   1.6506   1.6506   1.6788   1.6788   1.6788   1.6788
     1.9062   1.9062   1.9062   1.9062   1.9098   1.9098   1.9098   1.9098
     2.1763   2.1763   2.1763   2.1763   2.1765   2.1765   2.1765   2.1765
     2.8396   2.8396   2.8396   2.8396   2.8726   2.8726   2.8726   2.8726

     occupation numbers 
     1.0000   1.0000   1.0000   1.0000   1.0000   1.0000   1.0000   1.0000
     1.0000   1.0000   1.0000   1.0000   1.0000   1.0000   1.0000   1.0000
     1.0000   1.0000   1.0000   1.0000   1.0000   1.0000   1.0000   1.0000
     1.0000   1.0000   1.0000   1.0000   1.0000   1.0000   1.0000   1.0000
     1.0000   1.0000   1.0000   1.0000   1.0000   1.0000   1.0000   1.0000
     1.0000   1.0000   1.0000   1.0000   1.0000   1.0000   1.0000   1.0000
     1.0000   1.0000   1.0000   1.0000   1.0000   1.0000   1.0000   1.0000
     1.0000   1.0000   1.0000   1.0000   1.0000   1.0000   1.0000   1.0000
     1.0000   1.0000   1.0000   1.0000   1.0000   1.0000   1.0000   1.0000
     1.0000   1.0000   1.0000   1.0000   1.0000   1.0000   1.0000   1.0000
     1.0000   1.0000   1.0000   1.0000   1.0000   1.0000   1.0000   1.0000
     1.0000   1.0000   1.0000   1.0000   1.0000   1.0000   1.0000   1.0000
     1.0000   1.0000   1.0000   1.0000   1.0000   1.0000   1.0000   1.0000
     1.0000   1.0000   1.0000   1.0000   1.0000   1.0000   1.0000   1.0000
     1.0000   1.0000   1.0000   1.0000   1.0000   1.0000   1.0000   1.0000
     1.0000   1.0000   1.0000   1.0000   1.0000   1.0000   1.0000   1.0000
     1.0000   1.0000   1.0000   1.0000   1.0000   1.0000   1.0000   1.0000
     1.0000   1.0000   1.0000   1.0000   1.0000   1.0000   1.0000   1.0000
     1.0000   1.0000   1.0000   1.0000   1.0000   1.0000   1.0000   1.0000
     1.0000   1.0000   1.0000   1.0000   1.0000   1.0000   1.0000   1.0000
     1.0000   1.0000   1.0000   1.0000   1.0000   1.0000   1.0000   1.0000
     1.0000   1.0000   1.0000   1.0000   1.0000   1.0000   1.0000   1.0000

     highest occupied level (ev):     3.0379

!    total energy              =   -1268.15101970 Ry
     Harris-Foulkes estimate   =   -1268.15101989 Ry
     estimated scf accuracy    <       0.00000091 Ry

     The total energy is the sum of the following terms:

     one-electron contribution =    -488.12156024 Ry
     hartree contribution      =     316.28724025 Ry
     xc contribution           =    -462.74709810 Ry
     ewald contribution        =    -633.56960162 Ry

     convergence has been achieved in   9 iterations

     Forces acting on atoms (cartesian axes, Ry/au):

     atom    1 type  1   force =     0.00000000   -0.00087212    0.00049425
     atom    2 type  1   force =     0.00000000    0.00087212   -0.00049425
     atom    3 type  1   force =    -0.00000000   -0.00087212   -0.00049425
     atom    4 type  1   force =     0.00000000    0.00087212    0.00049425
     atom    5 type  2   force =     0.00000000   -0.00149275   -0.00065789
     atom    6 type  2   force =     0.00000000    0.00149275    0.00065789
     atom    7 type  2   force =     0.00000000   -0.00149275    0.00065789
     atom    8 type  2   force =     0.00000000    0.00149275   -0.00065789
     atom    9 type  3   force =     0.00000000   -0.00291215   -0.00376041
     atom   10 type  3   force =     0.00000000    0.00291215    0.00376041
     atom   11 type  3   force =     0.00000000   -0.00291215    0.00376041
     atom   12 type  3   force =     0.00000000    0.00291215   -0.00376041
     atom   13 type  3   force =     0.00000000   -0.00207550    0.00304380
     atom   14 type  3   force =     0.00000000    0.00207550   -0.00304380
     atom   15 type  3   force =     0.00000000   -0.00207550   -0.00304380
     atom   16 type  3   force =    -0.00000000    0.00207550    0.00304380
     atom   17 type  3   force =     0.00000000    0.00249537   -0.00187728
     atom   18 type  3   force =     0.00000000   -0.00249537    0.00187728
     atom   19 type  3   force =    -0.00000000    0.00249537    0.00187728
     atom   20 type  3   force =     0.00000000   -0.00249537   -0.00187728
     The non-local contrib.  to forces
     atom    1 type  1   force =     0.00000000    0.00235914   -0.00221874
     atom    2 type  1   force =     0.00000000   -0.00235914    0.00221874
     atom    3 type  1   force =     0.00000000    0.00235914    0.00221874
     atom    4 type  1   force =     0.00000000   -0.00235914   -0.00221874
     atom    5 type  2   force =     0.00000000   -0.08516511   -0.12875115
     atom    6 type  2   force =     0.00000000    0.08516511    0.12875115
     atom    7 type  2   force =     0.00000000   -0.08516511    0.12875115
     atom    8 type  2   force =     0.00000000    0.08516511   -0.12875115
     atom    9 type  3   force =     0.00000000   -0.04879199   -0.04807032
     atom   10 type  3   force =     0.00000000    0.04879199    0.04807032
     atom   11 type  3   force =     0.00000000   -0.04879199    0.04807032
     atom   12 type  3   force =     0.00000000    0.04879199   -0.04807032
     atom   13 type  3   force =     0.00000000   -0.03260096    0.05540764
     atom   14 type  3   force =     0.00000000    0.03260096   -0.05540764
     atom   15 type  3   force =     0.00000000   -0.03260096   -0.05540764
     atom   16 type  3   force =     0.00000000    0.03260096    0.05540764
     atom   17 type  3   force =     0.00000000    0.05560737   -0.01738500
     atom   18 type  3   force =     0.00000000   -0.05560737    0.01738500
     atom   19 type  3   force =     0.00000000    0.05560737    0.01738500
     atom   20 type  3   force =     0.00000000   -0.05560737   -0.01738500
     The ionic contribution  to forces
     atom    1 type  1   force =     0.00000000    0.02273773    0.42856976
     atom    2 type  1   force =     0.00000000   -0.02273773   -0.42856976
     atom    3 type  1   force =    -0.00000000    0.02273773   -0.42856976
     atom    4 type  1   force =    -0.00000000   -0.02273773    0.42856976
     atom    5 type  2   force =    -0.00000000   -2.44382133   -1.60292982
     atom    6 type  2   force =     0.00000000    2.44382133    1.60292982
     atom    7 type  2   force =    -0.00000000   -2.44382133    1.60292982
     atom    8 type  2   force =     0.00000000    2.44382133   -1.60292982
     atom    9 type  3   force =    -0.00000000    3.00608889    5.13288889
     atom   10 type  3   force =    -0.00000000   -3.00608889   -5.13288889
     atom   11 type  3   force =    -0.00000000    3.00608889   -5.13288889
     atom   12 type  3   force =    -0.00000000   -3.00608889    5.13288889
     atom   13 type  3   force =    -0.00000000    2.02422847   -3.75281495
     atom   14 type  3   force =     0.00000000   -2.02422847    3.75281495
     atom   15 type  3   force =    -0.00000000    2.02422847    3.75281495
     atom   16 type  3   force =     0.00000000   -2.02422847   -3.75281495
     atom   17 type  3   force =     0.00000000   -4.20564469    2.10270402
     atom   18 type  3   force =    -0.00000000    4.20564469   -2.10270402
     atom   19 type  3   force =     0.00000000   -4.20564469   -2.10270402
     atom   20 type  3   force =     0.00000000    4.20564469    2.10270402
     The local contribution  to forces
     atom    1 type  1   force =    -0.00000000   -0.02562311   -0.42565238
     atom    2 type  1   force =     0.00000000    0.02562311    0.42565238
     atom    3 type  1   force =    -0.00000000   -0.02562311    0.42565238
     atom    4 type  1   force =     0.00000000    0.02562311   -0.42565238
     atom    5 type  2   force =    -0.00000000    2.52891292    1.73153259
     atom    6 type  2   force =    -0.00000000   -2.52891292   -1.73153259
     atom    7 type  2   force =    -0.00000000    2.52891292   -1.73153259
     atom    8 type  2   force =    -0.00000000   -2.52891292    1.73153259
     atom    9 type  3   force =    -0.00000000   -2.96523499   -5.09394838
     atom   10 type  3   force =     0.00000000    2.96523499    5.09394838
     atom   11 type  3   force =    -0.00000000   -2.96523499    5.09394838
     atom   12 type  3   force =     0.00000000    2.96523499   -5.09394838
     atom   13 type  3   force =     0.00000000   -1.99705178    3.70563995
     atom   14 type  3   force =    -0.00000000    1.99705178   -3.70563995
     atom   15 type  3   force =     0.00000000   -1.99705178   -3.70563995
     atom   16 type  3   force =    -0.00000000    1.99705178    3.70563995
     atom   17 type  3   force =     0.00000000    4.15911269   -2.08898872
     atom   18 type  3   force =    -0.00000000   -4.15911269    2.08898872
     atom   19 type  3   force =     0.00000000    4.15911269    2.08898872
     atom   20 type  3   force =    -0.00000000   -4.15911269   -2.08898872
     The core correction contribution to forces
     atom    1 type  1   force =     0.00000000   -0.00002602    0.00008076
     atom    2 type  1   force =    -0.00000000    0.00002602   -0.00008076
     atom    3 type  1   force =    -0.00000000   -0.00002602   -0.00008076
     atom    4 type  1   force =     0.00000000    0.00002602    0.00008076
     atom    5 type  2   force =     0.00000000    0.00023020    0.00015401
     atom    6 type  2   force =    -0.00000000   -0.00023020   -0.00015401
     atom    7 type  2   force =    -0.00000000    0.00023020   -0.00015401
     atom    8 type  2   force =    -0.00000000   -0.00023020    0.00015401
     atom    9 type  3   force =    -0.00000000    0.00515509    0.00533600
     atom   10 type  3   force =     0.00000000   -0.00515509   -0.00533600
     atom   11 type  3   force =     0.00000000    0.00515509   -0.00533600
     atom   12 type  3   force =     0.00000000   -0.00515509    0.00533600
     atom   13 type  3   force =    -0.00000000    0.00322590   -0.00556669
     atom   14 type  3   force =     0.00000000   -0.00322590    0.00556669
     atom   15 type  3   force =    -0.00000000    0.00322590    0.00556669
     atom   16 type  3   force =     0.00000000   -0.00322590   -0.00556669
     atom   17 type  3   force =     0.00000000   -0.00623713    0.00203954
     atom   18 type  3   force =    -0.00000000    0.00623713   -0.00203954
     atom   19 type  3   force =     0.00000000   -0.00623713   -0.00203954
     atom   20 type  3   force =    -0.00000000    0.00623713    0.00203954
     The Hubbard contrib.    to forces
     atom    1 type  1   force =     0.00000000    0.00000000    0.00000000
     atom    2 type  1   force =     0.00000000    0.00000000    0.00000000
     atom    3 type  1   force =     0.00000000    0.00000000    0.00000000
     atom    4 type  1   force =     0.00000000    0.00000000    0.00000000
     atom    5 type  2   force =     0.00000000    0.00000000    0.00000000
     atom    6 type  2   force =     0.00000000    0.00000000    0.00000000
     atom    7 type  2   force =     0.00000000    0.00000000    0.00000000
     atom    8 type  2   force =     0.00000000    0.00000000    0.00000000
     atom    9 type  3   force =     0.00000000    0.00000000    0.00000000
     atom   10 type  3   force =     0.00000000    0.00000000    0.00000000
     atom   11 type  3   force =     0.00000000    0.00000000    0.00000000
     atom   12 type  3   force =     0.00000000    0.00000000    0.00000000
     atom   13 type  3   force =     0.00000000    0.00000000    0.00000000
     atom   14 type  3   force =     0.00000000    0.00000000    0.00000000
     atom   15 type  3   force =     0.00000000    0.00000000    0.00000000
     atom   16 type  3   force =     0.00000000    0.00000000    0.00000000
     atom   17 type  3   force =     0.00000000    0.00000000    0.00000000
     atom   18 type  3   force =     0.00000000    0.00000000    0.00000000
     atom   19 type  3   force =     0.00000000    0.00000000    0.00000000
     atom   20 type  3   force =     0.00000000    0.00000000    0.00000000
     The SCF correction term to forces
     atom    1 type  1   force =    -0.00000000   -0.00031986   -0.00028514
     atom    2 type  1   force =    -0.00000000    0.00031986    0.00028514
     atom    3 type  1   force =    -0.00000000   -0.00031986    0.00028514
     atom    4 type  1   force =     0.00000000    0.00031986   -0.00028514
     atom    5 type  2   force =    -0.00000000   -0.00164943   -0.00066352
     atom    6 type  2   force =     0.00000000    0.00164943    0.00066352
     atom    7 type  2   force =     0.00000000   -0.00164943    0.00066352
     atom    8 type  2   force =    -0.00000000    0.00164943   -0.00066352
     atom    9 type  3   force =    -0.00000000   -0.00012914    0.00003340
     atom   10 type  3   force =     0.00000000    0.00012914   -0.00003340
     atom   11 type  3   force =    -0.00000000   -0.00012914   -0.00003340
     atom   12 type  3   force =     0.00000000    0.00012914    0.00003340
     atom   13 type  3   force =     0.00000000    0.00012288    0.00037786
     atom   14 type  3   force =    -0.00000000   -0.00012288   -0.00037786
     atom   15 type  3   force =    -0.00000000    0.00012288   -0.00037786
     atom   16 type  3   force =    -0.00000000   -0.00012288    0.00037786
     atom   17 type  3   force =     0.00000000   -0.00034286   -0.00024713
     atom   18 type  3   force =    -0.00000000    0.00034286    0.00024713
     atom   19 type  3   force =    -0.00000000   -0.00034286    0.00024713
     atom   20 type  3   force =     0.00000000    0.00034286   -0.00024713

     Total force =     0.014087     Total SCF correction =     0.003846
     SCF correction compared to forces is large: reduce conv_thr to get better values


     Computing stress (Cartesian axis) and pressure

     Message from routine stres:
     noncollinear stress + GGA not implemented

     Writing output data file CsSnI3.save/
 
     init_run     :    415.64s CPU    691.32s WALL (       1 calls)
     electrons    :  11065.61s CPU  18280.01s WALL (       1 calls)
     forces       :    106.12s CPU    115.61s WALL (       1 calls)

     Called by init_run:
     wfcinit      :    409.85s CPU    683.43s WALL (       1 calls)
     wfcinit:atom :      0.21s CPU      0.26s WALL (      27 calls)
     wfcinit:wfcr :    408.34s CPU    681.16s WALL (      27 calls)
     potinit      :      1.65s CPU      2.77s WALL (       1 calls)
     hinit0       :      1.40s CPU      1.79s WALL (       1 calls)

     Called by electrons:
     c_bands      :   9088.32s CPU  14963.21s WALL (      10 calls)
     sum_band     :   1942.65s CPU   3268.78s WALL (      10 calls)
     v_of_rho     :      4.71s CPU      7.96s WALL (      10 calls)
     v_h          :      0.41s CPU      0.66s WALL (      10 calls)
     v_xc         :      5.00s CPU      8.50s WALL (      11 calls)
     newd         :     23.16s CPU     28.17s WALL (      10 calls)
     mix_rho      :      4.74s CPU      7.81s WALL (      10 calls)

     Called by c_bands:
     init_us_2    :      5.45s CPU      6.71s WALL (     594 calls)
     cegterg      :   8964.02s CPU  14824.36s WALL (     270 calls)

     Called by sum_band:
     sum_band:bec :     23.87s CPU     32.68s WALL (     270 calls)
     addusdens    :     13.62s CPU     17.15s WALL (      10 calls)

     Called by *egterg:
     h_psi        :   8111.27s CPU  13677.81s WALL (    1041 calls)
     s_psi        :     83.84s CPU     98.88s WALL (    1041 calls)
     g_psi        :      1.71s CPU      1.78s WALL (     744 calls)
     cdiaghg      :    492.19s CPU    740.25s WALL (     987 calls)
     cegterg:over :    231.91s CPU    339.86s WALL (     744 calls)
     cegterg:upda :    204.47s CPU    288.28s WALL (     744 calls)
     cegterg:last :     41.97s CPU     55.22s WALL (     270 calls)
     cdiaghg:chol :     35.10s CPU     51.27s WALL (     987 calls)
     cdiaghg:inve :     15.39s CPU     23.76s WALL (     987 calls)
     cdiaghg:para :     50.20s CPU     78.79s WALL (    1974 calls)

     Called by h_psi:
     h_psi:pot    :   8107.49s CPU  13673.78s WALL (    1041 calls)
     h_psi:calbec :     85.42s CPU    107.79s WALL (    1041 calls)
     vloc_psi     :   7937.54s CPU  13467.14s WALL (    1041 calls)
     add_vuspsi   :     84.53s CPU     98.84s WALL (    1041 calls)

     General routines
     calbec       :    127.60s CPU    163.95s WALL (    1419 calls)
     fft          :     11.72s CPU     19.70s WALL (     221 calls)
     ffts         :      5.36s CPU      8.86s WALL (      80 calls)
     fftw         :   9756.42s CPU  16577.19s WALL (  609220 calls)
     interpolate  :      3.88s CPU      6.31s WALL (      40 calls)
 
     Parallel routines
     fft_scatt_xy :    120.33s CPU    129.89s WALL (  609521 calls)
     fft_scatt_yz :   9117.41s CPU  15882.12s WALL (  609521 calls)
 
     PWSCF        :      3h13m CPU      5h18m WALL

 
   This run was terminated on:  23:41:39  25Jan2021            

=------------------------------------------------------------------------------=
   JOB DONE.
=------------------------------------------------------------------------------=
