
     Program PWSCF v.6.7MaX starts on 15Jan2021 at 18:24:47 

     This program is part of the open-source Quantum ESPRESSO suite
     for quantum simulation of materials; please cite
         "P. Giannozzi et al., J. Phys.:Condens. Matter 21 395502 (2009);
         "P. Giannozzi et al., J. Phys.:Condens. Matter 29 465901 (2017);
          URL http://www.quantum-espresso.org", 
     in publications or presentations arising from this work. More details at
     http://www.quantum-espresso.org/quote

     Parallel version (MPI), running on   128 processors

     MPI processes distributed on     4 nodes
     R & G space division:  proc/nbgrp/npool/nimage =     128
     Waiting for input...
     Reading input from standard input

     Current dimensions of program PWSCF are:
     Max number of different atomic species (ntypx) = 10
     Max number of k-points (npk) =  40000
     Max angular momentum in pseudopotentials (lmaxx) =  3

     Atomic positions and unit cell read from directory:
     ./out1/CsSnI3.save/
     Atomic positions from file used, from input discarded

     file Sn.pbe-dn-kjpaw_psl.1.0.0.UPF: wavefunction(s)  5S 5P 4D renormalized
     file I.pbe-n-kjpaw_psl.1.0.0.UPF: wavefunction(s)  5S renormalized
     file Cs.pbe-spn-kjpaw_psl.1.0.0.UPF: wavefunction(s)  5S 6S renormalized

     Subspace diagonalization in iterative solution of the eigenvalue problem:
     a serial algorithm will be used

     Message from routine setup:
     using ibrav=0 with symmetry is DISCOURAGED, use correct ibrav instead

     Parallelization info
     --------------------
     sticks:   dense  smooth     PW     G-vecs:    dense   smooth      PW
     Min          32      32      8                 3932     3932     538
     Max          33      33      9                 3949     3949     561
     Sum        4145    4145   1113               504115   504115   70311


     Title: 
     CsSnI3                                                                     


     bravais-lattice index     =            0
     lattice parameter (alat)  =       9.1317  a.u.
     unit-cell volume          =    6370.5385 (a.u.)^3
     number of atoms/cell      =           20
     number of atomic types    =            3
     number of electrons       =       176.00
     number of Kohn-Sham states=           89
     kinetic-energy cutoff     =      70.0000  Ry
     charge density cutoff     =     280.0000  Ry
     Exchange-correlation= SLA  PW   PBX  PBC
                           (   1   4   3   4   0   0   0)

     celldm(1)=   9.131705  celldm(2)=   0.000000  celldm(3)=   0.000000
     celldm(4)=   0.000000  celldm(5)=   0.000000  celldm(6)=   0.000000

     crystal axes: (cart. coord. in units of alat)
               a(1) = (   1.000000   0.000000   0.000000 )  
               a(2) = (   0.000000   2.227728   0.000000 )  
               a(3) = (   0.000000   0.000000   3.755420 )  

     reciprocal axes: (cart. coord. in units 2 pi/alat)
               b(1) = (  1.000000  0.000000  0.000000 )  
               b(2) = (  0.000000  0.448888  0.000000 )  
               b(3) = (  0.000000  0.000000  0.266282 )  


     PseudoPot. # 1 for Sn read from file:
     ../../pseudo/Sn.pbe-dn-kjpaw_psl.1.0.0.UPF
     MD5 check sum: 67f11dec737d427557dc41ea34975807
     Pseudo is Projector augmented-wave + core cor, Zval = 14.0
     Generated using &quot;atomic&quot; code by A. Dal Corso  v.6.3
     Shape of augmentation charge: PSQ
     Using radial grid of 1243 points,  6 beta functions with: 
                l(1) =   0
                l(2) =   0
                l(3) =   1
                l(4) =   1
                l(5) =   2
                l(6) =   2
     Q(r) pseudized with 0 coefficients 


     PseudoPot. # 2 for I  read from file:
     ../../pseudo/I.pbe-n-kjpaw_psl.1.0.0.UPF
     MD5 check sum: cd3d296c3308a581e1559a0c8a554cb5
     Pseudo is Projector augmented-wave + core cor, Zval =  7.0
     Generated using &quot;atomic&quot; code by A. Dal Corso  v.6.3
     Shape of augmentation charge: PSQ
     Using radial grid of 1247 points,  6 beta functions with: 
                l(1) =   0
                l(2) =   0
                l(3) =   1
                l(4) =   1
                l(5) =   2
                l(6) =   2
     Q(r) pseudized with 0 coefficients 


     PseudoPot. # 3 for Cs read from file:
     ../../pseudo/Cs.pbe-spn-kjpaw_psl.1.0.0.UPF
     MD5 check sum: b82c75cc2e1f4ff73b6412cffeb9c584
     Pseudo is Projector augmented-wave + core cor, Zval =  9.0
     Generated using &quot;atomic&quot; code by A. Dal Corso  v.6.4.1
     Shape of augmentation charge: PSQ
     Using radial grid of 1251 points,  9 beta functions with: 
                l(1) =   0
                l(2) =   0
                l(3) =   0
                l(4) =   1
                l(5) =   1
                l(6) =   2
                l(7) =   2
                l(8) =   3
                l(9) =   3
     Q(r) pseudized with 0 coefficients 


     atomic species   valence    mass     pseudopotential
        Sn            14.00   118.70000     Sn( 1.00)
        I              7.00   126.90000     I ( 1.00)
        Cs             9.00   132.90000     Cs( 1.00)

      8 Sym. Ops., with inversion, found ( 6 have fractional translation)


                                    s                        frac. trans.

      isym =  1     identity                                     

 cryst.   s( 1) = (     1          0          0      )
                  (     0          1          0      )
                  (     0          0          1      )

 cart.    s( 1) = (  1.0000000  0.0000000  0.0000000 )
                  (  0.0000000  1.0000000  0.0000000 )
                  (  0.0000000  0.0000000  1.0000000 )


      isym =  2     180 deg rotation - cart. axis [0,0,1]        

 cryst.   s( 2) = (    -1          0          0      )    f =(  0.0000000 )
                  (     0         -1          0      )       ( -0.5000000 )
                  (     0          0          1      )       (  0.5000000 )

 cart.    s( 2) = ( -1.0000000  0.0000000  0.0000000 )    f =(  0.0000000 )
                  (  0.0000000 -1.0000000  0.0000000 )       ( -1.1138638 )
                  (  0.0000000  0.0000000  1.0000000 )       (  1.8777098 )


      isym =  3     180 deg rotation - cart. axis [0,1,0]        

 cryst.   s( 3) = (    -1          0          0      )    f =( -0.5000000 )
                  (     0          1          0      )       ( -0.5000000 )
                  (     0          0         -1      )       ( -0.5000000 )

 cart.    s( 3) = ( -1.0000000  0.0000000  0.0000000 )    f =( -0.5000000 )
                  (  0.0000000  1.0000000  0.0000000 )       ( -1.1138638 )
                  (  0.0000000  0.0000000 -1.0000000 )       ( -1.8777098 )


      isym =  4     180 deg rotation - cart. axis [1,0,0]        

 cryst.   s( 4) = (     1          0          0      )    f =(  0.5000000 )
                  (     0         -1          0      )       (  0.0000000 )
                  (     0          0         -1      )       (  0.0000000 )

 cart.    s( 4) = (  1.0000000  0.0000000  0.0000000 )    f =(  0.5000000 )
                  (  0.0000000 -1.0000000  0.0000000 )       (  0.0000000 )
                  (  0.0000000  0.0000000 -1.0000000 )       (  0.0000000 )


      isym =  5     inversion                                    

 cryst.   s( 5) = (    -1          0          0      )
                  (     0         -1          0      )
                  (     0          0         -1      )

 cart.    s( 5) = ( -1.0000000  0.0000000  0.0000000 )
                  (  0.0000000 -1.0000000  0.0000000 )
                  (  0.0000000  0.0000000 -1.0000000 )


      isym =  6     inv. 180 deg rotation - cart. axis [0,0,1]   

 cryst.   s( 6) = (     1          0          0      )    f =(  0.0000000 )
                  (     0          1          0      )       ( -0.5000000 )
                  (     0          0         -1      )       ( -0.5000000 )

 cart.    s( 6) = (  1.0000000  0.0000000  0.0000000 )    f =(  0.0000000 )
                  (  0.0000000  1.0000000  0.0000000 )       ( -1.1138638 )
                  (  0.0000000  0.0000000 -1.0000000 )       ( -1.8777098 )


      isym =  7     inv. 180 deg rotation - cart. axis [0,1,0]   

 cryst.   s( 7) = (     1          0          0      )    f =(  0.5000000 )
                  (     0         -1          0      )       ( -0.5000000 )
                  (     0          0          1      )       (  0.5000000 )

 cart.    s( 7) = (  1.0000000  0.0000000  0.0000000 )    f =(  0.5000000 )
                  (  0.0000000 -1.0000000  0.0000000 )       ( -1.1138638 )
                  (  0.0000000  0.0000000  1.0000000 )       (  1.8777098 )


      isym =  8     inv. 180 deg rotation - cart. axis [1,0,0]   

 cryst.   s( 8) = (    -1          0          0      )    f =( -0.5000000 )
                  (     0          1          0      )       (  0.0000000 )
                  (     0          0          1      )       (  0.0000000 )

 cart.    s( 8) = ( -1.0000000  0.0000000  0.0000000 )    f =( -0.5000000 )
                  (  0.0000000  1.0000000  0.0000000 )       (  0.0000000 )
                  (  0.0000000  0.0000000  1.0000000 )       (  0.0000000 )


   Cartesian axes

     site n.     atom                  positions (alat units)
         1           Cs  tau(   1) = (   0.2500000   0.1859640   2.5168147  )
         2           Cs  tau(   2) = (   0.7500000   2.0417636   1.2386050  )
         3           Cs  tau(   3) = (   0.2500000   1.2998278   3.1163149  )
         4           Cs  tau(   4) = (   0.7500000   0.9278998   0.6391048  )
         5           Sn  tau(   5) = (   0.2500000   0.7615710   1.6485466  )
         6           Sn  tau(   6) = (   0.7500000   1.4661567   2.1068731  )
         7           Sn  tau(   7) = (   0.2500000   1.8754348   0.2291632  )
         8           Sn  tau(   8) = (   0.7500000   0.3522928   3.5262565  )
         9           I   tau(   9) = (   0.7500000   0.0581437   0.4202578  )
        10           I   tau(  10) = (   0.2500000   2.1695839   3.3351619  )
        11           I   tau(  11) = (   0.7500000   1.1720075   1.4574521  )
        12           I   tau(  12) = (   0.2500000   1.0557201   2.2979676  )
        13           I   tau(  13) = (   0.7500000   0.6531118   2.9738192  )
        14           I   tau(  14) = (   0.2500000   1.5746158   0.7816005  )
        15           I   tau(  15) = (   0.7500000   1.7669756   2.6593103  )
        16           I   tau(  16) = (   0.2500000   0.4607520   1.0961094  )
        17           I   tau(  17) = (   0.7500000   0.3753632   1.8734812  )
        18           I   tau(  18) = (   0.2500000   1.8523644   1.8819384  )
        19           I   tau(  19) = (   0.7500000   1.4892270   0.0042286  )
        20           I   tau(  20) = (   0.2500000   0.7385006   3.7511911  )

   Crystallographic axes

     site n.     atom                  positions (cryst. coord.)
         1           Cs  tau(   1) = (  0.2500000  0.0834770  0.6701820  )
         2           Cs  tau(   2) = (  0.7500000  0.9165230  0.3298180  )
         3           Cs  tau(   3) = (  0.2500000  0.5834770  0.8298180  )
         4           Cs  tau(   4) = (  0.7500000  0.4165230  0.1701820  )
         5           Sn  tau(   5) = (  0.2500000  0.3418600  0.4389780  )
         6           Sn  tau(   6) = (  0.7500000  0.6581400  0.5610220  )
         7           Sn  tau(   7) = (  0.2500000  0.8418600  0.0610220  )
         8           Sn  tau(   8) = (  0.7500000  0.1581400  0.9389780  )
         9           I   tau(   9) = (  0.7500000  0.0261000  0.1119070  )
        10           I   tau(  10) = (  0.2500000  0.9739000  0.8880930  )
        11           I   tau(  11) = (  0.7500000  0.5261000  0.3880930  )
        12           I   tau(  12) = (  0.2500000  0.4739000  0.6119070  )
        13           I   tau(  13) = (  0.7500000  0.2931740  0.7918740  )
        14           I   tau(  14) = (  0.2500000  0.7068260  0.2081260  )
        15           I   tau(  15) = (  0.7500000  0.7931740  0.7081260  )
        16           I   tau(  16) = (  0.2500000  0.2068260  0.2918740  )
        17           I   tau(  17) = (  0.7500000  0.1684960  0.4988740  )
        18           I   tau(  18) = (  0.2500000  0.8315040  0.5011260  )
        19           I   tau(  19) = (  0.7500000  0.6684960  0.0011260  )
        20           I   tau(  20) = (  0.2500000  0.3315040  0.9988740  )

     number of k points=    27 (tetrahedron method)
                       cart. coord. in units 2pi/alat
        k(    1) = (   0.0000000   0.0000000   0.0000000), wk =   0.0160000
        k(    2) = (   0.0000000   0.0000000   0.0532564), wk =   0.0320000
        k(    3) = (   0.0000000   0.0000000   0.1065127), wk =   0.0320000
        k(    4) = (   0.0000000   0.0897776   0.0000000), wk =   0.0320000
        k(    5) = (   0.0000000   0.0897776   0.0532564), wk =   0.0640000
        k(    6) = (   0.0000000   0.0897776   0.1065127), wk =   0.0640000
        k(    7) = (   0.0000000   0.1795552   0.0000000), wk =   0.0320000
        k(    8) = (   0.0000000   0.1795552   0.0532564), wk =   0.0640000
        k(    9) = (   0.0000000   0.1795552   0.1065127), wk =   0.0640000
        k(   10) = (   0.2000000   0.0000000   0.0000000), wk =   0.0320000
        k(   11) = (   0.2000000   0.0000000   0.0532564), wk =   0.0640000
        k(   12) = (   0.2000000   0.0000000   0.1065127), wk =   0.0640000
        k(   13) = (   0.2000000   0.0897776   0.0000000), wk =   0.0640000
        k(   14) = (   0.2000000   0.0897776   0.0532564), wk =   0.1280000
        k(   15) = (   0.2000000   0.0897776   0.1065127), wk =   0.1280000
        k(   16) = (   0.2000000   0.1795552   0.0000000), wk =   0.0640000
        k(   17) = (   0.2000000   0.1795552   0.0532564), wk =   0.1280000
        k(   18) = (   0.2000000   0.1795552   0.1065127), wk =   0.1280000
        k(   19) = (   0.4000000   0.0000000   0.0000000), wk =   0.0320000
        k(   20) = (   0.4000000   0.0000000   0.0532564), wk =   0.0640000
        k(   21) = (   0.4000000   0.0000000   0.1065127), wk =   0.0640000
        k(   22) = (   0.4000000   0.0897776   0.0000000), wk =   0.0640000
        k(   23) = (   0.4000000   0.0897776   0.0532564), wk =   0.1280000
        k(   24) = (   0.4000000   0.0897776   0.1065127), wk =   0.1280000
        k(   25) = (   0.4000000   0.1795552   0.0000000), wk =   0.0640000
        k(   26) = (   0.4000000   0.1795552   0.0532564), wk =   0.1280000
        k(   27) = (   0.4000000   0.1795552   0.1065127), wk =   0.1280000

                       cryst. coord.
        k(    1) = (   0.0000000   0.0000000   0.0000000), wk =   0.0160000
        k(    2) = (   0.0000000   0.0000000   0.2000000), wk =   0.0320000
        k(    3) = (   0.0000000   0.0000000   0.4000000), wk =   0.0320000
        k(    4) = (   0.0000000   0.2000000   0.0000000), wk =   0.0320000
        k(    5) = (   0.0000000   0.2000000   0.2000000), wk =   0.0640000
        k(    6) = (   0.0000000   0.2000000   0.4000000), wk =   0.0640000
        k(    7) = (   0.0000000   0.4000000   0.0000000), wk =   0.0320000
        k(    8) = (   0.0000000   0.4000000   0.2000000), wk =   0.0640000
        k(    9) = (   0.0000000   0.4000000   0.4000000), wk =   0.0640000
        k(   10) = (   0.2000000   0.0000000   0.0000000), wk =   0.0320000
        k(   11) = (   0.2000000   0.0000000   0.2000000), wk =   0.0640000
        k(   12) = (   0.2000000   0.0000000   0.4000000), wk =   0.0640000
        k(   13) = (   0.2000000   0.2000000   0.0000000), wk =   0.0640000
        k(   14) = (   0.2000000   0.2000000   0.2000000), wk =   0.1280000
        k(   15) = (   0.2000000   0.2000000   0.4000000), wk =   0.1280000
        k(   16) = (   0.2000000   0.4000000   0.0000000), wk =   0.0640000
        k(   17) = (   0.2000000   0.4000000   0.2000000), wk =   0.1280000
        k(   18) = (   0.2000000   0.4000000   0.4000000), wk =   0.1280000
        k(   19) = (   0.4000000   0.0000000   0.0000000), wk =   0.0320000
        k(   20) = (   0.4000000   0.0000000   0.2000000), wk =   0.0640000
        k(   21) = (   0.4000000   0.0000000   0.4000000), wk =   0.0640000
        k(   22) = (   0.4000000   0.2000000   0.0000000), wk =   0.0640000
        k(   23) = (   0.4000000   0.2000000   0.2000000), wk =   0.1280000
        k(   24) = (   0.4000000   0.2000000   0.4000000), wk =   0.1280000
        k(   25) = (   0.4000000   0.4000000   0.0000000), wk =   0.0640000
        k(   26) = (   0.4000000   0.4000000   0.2000000), wk =   0.1280000
        k(   27) = (   0.4000000   0.4000000   0.4000000), wk =   0.1280000

     Dense  grid:   504115 G-vectors     FFT dimensions: (  50, 120, 192)

     Dynamical RAM for                 wfc:       0.67 MB

     Dynamical RAM for     wfc (w. buffer):       0.67 MB

     Dynamical RAM for           str. fact:       0.18 MB

     Dynamical RAM for           local pot:       0.00 MB

     Dynamical RAM for          nlocal pot:       3.15 MB

     Dynamical RAM for                qrad:      12.09 MB

     Dynamical RAM for          rho,v,vnew:       0.46 MB

     Dynamical RAM for           G-vectors:       0.26 MB

     Dynamical RAM for          h,s,v(r/c):       1.45 MB

     Dynamical RAM for          <psi|beta>:       0.57 MB

     Dynamical RAM for                 psi:       1.34 MB

     Dynamical RAM for                hpsi:       1.34 MB

     Dynamical RAM for                spsi:       1.34 MB

     Dynamical RAM for      wfcinit/wfcrot:       1.81 MB

     Dynamical RAM for           addusdens:      36.15 MB

     Estimated static dynamical RAM per process >      17.50 MB

     Estimated max dynamical RAM per process >      53.66 MB

     Estimated total dynamical RAM >       6.71 GB

     The potential is recalculated from file :
     ./out1/CsSnI3.save/charge-density

     Starting wfcs are  104 randomized atomic wfcs
     Checking if some PAW data can be deallocated... 
       PAW data deallocated on  100 nodes for type:  1
       PAW data deallocated on   56 nodes for type:  2
       PAW data deallocated on  100 nodes for type:  3

     Band Structure Calculation
     Davidson diagonalization with overlap

     Computing kpt #:     1  of    27
     c_bands:  1 eigenvalues not converged
     total cpu time spent up to now is      191.2 secs

     Computing kpt #:     2  of    27
     c_bands:  1 eigenvalues not converged
     total cpu time spent up to now is      370.0 secs

     Computing kpt #:     3  of    27
     c_bands:  1 eigenvalues not converged
     total cpu time spent up to now is      550.7 secs

     Computing kpt #:     4  of    27
     c_bands:  1 eigenvalues not converged
     total cpu time spent up to now is      731.0 secs

     Computing kpt #:     5  of    27
     c_bands:  1 eigenvalues not converged
     total cpu time spent up to now is      909.9 secs

     Computing kpt #:     6  of    27
     c_bands:  1 eigenvalues not converged
     total cpu time spent up to now is     1090.1 secs

     Computing kpt #:     7  of    27
     c_bands:  1 eigenvalues not converged
     total cpu time spent up to now is     1270.4 secs

     Computing kpt #:     8  of    27
     c_bands:  1 eigenvalues not converged
     total cpu time spent up to now is     1450.6 secs

     Computing kpt #:     9  of    27
     c_bands:  1 eigenvalues not converged
     total cpu time spent up to now is     1630.9 secs

     Computing kpt #:    10  of    27
     c_bands:  1 eigenvalues not converged
     total cpu time spent up to now is     1807.7 secs

     Computing kpt #:    11  of    27
     c_bands:  1 eigenvalues not converged
     total cpu time spent up to now is     1985.2 secs

     Computing kpt #:    12  of    27
     c_bands:  1 eigenvalues not converged
     total cpu time spent up to now is     2164.3 secs

     Computing kpt #:    13  of    27
     c_bands:  1 eigenvalues not converged
     total cpu time spent up to now is     2344.0 secs

     Computing kpt #:    14  of    27
     c_bands:  1 eigenvalues not converged
     total cpu time spent up to now is     2522.8 secs

     Computing kpt #:    15  of    27
     c_bands:  1 eigenvalues not converged
     total cpu time spent up to now is     2701.9 secs

     Computing kpt #:    16  of    27
     c_bands:  1 eigenvalues not converged
     total cpu time spent up to now is     2879.6 secs

     Computing kpt #:    17  of    27
     c_bands:  1 eigenvalues not converged
     total cpu time spent up to now is     3058.3 secs

     Computing kpt #:    18  of    27
     c_bands:  1 eigenvalues not converged
     total cpu time spent up to now is     3238.2 secs

     Computing kpt #:    19  of    27
     c_bands:  1 eigenvalues not converged
     total cpu time spent up to now is     3416.7 secs

     Computing kpt #:    20  of    27
     c_bands:  1 eigenvalues not converged
     total cpu time spent up to now is     3593.3 secs

     Computing kpt #:    21  of    27
     c_bands:  1 eigenvalues not converged
     total cpu time spent up to now is     3771.6 secs

     Computing kpt #:    22  of    27
     c_bands:  1 eigenvalues not converged
     total cpu time spent up to now is     3948.5 secs

     Computing kpt #:    23  of    27
     c_bands:  1 eigenvalues not converged
     total cpu time spent up to now is     4124.6 secs

     Computing kpt #:    24  of    27
     c_bands:  1 eigenvalues not converged
     total cpu time spent up to now is     4302.6 secs

     Computing kpt #:    25  of    27
     c_bands:  1 eigenvalues not converged
     total cpu time spent up to now is     4478.7 secs

     Computing kpt #:    26  of    27
     c_bands:  1 eigenvalues not converged
     total cpu time spent up to now is     4656.8 secs

     Computing kpt #:    27  of    27
     c_bands:  1 eigenvalues not converged
     total cpu time spent up to now is     4834.2 secs

     ethr =  5.68E-11,  avg # of iterations =120.0

     total cpu time spent up to now is     4834.2 secs

     End of band structure calculation

          k = 0.0000 0.0000 0.0000 ( 62981 PWs)   bands (ev):

   -17.8682 -17.8682 -17.8680 -17.8680 -17.8648 -17.8648 -17.8645 -17.8645
   -17.8560 -17.8560 -17.8553 -17.8553 -17.8514 -17.8513 -17.8498 -17.8498
   -17.8444 -17.8444 -17.8431 -17.8431 -17.7830 -17.7828 -17.7821 -17.7818
    -8.8075  -8.7833  -8.6010  -8.5396  -8.4523  -8.4427  -8.4234  -8.4132
    -8.2863  -8.2625  -8.2455  -8.2021  -4.6122  -4.6098  -4.6082  -4.6020
    -4.5925  -4.5667  -4.5512  -4.5494  -4.5430  -4.5414  -4.5372  -4.5342
    -2.8869  -2.8620  -2.8238  -2.7432   0.1210   0.3221   0.7505   0.8838
     0.8982   0.9831   1.1105   1.1199   1.2107   1.2733   1.3213   1.3260
     1.3292   1.5511   1.6285   1.7294   1.7766   1.7921   1.8069   1.8132
     1.8182   1.8320   1.9757   2.0596   2.0651   2.1699   2.2022   2.2191
     2.2306   2.2323   2.3099   2.3124   2.3772   2.4733   2.6217   2.9213
     5.3005

     occupation numbers 
     1.0000   1.0000   1.0000   1.0000   1.0000   1.0000   1.0000   1.0000
     1.0000   1.0000   1.0000   1.0000   1.0000   1.0000   1.0000   1.0000
     1.0000   1.0000   1.0000   1.0000   1.0000   1.0000   1.0000   1.0000
     1.0000   1.0000   1.0000   1.0000   1.0000   1.0000   1.0000   1.0000
     1.0000   1.0000   1.0000   1.0000   1.0000   1.0000   1.0000   1.0000
     1.0000   1.0000   1.0000   1.0000   1.0000   1.0000   1.0000   1.0000
     1.0000   1.0000   1.0000   1.0000   1.0000   1.0000   1.0000   1.0000
     1.0000   1.0000   1.0000   1.0000   1.0000   1.0000   1.0000   1.0000
     1.0000   1.0000   1.0000   1.0000   1.0000   1.0000   1.0000   1.0000
     1.0000   1.0000   1.0000   1.0000   1.0000   1.0000   1.0000   1.0000
     1.0000   1.0000   1.0000   1.0000   1.0000   1.0000   1.0000   1.0000
     0.0000

          k = 0.0000 0.0000 0.0533 ( 63011 PWs)   bands (ev):

   -17.8682 -17.8682 -17.8680 -17.8680 -17.8648 -17.8648 -17.8645 -17.8645
   -17.8560 -17.8560 -17.8553 -17.8553 -17.8514 -17.8513 -17.8498 -17.8498
   -17.8444 -17.8444 -17.8431 -17.8431 -17.7830 -17.7828 -17.7821 -17.7819
    -8.8056  -8.7861  -8.5951  -8.5458  -8.4514  -8.4436  -8.4218  -8.4138
    -8.2853  -8.2684  -8.2376  -8.2050  -4.6147  -4.6130  -4.6067  -4.5952
    -4.5934  -4.5689  -4.5510  -4.5496  -4.5428  -4.5415  -4.5367  -4.5342
    -2.8858  -2.8676  -2.8130  -2.7497   0.1369   0.2983   0.7663   0.8850
     0.8967   0.9421   1.1143   1.1541   1.2393   1.2484   1.2783   1.3209
     1.4292   1.5347   1.6066   1.6827   1.7754   1.8087   1.8105   1.8135
     1.8186   1.8300   1.9760   2.0282   2.0711   2.1594   2.2038   2.2200
     2.2230   2.2270   2.3210   2.3696   2.3723   2.4713   2.6412   2.8920
     5.2961

     occupation numbers 
     1.0000   1.0000   1.0000   1.0000   1.0000   1.0000   1.0000   1.0000
     1.0000   1.0000   1.0000   1.0000   1.0000   1.0000   1.0000   1.0000
     1.0000   1.0000   1.0000   1.0000   1.0000   1.0000   1.0000   1.0000
     1.0000   1.0000   1.0000   1.0000   1.0000   1.0000   1.0000   1.0000
     1.0000   1.0000   1.0000   1.0000   1.0000   1.0000   1.0000   1.0000
     1.0000   1.0000   1.0000   1.0000   1.0000   1.0000   1.0000   1.0000
     1.0000   1.0000   1.0000   1.0000   1.0000   1.0000   1.0000   1.0000
     1.0000   1.0000   1.0000   1.0000   1.0000   1.0000   1.0000   1.0000
     1.0000   1.0000   1.0000   1.0000   1.0000   1.0000   1.0000   1.0000
     1.0000   1.0000   1.0000   1.0000   1.0000   1.0000   1.0000   1.0000
     1.0000   1.0000   1.0000   1.0000   1.0000   1.0000   1.0000   1.0000
     0.0000

          k = 0.0000 0.0000 0.1065 ( 62976 PWs)   bands (ev):

   -17.8682 -17.8682 -17.8680 -17.8680 -17.8648 -17.8648 -17.8645 -17.8645
   -17.8560 -17.8560 -17.8553 -17.8553 -17.8513 -17.8513 -17.8498 -17.8498
   -17.8444 -17.8444 -17.8431 -17.8431 -17.7829 -17.7829 -17.7820 -17.7819
    -8.8002  -8.7928  -8.5800  -8.5614  -8.4491  -8.4461  -8.4185  -8.4155
    -8.2820  -8.2763  -8.2247  -8.2130  -4.6169  -4.6166  -4.6021  -4.5976
    -4.5844  -4.5753  -4.5507  -4.5501  -4.5423  -4.5419  -4.5355  -4.5345
    -2.8822  -2.8760  -2.7908  -2.7674   0.1810   0.2420   0.8101   0.8732
     0.8884   0.8929   1.1246   1.1598   1.2507   1.2913   1.2921   1.3076
     1.5086   1.5236   1.5565   1.6146   1.7821   1.8037   1.8122   1.8137
     1.8204   1.8251   1.9778   1.9886   2.0993   2.1323   2.2087   2.2171
     2.2215   2.2220   2.3396   2.3586   2.4370   2.4633   2.7113   2.8122
     5.3141

     occupation numbers 
     1.0000   1.0000   1.0000   1.0000   1.0000   1.0000   1.0000   1.0000
     1.0000   1.0000   1.0000   1.0000   1.0000   1.0000   1.0000   1.0000
     1.0000   1.0000   1.0000   1.0000   1.0000   1.0000   1.0000   1.0000
     1.0000   1.0000   1.0000   1.0000   1.0000   1.0000   1.0000   1.0000
     1.0000   1.0000   1.0000   1.0000   1.0000   1.0000   1.0000   1.0000
     1.0000   1.0000   1.0000   1.0000   1.0000   1.0000   1.0000   1.0000
     1.0000   1.0000   1.0000   1.0000   1.0000   1.0000   1.0000   1.0000
     1.0000   1.0000   1.0000   1.0000   1.0000   1.0000   1.0000   1.0000
     1.0000   1.0000   1.0000   1.0000   1.0000   1.0000   1.0000   1.0000
     1.0000   1.0000   1.0000   1.0000   1.0000   1.0000   1.0000   1.0000
     1.0000   1.0000   1.0000   1.0000   1.0000   1.0000   1.0000   1.0000
     0.0000

          k = 0.0000 0.0898 0.0000 ( 63016 PWs)   bands (ev):

   -17.8682 -17.8682 -17.8680 -17.8680 -17.8648 -17.8648 -17.8645 -17.8645
   -17.8560 -17.8560 -17.8553 -17.8553 -17.8514 -17.8513 -17.8498 -17.8498
   -17.8444 -17.8444 -17.8431 -17.8431 -17.7829 -17.7827 -17.7822 -17.7819
    -8.7991  -8.7781  -8.6053  -8.5683  -8.4730  -8.4662  -8.4039  -8.3709
    -8.2743  -8.2643  -8.2474  -8.2070  -4.6160  -4.6152  -4.5993  -4.5973
    -4.5957  -4.5633  -4.5504  -4.5487  -4.5447  -4.5438  -4.5422  -4.5390
    -2.8965  -2.8719  -2.8006  -2.7395   0.1462   0.3180   0.7730   0.9002
     0.9021   0.9124   1.1217   1.1403   1.2464   1.2584   1.2825   1.3218
     1.3598   1.5571   1.5688   1.6707   1.7533   1.7567   1.7764   1.8325
     1.8813   1.9028   1.9599   2.0634   2.0653   2.0787   2.1914   2.2235
     2.2332   2.2378   2.3008   2.3493   2.3652   2.5406   2.6496   2.9607
     5.2131

     occupation numbers 
     1.0000   1.0000   1.0000   1.0000   1.0000   1.0000   1.0000   1.0000
     1.0000   1.0000   1.0000   1.0000   1.0000   1.0000   1.0000   1.0000
     1.0000   1.0000   1.0000   1.0000   1.0000   1.0000   1.0000   1.0000
     1.0000   1.0000   1.0000   1.0000   1.0000   1.0000   1.0000   1.0000
     1.0000   1.0000   1.0000   1.0000   1.0000   1.0000   1.0000   1.0000
     1.0000   1.0000   1.0000   1.0000   1.0000   1.0000   1.0000   1.0000
     1.0000   1.0000   1.0000   1.0000   1.0000   1.0000   1.0000   1.0000
     1.0000   1.0000   1.0000   1.0000   1.0000   1.0000   1.0000   1.0000
     1.0000   1.0000   1.0000   1.0000   1.0000   1.0000   1.0000   1.0000
     1.0000   1.0000   1.0000   1.0000   1.0000   1.0000   1.0000   1.0000
     1.0000   1.0000   1.0000   1.0000   1.0000   1.0000   1.0000   1.0000
     0.0000

          k = 0.0000 0.0898 0.0533 ( 63011 PWs)   bands (ev):

   -17.8682 -17.8682 -17.8680 -17.8680 -17.8648 -17.8648 -17.8645 -17.8645
   -17.8560 -17.8560 -17.8553 -17.8553 -17.8514 -17.8513 -17.8498 -17.8498
   -17.8444 -17.8444 -17.8431 -17.8431 -17.7829 -17.7827 -17.7821 -17.7819
    -8.7974  -8.7805  -8.6011  -8.5712  -8.4735  -8.4680  -8.4002  -8.3735
    -8.2749  -8.2669  -8.2409  -8.2097  -4.6173  -4.6131  -4.6055  -4.5978
    -4.5885  -4.5654  -4.5503  -4.5489  -4.5437  -4.5436  -4.5423  -4.5393
    -2.8946  -2.8752  -2.7940  -2.7449   0.1604   0.2988   0.7842   0.8895
     0.9013   0.9111   1.1274   1.1530   1.2340   1.2499   1.2791   1.2994
     1.4249   1.5341   1.5755   1.6764   1.7400   1.7583   1.7741   1.8150
     1.8836   1.9011   1.9609   2.0082   2.0827   2.1138   2.1970   2.2233
     2.2316   2.2344   2.3093   2.3604   2.3691   2.5180   2.6865   2.9339
     5.2207

     occupation numbers 
     1.0000   1.0000   1.0000   1.0000   1.0000   1.0000   1.0000   1.0000
     1.0000   1.0000   1.0000   1.0000   1.0000   1.0000   1.0000   1.0000
     1.0000   1.0000   1.0000   1.0000   1.0000   1.0000   1.0000   1.0000
     1.0000   1.0000   1.0000   1.0000   1.0000   1.0000   1.0000   1.0000
     1.0000   1.0000   1.0000   1.0000   1.0000   1.0000   1.0000   1.0000
     1.0000   1.0000   1.0000   1.0000   1.0000   1.0000   1.0000   1.0000
     1.0000   1.0000   1.0000   1.0000   1.0000   1.0000   1.0000   1.0000
     1.0000   1.0000   1.0000   1.0000   1.0000   1.0000   1.0000   1.0000
     1.0000   1.0000   1.0000   1.0000   1.0000   1.0000   1.0000   1.0000
     1.0000   1.0000   1.0000   1.0000   1.0000   1.0000   1.0000   1.0000
     1.0000   1.0000   1.0000   1.0000   1.0000   1.0000   1.0000   1.0000
     0.0000

          k = 0.0000 0.0898 0.1065 ( 62968 PWs)   bands (ev):

   -17.8682 -17.8682 -17.8680 -17.8680 -17.8648 -17.8648 -17.8645 -17.8645
   -17.8560 -17.8560 -17.8553 -17.8553 -17.8513 -17.8513 -17.8498 -17.8498
   -17.8444 -17.8444 -17.8431 -17.8431 -17.7828 -17.7828 -17.7821 -17.7820
    -8.7927  -8.7863  -8.5908  -8.5794  -8.4735  -8.4714  -8.3913  -8.3810
    -8.2741  -8.2709  -8.2288  -8.2174  -4.6170  -4.6145  -4.6056  -4.6015
    -4.5791  -4.5710  -4.5499  -4.5494  -4.5431  -4.5426  -4.5418  -4.5401
    -2.8894  -2.8822  -2.7779  -2.7594   0.1994   0.2519   0.8150   0.8557
     0.9042   0.9079   1.1406   1.1687   1.2202   1.2590   1.2702   1.2774
     1.4812   1.5185   1.5993   1.6605   1.7326   1.7626   1.7687   1.7726
     1.8895   1.8963   1.9645   1.9758   2.1003   2.1179   2.2131   2.2245
     2.2255   2.2285   2.3278   2.3468   2.4182   2.4726   2.7686   2.8619
     5.2354

     occupation numbers 
     1.0000   1.0000   1.0000   1.0000   1.0000   1.0000   1.0000   1.0000
     1.0000   1.0000   1.0000   1.0000   1.0000   1.0000   1.0000   1.0000
     1.0000   1.0000   1.0000   1.0000   1.0000   1.0000   1.0000   1.0000
     1.0000   1.0000   1.0000   1.0000   1.0000   1.0000   1.0000   1.0000
     1.0000   1.0000   1.0000   1.0000   1.0000   1.0000   1.0000   1.0000
     1.0000   1.0000   1.0000   1.0000   1.0000   1.0000   1.0000   1.0000
     1.0000   1.0000   1.0000   1.0000   1.0000   1.0000   1.0000   1.0000
     1.0000   1.0000   1.0000   1.0000   1.0000   1.0000   1.0000   1.0000
     1.0000   1.0000   1.0000   1.0000   1.0000   1.0000   1.0000   1.0000
     1.0000   1.0000   1.0000   1.0000   1.0000   1.0000   1.0000   1.0000
     1.0000   1.0000   1.0000   1.0000   1.0000   1.0000   1.0000   1.0000
     0.0000

          k = 0.0000 0.1796 0.0000 ( 62950 PWs)   bands (ev):

   -17.8682 -17.8682 -17.8680 -17.8680 -17.8647 -17.8647 -17.8645 -17.8645
   -17.8560 -17.8560 -17.8553 -17.8553 -17.8513 -17.8513 -17.8498 -17.8498
   -17.8444 -17.8444 -17.8431 -17.8431 -17.7827 -17.7824 -17.7824 -17.7822
    -8.7804  -8.7712  -8.6149  -8.6069  -8.4913  -8.4895  -8.3635  -8.3484
    -8.2646  -8.2591  -8.2435  -8.2216  -4.6186  -4.6184  -4.5988  -4.5976
    -4.5805  -4.5617  -4.5576  -4.5496  -4.5483  -4.5467  -4.5458  -4.5442
    -2.9006  -2.8899  -2.7641  -2.7419   0.2118   0.2837   0.8058   0.8258
     0.9347   0.9398   1.1483   1.1996   1.2103   1.2273   1.2370   1.3683
     1.3995   1.4359   1.5004   1.6388   1.7361   1.7476   1.7711   1.7734
     1.9476   1.9580   1.9644   2.0441   2.0533   2.0781   2.2198   2.2339
     2.2459   2.2724   2.2800   2.3309   2.3756   2.4247   2.8646   2.9708
     5.1394

     occupation numbers 
     1.0000   1.0000   1.0000   1.0000   1.0000   1.0000   1.0000   1.0000
     1.0000   1.0000   1.0000   1.0000   1.0000   1.0000   1.0000   1.0000
     1.0000   1.0000   1.0000   1.0000   1.0000   1.0000   1.0000   1.0000
     1.0000   1.0000   1.0000   1.0000   1.0000   1.0000   1.0000   1.0000
     1.0000   1.0000   1.0000   1.0000   1.0000   1.0000   1.0000   1.0000
     1.0000   1.0000   1.0000   1.0000   1.0000   1.0000   1.0000   1.0000
     1.0000   1.0000   1.0000   1.0000   1.0000   1.0000   1.0000   1.0000
     1.0000   1.0000   1.0000   1.0000   1.0000   1.0000   1.0000   1.0000
     1.0000   1.0000   1.0000   1.0000   1.0000   1.0000   1.0000   1.0000
     1.0000   1.0000   1.0000   1.0000   1.0000   1.0000   1.0000   1.0000
     1.0000   1.0000   1.0000   1.0000   1.0000   1.0000   1.0000   1.0000
     0.0000

          k = 0.0000 0.1796 0.0533 ( 62947 PWs)   bands (ev):

   -17.8682 -17.8682 -17.8680 -17.8680 -17.8648 -17.8647 -17.8645 -17.8644
   -17.8560 -17.8560 -17.8553 -17.8553 -17.8513 -17.8513 -17.8498 -17.8498
   -17.8444 -17.8444 -17.8431 -17.8431 -17.7827 -17.7825 -17.7823 -17.7822
    -8.7796  -8.7722  -8.6140  -8.6075  -8.4911  -8.4888  -8.3639  -8.3514
    -8.2638  -8.2536  -8.2449  -8.2240  -4.6183  -4.6172  -4.6009  -4.6006
    -4.5768  -4.5628  -4.5563  -4.5500  -4.5482  -4.5470  -4.5455  -4.5443
    -2.8993  -2.8906  -2.7624  -2.7444   0.2196   0.2781   0.8050   0.8223
     0.9352   0.9393   1.1595   1.2007   1.2093   1.2283   1.2363   1.3381
     1.3890   1.4536   1.5087   1.6253   1.7375   1.7468   1.7666   1.8038
     1.9474   1.9560   1.9645   2.0239   2.0652   2.0855   2.2167   2.2299
     2.2484   2.2764   2.2797   2.3262   2.3847   2.4253   2.8690   2.9561
     5.1412

     occupation numbers 
     1.0000   1.0000   1.0000   1.0000   1.0000   1.0000   1.0000   1.0000
     1.0000   1.0000   1.0000   1.0000   1.0000   1.0000   1.0000   1.0000
     1.0000   1.0000   1.0000   1.0000   1.0000   1.0000   1.0000   1.0000
     1.0000   1.0000   1.0000   1.0000   1.0000   1.0000   1.0000   1.0000
     1.0000   1.0000   1.0000   1.0000   1.0000   1.0000   1.0000   1.0000
     1.0000   1.0000   1.0000   1.0000   1.0000   1.0000   1.0000   1.0000
     1.0000   1.0000   1.0000   1.0000   1.0000   1.0000   1.0000   1.0000
     1.0000   1.0000   1.0000   1.0000   1.0000   1.0000   1.0000   1.0000
     1.0000   1.0000   1.0000   1.0000   1.0000   1.0000   1.0000   1.0000
     1.0000   1.0000   1.0000   1.0000   1.0000   1.0000   1.0000   1.0000
     1.0000   1.0000   1.0000   1.0000   1.0000   1.0000   1.0000   1.0000
     0.0000

          k = 0.0000 0.1796 0.1065 ( 62968 PWs)   bands (ev):

   -17.8682 -17.8682 -17.8680 -17.8680 -17.8648 -17.8648 -17.8645 -17.8644
   -17.8560 -17.8560 -17.8553 -17.8553 -17.8513 -17.8513 -17.8498 -17.8498
   -17.8444 -17.8444 -17.8431 -17.8431 -17.7826 -17.7826 -17.7823 -17.7822
    -8.7775  -8.7746  -8.6118  -8.6094  -8.4899  -8.4886  -8.3627  -8.3578
    -8.2587  -8.2522  -8.2408  -8.2310  -4.6166  -4.6156  -4.6051  -4.6041
    -4.5707  -4.5658  -4.5536  -4.5513  -4.5480  -4.5475  -4.5450  -4.5445
    -2.8961  -2.8927  -2.7575  -2.7506   0.2393   0.2619   0.8066   0.8140
     0.9364   0.9379   1.1875   1.2034   1.2067   1.2139   1.2511   1.2891
     1.3958   1.4298   1.5521   1.5941   1.7409   1.7445   1.7946   1.8166
     1.9482   1.9517   1.9708   1.9932   2.0816   2.0912   2.2147   2.2210
     2.2563   2.2673   2.2960   2.3135   2.4048   2.4208   2.8871   2.9212
     5.1458

     occupation numbers 
     1.0000   1.0000   1.0000   1.0000   1.0000   1.0000   1.0000   1.0000
     1.0000   1.0000   1.0000   1.0000   1.0000   1.0000   1.0000   1.0000
     1.0000   1.0000   1.0000   1.0000   1.0000   1.0000   1.0000   1.0000
     1.0000   1.0000   1.0000   1.0000   1.0000   1.0000   1.0000   1.0000
     1.0000   1.0000   1.0000   1.0000   1.0000   1.0000   1.0000   1.0000
     1.0000   1.0000   1.0000   1.0000   1.0000   1.0000   1.0000   1.0000
     1.0000   1.0000   1.0000   1.0000   1.0000   1.0000   1.0000   1.0000
     1.0000   1.0000   1.0000   1.0000   1.0000   1.0000   1.0000   1.0000
     1.0000   1.0000   1.0000   1.0000   1.0000   1.0000   1.0000   1.0000
     1.0000   1.0000   1.0000   1.0000   1.0000   1.0000   1.0000   1.0000
     1.0000   1.0000   1.0000   1.0000   1.0000   1.0000   1.0000   1.0000
     0.0000

          k = 0.2000 0.0000 0.0000 ( 62932 PWs)   bands (ev):

   -17.8677 -17.8677 -17.8676 -17.8676 -17.8659 -17.8659 -17.8656 -17.8656
   -17.8559 -17.8559 -17.8553 -17.8553 -17.8502 -17.8502 -17.8490 -17.8490
   -17.8445 -17.8445 -17.8434 -17.8434 -17.7790 -17.7788 -17.7782 -17.7780
    -8.7312  -8.7094  -8.5515  -8.5013  -8.4140  -8.4039  -8.3871  -8.3771
    -8.2728  -8.2631  -8.2419  -8.2243  -4.6355  -4.6334  -4.6216  -4.6189
    -4.6009  -4.5926  -4.5916  -4.5907  -4.5818  -4.5706  -4.5523  -4.5523
    -2.9989  -2.9959  -2.9074  -2.8695   0.2665   0.4219   0.5546   0.5571
     0.5654   0.6373   0.9168   0.9940   0.9963   1.0105   1.0169   1.0382
     1.3896   1.3960   1.4366   1.4748   1.6729   1.7179   1.7788   1.8075
     1.8298   1.9155   1.9596   2.0015   2.0216   2.0451   2.0545   2.0878
     2.1177   2.1822   2.3184   2.3349   2.7012   2.7611   2.9456   3.0571
     5.7839

     occupation numbers 
     1.0000   1.0000   1.0000   1.0000   1.0000   1.0000   1.0000   1.0000
     1.0000   1.0000   1.0000   1.0000   1.0000   1.0000   1.0000   1.0000
     1.0000   1.0000   1.0000   1.0000   1.0000   1.0000   1.0000   1.0000
     1.0000   1.0000   1.0000   1.0000   1.0000   1.0000   1.0000   1.0000
     1.0000   1.0000   1.0000   1.0000   1.0000   1.0000   1.0000   1.0000
     1.0000   1.0000   1.0000   1.0000   1.0000   1.0000   1.0000   1.0000
     1.0000   1.0000   1.0000   1.0000   1.0000   1.0000   1.0000   1.0000
     1.0000   1.0000   1.0000   1.0000   1.0000   1.0000   1.0000   1.0000
     1.0000   1.0000   1.0000   1.0000   1.0000   1.0000   1.0000   1.0000
     1.0000   1.0000   1.0000   1.0000   1.0000   1.0000   1.0000   1.0000
     1.0000   1.0000   1.0000   1.0000   1.0000   1.0000   1.0000   1.0000
     0.0000

          k = 0.2000 0.0000 0.0533 ( 62967 PWs)   bands (ev):

   -17.8677 -17.8677 -17.8676 -17.8676 -17.8659 -17.8659 -17.8657 -17.8656
   -17.8559 -17.8559 -17.8553 -17.8553 -17.8502 -17.8502 -17.8490 -17.8490
   -17.8445 -17.8445 -17.8434 -17.8434 -17.7790 -17.7788 -17.7782 -17.7780
    -8.7294  -8.7119  -8.5466  -8.5062  -8.4130  -8.4049  -8.3859  -8.3779
    -8.2718  -8.2640  -8.2400  -8.2258  -4.6353  -4.6337  -4.6209  -4.6185
    -4.6020  -4.5970  -4.5910  -4.5882  -4.5803  -4.5711  -4.5521  -4.5521
    -2.9989  -2.9966  -2.9035  -2.8729   0.2753   0.3938   0.5585   0.5703
     0.5800   0.6335   0.9276   0.9798   0.9862   1.0155   1.0176   1.0412
     1.3742   1.3777   1.4097   1.5537   1.6813   1.6950   1.7162   1.7916
     1.9086   1.9196   1.9566   2.0035   2.0073   2.0354   2.0644   2.0834
     2.1253   2.1932   2.3161   2.3314   2.7055   2.7541   2.9545   3.0449
     5.7962

     occupation numbers 
     1.0000   1.0000   1.0000   1.0000   1.0000   1.0000   1.0000   1.0000
     1.0000   1.0000   1.0000   1.0000   1.0000   1.0000   1.0000   1.0000
     1.0000   1.0000   1.0000   1.0000   1.0000   1.0000   1.0000   1.0000
     1.0000   1.0000   1.0000   1.0000   1.0000   1.0000   1.0000   1.0000
     1.0000   1.0000   1.0000   1.0000   1.0000   1.0000   1.0000   1.0000
     1.0000   1.0000   1.0000   1.0000   1.0000   1.0000   1.0000   1.0000
     1.0000   1.0000   1.0000   1.0000   1.0000   1.0000   1.0000   1.0000
     1.0000   1.0000   1.0000   1.0000   1.0000   1.0000   1.0000   1.0000
     1.0000   1.0000   1.0000   1.0000   1.0000   1.0000   1.0000   1.0000
     1.0000   1.0000   1.0000   1.0000   1.0000   1.0000   1.0000   1.0000
     1.0000   1.0000   1.0000   1.0000   1.0000   1.0000   1.0000   1.0000
     0.0000

          k = 0.2000 0.0000 0.1065 ( 62994 PWs)   bands (ev):

   -17.8678 -17.8678 -17.8676 -17.8676 -17.8659 -17.8659 -17.8657 -17.8657
   -17.8559 -17.8559 -17.8553 -17.8553 -17.8502 -17.8502 -17.8490 -17.8490
   -17.8445 -17.8445 -17.8434 -17.8434 -17.7790 -17.7789 -17.7781 -17.7781
    -8.7246  -8.7179  -8.5340  -8.5187  -8.4106  -8.4075  -8.3831  -8.3801
    -8.2693  -8.2664  -8.2353  -8.2299  -4.6349  -4.6343  -4.6193  -4.6182
    -4.6031  -4.6014  -4.5898  -4.5884  -4.5764  -4.5730  -4.5517  -4.5517
    -2.9986  -2.9977  -2.8937  -2.8820   0.3019   0.3443   0.5671   0.5772
     0.6088   0.6281   0.9415   0.9560   0.9891   1.0072   1.0262   1.0364
     1.3455   1.3511   1.4572   1.5469   1.6508   1.6967   1.7455   1.7805
     1.9196   1.9427   1.9532   1.9736   2.0107   2.0213   2.0800   2.0825
     2.1602   2.1946   2.3146   2.3222   2.7183   2.7369   2.9797   3.0144
     5.8271

     occupation numbers 
     1.0000   1.0000   1.0000   1.0000   1.0000   1.0000   1.0000   1.0000
     1.0000   1.0000   1.0000   1.0000   1.0000   1.0000   1.0000   1.0000
     1.0000   1.0000   1.0000   1.0000   1.0000   1.0000   1.0000   1.0000
     1.0000   1.0000   1.0000   1.0000   1.0000   1.0000   1.0000   1.0000
     1.0000   1.0000   1.0000   1.0000   1.0000   1.0000   1.0000   1.0000
     1.0000   1.0000   1.0000   1.0000   1.0000   1.0000   1.0000   1.0000
     1.0000   1.0000   1.0000   1.0000   1.0000   1.0000   1.0000   1.0000
     1.0000   1.0000   1.0000   1.0000   1.0000   1.0000   1.0000   1.0000
     1.0000   1.0000   1.0000   1.0000   1.0000   1.0000   1.0000   1.0000
     1.0000   1.0000   1.0000   1.0000   1.0000   1.0000   1.0000   1.0000
     1.0000   1.0000   1.0000   1.0000   1.0000   1.0000   1.0000   1.0000
     0.0000

          k = 0.2000 0.0898 0.0000 ( 62949 PWs)   bands (ev):

   -17.8678 -17.8677 -17.8676 -17.8676 -17.8659 -17.8659 -17.8657 -17.8656
   -17.8559 -17.8559 -17.8553 -17.8553 -17.8502 -17.8502 -17.8490 -17.8490
   -17.8445 -17.8445 -17.8434 -17.8434 -17.7789 -17.7787 -17.7783 -17.7781
    -8.7238  -8.7050  -8.5547  -8.5223  -8.4350  -8.4233  -8.3702  -8.3428
    -8.2657  -8.2634  -8.2436  -8.2264  -4.6357  -4.6325  -4.6255  -4.6174
    -4.6028  -4.6026  -4.5916  -4.5895  -4.5756  -4.5663  -4.5542  -4.5538
    -2.9958  -2.9934  -2.9034  -2.8725   0.2867   0.3822   0.4601   0.5150
     0.6121   0.6996   0.8874   0.9421   0.9673   1.0248   1.0627   1.1116
     1.4125   1.4395   1.4655   1.5535   1.6519   1.7230   1.7637   1.7987
     1.8181   1.9458   1.9619   1.9715   1.9760   2.0371   2.0702   2.1003
     2.1119   2.1861   2.2969   2.3116   2.7003   2.7375   2.9256   3.0172
     5.8226

     occupation numbers 
     1.0000   1.0000   1.0000   1.0000   1.0000   1.0000   1.0000   1.0000
     1.0000   1.0000   1.0000   1.0000   1.0000   1.0000   1.0000   1.0000
     1.0000   1.0000   1.0000   1.0000   1.0000   1.0000   1.0000   1.0000
     1.0000   1.0000   1.0000   1.0000   1.0000   1.0000   1.0000   1.0000
     1.0000   1.0000   1.0000   1.0000   1.0000   1.0000   1.0000   1.0000
     1.0000   1.0000   1.0000   1.0000   1.0000   1.0000   1.0000   1.0000
     1.0000   1.0000   1.0000   1.0000   1.0000   1.0000   1.0000   1.0000
     1.0000   1.0000   1.0000   1.0000   1.0000   1.0000   1.0000   1.0000
     1.0000   1.0000   1.0000   1.0000   1.0000   1.0000   1.0000   1.0000
     1.0000   1.0000   1.0000   1.0000   1.0000   1.0000   1.0000   1.0000
     1.0000   1.0000   1.0000   1.0000   1.0000   1.0000   1.0000   1.0000
     0.0000

          k = 0.2000 0.0898 0.0533 ( 62977 PWs)   bands (ev):

   -17.8678 -17.8677 -17.8676 -17.8676 -17.8659 -17.8659 -17.8657 -17.8656
   -17.8559 -17.8559 -17.8553 -17.8553 -17.8502 -17.8502 -17.8490 -17.8490
   -17.8445 -17.8445 -17.8434 -17.8434 -17.7789 -17.7788 -17.7783 -17.7781
    -8.7223  -8.7071  -8.5512  -8.5249  -8.4346  -8.4253  -8.3672  -8.3452
    -8.2661  -8.2625  -8.2419  -8.2279  -4.6355  -4.6329  -4.6247  -4.6179
    -4.6043  -4.6015  -4.5922  -4.5900  -4.5742  -4.5668  -4.5539  -4.5536
    -2.9957  -2.9938  -2.9003  -2.8754   0.2928   0.3709   0.4703   0.5211
     0.6105   0.6838   0.8903   0.9409   0.9715   1.0333   1.0665   1.1064
     1.3963   1.4322   1.4576   1.5730   1.6504   1.7070   1.7426   1.8018
     1.8779   1.9294   1.9531   1.9793   1.9860   2.0340   2.0705   2.0918
     2.1149   2.1885   2.2959   2.3123   2.7042   2.7357   2.9293   3.0046
     5.8368

     occupation numbers 
     1.0000   1.0000   1.0000   1.0000   1.0000   1.0000   1.0000   1.0000
     1.0000   1.0000   1.0000   1.0000   1.0000   1.0000   1.0000   1.0000
     1.0000   1.0000   1.0000   1.0000   1.0000   1.0000   1.0000   1.0000
     1.0000   1.0000   1.0000   1.0000   1.0000   1.0000   1.0000   1.0000
     1.0000   1.0000   1.0000   1.0000   1.0000   1.0000   1.0000   1.0000
     1.0000   1.0000   1.0000   1.0000   1.0000   1.0000   1.0000   1.0000
     1.0000   1.0000   1.0000   1.0000   1.0000   1.0000   1.0000   1.0000
     1.0000   1.0000   1.0000   1.0000   1.0000   1.0000   1.0000   1.0000
     1.0000   1.0000   1.0000   1.0000   1.0000   1.0000   1.0000   1.0000
     1.0000   1.0000   1.0000   1.0000   1.0000   1.0000   1.0000   1.0000
     1.0000   1.0000   1.0000   1.0000   1.0000   1.0000   1.0000   1.0000
     0.0000

          k = 0.2000 0.0898 0.1065 ( 62990 PWs)   bands (ev):

   -17.8678 -17.8677 -17.8676 -17.8676 -17.8659 -17.8659 -17.8657 -17.8657
   -17.8559 -17.8559 -17.8553 -17.8553 -17.8502 -17.8502 -17.8490 -17.8490
   -17.8445 -17.8445 -17.8434 -17.8434 -17.7789 -17.7788 -17.7782 -17.7782
    -8.7180  -8.7123  -8.5424  -8.5323  -8.4329  -8.4294  -8.3599  -8.3516
    -8.2650  -8.2630  -8.2374  -8.2319  -4.6348  -4.6338  -4.6226  -4.6199
    -4.6042  -4.6024  -4.5923  -4.5912  -4.5712  -4.5684  -4.5534  -4.5532
    -2.9953  -2.9945  -2.8925  -2.8830   0.3119   0.3417   0.4999   0.5231
     0.6156   0.6462   0.9017   0.9214   1.0050   1.0341   1.0757   1.0926
     1.3837   1.4028   1.4761   1.5300   1.6939   1.7270   1.7426   1.7695
     1.9118   1.9230   1.9489   1.9707   2.0089   2.0250   2.0792   2.0858
     2.1326   2.1698   2.3015   2.3097   2.7151   2.7280   2.9451   2.9746
     5.8568

     occupation numbers 
     1.0000   1.0000   1.0000   1.0000   1.0000   1.0000   1.0000   1.0000
     1.0000   1.0000   1.0000   1.0000   1.0000   1.0000   1.0000   1.0000
     1.0000   1.0000   1.0000   1.0000   1.0000   1.0000   1.0000   1.0000
     1.0000   1.0000   1.0000   1.0000   1.0000   1.0000   1.0000   1.0000
     1.0000   1.0000   1.0000   1.0000   1.0000   1.0000   1.0000   1.0000
     1.0000   1.0000   1.0000   1.0000   1.0000   1.0000   1.0000   1.0000
     1.0000   1.0000   1.0000   1.0000   1.0000   1.0000   1.0000   1.0000
     1.0000   1.0000   1.0000   1.0000   1.0000   1.0000   1.0000   1.0000
     1.0000   1.0000   1.0000   1.0000   1.0000   1.0000   1.0000   1.0000
     1.0000   1.0000   1.0000   1.0000   1.0000   1.0000   1.0000   1.0000
     1.0000   1.0000   1.0000   1.0000   1.0000   1.0000   1.0000   1.0000
     0.0000

          k = 0.2000 0.1796 0.0000 ( 63010 PWs)   bands (ev):

   -17.8678 -17.8677 -17.8676 -17.8676 -17.8659 -17.8659 -17.8657 -17.8657
   -17.8559 -17.8559 -17.8553 -17.8553 -17.8502 -17.8502 -17.8490 -17.8490
   -17.8445 -17.8445 -17.8434 -17.8434 -17.7787 -17.7785 -17.7785 -17.7783
    -8.7075  -8.6993  -8.5615  -8.5536  -8.4482  -8.4470  -8.3376  -8.3254
    -8.2609  -8.2559  -8.2439  -8.2335  -4.6345  -4.6306  -4.6296  -4.6232
    -4.6069  -4.6056  -4.5910  -4.5907  -4.5667  -4.5608  -4.5594  -4.5569
    -2.9903  -2.9895  -2.8931  -2.8813   0.3110   0.3258   0.4384   0.4858
     0.6056   0.6447   0.8620   0.8743   1.0390   1.0996   1.1203   1.1656
     1.4743   1.4885   1.5142   1.5671   1.6423   1.6953   1.7517   1.7718
     1.9094   1.9206   1.9425   1.9688   1.9722   2.0445   2.0815   2.1143
     2.1407   2.1511   2.2059   2.2446   2.7181   2.7317   2.8875   2.9282
     5.9057

     occupation numbers 
     1.0000   1.0000   1.0000   1.0000   1.0000   1.0000   1.0000   1.0000
     1.0000   1.0000   1.0000   1.0000   1.0000   1.0000   1.0000   1.0000
     1.0000   1.0000   1.0000   1.0000   1.0000   1.0000   1.0000   1.0000
     1.0000   1.0000   1.0000   1.0000   1.0000   1.0000   1.0000   1.0000
     1.0000   1.0000   1.0000   1.0000   1.0000   1.0000   1.0000   1.0000
     1.0000   1.0000   1.0000   1.0000   1.0000   1.0000   1.0000   1.0000
     1.0000   1.0000   1.0000   1.0000   1.0000   1.0000   1.0000   1.0000
     1.0000   1.0000   1.0000   1.0000   1.0000   1.0000   1.0000   1.0000
     1.0000   1.0000   1.0000   1.0000   1.0000   1.0000   1.0000   1.0000
     1.0000   1.0000   1.0000   1.0000   1.0000   1.0000   1.0000   1.0000
     1.0000   1.0000   1.0000   1.0000   1.0000   1.0000   1.0000   1.0000
     0.0000

          k = 0.2000 0.1796 0.0533 ( 63005 PWs)   bands (ev):

   -17.8678 -17.8677 -17.8676 -17.8676 -17.8659 -17.8659 -17.8657 -17.8657
   -17.8559 -17.8559 -17.8553 -17.8553 -17.8502 -17.8502 -17.8490 -17.8490
   -17.8445 -17.8445 -17.8434 -17.8434 -17.7787 -17.7786 -17.7785 -17.7783
    -8.7068  -8.7001  -8.5607  -8.5543  -8.4480  -8.4464  -8.3376  -8.3276
    -8.2596  -8.2535  -8.2447  -8.2349  -4.6342  -4.6302  -4.6300  -4.6241
    -4.6066  -4.6054  -4.5915  -4.5913  -4.5658  -4.5613  -4.5588  -4.5568
    -2.9902  -2.9894  -2.8922  -2.8826   0.3155   0.3408   0.4224   0.4759
     0.6105   0.6494   0.8677   0.8918   1.0030   1.0770   1.1303   1.1609
     1.4763   1.5000   1.5315   1.5737   1.6425   1.7024   1.7452   1.7782
     1.8855   1.9143   1.9490   1.9731   1.9892   2.0414   2.0804   2.1108
     2.1267   2.1477   2.2190   2.2459   2.7224   2.7350   2.8837   2.9180
     5.9057

     occupation numbers 
     1.0000   1.0000   1.0000   1.0000   1.0000   1.0000   1.0000   1.0000
     1.0000   1.0000   1.0000   1.0000   1.0000   1.0000   1.0000   1.0000
     1.0000   1.0000   1.0000   1.0000   1.0000   1.0000   1.0000   1.0000
     1.0000   1.0000   1.0000   1.0000   1.0000   1.0000   1.0000   1.0000
     1.0000   1.0000   1.0000   1.0000   1.0000   1.0000   1.0000   1.0000
     1.0000   1.0000   1.0000   1.0000   1.0000   1.0000   1.0000   1.0000
     1.0000   1.0000   1.0000   1.0000   1.0000   1.0000   1.0000   1.0000
     1.0000   1.0000   1.0000   1.0000   1.0000   1.0000   1.0000   1.0000
     1.0000   1.0000   1.0000   1.0000   1.0000   1.0000   1.0000   1.0000
     1.0000   1.0000   1.0000   1.0000   1.0000   1.0000   1.0000   1.0000
     1.0000   1.0000   1.0000   1.0000   1.0000   1.0000   1.0000   1.0000
     0.0000

          k = 0.2000 0.1796 0.1065 ( 62994 PWs)   bands (ev):

   -17.8678 -17.8678 -17.8676 -17.8676 -17.8659 -17.8659 -17.8657 -17.8657
   -17.8559 -17.8559 -17.8553 -17.8553 -17.8502 -17.8502 -17.8490 -17.8490
   -17.8445 -17.8445 -17.8434 -17.8434 -17.7787 -17.7787 -17.7784 -17.7783
    -8.7048  -8.7023  -8.5587  -8.5562  -8.4471  -8.4462  -8.3362  -8.3324
    -8.2558  -8.2521  -8.2436  -8.2387  -4.6331  -4.6316  -4.6284  -4.6262
    -4.6059  -4.6054  -4.5922  -4.5921  -4.5641  -4.5624  -4.5576  -4.5569
    -2.9897  -2.9894  -2.8896  -2.8859   0.3350   0.3573   0.4083   0.4422
     0.6295   0.6474   0.8912   0.9270   0.9557   1.0146   1.1427   1.1527
     1.4973   1.5216   1.5406   1.5685   1.6692   1.6987   1.7409   1.7810
     1.8655   1.8944   1.9673   1.9779   2.0118   2.0310   2.0813   2.0931
     2.1241   2.1338   2.2375   2.2459   2.7324   2.7384   2.8817   2.8959
     5.9183

     occupation numbers 
     1.0000   1.0000   1.0000   1.0000   1.0000   1.0000   1.0000   1.0000
     1.0000   1.0000   1.0000   1.0000   1.0000   1.0000   1.0000   1.0000
     1.0000   1.0000   1.0000   1.0000   1.0000   1.0000   1.0000   1.0000
     1.0000   1.0000   1.0000   1.0000   1.0000   1.0000   1.0000   1.0000
     1.0000   1.0000   1.0000   1.0000   1.0000   1.0000   1.0000   1.0000
     1.0000   1.0000   1.0000   1.0000   1.0000   1.0000   1.0000   1.0000
     1.0000   1.0000   1.0000   1.0000   1.0000   1.0000   1.0000   1.0000
     1.0000   1.0000   1.0000   1.0000   1.0000   1.0000   1.0000   1.0000
     1.0000   1.0000   1.0000   1.0000   1.0000   1.0000   1.0000   1.0000
     1.0000   1.0000   1.0000   1.0000   1.0000   1.0000   1.0000   1.0000
     1.0000   1.0000   1.0000   1.0000   1.0000   1.0000   1.0000   1.0000
     0.0000

          k = 0.4000 0.0000 0.0000 ( 63076 PWs)   bands (ev):

   -17.8680 -17.8680 -17.8679 -17.8679 -17.8669 -17.8669 -17.8668 -17.8668
   -17.8557 -17.8557 -17.8555 -17.8555 -17.8482 -17.8482 -17.8478 -17.8478
   -17.8445 -17.8445 -17.8441 -17.8441 -17.7725 -17.7725 -17.7719 -17.7719
    -8.5583  -8.5507  -8.4700  -8.4625  -8.3312  -8.3279  -8.3277  -8.3142
    -8.2914  -8.2798  -8.2661  -8.2590  -4.7681  -4.7664  -4.7081  -4.7053
    -4.6029  -4.6004  -4.5946  -4.5901  -4.5831  -4.5741  -4.5558  -4.5556
    -3.1950  -3.1634  -3.1303  -3.1041   0.1180   0.1386   0.1556   0.1623
     0.5509   0.5519   0.6173   0.6841   0.7166   0.8348   0.9503   1.0562
     1.2496   1.3330   1.5745   1.5943   1.6058   1.7269   1.7390   1.7854
     1.8206   1.8259   1.8328   1.8404   1.8820   1.8841   1.9480   1.9977
     2.0505   2.0948   2.1526   2.1985   2.5139   2.7134   2.8361   3.0042
     6.0432

     occupation numbers 
     1.0000   1.0000   1.0000   1.0000   1.0000   1.0000   1.0000   1.0000
     1.0000   1.0000   1.0000   1.0000   1.0000   1.0000   1.0000   1.0000
     1.0000   1.0000   1.0000   1.0000   1.0000   1.0000   1.0000   1.0000
     1.0000   1.0000   1.0000   1.0000   1.0000   1.0000   1.0000   1.0000
     1.0000   1.0000   1.0000   1.0000   1.0000   1.0000   1.0000   1.0000
     1.0000   1.0000   1.0000   1.0000   1.0000   1.0000   1.0000   1.0000
     1.0000   1.0000   1.0000   1.0000   1.0000   1.0000   1.0000   1.0000
     1.0000   1.0000   1.0000   1.0000   1.0000   1.0000   1.0000   1.0000
     1.0000   1.0000   1.0000   1.0000   1.0000   1.0000   1.0000   1.0000
     1.0000   1.0000   1.0000   1.0000   1.0000   1.0000   1.0000   1.0000
     1.0000   1.0000   1.0000   1.0000   1.0000   1.0000   1.0000   1.0000
     0.0000

          k = 0.4000 0.0000 0.0533 ( 63021 PWs)   bands (ev):

   -17.8680 -17.8679 -17.8679 -17.8679 -17.8669 -17.8669 -17.8668 -17.8668
   -17.8557 -17.8556 -17.8555 -17.8555 -17.8482 -17.8482 -17.8477 -17.8477
   -17.8445 -17.8445 -17.8441 -17.8441 -17.7725 -17.7725 -17.7719 -17.7719
    -8.5576  -8.5515  -8.4692  -8.4632  -8.3311  -8.3283  -8.3263  -8.3156
    -8.2903  -8.2809  -8.2652  -8.2595  -4.7679  -4.7666  -4.7079  -4.7056
    -4.6029  -4.6012  -4.5940  -4.5902  -4.5821  -4.5748  -4.5558  -4.5556
    -3.1923  -3.1671  -3.1271  -3.1063   0.1191   0.1332   0.1575   0.1660
     0.5585   0.5685   0.6253   0.6801   0.7006   0.8034   0.9577   1.0452
     1.2661   1.3329   1.5914   1.5972   1.6112   1.7051   1.7280   1.7866
     1.8148   1.8220   1.8348   1.8663   1.8823   1.8853   1.9383   1.9772
     2.0672   2.1109   2.1497   2.1916   2.5344   2.7022   2.8426   2.9847
     6.0618

     occupation numbers 
     1.0000   1.0000   1.0000   1.0000   1.0000   1.0000   1.0000   1.0000
     1.0000   1.0000   1.0000   1.0000   1.0000   1.0000   1.0000   1.0000
     1.0000   1.0000   1.0000   1.0000   1.0000   1.0000   1.0000   1.0000
     1.0000   1.0000   1.0000   1.0000   1.0000   1.0000   1.0000   1.0000
     1.0000   1.0000   1.0000   1.0000   1.0000   1.0000   1.0000   1.0000
     1.0000   1.0000   1.0000   1.0000   1.0000   1.0000   1.0000   1.0000
     1.0000   1.0000   1.0000   1.0000   1.0000   1.0000   1.0000   1.0000
     1.0000   1.0000   1.0000   1.0000   1.0000   1.0000   1.0000   1.0000
     1.0000   1.0000   1.0000   1.0000   1.0000   1.0000   1.0000   1.0000
     1.0000   1.0000   1.0000   1.0000   1.0000   1.0000   1.0000   1.0000
     1.0000   1.0000   1.0000   1.0000   1.0000   1.0000   1.0000   1.0000
     0.0000

          k = 0.4000 0.0000 0.1065 ( 63040 PWs)   bands (ev):

   -17.8679 -17.8679 -17.8679 -17.8679 -17.8669 -17.8669 -17.8668 -17.8668
   -17.8557 -17.8556 -17.8555 -17.8555 -17.8482 -17.8482 -17.8478 -17.8477
   -17.8445 -17.8445 -17.8441 -17.8441 -17.7725 -17.7725 -17.7719 -17.7719
    -8.5558  -8.5535  -8.4672  -8.4649  -8.3306  -8.3295  -8.3231  -8.3190
    -8.2874  -8.2839  -8.2630  -8.2608  -4.7675  -4.7670  -4.7071  -4.7063
    -4.6029  -4.6023  -4.5927  -4.5911  -4.5796  -4.5768  -4.5557  -4.5556
    -3.1852  -3.1757  -3.1200  -3.1122   0.1215   0.1258   0.1629   0.1675
     0.5804   0.5960   0.6450   0.6665   0.6852   0.7352   0.9803   1.0145
     1.2999   1.3249   1.6068   1.6141   1.6302   1.6636   1.7336   1.7815
     1.7935   1.8046   1.8608   1.8761   1.8940   1.9029   1.9171   1.9379
     2.1039   2.1350   2.1422   2.1717   2.5891   2.6562   2.8778   2.9348
     6.1043

     occupation numbers 
     1.0000   1.0000   1.0000   1.0000   1.0000   1.0000   1.0000   1.0000
     1.0000   1.0000   1.0000   1.0000   1.0000   1.0000   1.0000   1.0000
     1.0000   1.0000   1.0000   1.0000   1.0000   1.0000   1.0000   1.0000
     1.0000   1.0000   1.0000   1.0000   1.0000   1.0000   1.0000   1.0000
     1.0000   1.0000   1.0000   1.0000   1.0000   1.0000   1.0000   1.0000
     1.0000   1.0000   1.0000   1.0000   1.0000   1.0000   1.0000   1.0000
     1.0000   1.0000   1.0000   1.0000   1.0000   1.0000   1.0000   1.0000
     1.0000   1.0000   1.0000   1.0000   1.0000   1.0000   1.0000   1.0000
     1.0000   1.0000   1.0000   1.0000   1.0000   1.0000   1.0000   1.0000
     1.0000   1.0000   1.0000   1.0000   1.0000   1.0000   1.0000   1.0000
     1.0000   1.0000   1.0000   1.0000   1.0000   1.0000   1.0000   1.0000
     0.0000

          k = 0.4000 0.0898 0.0000 ( 63030 PWs)   bands (ev):

   -17.8680 -17.8680 -17.8679 -17.8679 -17.8669 -17.8669 -17.8668 -17.8668
   -17.8557 -17.8557 -17.8555 -17.8555 -17.8482 -17.8482 -17.8477 -17.8477
   -17.8445 -17.8445 -17.8441 -17.8441 -17.7725 -17.7724 -17.7720 -17.7719
    -8.5549  -8.5486  -8.4722  -8.4665  -8.3478  -8.3415  -8.3096  -8.3022
    -8.2884  -8.2779  -8.2681  -8.2610  -4.7634  -4.7600  -4.7148  -4.7107
    -4.6019  -4.5993  -4.5950  -4.5910  -4.5809  -4.5722  -4.5593  -4.5568
    -3.1877  -3.1618  -3.1319  -3.1109   0.1277   0.1393   0.2158   0.2219
     0.5207   0.5287   0.5910   0.6166   0.6941   0.7677   0.9909   1.0600
     1.2933   1.3590   1.4913   1.5977   1.6391   1.7026   1.7503   1.7617
     1.7888   1.7993   1.8028   1.8631   1.8944   1.8966   1.9569   2.0206
     2.0378   2.1083   2.1533   2.1784   2.5741   2.7996   2.8670   2.9843
     6.0406

     occupation numbers 
     1.0000   1.0000   1.0000   1.0000   1.0000   1.0000   1.0000   1.0000
     1.0000   1.0000   1.0000   1.0000   1.0000   1.0000   1.0000   1.0000
     1.0000   1.0000   1.0000   1.0000   1.0000   1.0000   1.0000   1.0000
     1.0000   1.0000   1.0000   1.0000   1.0000   1.0000   1.0000   1.0000
     1.0000   1.0000   1.0000   1.0000   1.0000   1.0000   1.0000   1.0000
     1.0000   1.0000   1.0000   1.0000   1.0000   1.0000   1.0000   1.0000
     1.0000   1.0000   1.0000   1.0000   1.0000   1.0000   1.0000   1.0000
     1.0000   1.0000   1.0000   1.0000   1.0000   1.0000   1.0000   1.0000
     1.0000   1.0000   1.0000   1.0000   1.0000   1.0000   1.0000   1.0000
     1.0000   1.0000   1.0000   1.0000   1.0000   1.0000   1.0000   1.0000
     1.0000   1.0000   1.0000   1.0000   1.0000   1.0000   1.0000   1.0000
     0.0000

          k = 0.4000 0.0898 0.0533 ( 63042 PWs)   bands (ev):

   -17.8680 -17.8680 -17.8679 -17.8679 -17.8669 -17.8669 -17.8668 -17.8668
   -17.8557 -17.8557 -17.8555 -17.8555 -17.8482 -17.8482 -17.8478 -17.8478
   -17.8445 -17.8445 -17.8441 -17.8441 -17.7725 -17.7724 -17.7720 -17.7719
    -8.5544  -8.5492  -8.4716  -8.4670  -8.3473  -8.3422  -8.3090  -8.3031
    -8.2874  -8.2789  -8.2672  -8.2615  -4.7631  -4.7604  -4.7144  -4.7110
    -4.6019  -4.6001  -4.5945  -4.5912  -4.5799  -4.5729  -4.5591  -4.5570
    -3.1855  -3.1648  -3.1293  -3.1126   0.1292   0.1385   0.2149   0.2209
     0.5204   0.5402   0.5962   0.6160   0.6890   0.7664   0.9842   1.0406
     1.3019   1.3602   1.5058   1.5794   1.6553   1.6966   1.7255   1.7816
     1.7889   1.8006   1.8191   1.8621   1.8941   1.9022   1.9447   2.0172
     2.0327   2.1117   2.1547   2.1783   2.5949   2.7790   2.8774   2.9733
     6.0533

     occupation numbers 
     1.0000   1.0000   1.0000   1.0000   1.0000   1.0000   1.0000   1.0000
     1.0000   1.0000   1.0000   1.0000   1.0000   1.0000   1.0000   1.0000
     1.0000   1.0000   1.0000   1.0000   1.0000   1.0000   1.0000   1.0000
     1.0000   1.0000   1.0000   1.0000   1.0000   1.0000   1.0000   1.0000
     1.0000   1.0000   1.0000   1.0000   1.0000   1.0000   1.0000   1.0000
     1.0000   1.0000   1.0000   1.0000   1.0000   1.0000   1.0000   1.0000
     1.0000   1.0000   1.0000   1.0000   1.0000   1.0000   1.0000   1.0000
     1.0000   1.0000   1.0000   1.0000   1.0000   1.0000   1.0000   1.0000
     1.0000   1.0000   1.0000   1.0000   1.0000   1.0000   1.0000   1.0000
     1.0000   1.0000   1.0000   1.0000   1.0000   1.0000   1.0000   1.0000
     1.0000   1.0000   1.0000   1.0000   1.0000   1.0000   1.0000   1.0000
     0.0000

          k = 0.4000 0.0898 0.1065 ( 63025 PWs)   bands (ev):

   -17.8680 -17.8680 -17.8679 -17.8679 -17.8669 -17.8669 -17.8668 -17.8668
   -17.8557 -17.8557 -17.8555 -17.8555 -17.8482 -17.8482 -17.8478 -17.8477
   -17.8445 -17.8445 -17.8441 -17.8441 -17.7725 -17.7724 -17.7720 -17.7719
    -8.5529  -8.5509  -8.4701  -8.4683  -8.3457  -8.3438  -8.3074  -8.3052
    -8.2848  -8.2816  -8.2650  -8.2629  -4.7622  -4.7612  -4.7133  -4.7120
    -4.6019  -4.6012  -4.5932  -4.5920  -4.5776  -4.5749  -4.5583  -4.5576
    -3.1796  -3.1718  -3.1236  -3.1174   0.1326   0.1361   0.2150   0.2179
     0.5310   0.5447   0.6033   0.6127   0.7053   0.7448   0.9817   1.0042
     1.3239   1.3489   1.5378   1.5601   1.6586   1.6788   1.7420   1.7796
     1.7944   1.8064   1.8257   1.8461   1.9066   1.9209   1.9346   1.9762
     2.0606   2.0943   2.1663   2.1762   2.6511   2.7221   2.9071   2.9441
     6.0873

     occupation numbers 
     1.0000   1.0000   1.0000   1.0000   1.0000   1.0000   1.0000   1.0000
     1.0000   1.0000   1.0000   1.0000   1.0000   1.0000   1.0000   1.0000
     1.0000   1.0000   1.0000   1.0000   1.0000   1.0000   1.0000   1.0000
     1.0000   1.0000   1.0000   1.0000   1.0000   1.0000   1.0000   1.0000
     1.0000   1.0000   1.0000   1.0000   1.0000   1.0000   1.0000   1.0000
     1.0000   1.0000   1.0000   1.0000   1.0000   1.0000   1.0000   1.0000
     1.0000   1.0000   1.0000   1.0000   1.0000   1.0000   1.0000   1.0000
     1.0000   1.0000   1.0000   1.0000   1.0000   1.0000   1.0000   1.0000
     1.0000   1.0000   1.0000   1.0000   1.0000   1.0000   1.0000   1.0000
     1.0000   1.0000   1.0000   1.0000   1.0000   1.0000   1.0000   1.0000
     1.0000   1.0000   1.0000   1.0000   1.0000   1.0000   1.0000   1.0000
     0.0000

          k = 0.4000 0.1796 0.0000 ( 63033 PWs)   bands (ev):

   -17.8680 -17.8680 -17.8679 -17.8679 -17.8669 -17.8669 -17.8668 -17.8668
   -17.8557 -17.8557 -17.8555 -17.8555 -17.8482 -17.8482 -17.8478 -17.8478
   -17.8445 -17.8445 -17.8441 -17.8441 -17.7723 -17.7723 -17.7721 -17.7721
    -8.5481  -8.5455  -8.4761  -8.4741  -8.3569  -8.3543  -8.2965  -8.2944
    -8.2805  -8.2733  -8.2727  -8.2662  -4.7495  -4.7444  -4.7309  -4.7256
    -4.5994  -4.5967  -4.5966  -4.5935  -4.5747  -4.5675  -4.5665  -4.5616
    -3.1706  -3.1603  -3.1340  -3.1264   0.1919   0.2015   0.2745   0.2770
     0.4705   0.4778   0.5180   0.5385   0.6865   0.6981   0.9971   1.0256
     1.3946   1.4167   1.4265   1.5532   1.6137   1.6720   1.7105   1.7318
     1.7928   1.7949   1.8156   1.8402   1.9064   1.9082   1.9617   2.0044
     2.0788   2.1249   2.1524   2.1743   2.7296   2.8720   2.9087   2.9416
     6.0256

     occupation numbers 
     1.0000   1.0000   1.0000   1.0000   1.0000   1.0000   1.0000   1.0000
     1.0000   1.0000   1.0000   1.0000   1.0000   1.0000   1.0000   1.0000
     1.0000   1.0000   1.0000   1.0000   1.0000   1.0000   1.0000   1.0000
     1.0000   1.0000   1.0000   1.0000   1.0000   1.0000   1.0000   1.0000
     1.0000   1.0000   1.0000   1.0000   1.0000   1.0000   1.0000   1.0000
     1.0000   1.0000   1.0000   1.0000   1.0000   1.0000   1.0000   1.0000
     1.0000   1.0000   1.0000   1.0000   1.0000   1.0000   1.0000   1.0000
     1.0000   1.0000   1.0000   1.0000   1.0000   1.0000   1.0000   1.0000
     1.0000   1.0000   1.0000   1.0000   1.0000   1.0000   1.0000   1.0000
     1.0000   1.0000   1.0000   1.0000   1.0000   1.0000   1.0000   1.0000
     1.0000   1.0000   1.0000   1.0000   1.0000   1.0000   1.0000   1.0000
     0.0000

          k = 0.4000 0.1796 0.0533 ( 63049 PWs)   bands (ev):

   -17.8680 -17.8680 -17.8679 -17.8679 -17.8669 -17.8669 -17.8668 -17.8668
   -17.8557 -17.8557 -17.8555 -17.8555 -17.8482 -17.8482 -17.8478 -17.8478
   -17.8445 -17.8445 -17.8441 -17.8441 -17.7723 -17.7723 -17.7721 -17.7721
    -8.5478  -8.5457  -8.4759  -8.4743  -8.3567  -8.3546  -8.2964  -8.2947
    -8.2798  -8.2736  -8.2723  -8.2667  -4.7490  -4.7449  -4.7303  -4.7261
    -4.5994  -4.5977  -4.5957  -4.5937  -4.5740  -4.5683  -4.5658  -4.5619
    -3.1696  -3.1614  -3.1332  -3.1271   0.1922   0.2008   0.2722   0.2745
     0.4704   0.4776   0.5209   0.5381   0.6934   0.7065   0.9952   1.0223
     1.3639   1.3819   1.4789   1.5309   1.6345   1.6696   1.7167   1.7487
     1.7874   1.7959   1.8213   1.8242   1.9060   1.9172   1.9592   2.0099
     2.0698   2.1198   2.1516   2.1756   2.7451   2.8652   2.9082   2.9375
     6.0366

     occupation numbers 
     1.0000   1.0000   1.0000   1.0000   1.0000   1.0000   1.0000   1.0000
     1.0000   1.0000   1.0000   1.0000   1.0000   1.0000   1.0000   1.0000
     1.0000   1.0000   1.0000   1.0000   1.0000   1.0000   1.0000   1.0000
     1.0000   1.0000   1.0000   1.0000   1.0000   1.0000   1.0000   1.0000
     1.0000   1.0000   1.0000   1.0000   1.0000   1.0000   1.0000   1.0000
     1.0000   1.0000   1.0000   1.0000   1.0000   1.0000   1.0000   1.0000
     1.0000   1.0000   1.0000   1.0000   1.0000   1.0000   1.0000   1.0000
     1.0000   1.0000   1.0000   1.0000   1.0000   1.0000   1.0000   1.0000
     1.0000   1.0000   1.0000   1.0000   1.0000   1.0000   1.0000   1.0000
     1.0000   1.0000   1.0000   1.0000   1.0000   1.0000   1.0000   1.0000
     1.0000   1.0000   1.0000   1.0000   1.0000   1.0000   1.0000   1.0000
     0.0000

          k = 0.4000 0.1796 0.1065 ( 63035 PWs)   bands (ev):

   -17.8680 -17.8680 -17.8679 -17.8679 -17.8669 -17.8669 -17.8668 -17.8668
   -17.8557 -17.8557 -17.8555 -17.8555 -17.8482 -17.8482 -17.8478 -17.8477
   -17.8445 -17.8445 -17.8441 -17.8441 -17.7723 -17.7723 -17.7721 -17.7721
    -8.5472  -8.5464  -8.4754  -8.4748  -8.3560  -8.3553  -8.2961  -8.2954
    -8.2779  -8.2755  -8.2704  -8.2683  -4.7478  -4.7462  -4.7290  -4.7274
    -4.5992  -4.5987  -4.5949  -4.5942  -4.5721  -4.5700  -4.5645  -4.5630
    -3.1672  -3.1641  -3.1312  -3.1289   0.1943   0.1981   0.2690   0.2701
     0.4721   0.4753   0.5285   0.5353   0.7092   0.7156   0.9977   1.0102
     1.3415   1.3493   1.5065   1.5106   1.6621   1.6788   1.7245   1.7532
     1.7861   1.7980   1.8096   1.8215   1.9151   1.9237   1.9651   1.9947
     2.0761   2.0997   2.1594   2.1705   2.7854   2.8332   2.9161   2.9281
     6.0669

     occupation numbers 
     1.0000   1.0000   1.0000   1.0000   1.0000   1.0000   1.0000   1.0000
     1.0000   1.0000   1.0000   1.0000   1.0000   1.0000   1.0000   1.0000
     1.0000   1.0000   1.0000   1.0000   1.0000   1.0000   1.0000   1.0000
     1.0000   1.0000   1.0000   1.0000   1.0000   1.0000   1.0000   1.0000
     1.0000   1.0000   1.0000   1.0000   1.0000   1.0000   1.0000   1.0000
     1.0000   1.0000   1.0000   1.0000   1.0000   1.0000   1.0000   1.0000
     1.0000   1.0000   1.0000   1.0000   1.0000   1.0000   1.0000   1.0000
     1.0000   1.0000   1.0000   1.0000   1.0000   1.0000   1.0000   1.0000
     1.0000   1.0000   1.0000   1.0000   1.0000   1.0000   1.0000   1.0000
     1.0000   1.0000   1.0000   1.0000   1.0000   1.0000   1.0000   1.0000
     1.0000   1.0000   1.0000   1.0000   1.0000   1.0000   1.0000   1.0000
     0.0000

     the Fermi energy is     3.0571 ev
     (compare with:     3.0571 eV, computed in scf)

     Writing output data file ./out1/CsSnI3.save/

     init_run     :      8.31s CPU      8.54s WALL (       1 calls)
     electrons    :   4803.72s CPU   4822.42s WALL (       1 calls)

     Called by init_run:
     wfcinit      :      0.00s CPU      0.05s WALL (       1 calls)
     wfcinit:atom :      0.04s CPU      0.06s WALL (      27 calls)
     wfcinit:wfcr :    114.77s CPU    115.14s WALL (      27 calls)
     potinit      :      1.24s CPU      1.33s WALL (       1 calls)
     hinit0       :      3.54s CPU      3.56s WALL (       1 calls)

     Called by electrons:
     c_bands      :   4803.63s CPU   4822.30s WALL (       1 calls)
     v_of_rho     :      0.27s CPU      0.28s WALL (       1 calls)
     v_h          :      0.03s CPU      0.03s WALL (       1 calls)
     v_xc         :      0.25s CPU      0.26s WALL (       1 calls)
     newd         :      1.66s CPU      1.70s WALL (       1 calls)
     PAW_pot      :      0.78s CPU      0.81s WALL (       1 calls)

     Called by c_bands:
     init_us_2    :      0.15s CPU      0.18s WALL (      27 calls)
     cegterg      :   4683.22s CPU   4701.24s WALL (     162 calls)

     Called by sum_band:

     Called by *egterg:
     cdiaghg      :     93.99s CPU     95.56s WALL (    3267 calls)
     cegterg:over :   1542.16s CPU   1543.54s WALL (    3240 calls)
     cegterg:upda :     21.61s CPU     21.65s WALL (    3240 calls)
     cegterg:last :     82.96s CPU     83.07s WALL (    1042 calls)
     h_psi        :   2029.25s CPU   2043.61s WALL (    3429 calls)
     s_psi        :    181.97s CPU    182.31s WALL (    3429 calls)
     g_psi        :      0.32s CPU      0.32s WALL (    3240 calls)

     Called by h_psi:
     h_psi:calbec :    982.65s CPU    991.99s WALL (    3429 calls)
     vloc_psi     :    860.27s CPU    864.98s WALL (    3429 calls)
     add_vuspsi   :    185.52s CPU    185.85s WALL (    3429 calls)

     General routines
     calbec       :    982.61s CPU    991.96s WALL (    3429 calls)
     fft          :      1.37s CPU      1.39s WALL (      12 calls)
     fftw         :    853.76s CPU    858.45s WALL (  195642 calls)
     davcio       :      0.01s CPU      0.80s WALL (      54 calls)

     Parallel routines
     fft_scatt_xy :      8.90s CPU      8.94s WALL (  195654 calls)
     fft_scatt_yz :    770.80s CPU    774.92s WALL (  195654 calls)

     PAW routines
     PAW_pot      :      0.78s CPU      0.81s WALL (       1 calls)

     PWSCF        :      1h20m CPU      1h21m WALL


   This run was terminated on:  19:45:55  15Jan2021            

=------------------------------------------------------------------------------=
   JOB DONE.
=------------------------------------------------------------------------------=
