
     Program PWSCF v.6.7MaX starts on 15Jan2021 at 18: 1:54 

     This program is part of the open-source Quantum ESPRESSO suite
     for quantum simulation of materials; please cite
         "P. Giannozzi et al., J. Phys.:Condens. Matter 21 395502 (2009);
         "P. Giannozzi et al., J. Phys.:Condens. Matter 29 465901 (2017);
          URL http://www.quantum-espresso.org", 
     in publications or presentations arising from this work. More details at
     http://www.quantum-espresso.org/quote

     Parallel version (MPI), running on   128 processors

     MPI processes distributed on     4 nodes
     R & G space division:  proc/nbgrp/npool/nimage =     128
     Waiting for input...
     Reading input from standard input

     Current dimensions of program PWSCF are:
     Max number of different atomic species (ntypx) = 10
     Max number of k-points (npk) =  40000
     Max angular momentum in pseudopotentials (lmaxx) =  3
     file Sn.pbe-dn-kjpaw_psl.1.0.0.UPF: wavefunction(s)  5S 5P 4D renormalized
     file I.pbe-n-kjpaw_psl.1.0.0.UPF: wavefunction(s)  5S renormalized
     file Cs.pbe-spn-kjpaw_psl.1.0.0.UPF: wavefunction(s)  5S 6S renormalized

     Subspace diagonalization in iterative solution of the eigenvalue problem:
     a serial algorithm will be used

     Message from routine setup:
     using ibrav=0 with symmetry is DISCOURAGED, use correct ibrav instead

     Parallelization info
     --------------------
     sticks:   dense  smooth     PW     G-vecs:    dense   smooth      PW
     Min          32      32      8                 3932     3932     538
     Max          33      33      9                 3949     3949     561
     Sum        4145    4145   1113               504115   504115   70311


     Title: 
     CsSnI3                                                                     


     bravais-lattice index     =            0
     lattice parameter (alat)  =       9.1317  a.u.
     unit-cell volume          =    6370.5385 (a.u.)^3
     number of atoms/cell      =           20
     number of atomic types    =            3
     number of electrons       =       176.00
     number of Kohn-Sham states=           89
     kinetic-energy cutoff     =      70.0000  Ry
     charge density cutoff     =     280.0000  Ry
     scf convergence threshold =      1.0E-07
     mixing beta               =       0.5000
     number of iterations used =            8  plain     mixing
     Exchange-correlation= SLA  PW   PBX  PBC
                           (   1   4   3   4   0   0   0)

     celldm(1)=   9.131705  celldm(2)=   0.000000  celldm(3)=   0.000000
     celldm(4)=   0.000000  celldm(5)=   0.000000  celldm(6)=   0.000000

     crystal axes: (cart. coord. in units of alat)
               a(1) = (   1.000000   0.000000   0.000000 )  
               a(2) = (   0.000000   2.227728   0.000000 )  
               a(3) = (   0.000000   0.000000   3.755420 )  

     reciprocal axes: (cart. coord. in units 2 pi/alat)
               b(1) = (  1.000000  0.000000  0.000000 )  
               b(2) = (  0.000000  0.448888  0.000000 )  
               b(3) = (  0.000000  0.000000  0.266282 )  


     PseudoPot. # 1 for Sn read from file:
     ../../pseudo/Sn.pbe-dn-kjpaw_psl.1.0.0.UPF
     MD5 check sum: 67f11dec737d427557dc41ea34975807
     Pseudo is Projector augmented-wave + core cor, Zval = 14.0
     Generated using &quot;atomic&quot; code by A. Dal Corso  v.6.3
     Shape of augmentation charge: PSQ
     Using radial grid of 1243 points,  6 beta functions with: 
                l(1) =   0
                l(2) =   0
                l(3) =   1
                l(4) =   1
                l(5) =   2
                l(6) =   2
     Q(r) pseudized with 0 coefficients 


     PseudoPot. # 2 for I  read from file:
     ../../pseudo/I.pbe-n-kjpaw_psl.1.0.0.UPF
     MD5 check sum: cd3d296c3308a581e1559a0c8a554cb5
     Pseudo is Projector augmented-wave + core cor, Zval =  7.0
     Generated using &quot;atomic&quot; code by A. Dal Corso  v.6.3
     Shape of augmentation charge: PSQ
     Using radial grid of 1247 points,  6 beta functions with: 
                l(1) =   0
                l(2) =   0
                l(3) =   1
                l(4) =   1
                l(5) =   2
                l(6) =   2
     Q(r) pseudized with 0 coefficients 


     PseudoPot. # 3 for Cs read from file:
     ../../pseudo/Cs.pbe-spn-kjpaw_psl.1.0.0.UPF
     MD5 check sum: b82c75cc2e1f4ff73b6412cffeb9c584
     Pseudo is Projector augmented-wave + core cor, Zval =  9.0
     Generated using &quot;atomic&quot; code by A. Dal Corso  v.6.4.1
     Shape of augmentation charge: PSQ
     Using radial grid of 1251 points,  9 beta functions with: 
                l(1) =   0
                l(2) =   0
                l(3) =   0
                l(4) =   1
                l(5) =   1
                l(6) =   2
                l(7) =   2
                l(8) =   3
                l(9) =   3
     Q(r) pseudized with 0 coefficients 


     atomic species   valence    mass     pseudopotential
        Sn            14.00   118.70000     Sn( 1.00)
        I              7.00   126.90000     I ( 1.00)
        Cs             9.00   132.90000     Cs( 1.00)

      8 Sym. Ops., with inversion, found ( 6 have fractional translation)


                                    s                        frac. trans.

      isym =  1     identity                                     

 cryst.   s( 1) = (     1          0          0      )
                  (     0          1          0      )
                  (     0          0          1      )

 cart.    s( 1) = (  1.0000000  0.0000000  0.0000000 )
                  (  0.0000000  1.0000000  0.0000000 )
                  (  0.0000000  0.0000000  1.0000000 )


      isym =  2     180 deg rotation - cart. axis [0,0,1]        

 cryst.   s( 2) = (    -1          0          0      )    f =(  0.0000000 )
                  (     0         -1          0      )       (  0.5000000 )
                  (     0          0          1      )       (  0.5000000 )

 cart.    s( 2) = ( -1.0000000  0.0000000  0.0000000 )    f =(  0.0000000 )
                  (  0.0000000 -1.0000000  0.0000000 )       (  1.1138638 )
                  (  0.0000000  0.0000000  1.0000000 )       (  1.8777098 )


      isym =  3     180 deg rotation - cart. axis [0,1,0]        

 cryst.   s( 3) = (    -1          0          0      )    f =(  0.5000000 )
                  (     0          1          0      )       ( -0.5000000 )
                  (     0          0         -1      )       ( -0.5000000 )

 cart.    s( 3) = ( -1.0000000  0.0000000  0.0000000 )    f =(  0.5000000 )
                  (  0.0000000  1.0000000  0.0000000 )       ( -1.1138638 )
                  (  0.0000000  0.0000000 -1.0000000 )       ( -1.8777098 )


      isym =  4     180 deg rotation - cart. axis [1,0,0]        

 cryst.   s( 4) = (     1          0          0      )    f =( -0.5000000 )
                  (     0         -1          0      )       (  0.0000000 )
                  (     0          0         -1      )       (  0.0000000 )

 cart.    s( 4) = (  1.0000000  0.0000000  0.0000000 )    f =( -0.5000000 )
                  (  0.0000000 -1.0000000  0.0000000 )       (  0.0000000 )
                  (  0.0000000  0.0000000 -1.0000000 )       (  0.0000000 )


      isym =  5     inversion                                    

 cryst.   s( 5) = (    -1          0          0      )
                  (     0         -1          0      )
                  (     0          0         -1      )

 cart.    s( 5) = ( -1.0000000  0.0000000  0.0000000 )
                  (  0.0000000 -1.0000000  0.0000000 )
                  (  0.0000000  0.0000000 -1.0000000 )


      isym =  6     inv. 180 deg rotation - cart. axis [0,0,1]   

 cryst.   s( 6) = (     1          0          0      )    f =(  0.0000000 )
                  (     0          1          0      )       ( -0.5000000 )
                  (     0          0         -1      )       ( -0.5000000 )

 cart.    s( 6) = (  1.0000000  0.0000000  0.0000000 )    f =(  0.0000000 )
                  (  0.0000000  1.0000000  0.0000000 )       ( -1.1138638 )
                  (  0.0000000  0.0000000 -1.0000000 )       ( -1.8777098 )


      isym =  7     inv. 180 deg rotation - cart. axis [0,1,0]   

 cryst.   s( 7) = (     1          0          0      )    f =( -0.5000000 )
                  (     0         -1          0      )       (  0.5000000 )
                  (     0          0          1      )       (  0.5000000 )

 cart.    s( 7) = (  1.0000000  0.0000000  0.0000000 )    f =( -0.5000000 )
                  (  0.0000000 -1.0000000  0.0000000 )       (  1.1138638 )
                  (  0.0000000  0.0000000  1.0000000 )       (  1.8777098 )


      isym =  8     inv. 180 deg rotation - cart. axis [1,0,0]   

 cryst.   s( 8) = (    -1          0          0      )    f =(  0.5000000 )
                  (     0          1          0      )       (  0.0000000 )
                  (     0          0          1      )       (  0.0000000 )

 cart.    s( 8) = ( -1.0000000  0.0000000  0.0000000 )    f =(  0.5000000 )
                  (  0.0000000  1.0000000  0.0000000 )       (  0.0000000 )
                  (  0.0000000  0.0000000  1.0000000 )       (  0.0000000 )


   Cartesian axes

     site n.     atom                  positions (alat units)
         1           Cs  tau(   1) = (   0.2500000   0.1859640   2.5168147  )
         2           Cs  tau(   2) = (   0.7500000   2.0417636   1.2386050  )
         3           Cs  tau(   3) = (   0.2500000   1.2998278   3.1163149  )
         4           Cs  tau(   4) = (   0.7500000   0.9278998   0.6391048  )
         5           Sn  tau(   5) = (   0.2500000   0.7615710   1.6485466  )
         6           Sn  tau(   6) = (   0.7500000   1.4661567   2.1068731  )
         7           Sn  tau(   7) = (   0.2500000   1.8754348   0.2291632  )
         8           Sn  tau(   8) = (   0.7500000   0.3522928   3.5262565  )
         9           I   tau(   9) = (   0.7500000   0.0581437   0.4202578  )
        10           I   tau(  10) = (   0.2500000   2.1695839   3.3351619  )
        11           I   tau(  11) = (   0.7500000   1.1720075   1.4574521  )
        12           I   tau(  12) = (   0.2500000   1.0557201   2.2979676  )
        13           I   tau(  13) = (   0.7500000   0.6531118   2.9738192  )
        14           I   tau(  14) = (   0.2500000   1.5746158   0.7816005  )
        15           I   tau(  15) = (   0.7500000   1.7669756   2.6593103  )
        16           I   tau(  16) = (   0.2500000   0.4607520   1.0961094  )
        17           I   tau(  17) = (   0.7500000   0.3753632   1.8734812  )
        18           I   tau(  18) = (   0.2500000   1.8523644   1.8819384  )
        19           I   tau(  19) = (   0.7500000   1.4892270   0.0042286  )
        20           I   tau(  20) = (   0.2500000   0.7385006   3.7511911  )

   Crystallographic axes

     site n.     atom                  positions (cryst. coord.)
         1           Cs  tau(   1) = (  0.2500000  0.0834770  0.6701820  )
         2           Cs  tau(   2) = (  0.7500000  0.9165230  0.3298180  )
         3           Cs  tau(   3) = (  0.2500000  0.5834770  0.8298180  )
         4           Cs  tau(   4) = (  0.7500000  0.4165230  0.1701820  )
         5           Sn  tau(   5) = (  0.2500000  0.3418600  0.4389780  )
         6           Sn  tau(   6) = (  0.7500000  0.6581400  0.5610220  )
         7           Sn  tau(   7) = (  0.2500000  0.8418600  0.0610220  )
         8           Sn  tau(   8) = (  0.7500000  0.1581400  0.9389780  )
         9           I   tau(   9) = (  0.7500000  0.0261000  0.1119070  )
        10           I   tau(  10) = (  0.2500000  0.9739000  0.8880930  )
        11           I   tau(  11) = (  0.7500000  0.5261000  0.3880930  )
        12           I   tau(  12) = (  0.2500000  0.4739000  0.6119070  )
        13           I   tau(  13) = (  0.7500000  0.2931740  0.7918740  )
        14           I   tau(  14) = (  0.2500000  0.7068260  0.2081260  )
        15           I   tau(  15) = (  0.7500000  0.7931740  0.7081260  )
        16           I   tau(  16) = (  0.2500000  0.2068260  0.2918740  )
        17           I   tau(  17) = (  0.7500000  0.1684960  0.4988740  )
        18           I   tau(  18) = (  0.2500000  0.8315040  0.5011260  )
        19           I   tau(  19) = (  0.7500000  0.6684960  0.0011260  )
        20           I   tau(  20) = (  0.2500000  0.3315040  0.9988740  )

     number of k points=    27
                       cart. coord. in units 2pi/alat
        k(    1) = (   0.0000000   0.0000000   0.0000000), wk =   0.0160000
        k(    2) = (   0.0000000   0.0000000   0.0532564), wk =   0.0320000
        k(    3) = (   0.0000000   0.0000000   0.1065127), wk =   0.0320000
        k(    4) = (   0.0000000   0.0897776   0.0000000), wk =   0.0320000
        k(    5) = (   0.0000000   0.0897776   0.0532564), wk =   0.0640000
        k(    6) = (   0.0000000   0.0897776   0.1065127), wk =   0.0640000
        k(    7) = (   0.0000000   0.1795552   0.0000000), wk =   0.0320000
        k(    8) = (   0.0000000   0.1795552   0.0532564), wk =   0.0640000
        k(    9) = (   0.0000000   0.1795552   0.1065127), wk =   0.0640000
        k(   10) = (   0.2000000   0.0000000   0.0000000), wk =   0.0320000
        k(   11) = (   0.2000000   0.0000000   0.0532564), wk =   0.0640000
        k(   12) = (   0.2000000   0.0000000   0.1065127), wk =   0.0640000
        k(   13) = (   0.2000000   0.0897776   0.0000000), wk =   0.0640000
        k(   14) = (   0.2000000   0.0897776   0.0532564), wk =   0.1280000
        k(   15) = (   0.2000000   0.0897776   0.1065127), wk =   0.1280000
        k(   16) = (   0.2000000   0.1795552   0.0000000), wk =   0.0640000
        k(   17) = (   0.2000000   0.1795552   0.0532564), wk =   0.1280000
        k(   18) = (   0.2000000   0.1795552   0.1065127), wk =   0.1280000
        k(   19) = (   0.4000000   0.0000000   0.0000000), wk =   0.0320000
        k(   20) = (   0.4000000   0.0000000   0.0532564), wk =   0.0640000
        k(   21) = (   0.4000000   0.0000000   0.1065127), wk =   0.0640000
        k(   22) = (   0.4000000   0.0897776   0.0000000), wk =   0.0640000
        k(   23) = (   0.4000000   0.0897776   0.0532564), wk =   0.1280000
        k(   24) = (   0.4000000   0.0897776   0.1065127), wk =   0.1280000
        k(   25) = (   0.4000000   0.1795552   0.0000000), wk =   0.0640000
        k(   26) = (   0.4000000   0.1795552   0.0532564), wk =   0.1280000
        k(   27) = (   0.4000000   0.1795552   0.1065127), wk =   0.1280000

                       cryst. coord.
        k(    1) = (   0.0000000   0.0000000   0.0000000), wk =   0.0160000
        k(    2) = (   0.0000000   0.0000000   0.2000000), wk =   0.0320000
        k(    3) = (   0.0000000   0.0000000   0.4000000), wk =   0.0320000
        k(    4) = (   0.0000000   0.2000000   0.0000000), wk =   0.0320000
        k(    5) = (   0.0000000   0.2000000   0.2000000), wk =   0.0640000
        k(    6) = (   0.0000000   0.2000000   0.4000000), wk =   0.0640000
        k(    7) = (   0.0000000   0.4000000   0.0000000), wk =   0.0320000
        k(    8) = (   0.0000000   0.4000000   0.2000000), wk =   0.0640000
        k(    9) = (   0.0000000   0.4000000   0.4000000), wk =   0.0640000
        k(   10) = (   0.2000000   0.0000000   0.0000000), wk =   0.0320000
        k(   11) = (   0.2000000   0.0000000   0.2000000), wk =   0.0640000
        k(   12) = (   0.2000000   0.0000000   0.4000000), wk =   0.0640000
        k(   13) = (   0.2000000   0.2000000   0.0000000), wk =   0.0640000
        k(   14) = (   0.2000000   0.2000000   0.2000000), wk =   0.1280000
        k(   15) = (   0.2000000   0.2000000   0.4000000), wk =   0.1280000
        k(   16) = (   0.2000000   0.4000000   0.0000000), wk =   0.0640000
        k(   17) = (   0.2000000   0.4000000   0.2000000), wk =   0.1280000
        k(   18) = (   0.2000000   0.4000000   0.4000000), wk =   0.1280000
        k(   19) = (   0.4000000   0.0000000   0.0000000), wk =   0.0320000
        k(   20) = (   0.4000000   0.0000000   0.2000000), wk =   0.0640000
        k(   21) = (   0.4000000   0.0000000   0.4000000), wk =   0.0640000
        k(   22) = (   0.4000000   0.2000000   0.0000000), wk =   0.0640000
        k(   23) = (   0.4000000   0.2000000   0.2000000), wk =   0.1280000
        k(   24) = (   0.4000000   0.2000000   0.4000000), wk =   0.1280000
        k(   25) = (   0.4000000   0.4000000   0.0000000), wk =   0.0640000
        k(   26) = (   0.4000000   0.4000000   0.2000000), wk =   0.1280000
        k(   27) = (   0.4000000   0.4000000   0.4000000), wk =   0.1280000

     Dense  grid:   504115 G-vectors     FFT dimensions: (  50, 120, 192)

     Dynamical RAM for                 wfc:       0.67 MB

     Dynamical RAM for     wfc (w. buffer):      18.71 MB

     Dynamical RAM for           str. fact:       0.18 MB

     Dynamical RAM for           local pot:       0.00 MB

     Dynamical RAM for          nlocal pot:       3.15 MB

     Dynamical RAM for                qrad:      12.09 MB

     Dynamical RAM for          rho,v,vnew:       0.46 MB

     Dynamical RAM for               rhoin:       0.15 MB

     Dynamical RAM for            rho*nmix:       0.96 MB

     Dynamical RAM for           G-vectors:       0.26 MB

     Dynamical RAM for          h,s,v(r/c):       1.45 MB

     Dynamical RAM for          <psi|beta>:       0.57 MB

     Dynamical RAM for                 psi:       1.34 MB

     Dynamical RAM for                hpsi:       1.34 MB

     Dynamical RAM for                spsi:       1.34 MB

     Dynamical RAM for      wfcinit/wfcrot:       1.81 MB

     Dynamical RAM for           addusdens:      36.15 MB

     Dynamical RAM for          addusforce:      37.66 MB

     Dynamical RAM for         addusstress:      37.06 MB

     Estimated static dynamical RAM per process >      36.66 MB

     Estimated max dynamical RAM per process >      74.32 MB

     Estimated total dynamical RAM >       9.29 GB

     Initial potential from superposition of free atoms

     starting charge  175.83511, renormalised to  176.00000
     Starting wfcs are  104 randomized atomic wfcs
     Checking if some PAW data can be deallocated... 
       PAW data deallocated on  100 nodes for type:  1
       PAW data deallocated on   56 nodes for type:  2
       PAW data deallocated on  100 nodes for type:  3

     total cpu time spent up to now is       31.6 secs

     Self-consistent Calculation

     iteration #  1     ecut=    70.00 Ry     beta= 0.50
     Davidson diagonalization with overlap
     ethr =  1.00E-02,  avg # of iterations =  2.0

     Threshold (ethr) on eigenvalues was too large:
     Diagonalizing with lowered threshold

     Davidson diagonalization with overlap
     ethr =  3.13E-04,  avg # of iterations =  3.9

     total cpu time spent up to now is      180.2 secs

     total energy              =   -7979.50093902 Ry
     estimated scf accuracy    <       0.44524798 Ry

     iteration #  2     ecut=    70.00 Ry     beta= 0.50
     Davidson diagonalization with overlap
     ethr =  2.53E-04,  avg # of iterations =  4.0

     total cpu time spent up to now is      260.1 secs

     total energy              =   -7979.63550278 Ry
     estimated scf accuracy    <       0.11182976 Ry

     iteration #  3     ecut=    70.00 Ry     beta= 0.50
     Davidson diagonalization with overlap
     ethr =  6.35E-05,  avg # of iterations =  3.1

     total cpu time spent up to now is      331.5 secs

     total energy              =   -7979.65475920 Ry
     estimated scf accuracy    <       0.00998050 Ry

     iteration #  4     ecut=    70.00 Ry     beta= 0.50
     Davidson diagonalization with overlap
     ethr =  5.67E-06,  avg # of iterations =  9.9

     total cpu time spent up to now is      446.0 secs

     total energy              =   -7979.66160680 Ry
     estimated scf accuracy    <       0.00912246 Ry

     iteration #  5     ecut=    70.00 Ry     beta= 0.50
     Davidson diagonalization with overlap
     ethr =  5.18E-06,  avg # of iterations =  5.3

     total cpu time spent up to now is      525.7 secs

     total energy              =   -7979.66426322 Ry
     estimated scf accuracy    <       0.00094807 Ry

     iteration #  6     ecut=    70.00 Ry     beta= 0.50
     Davidson diagonalization with overlap
     c_bands:  1 eigenvalues not converged
     ethr =  5.39E-07,  avg # of iterations =  7.9

     total cpu time spent up to now is      614.9 secs

     total energy              =   -7979.66429244 Ry
     estimated scf accuracy    <       0.00052218 Ry

     iteration #  7     ecut=    70.00 Ry     beta= 0.50
     Davidson diagonalization with overlap
     ethr =  2.97E-07,  avg # of iterations =  4.5

     total cpu time spent up to now is      690.8 secs

     total energy              =   -7979.66445977 Ry
     estimated scf accuracy    <       0.00006694 Ry

     iteration #  8     ecut=    70.00 Ry     beta= 0.50
     Davidson diagonalization with overlap
     ethr =  3.80E-08,  avg # of iterations =  4.4

     total cpu time spent up to now is      768.5 secs

     total energy              =   -7979.66445510 Ry
     estimated scf accuracy    <       0.00003805 Ry

     iteration #  9     ecut=    70.00 Ry     beta= 0.50
     Davidson diagonalization with overlap
     ethr =  2.16E-08,  avg # of iterations =  4.5

     total cpu time spent up to now is      846.3 secs

     total energy              =   -7979.66446412 Ry
     estimated scf accuracy    <       0.00000282 Ry

     iteration # 10     ecut=    70.00 Ry     beta= 0.50
     Davidson diagonalization with overlap
     ethr =  1.60E-09,  avg # of iterations =  5.9

     total cpu time spent up to now is      953.0 secs

     total energy              =   -7979.66446570 Ry
     estimated scf accuracy    <       0.00000075 Ry

     iteration # 11     ecut=    70.00 Ry     beta= 0.50
     Davidson diagonalization with overlap
     ethr =  4.25E-10,  avg # of iterations =  3.3

     total cpu time spent up to now is     1022.4 secs

     total energy              =   -7979.66446578 Ry
     estimated scf accuracy    <       0.00000012 Ry

     iteration # 12     ecut=    70.00 Ry     beta= 0.50
     Davidson diagonalization with overlap
     ethr =  6.61E-11,  avg # of iterations =  5.7

     total cpu time spent up to now is     1120.1 secs

     End of self-consistent calculation

          k = 0.0000 0.0000 0.0000 ( 62981 PWs)   bands (ev):

   -17.8684 -17.8684 -17.8682 -17.8682 -17.8650 -17.8650 -17.8647 -17.8647
   -17.8562 -17.8562 -17.8555 -17.8555 -17.8516 -17.8515 -17.8500 -17.8500
   -17.8447 -17.8446 -17.8433 -17.8433 -17.7829 -17.7826 -17.7820 -17.7817
    -8.8075  -8.7833  -8.6010  -8.5396  -8.4523  -8.4427  -8.4235  -8.4133
    -8.2863  -8.2625  -8.2456  -8.2021  -4.6121  -4.6097  -4.6081  -4.6019
    -4.5923  -4.5666  -4.5511  -4.5493  -4.5429  -4.5413  -4.5371  -4.5341
    -2.8871  -2.8622  -2.8240  -2.7433   0.1209   0.3221   0.7505   0.8837
     0.8982   0.9830   1.1106   1.1199   1.2107   1.2732   1.3212   1.3259
     1.3291   1.5511   1.6285   1.7295   1.7767   1.7921   1.8068   1.8132
     1.8182   1.8319   1.9757   2.0596   2.0650   2.1699   2.2022   2.2191
     2.2306   2.2323   2.3099   2.3124   2.3772   2.4733   2.6216   2.9213
     5.3004

     occupation numbers 
     1.0000   1.0000   1.0000   1.0000   1.0000   1.0000   1.0000   1.0000
     1.0000   1.0000   1.0000   1.0000   1.0000   1.0000   1.0000   1.0000
     1.0000   1.0000   1.0000   1.0000   1.0000   1.0000   1.0000   1.0000
     1.0000   1.0000   1.0000   1.0000   1.0000   1.0000   1.0000   1.0000
     1.0000   1.0000   1.0000   1.0000   1.0000   1.0000   1.0000   1.0000
     1.0000   1.0000   1.0000   1.0000   1.0000   1.0000   1.0000   1.0000
     1.0000   1.0000   1.0000   1.0000   1.0000   1.0000   1.0000   1.0000
     1.0000   1.0000   1.0000   1.0000   1.0000   1.0000   1.0000   1.0000
     1.0000   1.0000   1.0000   1.0000   1.0000   1.0000   1.0000   1.0000
     1.0000   1.0000   1.0000   1.0000   1.0000   1.0000   1.0000   1.0000
     1.0000   1.0000   1.0000   1.0000   1.0000   1.0000   1.0000   1.0000
     0.0000

          k = 0.0000 0.0000 0.0533 ( 63011 PWs)   bands (ev):

   -17.8684 -17.8684 -17.8682 -17.8682 -17.8650 -17.8650 -17.8647 -17.8647
   -17.8562 -17.8562 -17.8555 -17.8555 -17.8516 -17.8515 -17.8500 -17.8500
   -17.8447 -17.8447 -17.8433 -17.8433 -17.7829 -17.7827 -17.7819 -17.7817
    -8.8056  -8.7861  -8.5951  -8.5458  -8.4514  -8.4437  -8.4219  -8.4138
    -8.2853  -8.2684  -8.2377  -8.2050  -4.6146  -4.6129  -4.6066  -4.5951
    -4.5933  -4.5688  -4.5509  -4.5495  -4.5427  -4.5414  -4.5366  -4.5341
    -2.8859  -2.8677  -2.8132  -2.7499   0.1369   0.2983   0.7663   0.8850
     0.8967   0.9421   1.1143   1.1541   1.2393   1.2484   1.2782   1.3208
     1.4291   1.5347   1.6066   1.6827   1.7754   1.8086   1.8105   1.8134
     1.8186   1.8300   1.9760   2.0281   2.0711   2.1594   2.2038   2.2200
     2.2230   2.2271   2.3210   2.3696   2.3723   2.4712   2.6412   2.8920
     5.2958

     occupation numbers 
     1.0000   1.0000   1.0000   1.0000   1.0000   1.0000   1.0000   1.0000
     1.0000   1.0000   1.0000   1.0000   1.0000   1.0000   1.0000   1.0000
     1.0000   1.0000   1.0000   1.0000   1.0000   1.0000   1.0000   1.0000
     1.0000   1.0000   1.0000   1.0000   1.0000   1.0000   1.0000   1.0000
     1.0000   1.0000   1.0000   1.0000   1.0000   1.0000   1.0000   1.0000
     1.0000   1.0000   1.0000   1.0000   1.0000   1.0000   1.0000   1.0000
     1.0000   1.0000   1.0000   1.0000   1.0000   1.0000   1.0000   1.0000
     1.0000   1.0000   1.0000   1.0000   1.0000   1.0000   1.0000   1.0000
     1.0000   1.0000   1.0000   1.0000   1.0000   1.0000   1.0000   1.0000
     1.0000   1.0000   1.0000   1.0000   1.0000   1.0000   1.0000   1.0000
     1.0000   1.0000   1.0000   1.0000   1.0000   1.0000   1.0000   1.0000
     0.0000

          k = 0.0000 0.0000 0.1065 ( 62976 PWs)   bands (ev):

   -17.8684 -17.8684 -17.8682 -17.8682 -17.8650 -17.8650 -17.8647 -17.8647
   -17.8562 -17.8562 -17.8555 -17.8555 -17.8516 -17.8516 -17.8500 -17.8500
   -17.8446 -17.8446 -17.8433 -17.8433 -17.7828 -17.7827 -17.7819 -17.7818
    -8.8002  -8.7928  -8.5800  -8.5614  -8.4491  -8.4461  -8.4185  -8.4156
    -8.2820  -8.2763  -8.2247  -8.2130  -4.6168  -4.6165  -4.6020  -4.5975
    -4.5843  -4.5752  -4.5505  -4.5500  -4.5422  -4.5417  -4.5354  -4.5344
    -2.8824  -2.8762  -2.7909  -2.7675   0.1810   0.2420   0.8101   0.8732
     0.8884   0.8928   1.1246   1.1598   1.2507   1.2912   1.2921   1.3075
     1.5086   1.5236   1.5566   1.6146   1.7821   1.8037   1.8122   1.8137
     1.8204   1.8251   1.9778   1.9886   2.0993   2.1323   2.2087   2.2171
     2.2215   2.2220   2.3396   2.3587   2.4369   2.4632   2.7113   2.8122
     5.3216

     occupation numbers 
     1.0000   1.0000   1.0000   1.0000   1.0000   1.0000   1.0000   1.0000
     1.0000   1.0000   1.0000   1.0000   1.0000   1.0000   1.0000   1.0000
     1.0000   1.0000   1.0000   1.0000   1.0000   1.0000   1.0000   1.0000
     1.0000   1.0000   1.0000   1.0000   1.0000   1.0000   1.0000   1.0000
     1.0000   1.0000   1.0000   1.0000   1.0000   1.0000   1.0000   1.0000
     1.0000   1.0000   1.0000   1.0000   1.0000   1.0000   1.0000   1.0000
     1.0000   1.0000   1.0000   1.0000   1.0000   1.0000   1.0000   1.0000
     1.0000   1.0000   1.0000   1.0000   1.0000   1.0000   1.0000   1.0000
     1.0000   1.0000   1.0000   1.0000   1.0000   1.0000   1.0000   1.0000
     1.0000   1.0000   1.0000   1.0000   1.0000   1.0000   1.0000   1.0000
     1.0000   1.0000   1.0000   1.0000   1.0000   1.0000   1.0000   1.0000
     0.0000

          k = 0.0000 0.0898 0.0000 ( 63016 PWs)   bands (ev):

   -17.8684 -17.8684 -17.8682 -17.8682 -17.8650 -17.8650 -17.8647 -17.8647
   -17.8562 -17.8562 -17.8555 -17.8555 -17.8516 -17.8515 -17.8501 -17.8500
   -17.8447 -17.8447 -17.8433 -17.8433 -17.7828 -17.7825 -17.7821 -17.7818
    -8.7991  -8.7781  -8.6052  -8.5684  -8.4730  -8.4663  -8.4039  -8.3709
    -8.2743  -8.2643  -8.2474  -8.2070  -4.6158  -4.6151  -4.5992  -4.5972
    -4.5956  -4.5632  -4.5503  -4.5486  -4.5446  -4.5436  -4.5420  -4.5389
    -2.8966  -2.8721  -2.8008  -2.7396   0.1462   0.3180   0.7730   0.9002
     0.9021   0.9123   1.1217   1.1403   1.2463   1.2583   1.2824   1.3218
     1.3598   1.5571   1.5688   1.6707   1.7533   1.7567   1.7764   1.8325
     1.8813   1.9027   1.9599   2.0633   2.0653   2.0786   2.1914   2.2235
     2.2332   2.2378   2.3008   2.3493   2.3653   2.5406   2.6495   2.9606
     5.2130

     occupation numbers 
     1.0000   1.0000   1.0000   1.0000   1.0000   1.0000   1.0000   1.0000
     1.0000   1.0000   1.0000   1.0000   1.0000   1.0000   1.0000   1.0000
     1.0000   1.0000   1.0000   1.0000   1.0000   1.0000   1.0000   1.0000
     1.0000   1.0000   1.0000   1.0000   1.0000   1.0000   1.0000   1.0000
     1.0000   1.0000   1.0000   1.0000   1.0000   1.0000   1.0000   1.0000
     1.0000   1.0000   1.0000   1.0000   1.0000   1.0000   1.0000   1.0000
     1.0000   1.0000   1.0000   1.0000   1.0000   1.0000   1.0000   1.0000
     1.0000   1.0000   1.0000   1.0000   1.0000   1.0000   1.0000   1.0000
     1.0000   1.0000   1.0000   1.0000   1.0000   1.0000   1.0000   1.0000
     1.0000   1.0000   1.0000   1.0000   1.0000   1.0000   1.0000   1.0000
     1.0000   1.0000   1.0000   1.0000   1.0000   1.0000   1.0000   1.0000
     0.0000

          k = 0.0000 0.0898 0.0533 ( 63011 PWs)   bands (ev):

   -17.8684 -17.8684 -17.8682 -17.8682 -17.8650 -17.8650 -17.8647 -17.8647
   -17.8562 -17.8562 -17.8555 -17.8555 -17.8516 -17.8515 -17.8500 -17.8500
   -17.8447 -17.8447 -17.8433 -17.8433 -17.7828 -17.7826 -17.7820 -17.7818
    -8.7974  -8.7805  -8.6011  -8.5712  -8.4735  -8.4680  -8.4003  -8.3736
    -8.2749  -8.2669  -8.2409  -8.2097  -4.6172  -4.6130  -4.6053  -4.5976
    -4.5884  -4.5653  -4.5501  -4.5488  -4.5436  -4.5434  -4.5422  -4.5392
    -2.8947  -2.8753  -2.7941  -2.7451   0.1604   0.2988   0.7842   0.8895
     0.9012   0.9111   1.1274   1.1530   1.2339   1.2498   1.2790   1.2994
     1.4248   1.5341   1.5755   1.6764   1.7400   1.7583   1.7741   1.8150
     1.8836   1.9011   1.9609   2.0081   2.0826   2.1138   2.1970   2.2234
     2.2315   2.2344   2.3093   2.3604   2.3691   2.5180   2.6864   2.9339
     5.2206

     occupation numbers 
     1.0000   1.0000   1.0000   1.0000   1.0000   1.0000   1.0000   1.0000
     1.0000   1.0000   1.0000   1.0000   1.0000   1.0000   1.0000   1.0000
     1.0000   1.0000   1.0000   1.0000   1.0000   1.0000   1.0000   1.0000
     1.0000   1.0000   1.0000   1.0000   1.0000   1.0000   1.0000   1.0000
     1.0000   1.0000   1.0000   1.0000   1.0000   1.0000   1.0000   1.0000
     1.0000   1.0000   1.0000   1.0000   1.0000   1.0000   1.0000   1.0000
     1.0000   1.0000   1.0000   1.0000   1.0000   1.0000   1.0000   1.0000
     1.0000   1.0000   1.0000   1.0000   1.0000   1.0000   1.0000   1.0000
     1.0000   1.0000   1.0000   1.0000   1.0000   1.0000   1.0000   1.0000
     1.0000   1.0000   1.0000   1.0000   1.0000   1.0000   1.0000   1.0000
     1.0000   1.0000   1.0000   1.0000   1.0000   1.0000   1.0000   1.0000
     0.0000

          k = 0.0000 0.0898 0.1065 ( 62968 PWs)   bands (ev):

   -17.8684 -17.8684 -17.8682 -17.8682 -17.8650 -17.8650 -17.8647 -17.8647
   -17.8562 -17.8562 -17.8555 -17.8555 -17.8516 -17.8516 -17.8500 -17.8500
   -17.8447 -17.8446 -17.8433 -17.8433 -17.7827 -17.7827 -17.7820 -17.7819
    -8.7927  -8.7863  -8.5908  -8.5794  -8.4735  -8.4715  -8.3913  -8.3811
    -8.2742  -8.2709  -8.2288  -8.2175  -4.6169  -4.6144  -4.6055  -4.6014
    -4.5789  -4.5709  -4.5498  -4.5493  -4.5430  -4.5425  -4.5416  -4.5400
    -2.8896  -2.8824  -2.7780  -2.7595   0.1994   0.2519   0.8150   0.8556
     0.9041   0.9079   1.1405   1.1687   1.2202   1.2590   1.2701   1.2774
     1.4812   1.5185   1.5993   1.6604   1.7326   1.7626   1.7687   1.7726
     1.8894   1.8962   1.9644   1.9758   2.1002   2.1178   2.2130   2.2245
     2.2255   2.2285   2.3278   2.3468   2.4182   2.4726   2.7685   2.8619
     5.2353

     occupation numbers 
     1.0000   1.0000   1.0000   1.0000   1.0000   1.0000   1.0000   1.0000
     1.0000   1.0000   1.0000   1.0000   1.0000   1.0000   1.0000   1.0000
     1.0000   1.0000   1.0000   1.0000   1.0000   1.0000   1.0000   1.0000
     1.0000   1.0000   1.0000   1.0000   1.0000   1.0000   1.0000   1.0000
     1.0000   1.0000   1.0000   1.0000   1.0000   1.0000   1.0000   1.0000
     1.0000   1.0000   1.0000   1.0000   1.0000   1.0000   1.0000   1.0000
     1.0000   1.0000   1.0000   1.0000   1.0000   1.0000   1.0000   1.0000
     1.0000   1.0000   1.0000   1.0000   1.0000   1.0000   1.0000   1.0000
     1.0000   1.0000   1.0000   1.0000   1.0000   1.0000   1.0000   1.0000
     1.0000   1.0000   1.0000   1.0000   1.0000   1.0000   1.0000   1.0000
     1.0000   1.0000   1.0000   1.0000   1.0000   1.0000   1.0000   1.0000
     0.0000

          k = 0.0000 0.1796 0.0000 ( 62950 PWs)   bands (ev):

   -17.8684 -17.8684 -17.8682 -17.8682 -17.8650 -17.8650 -17.8647 -17.8647
   -17.8562 -17.8562 -17.8555 -17.8555 -17.8516 -17.8515 -17.8500 -17.8500
   -17.8446 -17.8446 -17.8433 -17.8433 -17.7826 -17.7823 -17.7823 -17.7820
    -8.7804  -8.7712  -8.6149  -8.6069  -8.4914  -8.4895  -8.3636  -8.3484
    -8.2646  -8.2591  -8.2435  -8.2216  -4.6185  -4.6183  -4.5987  -4.5975
    -4.5804  -4.5616  -4.5575  -4.5495  -4.5482  -4.5465  -4.5457  -4.5441
    -2.9007  -2.8901  -2.7642  -2.7420   0.2118   0.2837   0.8057   0.8257
     0.9346   0.9397   1.1483   1.1995   1.2102   1.2272   1.2370   1.3683
     1.3995   1.4359   1.5004   1.6388   1.7361   1.7476   1.7711   1.7734
     1.9476   1.9579   1.9644   2.0441   2.0532   2.0781   2.2197   2.2339
     2.2459   2.2724   2.2800   2.3309   2.3756   2.4247   2.8645   2.9708
     5.1394

     occupation numbers 
     1.0000   1.0000   1.0000   1.0000   1.0000   1.0000   1.0000   1.0000
     1.0000   1.0000   1.0000   1.0000   1.0000   1.0000   1.0000   1.0000
     1.0000   1.0000   1.0000   1.0000   1.0000   1.0000   1.0000   1.0000
     1.0000   1.0000   1.0000   1.0000   1.0000   1.0000   1.0000   1.0000
     1.0000   1.0000   1.0000   1.0000   1.0000   1.0000   1.0000   1.0000
     1.0000   1.0000   1.0000   1.0000   1.0000   1.0000   1.0000   1.0000
     1.0000   1.0000   1.0000   1.0000   1.0000   1.0000   1.0000   1.0000
     1.0000   1.0000   1.0000   1.0000   1.0000   1.0000   1.0000   1.0000
     1.0000   1.0000   1.0000   1.0000   1.0000   1.0000   1.0000   1.0000
     1.0000   1.0000   1.0000   1.0000   1.0000   1.0000   1.0000   1.0000
     1.0000   1.0000   1.0000   1.0000   1.0000   1.0000   1.0000   1.0000
     0.0000

          k = 0.0000 0.1796 0.0533 ( 62947 PWs)   bands (ev):

   -17.8684 -17.8684 -17.8682 -17.8682 -17.8650 -17.8650 -17.8647 -17.8647
   -17.8562 -17.8562 -17.8555 -17.8555 -17.8516 -17.8515 -17.8500 -17.8500
   -17.8446 -17.8446 -17.8433 -17.8433 -17.7826 -17.7824 -17.7822 -17.7820
    -8.7796  -8.7721  -8.6141  -8.6076  -8.4911  -8.4888  -8.3639  -8.3514
    -8.2638  -8.2536  -8.2449  -8.2241  -4.6182  -4.6171  -4.6008  -4.6005
    -4.5767  -4.5627  -4.5562  -4.5499  -4.5481  -4.5469  -4.5454  -4.5441
    -2.8994  -2.8907  -2.7625  -2.7445   0.2196   0.2781   0.8049   0.8223
     0.9351   0.9392   1.1595   1.2006   1.2092   1.2283   1.2363   1.3381
     1.3890   1.4535   1.5087   1.6253   1.7375   1.7468   1.7666   1.8038
     1.9473   1.9560   1.9645   2.0238   2.0652   2.0855   2.2167   2.2299
     2.2484   2.2764   2.2798   2.3263   2.3847   2.4253   2.8689   2.9561
     5.1411

     occupation numbers 
     1.0000   1.0000   1.0000   1.0000   1.0000   1.0000   1.0000   1.0000
     1.0000   1.0000   1.0000   1.0000   1.0000   1.0000   1.0000   1.0000
     1.0000   1.0000   1.0000   1.0000   1.0000   1.0000   1.0000   1.0000
     1.0000   1.0000   1.0000   1.0000   1.0000   1.0000   1.0000   1.0000
     1.0000   1.0000   1.0000   1.0000   1.0000   1.0000   1.0000   1.0000
     1.0000   1.0000   1.0000   1.0000   1.0000   1.0000   1.0000   1.0000
     1.0000   1.0000   1.0000   1.0000   1.0000   1.0000   1.0000   1.0000
     1.0000   1.0000   1.0000   1.0000   1.0000   1.0000   1.0000   1.0000
     1.0000   1.0000   1.0000   1.0000   1.0000   1.0000   1.0000   1.0000
     1.0000   1.0000   1.0000   1.0000   1.0000   1.0000   1.0000   1.0000
     1.0000   1.0000   1.0000   1.0000   1.0000   1.0000   1.0000   1.0000
     0.0000

          k = 0.0000 0.1796 0.1065 ( 62968 PWs)   bands (ev):

   -17.8684 -17.8684 -17.8682 -17.8682 -17.8650 -17.8650 -17.8647 -17.8647
   -17.8562 -17.8562 -17.8555 -17.8555 -17.8516 -17.8515 -17.8500 -17.8500
   -17.8447 -17.8447 -17.8433 -17.8433 -17.7825 -17.7825 -17.7821 -17.7821
    -8.7775  -8.7746  -8.6119  -8.6094  -8.4899  -8.4886  -8.3627  -8.3578
    -8.2587  -8.2522  -8.2408  -8.2310  -4.6165  -4.6155  -4.6049  -4.6040
    -4.5706  -4.5656  -4.5535  -4.5512  -4.5478  -4.5474  -4.5449  -4.5444
    -2.8962  -2.8929  -2.7576  -2.7507   0.2393   0.2619   0.8066   0.8139
     0.9363   0.9379   1.1875   1.2033   1.2066   1.2139   1.2511   1.2891
     1.3958   1.4298   1.5521   1.5941   1.7409   1.7445   1.7946   1.8167
     1.9481   1.9516   1.9708   1.9931   2.0815   2.0911   2.2146   2.2210
     2.2564   2.2673   2.2961   2.3135   2.4048   2.4208   2.8870   2.9211
     5.1459

     occupation numbers 
     1.0000   1.0000   1.0000   1.0000   1.0000   1.0000   1.0000   1.0000
     1.0000   1.0000   1.0000   1.0000   1.0000   1.0000   1.0000   1.0000
     1.0000   1.0000   1.0000   1.0000   1.0000   1.0000   1.0000   1.0000
     1.0000   1.0000   1.0000   1.0000   1.0000   1.0000   1.0000   1.0000
     1.0000   1.0000   1.0000   1.0000   1.0000   1.0000   1.0000   1.0000
     1.0000   1.0000   1.0000   1.0000   1.0000   1.0000   1.0000   1.0000
     1.0000   1.0000   1.0000   1.0000   1.0000   1.0000   1.0000   1.0000
     1.0000   1.0000   1.0000   1.0000   1.0000   1.0000   1.0000   1.0000
     1.0000   1.0000   1.0000   1.0000   1.0000   1.0000   1.0000   1.0000
     1.0000   1.0000   1.0000   1.0000   1.0000   1.0000   1.0000   1.0000
     1.0000   1.0000   1.0000   1.0000   1.0000   1.0000   1.0000   1.0000
     0.0000

          k = 0.2000 0.0000 0.0000 ( 62932 PWs)   bands (ev):

   -17.8680 -17.8680 -17.8678 -17.8678 -17.8661 -17.8661 -17.8659 -17.8659
   -17.8561 -17.8561 -17.8555 -17.8555 -17.8504 -17.8504 -17.8492 -17.8492
   -17.8447 -17.8447 -17.8436 -17.8436 -17.7789 -17.7787 -17.7781 -17.7779
    -8.7312  -8.7094  -8.5515  -8.5012  -8.4140  -8.4040  -8.3871  -8.3772
    -8.2728  -8.2631  -8.2419  -8.2243  -4.6353  -4.6333  -4.6214  -4.6188
    -4.6008  -4.5925  -4.5915  -4.5906  -4.5817  -4.5705  -4.5522  -4.5522
    -2.9991  -2.9961  -2.9076  -2.8696   0.2664   0.4219   0.5546   0.5570
     0.5654   0.6372   0.9167   0.9939   0.9963   1.0104   1.0168   1.0381
     1.3895   1.3959   1.4366   1.4748   1.6729   1.7179   1.7788   1.8076
     1.8298   1.9155   1.9596   2.0015   2.0216   2.0451   2.0544   2.0877
     2.1176   2.1822   2.3184   2.3349   2.7012   2.7611   2.9455   3.0571
     5.7841

     occupation numbers 
     1.0000   1.0000   1.0000   1.0000   1.0000   1.0000   1.0000   1.0000
     1.0000   1.0000   1.0000   1.0000   1.0000   1.0000   1.0000   1.0000
     1.0000   1.0000   1.0000   1.0000   1.0000   1.0000   1.0000   1.0000
     1.0000   1.0000   1.0000   1.0000   1.0000   1.0000   1.0000   1.0000
     1.0000   1.0000   1.0000   1.0000   1.0000   1.0000   1.0000   1.0000
     1.0000   1.0000   1.0000   1.0000   1.0000   1.0000   1.0000   1.0000
     1.0000   1.0000   1.0000   1.0000   1.0000   1.0000   1.0000   1.0000
     1.0000   1.0000   1.0000   1.0000   1.0000   1.0000   1.0000   1.0000
     1.0000   1.0000   1.0000   1.0000   1.0000   1.0000   1.0000   1.0000
     1.0000   1.0000   1.0000   1.0000   1.0000   1.0000   1.0000   1.0000
     1.0000   1.0000   1.0000   1.0000   1.0000   1.0000   1.0000   1.0000
     0.0000

          k = 0.2000 0.0000 0.0533 ( 62967 PWs)   bands (ev):

   -17.8680 -17.8680 -17.8678 -17.8678 -17.8661 -17.8661 -17.8659 -17.8659
   -17.8561 -17.8561 -17.8555 -17.8555 -17.8504 -17.8504 -17.8492 -17.8492
   -17.8448 -17.8447 -17.8436 -17.8436 -17.7789 -17.7787 -17.7781 -17.7779
    -8.7294  -8.7119  -8.5466  -8.5061  -8.4130  -8.4049  -8.3859  -8.3780
    -8.2718  -8.2640  -8.2400  -8.2258  -4.6352  -4.6335  -4.6208  -4.6184
    -4.6019  -4.5969  -4.5909  -4.5881  -4.5802  -4.5710  -4.5520  -4.5519
    -2.9991  -2.9967  -2.9037  -2.8730   0.2753   0.3938   0.5584   0.5703
     0.5800   0.6334   0.9275   0.9797   0.9862   1.0154   1.0175   1.0412
     1.3742   1.3777   1.4097   1.5537   1.6813   1.6950   1.7162   1.7916
     1.9086   1.9196   1.9566   2.0035   2.0073   2.0354   2.0644   2.0833
     2.1252   2.1932   2.3160   2.3314   2.7055   2.7541   2.9545   3.0449
     5.7967

     occupation numbers 
     1.0000   1.0000   1.0000   1.0000   1.0000   1.0000   1.0000   1.0000
     1.0000   1.0000   1.0000   1.0000   1.0000   1.0000   1.0000   1.0000
     1.0000   1.0000   1.0000   1.0000   1.0000   1.0000   1.0000   1.0000
     1.0000   1.0000   1.0000   1.0000   1.0000   1.0000   1.0000   1.0000
     1.0000   1.0000   1.0000   1.0000   1.0000   1.0000   1.0000   1.0000
     1.0000   1.0000   1.0000   1.0000   1.0000   1.0000   1.0000   1.0000
     1.0000   1.0000   1.0000   1.0000   1.0000   1.0000   1.0000   1.0000
     1.0000   1.0000   1.0000   1.0000   1.0000   1.0000   1.0000   1.0000
     1.0000   1.0000   1.0000   1.0000   1.0000   1.0000   1.0000   1.0000
     1.0000   1.0000   1.0000   1.0000   1.0000   1.0000   1.0000   1.0000
     1.0000   1.0000   1.0000   1.0000   1.0000   1.0000   1.0000   1.0000
     0.0000

          k = 0.2000 0.0000 0.1065 ( 62994 PWs)   bands (ev):

   -17.8680 -17.8680 -17.8678 -17.8678 -17.8661 -17.8661 -17.8659 -17.8659
   -17.8561 -17.8561 -17.8555 -17.8555 -17.8504 -17.8504 -17.8492 -17.8492
   -17.8448 -17.8447 -17.8437 -17.8436 -17.7788 -17.7788 -17.7780 -17.7780
    -8.7246  -8.7179  -8.5340  -8.5187  -8.4106  -8.4075  -8.3831  -8.3802
    -8.2693  -8.2664  -8.2354  -8.2299  -4.6348  -4.6341  -4.6192  -4.6181
    -4.6030  -4.6013  -4.5897  -4.5883  -4.5763  -4.5728  -4.5516  -4.5516
    -2.9987  -2.9979  -2.8938  -2.8822   0.3019   0.3442   0.5670   0.5771
     0.6088   0.6280   0.9415   0.9560   0.9890   1.0071   1.0262   1.0363
     1.3455   1.3511   1.4572   1.5469   1.6508   1.6967   1.7455   1.7805
     1.9195   1.9427   1.9532   1.9736   2.0107   2.0213   2.0799   2.0825
     2.1602   2.1946   2.3145   2.3222   2.7183   2.7369   2.9797   3.0143
     5.8291

     occupation numbers 
     1.0000   1.0000   1.0000   1.0000   1.0000   1.0000   1.0000   1.0000
     1.0000   1.0000   1.0000   1.0000   1.0000   1.0000   1.0000   1.0000
     1.0000   1.0000   1.0000   1.0000   1.0000   1.0000   1.0000   1.0000
     1.0000   1.0000   1.0000   1.0000   1.0000   1.0000   1.0000   1.0000
     1.0000   1.0000   1.0000   1.0000   1.0000   1.0000   1.0000   1.0000
     1.0000   1.0000   1.0000   1.0000   1.0000   1.0000   1.0000   1.0000
     1.0000   1.0000   1.0000   1.0000   1.0000   1.0000   1.0000   1.0000
     1.0000   1.0000   1.0000   1.0000   1.0000   1.0000   1.0000   1.0000
     1.0000   1.0000   1.0000   1.0000   1.0000   1.0000   1.0000   1.0000
     1.0000   1.0000   1.0000   1.0000   1.0000   1.0000   1.0000   1.0000
     1.0000   1.0000   1.0000   1.0000   1.0000   1.0000   1.0000   1.0000
     0.0000

          k = 0.2000 0.0898 0.0000 ( 62949 PWs)   bands (ev):

   -17.8680 -17.8680 -17.8678 -17.8678 -17.8661 -17.8661 -17.8659 -17.8659
   -17.8561 -17.8561 -17.8555 -17.8555 -17.8504 -17.8504 -17.8492 -17.8492
   -17.8447 -17.8447 -17.8436 -17.8436 -17.7788 -17.7786 -17.7782 -17.7780
    -8.7238  -8.7050  -8.5547  -8.5223  -8.4350  -8.4234  -8.3702  -8.3429
    -8.2657  -8.2634  -8.2436  -8.2264  -4.6356  -4.6323  -4.6254  -4.6173
    -4.6027  -4.6025  -4.5915  -4.5893  -4.5755  -4.5662  -4.5540  -4.5537
    -2.9959  -2.9936  -2.9035  -2.8727   0.2867   0.3822   0.4600   0.5149
     0.6120   0.6996   0.8874   0.9421   0.9673   1.0248   1.0626   1.1115
     1.4125   1.4395   1.4655   1.5535   1.6519   1.7230   1.7637   1.7987
     1.8181   1.9458   1.9619   1.9715   1.9760   2.0371   2.0701   2.1003
     2.1118   2.1861   2.2968   2.3116   2.7002   2.7375   2.9255   3.0172
     5.8268

     occupation numbers 
     1.0000   1.0000   1.0000   1.0000   1.0000   1.0000   1.0000   1.0000
     1.0000   1.0000   1.0000   1.0000   1.0000   1.0000   1.0000   1.0000
     1.0000   1.0000   1.0000   1.0000   1.0000   1.0000   1.0000   1.0000
     1.0000   1.0000   1.0000   1.0000   1.0000   1.0000   1.0000   1.0000
     1.0000   1.0000   1.0000   1.0000   1.0000   1.0000   1.0000   1.0000
     1.0000   1.0000   1.0000   1.0000   1.0000   1.0000   1.0000   1.0000
     1.0000   1.0000   1.0000   1.0000   1.0000   1.0000   1.0000   1.0000
     1.0000   1.0000   1.0000   1.0000   1.0000   1.0000   1.0000   1.0000
     1.0000   1.0000   1.0000   1.0000   1.0000   1.0000   1.0000   1.0000
     1.0000   1.0000   1.0000   1.0000   1.0000   1.0000   1.0000   1.0000
     1.0000   1.0000   1.0000   1.0000   1.0000   1.0000   1.0000   1.0000
     0.0000

          k = 0.2000 0.0898 0.0533 ( 62977 PWs)   bands (ev):

   -17.8680 -17.8680 -17.8678 -17.8678 -17.8661 -17.8661 -17.8659 -17.8659
   -17.8561 -17.8561 -17.8555 -17.8555 -17.8504 -17.8504 -17.8492 -17.8492
   -17.8448 -17.8447 -17.8436 -17.8436 -17.7788 -17.7787 -17.7782 -17.7780
    -8.7223  -8.7071  -8.5512  -8.5249  -8.4346  -8.4253  -8.3673  -8.3452
    -8.2661  -8.2625  -8.2419  -8.2279  -4.6354  -4.6327  -4.6246  -4.6178
    -4.6042  -4.6014  -4.5921  -4.5899  -4.5740  -4.5667  -4.5538  -4.5535
    -2.9958  -2.9939  -2.9005  -2.8755   0.2928   0.3709   0.4702   0.5210
     0.6104   0.6837   0.8903   0.9408   0.9715   1.0332   1.0664   1.1063
     1.3962   1.4322   1.4576   1.5730   1.6504   1.7070   1.7426   1.8018
     1.8779   1.9294   1.9531   1.9792   1.9860   2.0340   2.0705   2.0918
     2.1148   2.1885   2.2959   2.3123   2.7042   2.7357   2.9292   3.0046
     5.8389

     occupation numbers 
     1.0000   1.0000   1.0000   1.0000   1.0000   1.0000   1.0000   1.0000
     1.0000   1.0000   1.0000   1.0000   1.0000   1.0000   1.0000   1.0000
     1.0000   1.0000   1.0000   1.0000   1.0000   1.0000   1.0000   1.0000
     1.0000   1.0000   1.0000   1.0000   1.0000   1.0000   1.0000   1.0000
     1.0000   1.0000   1.0000   1.0000   1.0000   1.0000   1.0000   1.0000
     1.0000   1.0000   1.0000   1.0000   1.0000   1.0000   1.0000   1.0000
     1.0000   1.0000   1.0000   1.0000   1.0000   1.0000   1.0000   1.0000
     1.0000   1.0000   1.0000   1.0000   1.0000   1.0000   1.0000   1.0000
     1.0000   1.0000   1.0000   1.0000   1.0000   1.0000   1.0000   1.0000
     1.0000   1.0000   1.0000   1.0000   1.0000   1.0000   1.0000   1.0000
     1.0000   1.0000   1.0000   1.0000   1.0000   1.0000   1.0000   1.0000
     0.0000

          k = 0.2000 0.0898 0.1065 ( 62990 PWs)   bands (ev):

   -17.8680 -17.8680 -17.8678 -17.8678 -17.8661 -17.8661 -17.8659 -17.8659
   -17.8561 -17.8561 -17.8555 -17.8555 -17.8504 -17.8504 -17.8492 -17.8492
   -17.8448 -17.8447 -17.8437 -17.8437 -17.7788 -17.7787 -17.7781 -17.7780
    -8.7180  -8.7123  -8.5424  -8.5323  -8.4329  -8.4294  -8.3600  -8.3516
    -8.2650  -8.2630  -8.2374  -8.2319  -4.6347  -4.6337  -4.6225  -4.6198
    -4.6041  -4.6023  -4.5922  -4.5911  -4.5710  -4.5683  -4.5533  -4.5531
    -2.9955  -2.9947  -2.8926  -2.8831   0.3118   0.3417   0.4998   0.5231
     0.6155   0.6462   0.9017   0.9213   1.0050   1.0341   1.0756   1.0926
     1.3837   1.4028   1.4761   1.5301   1.6939   1.7270   1.7426   1.7695
     1.9118   1.9230   1.9489   1.9707   2.0090   2.0250   2.0792   2.0858
     2.1326   2.1698   2.3015   2.3097   2.7151   2.7280   2.9450   2.9746
     5.8583

     occupation numbers 
     1.0000   1.0000   1.0000   1.0000   1.0000   1.0000   1.0000   1.0000
     1.0000   1.0000   1.0000   1.0000   1.0000   1.0000   1.0000   1.0000
     1.0000   1.0000   1.0000   1.0000   1.0000   1.0000   1.0000   1.0000
     1.0000   1.0000   1.0000   1.0000   1.0000   1.0000   1.0000   1.0000
     1.0000   1.0000   1.0000   1.0000   1.0000   1.0000   1.0000   1.0000
     1.0000   1.0000   1.0000   1.0000   1.0000   1.0000   1.0000   1.0000
     1.0000   1.0000   1.0000   1.0000   1.0000   1.0000   1.0000   1.0000
     1.0000   1.0000   1.0000   1.0000   1.0000   1.0000   1.0000   1.0000
     1.0000   1.0000   1.0000   1.0000   1.0000   1.0000   1.0000   1.0000
     1.0000   1.0000   1.0000   1.0000   1.0000   1.0000   1.0000   1.0000
     1.0000   1.0000   1.0000   1.0000   1.0000   1.0000   1.0000   1.0000
     0.0000

          k = 0.2000 0.1796 0.0000 ( 63010 PWs)   bands (ev):

   -17.8680 -17.8680 -17.8678 -17.8678 -17.8661 -17.8661 -17.8659 -17.8659
   -17.8561 -17.8561 -17.8555 -17.8555 -17.8504 -17.8504 -17.8492 -17.8492
   -17.8448 -17.8448 -17.8436 -17.8436 -17.7786 -17.7784 -17.7784 -17.7782
    -8.7075  -8.6993  -8.5615  -8.5537  -8.4482  -8.4470  -8.3376  -8.3254
    -8.2609  -8.2559  -8.2440  -8.2335  -4.6344  -4.6305  -4.6295  -4.6231
    -4.6068  -4.6054  -4.5909  -4.5906  -4.5665  -4.5607  -4.5593  -4.5568
    -2.9905  -2.9897  -2.8933  -2.8814   0.3110   0.3258   0.4383   0.4858
     0.6056   0.6447   0.8620   0.8742   1.0389   1.0996   1.1202   1.1656
     1.4743   1.4885   1.5142   1.5671   1.6423   1.6953   1.7517   1.7718
     1.9093   1.9205   1.9425   1.9688   1.9722   2.0445   2.0815   2.1143
     2.1406   2.1511   2.2058   2.2446   2.7180   2.7317   2.8875   2.9281
     5.9141

     occupation numbers 
     1.0000   1.0000   1.0000   1.0000   1.0000   1.0000   1.0000   1.0000
     1.0000   1.0000   1.0000   1.0000   1.0000   1.0000   1.0000   1.0000
     1.0000   1.0000   1.0000   1.0000   1.0000   1.0000   1.0000   1.0000
     1.0000   1.0000   1.0000   1.0000   1.0000   1.0000   1.0000   1.0000
     1.0000   1.0000   1.0000   1.0000   1.0000   1.0000   1.0000   1.0000
     1.0000   1.0000   1.0000   1.0000   1.0000   1.0000   1.0000   1.0000
     1.0000   1.0000   1.0000   1.0000   1.0000   1.0000   1.0000   1.0000
     1.0000   1.0000   1.0000   1.0000   1.0000   1.0000   1.0000   1.0000
     1.0000   1.0000   1.0000   1.0000   1.0000   1.0000   1.0000   1.0000
     1.0000   1.0000   1.0000   1.0000   1.0000   1.0000   1.0000   1.0000
     1.0000   1.0000   1.0000   1.0000   1.0000   1.0000   1.0000   1.0000
     0.0000

          k = 0.2000 0.1796 0.0533 ( 63005 PWs)   bands (ev):

   -17.8680 -17.8680 -17.8678 -17.8678 -17.8661 -17.8661 -17.8659 -17.8659
   -17.8561 -17.8561 -17.8556 -17.8555 -17.8504 -17.8504 -17.8492 -17.8492
   -17.8448 -17.8447 -17.8436 -17.8436 -17.7786 -17.7785 -17.7783 -17.7782
    -8.7068  -8.7001  -8.5608  -8.5544  -8.4480  -8.4464  -8.3376  -8.3276
    -8.2596  -8.2535  -8.2447  -8.2349  -4.6340  -4.6301  -4.6299  -4.6240
    -4.6065  -4.6053  -4.5914  -4.5912  -4.5657  -4.5612  -4.5587  -4.5567
    -2.9903  -2.9896  -2.8924  -2.8827   0.3155   0.3408   0.4223   0.4758
     0.6104   0.6494   0.8677   0.8918   1.0030   1.0770   1.1302   1.1608
     1.4764   1.5000   1.5315   1.5737   1.6425   1.7023   1.7452   1.7782
     1.8855   1.9143   1.9490   1.9730   1.9892   2.0414   2.0804   2.1107
     2.1267   2.1477   2.2190   2.2459   2.7223   2.7349   2.8836   2.9179
     5.9166

     occupation numbers 
     1.0000   1.0000   1.0000   1.0000   1.0000   1.0000   1.0000   1.0000
     1.0000   1.0000   1.0000   1.0000   1.0000   1.0000   1.0000   1.0000
     1.0000   1.0000   1.0000   1.0000   1.0000   1.0000   1.0000   1.0000
     1.0000   1.0000   1.0000   1.0000   1.0000   1.0000   1.0000   1.0000
     1.0000   1.0000   1.0000   1.0000   1.0000   1.0000   1.0000   1.0000
     1.0000   1.0000   1.0000   1.0000   1.0000   1.0000   1.0000   1.0000
     1.0000   1.0000   1.0000   1.0000   1.0000   1.0000   1.0000   1.0000
     1.0000   1.0000   1.0000   1.0000   1.0000   1.0000   1.0000   1.0000
     1.0000   1.0000   1.0000   1.0000   1.0000   1.0000   1.0000   1.0000
     1.0000   1.0000   1.0000   1.0000   1.0000   1.0000   1.0000   1.0000
     1.0000   1.0000   1.0000   1.0000   1.0000   1.0000   1.0000   1.0000
     0.0000

          k = 0.2000 0.1796 0.1065 ( 62994 PWs)   bands (ev):

   -17.8680 -17.8680 -17.8678 -17.8678 -17.8661 -17.8661 -17.8659 -17.8659
   -17.8561 -17.8561 -17.8556 -17.8555 -17.8504 -17.8504 -17.8492 -17.8492
   -17.8447 -17.8447 -17.8437 -17.8437 -17.7786 -17.7785 -17.7783 -17.7782
    -8.7048  -8.7023  -8.5587  -8.5563  -8.4471  -8.4462  -8.3363  -8.3324
    -8.2558  -8.2521  -8.2436  -8.2387  -4.6330  -4.6315  -4.6283  -4.6261
    -4.6058  -4.6053  -4.5921  -4.5920  -4.5640  -4.5623  -4.5575  -4.5568
    -2.9899  -2.9896  -2.8897  -2.8860   0.3349   0.3572   0.4083   0.4421
     0.6294   0.6473   0.8912   0.9270   0.9556   1.0145   1.1426   1.1526
     1.4973   1.5216   1.5406   1.5685   1.6692   1.6987   1.7409   1.7810
     1.8655   1.8944   1.9673   1.9778   2.0118   2.0310   2.0813   2.0931
     2.1241   2.1337   2.2375   2.2459   2.7323   2.7383   2.8817   2.8959
     5.9164

     occupation numbers 
     1.0000   1.0000   1.0000   1.0000   1.0000   1.0000   1.0000   1.0000
     1.0000   1.0000   1.0000   1.0000   1.0000   1.0000   1.0000   1.0000
     1.0000   1.0000   1.0000   1.0000   1.0000   1.0000   1.0000   1.0000
     1.0000   1.0000   1.0000   1.0000   1.0000   1.0000   1.0000   1.0000
     1.0000   1.0000   1.0000   1.0000   1.0000   1.0000   1.0000   1.0000
     1.0000   1.0000   1.0000   1.0000   1.0000   1.0000   1.0000   1.0000
     1.0000   1.0000   1.0000   1.0000   1.0000   1.0000   1.0000   1.0000
     1.0000   1.0000   1.0000   1.0000   1.0000   1.0000   1.0000   1.0000
     1.0000   1.0000   1.0000   1.0000   1.0000   1.0000   1.0000   1.0000
     1.0000   1.0000   1.0000   1.0000   1.0000   1.0000   1.0000   1.0000
     1.0000   1.0000   1.0000   1.0000   1.0000   1.0000   1.0000   1.0000
     0.0000

          k = 0.4000 0.0000 0.0000 ( 63076 PWs)   bands (ev):

   -17.8682 -17.8682 -17.8681 -17.8681 -17.8671 -17.8671 -17.8670 -17.8670
   -17.8559 -17.8559 -17.8557 -17.8557 -17.8485 -17.8485 -17.8480 -17.8480
   -17.8448 -17.8447 -17.8443 -17.8443 -17.7724 -17.7724 -17.7718 -17.7717
    -8.5583  -8.5507  -8.4699  -8.4625  -8.3313  -8.3279  -8.3277  -8.3143
    -8.2914  -8.2798  -8.2661  -8.2590  -4.7680  -4.7663  -4.7080  -4.7052
    -4.6028  -4.6003  -4.5944  -4.5900  -4.5830  -4.5740  -4.5557  -4.5555
    -3.1952  -3.1635  -3.1305  -3.1042   0.1179   0.1385   0.1556   0.1622
     0.5509   0.5519   0.6172   0.6840   0.7166   0.8348   0.9503   1.0562
     1.2496   1.3330   1.5744   1.5942   1.6058   1.7268   1.7390   1.7855
     1.8206   1.8259   1.8328   1.8404   1.8820   1.8841   1.9480   1.9977
     2.0504   2.0948   2.1526   2.1985   2.5139   2.7133   2.8361   3.0042
     6.0432

     occupation numbers 
     1.0000   1.0000   1.0000   1.0000   1.0000   1.0000   1.0000   1.0000
     1.0000   1.0000   1.0000   1.0000   1.0000   1.0000   1.0000   1.0000
     1.0000   1.0000   1.0000   1.0000   1.0000   1.0000   1.0000   1.0000
     1.0000   1.0000   1.0000   1.0000   1.0000   1.0000   1.0000   1.0000
     1.0000   1.0000   1.0000   1.0000   1.0000   1.0000   1.0000   1.0000
     1.0000   1.0000   1.0000   1.0000   1.0000   1.0000   1.0000   1.0000
     1.0000   1.0000   1.0000   1.0000   1.0000   1.0000   1.0000   1.0000
     1.0000   1.0000   1.0000   1.0000   1.0000   1.0000   1.0000   1.0000
     1.0000   1.0000   1.0000   1.0000   1.0000   1.0000   1.0000   1.0000
     1.0000   1.0000   1.0000   1.0000   1.0000   1.0000   1.0000   1.0000
     1.0000   1.0000   1.0000   1.0000   1.0000   1.0000   1.0000   1.0000
     0.0000

          k = 0.4000 0.0000 0.0533 ( 63021 PWs)   bands (ev):

   -17.8682 -17.8682 -17.8681 -17.8681 -17.8671 -17.8671 -17.8670 -17.8670
   -17.8559 -17.8559 -17.8557 -17.8557 -17.8485 -17.8485 -17.8480 -17.8480
   -17.8447 -17.8447 -17.8443 -17.8443 -17.7724 -17.7724 -17.7718 -17.7717
    -8.5576  -8.5515  -8.4691  -8.4631  -8.3312  -8.3284  -8.3264  -8.3157
    -8.2903  -8.2810  -8.2652  -8.2595  -4.7678  -4.7665  -4.7077  -4.7054
    -4.6028  -4.6010  -4.5939  -4.5901  -4.5820  -4.5747  -4.5557  -4.5555
    -3.1925  -3.1673  -3.1273  -3.1064   0.1190   0.1332   0.1575   0.1659
     0.5585   0.5685   0.6252   0.6800   0.7005   0.8033   0.9577   1.0451
     1.2662   1.3329   1.5914   1.5972   1.6112   1.7051   1.7280   1.7866
     1.8148   1.8220   1.8348   1.8663   1.8823   1.8853   1.9382   1.9772
     2.0672   2.1108   2.1497   2.1916   2.5344   2.7022   2.8426   2.9846
     6.0648

     occupation numbers 
     1.0000   1.0000   1.0000   1.0000   1.0000   1.0000   1.0000   1.0000
     1.0000   1.0000   1.0000   1.0000   1.0000   1.0000   1.0000   1.0000
     1.0000   1.0000   1.0000   1.0000   1.0000   1.0000   1.0000   1.0000
     1.0000   1.0000   1.0000   1.0000   1.0000   1.0000   1.0000   1.0000
     1.0000   1.0000   1.0000   1.0000   1.0000   1.0000   1.0000   1.0000
     1.0000   1.0000   1.0000   1.0000   1.0000   1.0000   1.0000   1.0000
     1.0000   1.0000   1.0000   1.0000   1.0000   1.0000   1.0000   1.0000
     1.0000   1.0000   1.0000   1.0000   1.0000   1.0000   1.0000   1.0000
     1.0000   1.0000   1.0000   1.0000   1.0000   1.0000   1.0000   1.0000
     1.0000   1.0000   1.0000   1.0000   1.0000   1.0000   1.0000   1.0000
     1.0000   1.0000   1.0000   1.0000   1.0000   1.0000   1.0000   1.0000
     0.0000

          k = 0.4000 0.0000 0.1065 ( 63040 PWs)   bands (ev):

   -17.8682 -17.8682 -17.8681 -17.8681 -17.8671 -17.8671 -17.8670 -17.8670
   -17.8559 -17.8559 -17.8557 -17.8557 -17.8485 -17.8485 -17.8480 -17.8480
   -17.8447 -17.8447 -17.8443 -17.8443 -17.7724 -17.7724 -17.7718 -17.7718
    -8.5558  -8.5535  -8.4672  -8.4649  -8.3306  -8.3295  -8.3231  -8.3191
    -8.2874  -8.2839  -8.2630  -8.2609  -4.7674  -4.7669  -4.7070  -4.7061
    -4.6028  -4.6022  -4.5925  -4.5910  -4.5795  -4.5767  -4.5556  -4.5555
    -3.1853  -3.1759  -3.1201  -3.1123   0.1214   0.1258   0.1628   0.1675
     0.5804   0.5959   0.6449   0.6664   0.6852   0.7352   0.9803   1.0145
     1.2999   1.3249   1.6067   1.6141   1.6302   1.6636   1.7336   1.7815
     1.7936   1.8046   1.8609   1.8761   1.8939   1.9029   1.9171   1.9379
     2.1039   2.1350   2.1422   2.1717   2.5891   2.6562   2.8778   2.9348
     6.1051

     occupation numbers 
     1.0000   1.0000   1.0000   1.0000   1.0000   1.0000   1.0000   1.0000
     1.0000   1.0000   1.0000   1.0000   1.0000   1.0000   1.0000   1.0000
     1.0000   1.0000   1.0000   1.0000   1.0000   1.0000   1.0000   1.0000
     1.0000   1.0000   1.0000   1.0000   1.0000   1.0000   1.0000   1.0000
     1.0000   1.0000   1.0000   1.0000   1.0000   1.0000   1.0000   1.0000
     1.0000   1.0000   1.0000   1.0000   1.0000   1.0000   1.0000   1.0000
     1.0000   1.0000   1.0000   1.0000   1.0000   1.0000   1.0000   1.0000
     1.0000   1.0000   1.0000   1.0000   1.0000   1.0000   1.0000   1.0000
     1.0000   1.0000   1.0000   1.0000   1.0000   1.0000   1.0000   1.0000
     1.0000   1.0000   1.0000   1.0000   1.0000   1.0000   1.0000   1.0000
     1.0000   1.0000   1.0000   1.0000   1.0000   1.0000   1.0000   1.0000
     0.0000

          k = 0.4000 0.0898 0.0000 ( 63030 PWs)   bands (ev):

   -17.8682 -17.8682 -17.8681 -17.8681 -17.8671 -17.8671 -17.8670 -17.8670
   -17.8559 -17.8559 -17.8557 -17.8557 -17.8485 -17.8485 -17.8480 -17.8480
   -17.8447 -17.8447 -17.8443 -17.8443 -17.7724 -17.7723 -17.7719 -17.7718
    -8.5549  -8.5486  -8.4722  -8.4664  -8.3479  -8.3416  -8.3096  -8.3022
    -8.2884  -8.2779  -8.2681  -8.2610  -4.7633  -4.7599  -4.7146  -4.7105
    -4.6018  -4.5992  -4.5949  -4.5909  -4.5808  -4.5721  -4.5592  -4.5567
    -3.1878  -3.1620  -3.1320  -3.1110   0.1276   0.1392   0.2158   0.2219
     0.5207   0.5287   0.5910   0.6165   0.6941   0.7677   0.9909   1.0600
     1.2934   1.3590   1.4912   1.5976   1.6391   1.7026   1.7503   1.7617
     1.7888   1.7993   1.8028   1.8631   1.8944   1.8966   1.9569   2.0206
     2.0378   2.1083   2.1533   2.1784   2.5741   2.7996   2.8670   2.9843
     6.0411

     occupation numbers 
     1.0000   1.0000   1.0000   1.0000   1.0000   1.0000   1.0000   1.0000
     1.0000   1.0000   1.0000   1.0000   1.0000   1.0000   1.0000   1.0000
     1.0000   1.0000   1.0000   1.0000   1.0000   1.0000   1.0000   1.0000
     1.0000   1.0000   1.0000   1.0000   1.0000   1.0000   1.0000   1.0000
     1.0000   1.0000   1.0000   1.0000   1.0000   1.0000   1.0000   1.0000
     1.0000   1.0000   1.0000   1.0000   1.0000   1.0000   1.0000   1.0000
     1.0000   1.0000   1.0000   1.0000   1.0000   1.0000   1.0000   1.0000
     1.0000   1.0000   1.0000   1.0000   1.0000   1.0000   1.0000   1.0000
     1.0000   1.0000   1.0000   1.0000   1.0000   1.0000   1.0000   1.0000
     1.0000   1.0000   1.0000   1.0000   1.0000   1.0000   1.0000   1.0000
     1.0000   1.0000   1.0000   1.0000   1.0000   1.0000   1.0000   1.0000
     0.0000

          k = 0.4000 0.0898 0.0533 ( 63042 PWs)   bands (ev):

   -17.8682 -17.8682 -17.8681 -17.8681 -17.8671 -17.8671 -17.8670 -17.8670
   -17.8559 -17.8559 -17.8557 -17.8557 -17.8485 -17.8484 -17.8480 -17.8480
   -17.8448 -17.8447 -17.8443 -17.8443 -17.7724 -17.7723 -17.7719 -17.7718
    -8.5543  -8.5492  -8.4716  -8.4669  -8.3473  -8.3422  -8.3091  -8.3031
    -8.2874  -8.2789  -8.2672  -8.2615  -4.7630  -4.7602  -4.7142  -4.7109
    -4.6018  -4.6000  -4.5944  -4.5911  -4.5798  -4.5728  -4.5589  -4.5569
    -3.1856  -3.1650  -3.1295  -3.1128   0.1291   0.1384   0.2148   0.2208
     0.5204   0.5401   0.5962   0.6159   0.6890   0.7664   0.9842   1.0405
     1.3020   1.3602   1.5057   1.5793   1.6553   1.6966   1.7255   1.7816
     1.7889   1.8006   1.8191   1.8621   1.8941   1.9022   1.9447   2.0172
     2.0327   2.1117   2.1547   2.1783   2.5949   2.7790   2.8774   2.9733
     6.0541

     occupation numbers 
     1.0000   1.0000   1.0000   1.0000   1.0000   1.0000   1.0000   1.0000
     1.0000   1.0000   1.0000   1.0000   1.0000   1.0000   1.0000   1.0000
     1.0000   1.0000   1.0000   1.0000   1.0000   1.0000   1.0000   1.0000
     1.0000   1.0000   1.0000   1.0000   1.0000   1.0000   1.0000   1.0000
     1.0000   1.0000   1.0000   1.0000   1.0000   1.0000   1.0000   1.0000
     1.0000   1.0000   1.0000   1.0000   1.0000   1.0000   1.0000   1.0000
     1.0000   1.0000   1.0000   1.0000   1.0000   1.0000   1.0000   1.0000
     1.0000   1.0000   1.0000   1.0000   1.0000   1.0000   1.0000   1.0000
     1.0000   1.0000   1.0000   1.0000   1.0000   1.0000   1.0000   1.0000
     1.0000   1.0000   1.0000   1.0000   1.0000   1.0000   1.0000   1.0000
     1.0000   1.0000   1.0000   1.0000   1.0000   1.0000   1.0000   1.0000
     0.0000

          k = 0.4000 0.0898 0.1065 ( 63025 PWs)   bands (ev):

   -17.8682 -17.8682 -17.8681 -17.8681 -17.8671 -17.8671 -17.8670 -17.8670
   -17.8559 -17.8559 -17.8557 -17.8557 -17.8485 -17.8484 -17.8480 -17.8480
   -17.8447 -17.8447 -17.8443 -17.8443 -17.7723 -17.7723 -17.7718 -17.7718
    -8.5528  -8.5509  -8.4701  -8.4683  -8.3458  -8.3439  -8.3075  -8.3052
    -8.2848  -8.2816  -8.2651  -8.2629  -4.7621  -4.7611  -4.7132  -4.7119
    -4.6018  -4.6011  -4.5931  -4.5918  -4.5774  -4.5748  -4.5582  -4.5574
    -3.1797  -3.1720  -3.1238  -3.1175   0.1325   0.1361   0.2149   0.2178
     0.5310   0.5446   0.6033   0.6127   0.7053   0.7448   0.9817   1.0041
     1.3239   1.3489   1.5377   1.5601   1.6586   1.6788   1.7420   1.7797
     1.7944   1.8064   1.8257   1.8461   1.9065   1.9209   1.9346   1.9762
     2.0606   2.0943   2.1662   2.1762   2.6511   2.7221   2.9070   2.9440
     6.0889

     occupation numbers 
     1.0000   1.0000   1.0000   1.0000   1.0000   1.0000   1.0000   1.0000
     1.0000   1.0000   1.0000   1.0000   1.0000   1.0000   1.0000   1.0000
     1.0000   1.0000   1.0000   1.0000   1.0000   1.0000   1.0000   1.0000
     1.0000   1.0000   1.0000   1.0000   1.0000   1.0000   1.0000   1.0000
     1.0000   1.0000   1.0000   1.0000   1.0000   1.0000   1.0000   1.0000
     1.0000   1.0000   1.0000   1.0000   1.0000   1.0000   1.0000   1.0000
     1.0000   1.0000   1.0000   1.0000   1.0000   1.0000   1.0000   1.0000
     1.0000   1.0000   1.0000   1.0000   1.0000   1.0000   1.0000   1.0000
     1.0000   1.0000   1.0000   1.0000   1.0000   1.0000   1.0000   1.0000
     1.0000   1.0000   1.0000   1.0000   1.0000   1.0000   1.0000   1.0000
     1.0000   1.0000   1.0000   1.0000   1.0000   1.0000   1.0000   1.0000
     0.0000

          k = 0.4000 0.1796 0.0000 ( 63033 PWs)   bands (ev):

   -17.8682 -17.8682 -17.8681 -17.8681 -17.8671 -17.8671 -17.8670 -17.8670
   -17.8559 -17.8559 -17.8557 -17.8557 -17.8485 -17.8484 -17.8480 -17.8480
   -17.8447 -17.8447 -17.8443 -17.8443 -17.7722 -17.7721 -17.7720 -17.7719
    -8.5480  -8.5454  -8.4760  -8.4741  -8.3569  -8.3544  -8.2966  -8.2945
    -8.2805  -8.2734  -8.2727  -8.2662  -4.7494  -4.7443  -4.7307  -4.7254
    -4.5993  -4.5966  -4.5965  -4.5934  -4.5746  -4.5674  -4.5664  -4.5614
    -3.1707  -3.1605  -3.1342  -3.1266   0.1918   0.2014   0.2744   0.2769
     0.4704   0.4777   0.5179   0.5385   0.6865   0.6981   0.9971   1.0256
     1.3946   1.4167   1.4265   1.5533   1.6136   1.6719   1.7104   1.7318
     1.7928   1.7950   1.8156   1.8402   1.9063   1.9082   1.9616   2.0043
     2.0788   2.1249   2.1524   2.1743   2.7296   2.8720   2.9086   2.9416
     6.0258

     occupation numbers 
     1.0000   1.0000   1.0000   1.0000   1.0000   1.0000   1.0000   1.0000
     1.0000   1.0000   1.0000   1.0000   1.0000   1.0000   1.0000   1.0000
     1.0000   1.0000   1.0000   1.0000   1.0000   1.0000   1.0000   1.0000
     1.0000   1.0000   1.0000   1.0000   1.0000   1.0000   1.0000   1.0000
     1.0000   1.0000   1.0000   1.0000   1.0000   1.0000   1.0000   1.0000
     1.0000   1.0000   1.0000   1.0000   1.0000   1.0000   1.0000   1.0000
     1.0000   1.0000   1.0000   1.0000   1.0000   1.0000   1.0000   1.0000
     1.0000   1.0000   1.0000   1.0000   1.0000   1.0000   1.0000   1.0000
     1.0000   1.0000   1.0000   1.0000   1.0000   1.0000   1.0000   1.0000
     1.0000   1.0000   1.0000   1.0000   1.0000   1.0000   1.0000   1.0000
     1.0000   1.0000   1.0000   1.0000   1.0000   1.0000   1.0000   1.0000
     0.0000

          k = 0.4000 0.1796 0.0533 ( 63049 PWs)   bands (ev):

   -17.8682 -17.8682 -17.8681 -17.8681 -17.8671 -17.8671 -17.8670 -17.8670
   -17.8559 -17.8559 -17.8557 -17.8557 -17.8485 -17.8484 -17.8480 -17.8480
   -17.8447 -17.8447 -17.8443 -17.8443 -17.7722 -17.7722 -17.7720 -17.7720
    -8.5478  -8.5457  -8.4759  -8.4743  -8.3567  -8.3547  -8.2965  -8.2947
    -8.2798  -8.2736  -8.2724  -8.2667  -4.7489  -4.7448  -4.7302  -4.7259
    -4.5993  -4.5976  -4.5956  -4.5935  -4.5738  -4.5682  -4.5657  -4.5618
    -3.1698  -3.1616  -3.1334  -3.1272   0.1921   0.2008   0.2721   0.2745
     0.4704   0.4776   0.5209   0.5381   0.6934   0.7065   0.9952   1.0223
     1.3639   1.3819   1.4789   1.5309   1.6345   1.6696   1.7167   1.7487
     1.7874   1.7959   1.8213   1.8243   1.9060   1.9172   1.9591   2.0099
     2.0697   2.1198   2.1516   2.1756   2.7451   2.8652   2.9081   2.9375
     6.0375

     occupation numbers 
     1.0000   1.0000   1.0000   1.0000   1.0000   1.0000   1.0000   1.0000
     1.0000   1.0000   1.0000   1.0000   1.0000   1.0000   1.0000   1.0000
     1.0000   1.0000   1.0000   1.0000   1.0000   1.0000   1.0000   1.0000
     1.0000   1.0000   1.0000   1.0000   1.0000   1.0000   1.0000   1.0000
     1.0000   1.0000   1.0000   1.0000   1.0000   1.0000   1.0000   1.0000
     1.0000   1.0000   1.0000   1.0000   1.0000   1.0000   1.0000   1.0000
     1.0000   1.0000   1.0000   1.0000   1.0000   1.0000   1.0000   1.0000
     1.0000   1.0000   1.0000   1.0000   1.0000   1.0000   1.0000   1.0000
     1.0000   1.0000   1.0000   1.0000   1.0000   1.0000   1.0000   1.0000
     1.0000   1.0000   1.0000   1.0000   1.0000   1.0000   1.0000   1.0000
     1.0000   1.0000   1.0000   1.0000   1.0000   1.0000   1.0000   1.0000
     0.0000

          k = 0.4000 0.1796 0.1065 ( 63035 PWs)   bands (ev):

   -17.8682 -17.8682 -17.8681 -17.8681 -17.8671 -17.8671 -17.8670 -17.8670
   -17.8559 -17.8559 -17.8557 -17.8557 -17.8484 -17.8484 -17.8480 -17.8480
   -17.8447 -17.8447 -17.8443 -17.8443 -17.7722 -17.7722 -17.7720 -17.7720
    -8.5471  -8.5463  -8.4754  -8.4747  -8.3561  -8.3553  -8.2961  -8.2954
    -8.2779  -8.2755  -8.2704  -8.2683  -4.7476  -4.7461  -4.7289  -4.7272
    -4.5991  -4.5985  -4.5948  -4.5940  -4.5720  -4.5698  -4.5644  -4.5629
    -3.1674  -3.1642  -3.1314  -3.1290   0.1943   0.1981   0.2689   0.2700
     0.4721   0.4753   0.5284   0.5353   0.7091   0.7156   0.9977   1.0102
     1.3415   1.3493   1.5065   1.5106   1.6620   1.6788   1.7245   1.7532
     1.7861   1.7980   1.8096   1.8215   1.9151   1.9237   1.9651   1.9946
     2.0761   2.0997   2.1594   2.1705   2.7854   2.8332   2.9160   2.9281
     6.0676

     occupation numbers 
     1.0000   1.0000   1.0000   1.0000   1.0000   1.0000   1.0000   1.0000
     1.0000   1.0000   1.0000   1.0000   1.0000   1.0000   1.0000   1.0000
     1.0000   1.0000   1.0000   1.0000   1.0000   1.0000   1.0000   1.0000
     1.0000   1.0000   1.0000   1.0000   1.0000   1.0000   1.0000   1.0000
     1.0000   1.0000   1.0000   1.0000   1.0000   1.0000   1.0000   1.0000
     1.0000   1.0000   1.0000   1.0000   1.0000   1.0000   1.0000   1.0000
     1.0000   1.0000   1.0000   1.0000   1.0000   1.0000   1.0000   1.0000
     1.0000   1.0000   1.0000   1.0000   1.0000   1.0000   1.0000   1.0000
     1.0000   1.0000   1.0000   1.0000   1.0000   1.0000   1.0000   1.0000
     1.0000   1.0000   1.0000   1.0000   1.0000   1.0000   1.0000   1.0000
     1.0000   1.0000   1.0000   1.0000   1.0000   1.0000   1.0000   1.0000
     0.0000

     highest occupied, lowest unoccupied level (ev):     3.0571    5.1394

!    total energy              =   -7979.66446584 Ry

     total all-electron energy =   -282510.819178 Ry
     estimated scf accuracy    <       0.00000006 Ry

     The total energy is the sum of the following terms:
     one-electron contribution =    -463.68145061 Ry
     hartree contribution      =     316.61804260 Ry
     xc contribution           =    -465.89739601 Ry
     ewald contribution        =    -633.56960439 Ry
     one-center paw contrib.   =   -6733.13405742 Ry
      -> PAW hartree energy AE =      25.63374590 Ry
      -> PAW hartree energy PS =     -25.52418614 Ry
      -> PAW xc energy AE      =    -383.53024832 Ry
      -> PAW xc energy PS      =      20.51491854 Ry
      -> total E_H with PAW    =     316.72760236 Ry
      -> total E_XC with PAW   =    -828.91272578 Ry

     convergence has been achieved in  12 iterations

     Forces acting on atoms (cartesian axes, Ry/au):

     atom    1 type  3   force =     0.00000000   -0.00062443    0.00037371
     atom    2 type  3   force =     0.00000000    0.00062443   -0.00037371
     atom    3 type  3   force =     0.00000000   -0.00062443   -0.00037371
     atom    4 type  3   force =    -0.00000000    0.00062443    0.00037371
     atom    5 type  1   force =     0.00000000   -0.00066179    0.00029575
     atom    6 type  1   force =     0.00000000    0.00066179   -0.00029575
     atom    7 type  1   force =     0.00000000   -0.00066179   -0.00029575
     atom    8 type  1   force =     0.00000000    0.00066179    0.00029575
     atom    9 type  2   force =     0.00000000    0.00004458   -0.00024575
     atom   10 type  2   force =     0.00000000   -0.00004458    0.00024575
     atom   11 type  2   force =     0.00000000    0.00004458    0.00024575
     atom   12 type  2   force =     0.00000000   -0.00004458   -0.00024575
     atom   13 type  2   force =     0.00000000   -0.00017889   -0.00040759
     atom   14 type  2   force =     0.00000000    0.00017889    0.00040759
     atom   15 type  2   force =     0.00000000   -0.00017889    0.00040759
     atom   16 type  2   force =     0.00000000    0.00017889   -0.00040759
     atom   17 type  2   force =     0.00000000   -0.00049360    0.00034415
     atom   18 type  2   force =     0.00000000    0.00049360   -0.00034415
     atom   19 type  2   force =     0.00000000   -0.00049360   -0.00034415
     atom   20 type  2   force =     0.00000000    0.00049360    0.00034415
     The non-local contrib.  to forces
     atom    1 type  3   force =     0.00000000    0.00220948   -0.00222802
     atom    2 type  3   force =     0.00000000   -0.00220948    0.00222802
     atom    3 type  3   force =     0.00000000    0.00220948    0.00222802
     atom    4 type  3   force =     0.00000000   -0.00220948   -0.00222802
     atom    5 type  1   force =    -0.00000000   -0.08721502   -0.13183173
     atom    6 type  1   force =     0.00000000    0.08721502    0.13183173
     atom    7 type  1   force =     0.00000000   -0.08721502    0.13183173
     atom    8 type  1   force =     0.00000000    0.08721502   -0.13183173
     atom    9 type  2   force =     0.00000000   -0.04834768   -0.04731370
     atom   10 type  2   force =    -0.00000000    0.04834768    0.04731370
     atom   11 type  2   force =     0.00000000   -0.04834768    0.04731370
     atom   12 type  2   force =    -0.00000000    0.04834768   -0.04731370
     atom   13 type  2   force =    -0.00000000   -0.03285888    0.05566618
     atom   14 type  2   force =     0.00000000    0.03285888   -0.05566618
     atom   15 type  2   force =     0.00000000   -0.03285888   -0.05566618
     atom   16 type  2   force =     0.00000000    0.03285888    0.05566618
     atom   17 type  2   force =     0.00000000    0.05554129   -0.01657083
     atom   18 type  2   force =     0.00000000   -0.05554129    0.01657083
     atom   19 type  2   force =     0.00000000    0.05554129    0.01657083
     atom   20 type  2   force =     0.00000000   -0.05554129   -0.01657083
     The ionic contribution  to forces
     atom    1 type  3   force =    -0.00000000    0.02273773    0.42856976
     atom    2 type  3   force =    -0.00000000   -0.02273773   -0.42856976
     atom    3 type  3   force =    -0.00000000    0.02273773   -0.42856976
     atom    4 type  3   force =     0.00000000   -0.02273773    0.42856976
     atom    5 type  1   force =     0.00000000   -2.44382135   -1.60292983
     atom    6 type  1   force =     0.00000000    2.44382135    1.60292983
     atom    7 type  1   force =    -0.00000000   -2.44382135    1.60292983
     atom    8 type  1   force =     0.00000000    2.44382135   -1.60292983
     atom    9 type  2   force =    -0.00000000    3.00608891    5.13288893
     atom   10 type  2   force =     0.00000000   -3.00608891   -5.13288893
     atom   11 type  2   force =    -0.00000000    3.00608891   -5.13288893
     atom   12 type  2   force =    -0.00000000   -3.00608891    5.13288893
     atom   13 type  2   force =     0.00000000    2.02422849   -3.75281499
     atom   14 type  2   force =     0.00000000   -2.02422849    3.75281499
     atom   15 type  2   force =    -0.00000000    2.02422849    3.75281499
     atom   16 type  2   force =    -0.00000000   -2.02422849   -3.75281499
     atom   17 type  2   force =     0.00000000   -4.20564473    2.10270404
     atom   18 type  2   force =    -0.00000000    4.20564473   -2.10270404
     atom   19 type  2   force =     0.00000000   -4.20564473   -2.10270404
     atom   20 type  2   force =    -0.00000000    4.20564473    2.10270404
     The local contribution  to forces
     atom    1 type  3   force =     0.00000000   -0.02540287   -0.42616281
     atom    2 type  3   force =    -0.00000000    0.02540287    0.42616281
     atom    3 type  3   force =     0.00000000   -0.02540287    0.42616281
     atom    4 type  3   force =    -0.00000000    0.02540287   -0.42616281
     atom    5 type  1   force =    -0.00000000    2.53015408    1.73498635
     atom    6 type  1   force =    -0.00000000   -2.53015408   -1.73498635
     atom    7 type  1   force =    -0.00000000    2.53015408   -1.73498635
     atom    8 type  1   force =    -0.00000000   -2.53015408    1.73498635
     atom    9 type  2   force =     0.00000000   -2.96415013   -5.09237362
     atom   10 type  2   force =    -0.00000000    2.96415013    5.09237362
     atom   11 type  2   force =     0.00000000   -2.96415013    5.09237362
     atom   12 type  2   force =    -0.00000000    2.96415013   -5.09237362
     atom   13 type  2   force =    -0.00000000   -1.99590134    3.70421044
     atom   14 type  2   force =    -0.00000000    1.99590134   -3.70421044
     atom   15 type  2   force =     0.00000000   -1.99590134   -3.70421044
     atom   16 type  2   force =    -0.00000000    1.99590134    3.70421044
     atom   17 type  2   force =     0.00000000    4.15725696   -2.08829525
     atom   18 type  2   force =    -0.00000000   -4.15725696    2.08829525
     atom   19 type  2   force =     0.00000000    4.15725696    2.08829525
     atom   20 type  2   force =    -0.00000000   -4.15725696   -2.08829525
     The core correction contribution to forces
     atom    1 type  3   force =     0.00000000   -0.00017579    0.00018647
     atom    2 type  3   force =     0.00000000    0.00017579   -0.00018647
     atom    3 type  3   force =     0.00000000   -0.00017579   -0.00018647
     atom    4 type  3   force =     0.00000000    0.00017579    0.00018647
     atom    5 type  1   force =    -0.00000000    0.00017709    0.00007987
     atom    6 type  1   force =    -0.00000000   -0.00017709   -0.00007987
     atom    7 type  1   force =     0.00000000    0.00017709   -0.00007987
     atom    8 type  1   force =    -0.00000000   -0.00017709    0.00007987
     atom    9 type  2   force =    -0.00000000    0.00643176    0.00651943
     atom   10 type  2   force =     0.00000000   -0.00643176   -0.00651943
     atom   11 type  2   force =     0.00000000    0.00643176   -0.00651943
     atom   12 type  2   force =     0.00000000   -0.00643176    0.00651943
     atom   13 type  2   force =    -0.00000000    0.00434047   -0.00742956
     atom   14 type  2   force =     0.00000000   -0.00434047    0.00742956
     atom   15 type  2   force =     0.00000000    0.00434047    0.00742956
     atom   16 type  2   force =     0.00000000   -0.00434047   -0.00742956
     atom   17 type  2   force =    -0.00000000   -0.00762258    0.00248186
     atom   18 type  2   force =     0.00000000    0.00762258   -0.00248186
     atom   19 type  2   force =    -0.00000000   -0.00762258   -0.00248186
     atom   20 type  2   force =     0.00000000    0.00762258    0.00248186
     The Hubbard contrib.    to forces
     atom    1 type  3   force =     0.00000000    0.00000000    0.00000000
     atom    2 type  3   force =     0.00000000    0.00000000    0.00000000
     atom    3 type  3   force =     0.00000000    0.00000000    0.00000000
     atom    4 type  3   force =     0.00000000    0.00000000    0.00000000
     atom    5 type  1   force =     0.00000000    0.00000000    0.00000000
     atom    6 type  1   force =     0.00000000    0.00000000    0.00000000
     atom    7 type  1   force =     0.00000000    0.00000000    0.00000000
     atom    8 type  1   force =     0.00000000    0.00000000    0.00000000
     atom    9 type  2   force =     0.00000000    0.00000000    0.00000000
     atom   10 type  2   force =     0.00000000    0.00000000    0.00000000
     atom   11 type  2   force =     0.00000000    0.00000000    0.00000000
     atom   12 type  2   force =     0.00000000    0.00000000    0.00000000
     atom   13 type  2   force =     0.00000000    0.00000000    0.00000000
     atom   14 type  2   force =     0.00000000    0.00000000    0.00000000
     atom   15 type  2   force =     0.00000000    0.00000000    0.00000000
     atom   16 type  2   force =     0.00000000    0.00000000    0.00000000
     atom   17 type  2   force =     0.00000000    0.00000000    0.00000000
     atom   18 type  2   force =     0.00000000    0.00000000    0.00000000
     atom   19 type  2   force =     0.00000000    0.00000000    0.00000000
     atom   20 type  2   force =     0.00000000    0.00000000    0.00000000
     The SCF correction term to forces
     atom    1 type  3   force =    -0.00000000    0.00000702    0.00000830
     atom    2 type  3   force =     0.00000000   -0.00000702   -0.00000830
     atom    3 type  3   force =    -0.00000000    0.00000702   -0.00000830
     atom    4 type  3   force =     0.00000000   -0.00000702    0.00000830
     atom    5 type  1   force =    -0.00000000    0.00004341   -0.00000890
     atom    6 type  1   force =    -0.00000000   -0.00004341    0.00000890
     atom    7 type  1   force =     0.00000000    0.00004341    0.00000890
     atom    8 type  1   force =    -0.00000000   -0.00004341   -0.00000890
     atom    9 type  2   force =     0.00000000    0.00002172    0.00003320
     atom   10 type  2   force =     0.00000000   -0.00002172   -0.00003320
     atom   11 type  2   force =     0.00000000    0.00002172   -0.00003320
     atom   12 type  2   force =    -0.00000000   -0.00002172    0.00003320
     atom   13 type  2   force =    -0.00000000    0.00001237   -0.00003966
     atom   14 type  2   force =     0.00000000   -0.00001237    0.00003966
     atom   15 type  2   force =    -0.00000000    0.00001237    0.00003966
     atom   16 type  2   force =     0.00000000   -0.00001237   -0.00003966
     atom   17 type  2   force =     0.00000000   -0.00002454    0.00002433
     atom   18 type  2   force =    -0.00000000    0.00002454   -0.00002433
     atom   19 type  2   force =     0.00000000   -0.00002454   -0.00002433
     atom   20 type  2   force =     0.00000000    0.00002454    0.00002433

     Total force =     0.002590     Total SCF correction =     0.000162


     Computing stress (Cartesian axis) and pressure

          total   stress  (Ry/bohr**3)                   (kbar)     P=       -0.87
  -0.00000559   0.00000000   0.00000000           -0.82        0.00        0.00
   0.00000000  -0.00000572   0.00000000            0.00       -0.84        0.00
   0.00000000   0.00000000  -0.00000649            0.00        0.00       -0.95

     kinetic stress (kbar)   5523.26      0.00      0.00
                                0.00   5534.30      0.00
                                0.00      0.00   5528.27

     local   stress (kbar)  -4517.93      0.00      0.00
                                0.00  -1885.46      0.00
                                0.00      0.00   -992.13

     nonloc. stress (kbar)   1141.37      0.00      0.00
                                0.00   1139.70      0.00
                                0.00      0.00   1142.36

     hartree stress (kbar)   3402.85     -0.00     -0.00
                               -0.00   2188.96      0.00
                               -0.00      0.00   1719.37

     exc-cor stress (kbar)   5446.68     -0.00     -0.00
                               -0.00   5446.32      0.00
                               -0.00      0.00   5446.76

     corecor stress (kbar)  -7212.25     -0.00      0.00
                               -0.00  -7212.51     -0.00
                                0.00     -0.00  -7212.50

     ewald   stress (kbar)  -3784.80      0.00     -0.00
                                0.00  -5212.16      0.00
                               -0.00      0.00  -5633.09

     hubbard stress (kbar)      0.00      0.00      0.00
                                0.00      0.00      0.00
                                0.00      0.00      0.00

     DFT-D   stress (kbar)      0.00      0.00      0.00
                                0.00      0.00      0.00
                                0.00      0.00      0.00

     XDM     stress (kbar)      0.00      0.00      0.00
                                0.00      0.00      0.00
                                0.00      0.00      0.00

     dft-nl  stress (kbar)      0.00      0.00      0.00
                                0.00      0.00      0.00
                                0.00      0.00      0.00

     TS-vdW  stress (kbar)      0.00      0.00      0.00
                                0.00      0.00      0.00
                                0.00      0.00      0.00



     Writing output data file ./out1/CsSnI3.save/

     init_run     :     27.97s CPU     28.64s WALL (       1 calls)
     electrons    :   1069.43s CPU   1088.67s WALL (       1 calls)
     forces       :     22.32s CPU     22.50s WALL (       1 calls)
     stress       :     32.51s CPU     32.67s WALL (       1 calls)

     Called by init_run:
     wfcinit      :     25.57s CPU     25.98s WALL (       1 calls)
     wfcinit:atom :      0.04s CPU      0.04s WALL (      27 calls)
     wfcinit:wfcr :     25.17s CPU     25.53s WALL (      27 calls)
     potinit      :      0.80s CPU      0.85s WALL (       1 calls)
     hinit0       :      0.69s CPU      0.72s WALL (       1 calls)

     Called by electrons:
     c_bands      :    955.52s CPU    970.19s WALL (      13 calls)
     sum_band     :    103.59s CPU    107.31s WALL (      13 calls)
     v_of_rho     :      0.54s CPU      0.57s WALL (      13 calls)
     v_h          :      0.08s CPU      0.08s WALL (      13 calls)
     v_xc         :      0.52s CPU      0.55s WALL (      15 calls)
     newd         :      4.23s CPU      4.64s WALL (      13 calls)
     PAW_pot      :      5.93s CPU      6.04s WALL (      13 calls)
     mix_rho      :      0.23s CPU      0.30s WALL (      13 calls)

     Called by c_bands:
     init_us_2    :      4.20s CPU      4.26s WALL (     783 calls)
     cegterg      :    945.32s CPU    959.55s WALL (     351 calls)

     Called by sum_band:
     sum_band:wei :      0.00s CPU      0.04s WALL (      13 calls)
     sum_band:loo :    100.46s CPU    103.48s WALL (      13 calls)
     sum_band:buf :      0.42s CPU      0.44s WALL (     351 calls)
     sum_band:ini :      1.89s CPU      1.91s WALL (     351 calls)
     sum_band:cal :     61.64s CPU     63.92s WALL (     351 calls)
     sum_band:bec :      0.86s CPU      0.89s WALL (     351 calls)
     addusdens    :      2.82s CPU      3.33s WALL (      13 calls)
     addusd:skk   :      0.01s CPU      0.01s WALL (      39 calls)
     addusd:dgemm :      1.17s CPU      1.63s WALL (      39 calls)
     addusd:qvan2 :      1.47s CPU      1.51s WALL (      39 calls)

     Called by *egterg:
     cdiaghg      :     74.83s CPU     75.59s WALL (    2061 calls)
     cegterg:over :     45.93s CPU     46.61s WALL (    1737 calls)
     cegterg:upda :     18.84s CPU     18.90s WALL (    1737 calls)
     cegterg:last :     53.35s CPU     53.51s WALL (     839 calls)
     h_psi        :    569.61s CPU    581.77s WALL (    2115 calls)
     s_psi        :    180.70s CPU    181.35s WALL (    2115 calls)
     g_psi        :      0.27s CPU      0.27s WALL (    1737 calls)

     Called by h_psi:
     h_psi:calbec :    185.66s CPU    194.37s WALL (    2115 calls)
     vloc_psi     :    198.53s CPU    201.33s WALL (    2115 calls)
     add_vuspsi   :    184.81s CPU    185.46s WALL (    2115 calls)

     General routines
     calbec       :    271.82s CPU    282.92s WALL (    2601 calls)
     fft          :      0.57s CPU      0.59s WALL (     169 calls)
     ffts         :      0.04s CPU      0.04s WALL (      13 calls)
     fftw         :    226.74s CPU    229.96s WALL (  216659 calls)

     Parallel routines
     fft_scatt_xy :     10.24s CPU     10.36s WALL (  216841 calls)
     fft_scatt_yz :    131.05s CPU    133.19s WALL (  216841 calls)

     PAW routines
     PAW_pot      :      5.93s CPU      6.04s WALL (      13 calls)
     PAW_symme    :      0.08s CPU      0.08s WALL (      26 calls)

     PWSCF        :  19m21.01s CPU  19m46.80s WALL


   This run was terminated on:  18:21:41  15Jan2021            

=------------------------------------------------------------------------------=
   JOB DONE.
=------------------------------------------------------------------------------=
