
     Program PWSCF v.6.7MaX starts on 31Jan2021 at  9:34: 8 

     This program is part of the open-source Quantum ESPRESSO suite
     for quantum simulation of materials; please cite
         "P. Giannozzi et al., J. Phys.:Condens. Matter 21 395502 (2009);
         "P. Giannozzi et al., J. Phys.:Condens. Matter 29 465901 (2017);
          URL http://www.quantum-espresso.org", 
     in publications or presentations arising from this work. More details at
     http://www.quantum-espresso.org/quote

     Parallel version (MPI & OpenMP), running on      96 processor cores
     Number of MPI processes:                48
     Threads/MPI process:                     2

     MPI processes distributed on     2 nodes
     R & G space division:  proc/nbgrp/npool/nimage =      48
     Waiting for input...
     Reading input from standard input

     Current dimensions of program PWSCF are:
     Max number of different atomic species (ntypx) = 10
     Max number of k-points (npk) =  40000
     Max angular momentum in pseudopotentials (lmaxx) =  3

     Atomic positions and unit cell read from directory:
     ./CsSnI3.save/
     Atomic positions from file used, from input discarded

     file Cs.rel-pbesol-spn-rrkjus_psl.1.0.0.UPF: wavefunction(s)  5S 6S renormalized
     file Sn.rel-pbesol-dn-rrkjus_psl.1.0.0.UPF: wavefunction(s)  5S 4D 4D renormalized
     file I.rel-pbesol-n-rrkjus_psl.1.0.0.UPF: wavefunction(s)  5S renormalized

     Subspace diagonalization in iterative solution of the eigenvalue problem:
     a serial algorithm will be used


     Parallelization info
     --------------------
     sticks:   dense  smooth     PW     G-vecs:    dense   smooth      PW
     Min         107      86     23                14667    10498    1469
     Max         108      87     24                14680    10509    1476
     Sum        5183    4145   1113               704507   504115   70635


     Title: 
     CsSnI3                                                                     


     bravais-lattice index     =            8
     lattice parameter (alat)  =       9.1317  a.u.
     unit-cell volume          =    6370.5385 (a.u.)^3
     number of atoms/cell      =           20
     number of atomic types    =            3
     number of electrons       =       176.00
     number of Kohn-Sham states=          176
     kinetic-energy cutoff     =      70.0000  Ry
     charge density cutoff     =     350.0000  Ry
     Exchange-correlation= PBESOL
                           (   1   4  10   8   0   0   0)
     Non magnetic calculation with spin-orbit


     celldm(1)=   9.131705  celldm(2)=   2.227728  celldm(3)=   3.755420
     celldm(4)=   0.000000  celldm(5)=   0.000000  celldm(6)=   0.000000

     crystal axes: (cart. coord. in units of alat)
               a(1) = (   1.000000   0.000000   0.000000 )  
               a(2) = (   0.000000   2.227728   0.000000 )  
               a(3) = (   0.000000   0.000000   3.755420 )  

     reciprocal axes: (cart. coord. in units 2 pi/alat)
               b(1) = (  1.000000  0.000000  0.000000 )  
               b(2) = (  0.000000  0.448888  0.000000 )  
               b(3) = (  0.000000  0.000000  0.266282 )  


     PseudoPot. # 1 for Cs read from file:
     /scratch/cmalosso/degironcoli/pseudo/pseudo-usp/Cs.rel-pbesol-spn-rrkjus_psl.1.0.0.UPF
     MD5 check sum: 846889b67fb1b19751b5b37931589d70
     Pseudo is Ultrasoft + core correction, Zval =  9.0
     Generated using &quot;atomic&quot; code by A. Dal Corso  v.6.4.1
     Using radial grid of 1251 points, 15 beta functions with: 
                l(1) =   0
                l(2) =   0
                l(3) =   0
                l(4) =   1
                l(5) =   1
                l(6) =   1
                l(7) =   1
                l(8) =   2
                l(9) =   2
               l(10) =   2
               l(11) =   2
               l(12) =   3
               l(13) =   3
               l(14) =   3
               l(15) =   3
     Q(r) pseudized with 0 coefficients 


     PseudoPot. # 2 for Sn read from file:
     /scratch/cmalosso/degironcoli/pseudo/pseudo-usp/Sn.rel-pbesol-dn-rrkjus_psl.1.0.0.UPF
     MD5 check sum: c1cf6ea56b96a3656bdf0d1db379e093
     Pseudo is Ultrasoft + core correction, Zval = 14.0
     Generated using &quot;atomic&quot; code by A. Dal Corso  v.6.3
     Using radial grid of 1243 points, 10 beta functions with: 
                l(1) =   0
                l(2) =   0
                l(3) =   1
                l(4) =   1
                l(5) =   1
                l(6) =   1
                l(7) =   2
                l(8) =   2
                l(9) =   2
               l(10) =   2
     Q(r) pseudized with 0 coefficients 


     PseudoPot. # 3 for I  read from file:
     /scratch/cmalosso/degironcoli/pseudo/pseudo-usp/I.rel-pbesol-n-rrkjus_psl.1.0.0.UPF
     MD5 check sum: 0f96c6bfb1b448f280658f96eb466b08
     Pseudo is Ultrasoft + core correction, Zval =  7.0
     Generated using &quot;atomic&quot; code by A. Dal Corso  v.6.3
     Using radial grid of 1247 points, 10 beta functions with: 
                l(1) =   0
                l(2) =   0
                l(3) =   1
                l(4) =   1
                l(5) =   1
                l(6) =   1
                l(7) =   2
                l(8) =   2
                l(9) =   2
               l(10) =   2
     Q(r) pseudized with 0 coefficients 


     atomic species   valence    mass     pseudopotential
        Cs             9.00   132.90000     Cs( 1.00)
        Sn            14.00   118.70000     Sn( 1.00)
        I              7.00   126.90000     I ( 1.00)

      8 Sym. Ops., with inversion, found ( 6 have fractional translation)


                                    s                        frac. trans.

      isym =  1     identity                                     

 cryst.   s( 1) = (     1          0          0      )
                  (     0          1          0      )
                  (     0          0          1      )

 cart.    s( 1) = (  1.0000000  0.0000000  0.0000000 )
                  (  0.0000000  1.0000000  0.0000000 )
                  (  0.0000000  0.0000000  1.0000000 )


      isym =  2     180 deg rotation - cart. axis [0,0,1]        

 cryst.   s( 2) = (    -1          0          0      )    f =(  0.0000000 )
                  (     0         -1          0      )       ( -0.5000000 )
                  (     0          0          1      )       (  0.5000000 )

 cart.    s( 2) = ( -1.0000000  0.0000000  0.0000000 )    f =(  0.0000000 )
                  (  0.0000000 -1.0000000  0.0000000 )       ( -1.1138638 )
                  (  0.0000000  0.0000000  1.0000000 )       (  1.8777098 )


      isym =  3     180 deg rotation - cart. axis [0,1,0]        

 cryst.   s( 3) = (    -1          0          0      )    f =( -0.5000000 )
                  (     0          1          0      )       ( -0.5000000 )
                  (     0          0         -1      )       ( -0.5000000 )

 cart.    s( 3) = ( -1.0000000  0.0000000  0.0000000 )    f =( -0.5000000 )
                  (  0.0000000  1.0000000  0.0000000 )       ( -1.1138638 )
                  (  0.0000000  0.0000000 -1.0000000 )       ( -1.8777098 )


      isym =  4     180 deg rotation - cart. axis [1,0,0]        

 cryst.   s( 4) = (     1          0          0      )    f =(  0.5000000 )
                  (     0         -1          0      )       (  0.0000000 )
                  (     0          0         -1      )       (  0.0000000 )

 cart.    s( 4) = (  1.0000000  0.0000000  0.0000000 )    f =(  0.5000000 )
                  (  0.0000000 -1.0000000  0.0000000 )       (  0.0000000 )
                  (  0.0000000  0.0000000 -1.0000000 )       (  0.0000000 )


      isym =  5     inversion                                    

 cryst.   s( 5) = (    -1          0          0      )
                  (     0         -1          0      )
                  (     0          0         -1      )

 cart.    s( 5) = ( -1.0000000  0.0000000  0.0000000 )
                  (  0.0000000 -1.0000000  0.0000000 )
                  (  0.0000000  0.0000000 -1.0000000 )


      isym =  6     inv. 180 deg rotation - cart. axis [0,0,1]   

 cryst.   s( 6) = (     1          0          0      )    f =(  0.0000000 )
                  (     0          1          0      )       ( -0.5000000 )
                  (     0          0         -1      )       ( -0.5000000 )

 cart.    s( 6) = (  1.0000000  0.0000000  0.0000000 )    f =(  0.0000000 )
                  (  0.0000000  1.0000000  0.0000000 )       ( -1.1138638 )
                  (  0.0000000  0.0000000 -1.0000000 )       ( -1.8777098 )


      isym =  7     inv. 180 deg rotation - cart. axis [0,1,0]   

 cryst.   s( 7) = (     1          0          0      )    f =(  0.5000000 )
                  (     0         -1          0      )       ( -0.5000000 )
                  (     0          0          1      )       (  0.5000000 )

 cart.    s( 7) = (  1.0000000  0.0000000  0.0000000 )    f =(  0.5000000 )
                  (  0.0000000 -1.0000000  0.0000000 )       ( -1.1138638 )
                  (  0.0000000  0.0000000  1.0000000 )       (  1.8777098 )


      isym =  8     inv. 180 deg rotation - cart. axis [1,0,0]   

 cryst.   s( 8) = (    -1          0          0      )    f =( -0.5000000 )
                  (     0          1          0      )       (  0.0000000 )
                  (     0          0          1      )       (  0.0000000 )

 cart.    s( 8) = ( -1.0000000  0.0000000  0.0000000 )    f =( -0.5000000 )
                  (  0.0000000  1.0000000  0.0000000 )       (  0.0000000 )
                  (  0.0000000  0.0000000  1.0000000 )       (  0.0000000 )


     double point group D_2h (mmm) 
     there are 10 classes and  2 irreducible representations
     the character table:

       E     -E     C2    C2'  C2''  i     -i     s_v   s_v' s_v''
                   -C2   -C2'  -C2''             -s_v  -s_v' -s_v'
G_5+   2.00 -2.00  0.00  0.00  0.00  2.00 -2.00  0.00  0.00  0.00
G_5-   2.00 -2.00  0.00  0.00  0.00 -2.00  2.00  0.00  0.00  0.00

     the symmetry operations in each class and the name of the first element:

     E             1
          identity                                               
     -E           -1
          identity E                                             
      C2  -C2      2   -2
          180 deg rotation - cart. axis [0,0,1]                  
      C2' -C2'     4   -4
          180 deg rotation - cart. axis [1,0,0]                  
     C2'' -C2''    3   -3
          180 deg rotation - cart. axis [0,1,0]                  
     i             5
          inversion                                              
     -i           -5
          inversion E                                            
      s_v -s_v     6   -6
          inv. 180 deg rotation - cart. axis [0,0,1]             
      s_v'-s_v'    8   -8
          inv. 180 deg rotation - cart. axis [1,0,0]             
     s_v''-s_v'    7   -7
          inv. 180 deg rotation - cart. axis [0,1,0]             

   Cartesian axes

     site n.     atom                  positions (alat units)
         1           Cs  tau(   1) = (   0.2500000   0.1859640   2.5168147  )
         2           Cs  tau(   2) = (   0.7500000   2.0417636   1.2386050  )
         3           Cs  tau(   3) = (   0.2500000   1.2998278   3.1163149  )
         4           Cs  tau(   4) = (   0.7500000   0.9278998   0.6391048  )
         5           Sn  tau(   5) = (   0.2500000   0.7615710   1.6485466  )
         6           Sn  tau(   6) = (   0.7500000   1.4661567   2.1068731  )
         7           Sn  tau(   7) = (   0.2500000   1.8754348   0.2291632  )
         8           Sn  tau(   8) = (   0.7500000   0.3522928   3.5262565  )
         9           I   tau(   9) = (   0.7500000   0.0581437   0.4202578  )
        10           I   tau(  10) = (   0.2500000   2.1695839   3.3351619  )
        11           I   tau(  11) = (   0.7500000   1.1720075   1.4574521  )
        12           I   tau(  12) = (   0.2500000   1.0557201   2.2979676  )
        13           I   tau(  13) = (   0.7500000   0.6531118   2.9738192  )
        14           I   tau(  14) = (   0.2500000   1.5746158   0.7816005  )
        15           I   tau(  15) = (   0.7500000   1.7669756   2.6593103  )
        16           I   tau(  16) = (   0.2500000   0.4607520   1.0961094  )
        17           I   tau(  17) = (   0.7500000   0.3753632   1.8734812  )
        18           I   tau(  18) = (   0.2500000   1.8523644   1.8819384  )
        19           I   tau(  19) = (   0.7500000   1.4892270   0.0042286  )
        20           I   tau(  20) = (   0.2500000   0.7385006   3.7511911  )

   Crystallographic axes

     site n.     atom                  positions (cryst. coord.)
         1           Cs  tau(   1) = (  0.2500000  0.0834770  0.6701820  )
         2           Cs  tau(   2) = (  0.7500000  0.9165230  0.3298180  )
         3           Cs  tau(   3) = (  0.2500000  0.5834770  0.8298180  )
         4           Cs  tau(   4) = (  0.7500000  0.4165230  0.1701820  )
         5           Sn  tau(   5) = (  0.2500000  0.3418600  0.4389780  )
         6           Sn  tau(   6) = (  0.7500000  0.6581400  0.5610220  )
         7           Sn  tau(   7) = (  0.2500000  0.8418600  0.0610220  )
         8           Sn  tau(   8) = (  0.7500000  0.1581400  0.9389780  )
         9           I   tau(   9) = (  0.7500000  0.0261000  0.1119070  )
        10           I   tau(  10) = (  0.2500000  0.9739000  0.8880930  )
        11           I   tau(  11) = (  0.7500000  0.5261000  0.3880930  )
        12           I   tau(  12) = (  0.2500000  0.4739000  0.6119070  )
        13           I   tau(  13) = (  0.7500000  0.2931740  0.7918740  )
        14           I   tau(  14) = (  0.2500000  0.7068260  0.2081260  )
        15           I   tau(  15) = (  0.7500000  0.7931740  0.7081260  )
        16           I   tau(  16) = (  0.2500000  0.2068260  0.2918740  )
        17           I   tau(  17) = (  0.7500000  0.1684960  0.4988740  )
        18           I   tau(  18) = (  0.2500000  0.8315040  0.5011260  )
        19           I   tau(  19) = (  0.7500000  0.6684960  0.0011260  )
        20           I   tau(  20) = (  0.2500000  0.3315040  0.9988740  )

     number of k points=    27
                       cart. coord. in units 2pi/alat
        k(    1) = (   0.0833333   0.0374073   0.0221902), wk =   0.0370370
        k(    2) = (   0.0833333   0.0374073   0.0665705), wk =   0.0370370
        k(    3) = (   0.0833333   0.0374073   0.1109508), wk =   0.0370370
        k(    4) = (   0.0833333   0.1122220   0.0221902), wk =   0.0370370
        k(    5) = (   0.0833333   0.1122220   0.0665705), wk =   0.0370370
        k(    6) = (   0.0833333   0.1122220   0.1109508), wk =   0.0370370
        k(    7) = (   0.0833333   0.1870366   0.0221902), wk =   0.0370370
        k(    8) = (   0.0833333   0.1870366   0.0665705), wk =   0.0370370
        k(    9) = (   0.0833333   0.1870366   0.1109508), wk =   0.0370370
        k(   10) = (   0.2500000   0.0374073   0.0221902), wk =   0.0370370
        k(   11) = (   0.2500000   0.0374073   0.0665705), wk =   0.0370370
        k(   12) = (   0.2500000   0.0374073   0.1109508), wk =   0.0370370
        k(   13) = (   0.2500000   0.1122220   0.0221902), wk =   0.0370370
        k(   14) = (   0.2500000   0.1122220   0.0665705), wk =   0.0370370
        k(   15) = (   0.2500000   0.1122220   0.1109508), wk =   0.0370370
        k(   16) = (   0.2500000   0.1870366   0.0221902), wk =   0.0370370
        k(   17) = (   0.2500000   0.1870366   0.0665705), wk =   0.0370370
        k(   18) = (   0.2500000   0.1870366   0.1109508), wk =   0.0370370
        k(   19) = (   0.4166667   0.0374073   0.0221902), wk =   0.0370370
        k(   20) = (   0.4166667   0.0374073   0.0665705), wk =   0.0370370
        k(   21) = (   0.4166667   0.0374073   0.1109508), wk =   0.0370370
        k(   22) = (   0.4166667   0.1122220   0.0221902), wk =   0.0370370
        k(   23) = (   0.4166667   0.1122220   0.0665705), wk =   0.0370370
        k(   24) = (   0.4166667   0.1122220   0.1109508), wk =   0.0370370
        k(   25) = (   0.4166667   0.1870366   0.0221902), wk =   0.0370370
        k(   26) = (   0.4166667   0.1870366   0.0665705), wk =   0.0370370
        k(   27) = (   0.4166667   0.1870366   0.1109508), wk =   0.0370370

                       cryst. coord.
        k(    1) = (   0.0833333   0.0833333   0.0833333), wk =   0.0370370
        k(    2) = (   0.0833333   0.0833333   0.2500000), wk =   0.0370370
        k(    3) = (   0.0833333   0.0833333   0.4166667), wk =   0.0370370
        k(    4) = (   0.0833333   0.2500000   0.0833333), wk =   0.0370370
        k(    5) = (   0.0833333   0.2500000   0.2500000), wk =   0.0370370
        k(    6) = (   0.0833333   0.2500000   0.4166667), wk =   0.0370370
        k(    7) = (   0.0833333   0.4166667   0.0833333), wk =   0.0370370
        k(    8) = (   0.0833333   0.4166667   0.2500000), wk =   0.0370370
        k(    9) = (   0.0833333   0.4166667   0.4166667), wk =   0.0370370
        k(   10) = (   0.2500000   0.0833333   0.0833333), wk =   0.0370370
        k(   11) = (   0.2500000   0.0833333   0.2500000), wk =   0.0370370
        k(   12) = (   0.2500000   0.0833333   0.4166667), wk =   0.0370370
        k(   13) = (   0.2500000   0.2500000   0.0833333), wk =   0.0370370
        k(   14) = (   0.2500000   0.2500000   0.2500000), wk =   0.0370370
        k(   15) = (   0.2500000   0.2500000   0.4166667), wk =   0.0370370
        k(   16) = (   0.2500000   0.4166667   0.0833333), wk =   0.0370370
        k(   17) = (   0.2500000   0.4166667   0.2500000), wk =   0.0370370
        k(   18) = (   0.2500000   0.4166667   0.4166667), wk =   0.0370370
        k(   19) = (   0.4166667   0.0833333   0.0833333), wk =   0.0370370
        k(   20) = (   0.4166667   0.0833333   0.2500000), wk =   0.0370370
        k(   21) = (   0.4166667   0.0833333   0.4166667), wk =   0.0370370
        k(   22) = (   0.4166667   0.2500000   0.0833333), wk =   0.0370370
        k(   23) = (   0.4166667   0.2500000   0.2500000), wk =   0.0370370
        k(   24) = (   0.4166667   0.2500000   0.4166667), wk =   0.0370370
        k(   25) = (   0.4166667   0.4166667   0.0833333), wk =   0.0370370
        k(   26) = (   0.4166667   0.4166667   0.2500000), wk =   0.0370370
        k(   27) = (   0.4166667   0.4166667   0.4166667), wk =   0.0370370

     Dense  grid:   704507 G-vectors     FFT dimensions: (  60, 128, 216)

     Smooth grid:   504115 G-vectors     FFT dimensions: (  50, 120, 192)

     Dynamical RAM for                 wfc:       7.05 MB

     Dynamical RAM for     wfc (w. buffer):       7.05 MB

     Dynamical RAM for           str. fact:       0.67 MB

     Dynamical RAM for           local pot:       0.00 MB

     Dynamical RAM for          nlocal pot:      15.94 MB

     Dynamical RAM for                qrad:      36.03 MB

     Dynamical RAM for          rho,v,vnew:       6.20 MB

     Dynamical RAM for           G-vectors:       0.92 MB

     Dynamical RAM for          h,s,v(r/c):       5.67 MB

     Dynamical RAM for          <psi|beta>:       4.28 MB

     Dynamical RAM for                 psi:      14.09 MB

     Dynamical RAM for                hpsi:      14.09 MB

     Dynamical RAM for                spsi:      14.09 MB

     Dynamical RAM for      wfcinit/wfcrot:      13.48 MB

     Dynamical RAM for           addusdens:     460.26 MB

     Estimated static dynamical RAM per process >      70.05 MB

     Estimated max dynamical RAM per process >     530.30 MB

     Estimated total dynamical RAM >      24.86 GB

     The potential is recalculated from file :
     ./CsSnI3.save/charge-density

     Starting wfcs are  208 randomized atomic wfcs

     Band Structure Calculation
     Davidson diagonalization with overlap

     Computing kpt #:     1  of    27
     total cpu time spent up to now is       51.1 secs

     Computing kpt #:     2  of    27
     total cpu time spent up to now is       93.6 secs

     Computing kpt #:     3  of    27
     total cpu time spent up to now is      136.3 secs

     Computing kpt #:     4  of    27
     total cpu time spent up to now is      179.4 secs

     Computing kpt #:     5  of    27
     total cpu time spent up to now is      222.2 secs

     Computing kpt #:     6  of    27
     total cpu time spent up to now is      264.7 secs

     Computing kpt #:     7  of    27
     total cpu time spent up to now is      307.2 secs

     Computing kpt #:     8  of    27
     total cpu time spent up to now is      350.2 secs

     Computing kpt #:     9  of    27
     total cpu time spent up to now is      393.2 secs

     Computing kpt #:    10  of    27
     total cpu time spent up to now is      435.2 secs

     Computing kpt #:    11  of    27
     total cpu time spent up to now is      477.3 secs

     Computing kpt #:    12  of    27
     total cpu time spent up to now is      519.2 secs

     Computing kpt #:    13  of    27
     total cpu time spent up to now is      560.7 secs

     Computing kpt #:    14  of    27
     total cpu time spent up to now is      603.0 secs

     Computing kpt #:    15  of    27
     total cpu time spent up to now is      645.0 secs

     Computing kpt #:    16  of    27
     total cpu time spent up to now is      686.4 secs

     Computing kpt #:    17  of    27
     total cpu time spent up to now is      728.2 secs

     Computing kpt #:    18  of    27
     total cpu time spent up to now is      769.5 secs

     Computing kpt #:    19  of    27
     total cpu time spent up to now is      810.5 secs

     Computing kpt #:    20  of    27
     total cpu time spent up to now is      851.9 secs

     Computing kpt #:    21  of    27
     total cpu time spent up to now is      893.2 secs

     Computing kpt #:    22  of    27
     total cpu time spent up to now is      935.0 secs

     Computing kpt #:    23  of    27
     total cpu time spent up to now is      976.4 secs

     Computing kpt #:    24  of    27
     total cpu time spent up to now is     1017.9 secs

     Computing kpt #:    25  of    27
     total cpu time spent up to now is     1059.4 secs

     Computing kpt #:    26  of    27
     total cpu time spent up to now is     1100.9 secs

     Computing kpt #:    27  of    27
     total cpu time spent up to now is     1142.5 secs

     ethr =  5.68E-10,  avg # of iterations = 31.7

     total cpu time spent up to now is     1142.5 secs

     End of band structure calculation

          k = 0.0833 0.0374 0.0222 ( 62996 PWs)   bands (ev):

   -18.4227 -18.4227 -18.4227 -18.4227 -18.4225 -18.4225 -18.4225 -18.4225
   -18.4113 -18.4113 -18.4113 -18.4113 -18.4112 -18.4112 -18.4112 -18.4112
   -17.8433 -17.8433 -17.8431 -17.8431 -17.8424 -17.8424 -17.8422 -17.8422
   -17.3846 -17.3846 -17.3846 -17.3846 -17.3846 -17.3846 -17.3846 -17.3846
   -17.3732 -17.3732 -17.3731 -17.3731 -17.3731 -17.3731 -17.3731 -17.3731
   -17.3702 -17.3702 -17.3702 -17.3702 -17.3698 -17.3698 -17.3698 -17.3698
    -8.9216  -8.9216  -8.8989  -8.8989  -8.7219  -8.7219  -8.6697  -8.6697
    -8.5818  -8.5818  -8.5658  -8.5658  -8.5536  -8.5536  -8.5220  -8.5220
    -8.4194  -8.4194  -8.4008  -8.4008  -8.3805  -8.3805  -8.3416  -8.3416
    -5.7845  -5.7845  -5.7807  -5.7807  -5.7630  -5.7630  -5.7551  -5.7551
    -4.1871  -4.1871  -4.1828  -4.1828  -4.1584  -4.1584  -4.1483  -4.1483
    -4.1388  -4.1388  -4.1337  -4.1337  -4.1193  -4.1193  -4.1147  -4.1147
    -3.0394  -3.0394  -3.0186  -3.0186  -2.9651  -2.9651  -2.8956  -2.8956
    -0.1191  -0.1191   0.0431   0.0431   0.4118   0.4118   0.4741   0.4741
     0.5272   0.5272   0.6289   0.6289   0.6974   0.6974   0.7552   0.7552
     0.9077   0.9077   0.9553   0.9553   0.9988   0.9988   1.0869   1.0869
     1.1094   1.1094   1.2019   1.2019   1.3620   1.3620   1.3870   1.3870
     1.4261   1.4261   1.5088   1.5088   1.5413   1.5413   1.6753   1.6753
     1.7985   1.7985   1.8579   1.8579   1.8761   1.8761   1.9522   1.9522
     1.9849   1.9849   2.0298   2.0298   2.1768   2.1768   2.2217   2.2217
     2.2489   2.2489   2.2993   2.2993   2.3436   2.3436   2.4041   2.4041
     2.5372   2.5372   2.6113   2.6113   2.7167   2.7167   2.9820   2.9820

     occupation numbers 
     1.0000   1.0000   1.0000   1.0000   1.0000   1.0000   1.0000   1.0000
     1.0000   1.0000   1.0000   1.0000   1.0000   1.0000   1.0000   1.0000
     1.0000   1.0000   1.0000   1.0000   1.0000   1.0000   1.0000   1.0000
     1.0000   1.0000   1.0000   1.0000   1.0000   1.0000   1.0000   1.0000
     1.0000   1.0000   1.0000   1.0000   1.0000   1.0000   1.0000   1.0000
     1.0000   1.0000   1.0000   1.0000   1.0000   1.0000   1.0000   1.0000
     1.0000   1.0000   1.0000   1.0000   1.0000   1.0000   1.0000   1.0000
     1.0000   1.0000   1.0000   1.0000   1.0000   1.0000   1.0000   1.0000
     1.0000   1.0000   1.0000   1.0000   1.0000   1.0000   1.0000   1.0000
     1.0000   1.0000   1.0000   1.0000   1.0000   1.0000   1.0000   1.0000
     1.0000   1.0000   1.0000   1.0000   1.0000   1.0000   1.0000   1.0000
     1.0000   1.0000   1.0000   1.0000   1.0000   1.0000   1.0000   1.0000
     1.0000   1.0000   1.0000   1.0000   1.0000   1.0000   1.0000   1.0000
     1.0000   1.0000   1.0000   1.0000   1.0000   1.0000   1.0000   1.0000
     1.0000   1.0000   1.0000   1.0000   1.0000   1.0000   1.0000   1.0000
     1.0000   1.0000   1.0000   1.0000   1.0000   1.0000   1.0000   1.0000
     1.0000   1.0000   1.0000   1.0000   1.0000   1.0000   1.0000   1.0000
     1.0000   1.0000   1.0000   1.0000   1.0000   1.0000   1.0000   1.0000
     1.0000   1.0000   1.0000   1.0000   1.0000   1.0000   1.0000   1.0000
     1.0000   1.0000   1.0000   1.0000   1.0000   1.0000   1.0000   1.0000
     1.0000   1.0000   1.0000   1.0000   1.0000   1.0000   1.0000   1.0000
     1.0000   1.0000   1.0000   1.0000   1.0000   1.0000   1.0000   1.0000

          k = 0.0833 0.0374 0.0666 ( 62976 PWs)   bands (ev):

   -18.4227 -18.4227 -18.4227 -18.4227 -18.4225 -18.4225 -18.4225 -18.4225
   -18.4113 -18.4113 -18.4113 -18.4113 -18.4112 -18.4112 -18.4112 -18.4112
   -17.8433 -17.8433 -17.8431 -17.8431 -17.8423 -17.8423 -17.8422 -17.8422
   -17.3846 -17.3846 -17.3846 -17.3846 -17.3846 -17.3846 -17.3846 -17.3846
   -17.3731 -17.3731 -17.3731 -17.3731 -17.3731 -17.3731 -17.3731 -17.3731
   -17.3702 -17.3702 -17.3702 -17.3702 -17.3698 -17.3698 -17.3698 -17.3698
    -8.9190  -8.9190  -8.9025  -8.9025  -8.7145  -8.7145  -8.6765  -8.6765
    -8.5815  -8.5815  -8.5717  -8.5717  -8.5455  -8.5455  -8.5245  -8.5245
    -8.4182  -8.4182  -8.4062  -8.4062  -8.3720  -8.3720  -8.3453  -8.3453
    -5.7842  -5.7842  -5.7813  -5.7813  -5.7619  -5.7619  -5.7559  -5.7559
    -4.1870  -4.1870  -4.1838  -4.1838  -4.1572  -4.1572  -4.1483  -4.1483
    -4.1389  -4.1389  -4.1346  -4.1346  -4.1184  -4.1184  -4.1150  -4.1150
    -3.0377  -3.0377  -3.0234  -3.0234  -2.9538  -2.9538  -2.9040  -2.9040
    -0.1009  -0.1009   0.0178   0.0178   0.4204   0.4204   0.4715   0.4715
     0.5319   0.5319   0.6092   0.6092   0.7204   0.7204   0.7591   0.7591
     0.8951   0.8951   0.9554   0.9554   1.0066   1.0066   1.0780   1.0780
     1.1176   1.1176   1.1937   1.1937   1.3666   1.3666   1.3901   1.3901
     1.4281   1.4281   1.5022   1.5022   1.5564   1.5564   1.6536   1.6536
     1.8063   1.8063   1.8428   1.8428   1.8898   1.8898   1.9404   1.9404
     1.9876   1.9876   2.0284   2.0284   2.1775   2.1775   2.2071   2.2071
     2.2553   2.2553   2.2921   2.2921   2.3650   2.3650   2.4113   2.4113
     2.5411   2.5411   2.5995   2.5995   2.7532   2.7532   2.9478   2.9478

     occupation numbers 
     1.0000   1.0000   1.0000   1.0000   1.0000   1.0000   1.0000   1.0000
     1.0000   1.0000   1.0000   1.0000   1.0000   1.0000   1.0000   1.0000
     1.0000   1.0000   1.0000   1.0000   1.0000   1.0000   1.0000   1.0000
     1.0000   1.0000   1.0000   1.0000   1.0000   1.0000   1.0000   1.0000
     1.0000   1.0000   1.0000   1.0000   1.0000   1.0000   1.0000   1.0000
     1.0000   1.0000   1.0000   1.0000   1.0000   1.0000   1.0000   1.0000
     1.0000   1.0000   1.0000   1.0000   1.0000   1.0000   1.0000   1.0000
     1.0000   1.0000   1.0000   1.0000   1.0000   1.0000   1.0000   1.0000
     1.0000   1.0000   1.0000   1.0000   1.0000   1.0000   1.0000   1.0000
     1.0000   1.0000   1.0000   1.0000   1.0000   1.0000   1.0000   1.0000
     1.0000   1.0000   1.0000   1.0000   1.0000   1.0000   1.0000   1.0000
     1.0000   1.0000   1.0000   1.0000   1.0000   1.0000   1.0000   1.0000
     1.0000   1.0000   1.0000   1.0000   1.0000   1.0000   1.0000   1.0000
     1.0000   1.0000   1.0000   1.0000   1.0000   1.0000   1.0000   1.0000
     1.0000   1.0000   1.0000   1.0000   1.0000   1.0000   1.0000   1.0000
     1.0000   1.0000   1.0000   1.0000   1.0000   1.0000   1.0000   1.0000
     1.0000   1.0000   1.0000   1.0000   1.0000   1.0000   1.0000   1.0000
     1.0000   1.0000   1.0000   1.0000   1.0000   1.0000   1.0000   1.0000
     1.0000   1.0000   1.0000   1.0000   1.0000   1.0000   1.0000   1.0000
     1.0000   1.0000   1.0000   1.0000   1.0000   1.0000   1.0000   1.0000
     1.0000   1.0000   1.0000   1.0000   1.0000   1.0000   1.0000   1.0000
     1.0000   1.0000   1.0000   1.0000   1.0000   1.0000   1.0000   1.0000

          k = 0.0833 0.0374 0.1110 ( 62979 PWs)   bands (ev):

   -18.4227 -18.4227 -18.4227 -18.4227 -18.4225 -18.4225 -18.4225 -18.4225
   -18.4113 -18.4113 -18.4113 -18.4113 -18.4112 -18.4112 -18.4112 -18.4112
   -17.8432 -17.8432 -17.8432 -17.8432 -17.8423 -17.8423 -17.8422 -17.8422
   -17.3846 -17.3846 -17.3846 -17.3846 -17.3846 -17.3846 -17.3846 -17.3846
   -17.3732 -17.3732 -17.3731 -17.3731 -17.3731 -17.3731 -17.3731 -17.3731
   -17.3702 -17.3702 -17.3702 -17.3702 -17.3698 -17.3698 -17.3698 -17.3698
    -8.9143  -8.9143  -8.9083  -8.9083  -8.7022  -8.7022  -8.6883  -8.6883
    -8.5800  -8.5800  -8.5766  -8.5766  -8.5369  -8.5369  -8.5296  -8.5296
    -8.4157  -8.4157  -8.4116  -8.4116  -8.3617  -8.3617  -8.3524  -8.3524
    -5.7838  -5.7838  -5.7821  -5.7821  -5.7604  -5.7604  -5.7571  -5.7571
    -4.1865  -4.1865  -4.1851  -4.1851  -4.1558  -4.1558  -4.1487  -4.1487
    -4.1381  -4.1381  -4.1362  -4.1362  -4.1170  -4.1170  -4.1158  -4.1158
    -3.0343  -3.0343  -3.0293  -3.0293  -2.9367  -2.9367  -2.9187  -2.9187
    -0.0688  -0.0688  -0.0211  -0.0211   0.4315   0.4315   0.4648   0.4648
     0.5429   0.5429   0.5880   0.5880   0.7439   0.7439   0.7613   0.7613
     0.8809   0.8809   0.9563   0.9563   1.0152   1.0152   1.0673   1.0673
     1.1259   1.1259   1.1860   1.1860   1.3747   1.3747   1.3864   1.3864
     1.4332   1.4332   1.4966   1.4966   1.5794   1.5794   1.6230   1.6230
     1.8178   1.8178   1.8313   1.8313   1.8973   1.8973   1.9280   1.9280
     1.9903   1.9903   2.0268   2.0268   2.1791   2.1791   2.1952   2.1952
     2.2604   2.2604   2.2869   2.2869   2.3820   2.3820   2.4169   2.4169
     2.5497   2.5497   2.5845   2.5845   2.8157   2.8157   2.8873   2.8873

     occupation numbers 
     1.0000   1.0000   1.0000   1.0000   1.0000   1.0000   1.0000   1.0000
     1.0000   1.0000   1.0000   1.0000   1.0000   1.0000   1.0000   1.0000
     1.0000   1.0000   1.0000   1.0000   1.0000   1.0000   1.0000   1.0000
     1.0000   1.0000   1.0000   1.0000   1.0000   1.0000   1.0000   1.0000
     1.0000   1.0000   1.0000   1.0000   1.0000   1.0000   1.0000   1.0000
     1.0000   1.0000   1.0000   1.0000   1.0000   1.0000   1.0000   1.0000
     1.0000   1.0000   1.0000   1.0000   1.0000   1.0000   1.0000   1.0000
     1.0000   1.0000   1.0000   1.0000   1.0000   1.0000   1.0000   1.0000
     1.0000   1.0000   1.0000   1.0000   1.0000   1.0000   1.0000   1.0000
     1.0000   1.0000   1.0000   1.0000   1.0000   1.0000   1.0000   1.0000
     1.0000   1.0000   1.0000   1.0000   1.0000   1.0000   1.0000   1.0000
     1.0000   1.0000   1.0000   1.0000   1.0000   1.0000   1.0000   1.0000
     1.0000   1.0000   1.0000   1.0000   1.0000   1.0000   1.0000   1.0000
     1.0000   1.0000   1.0000   1.0000   1.0000   1.0000   1.0000   1.0000
     1.0000   1.0000   1.0000   1.0000   1.0000   1.0000   1.0000   1.0000
     1.0000   1.0000   1.0000   1.0000   1.0000   1.0000   1.0000   1.0000
     1.0000   1.0000   1.0000   1.0000   1.0000   1.0000   1.0000   1.0000
     1.0000   1.0000   1.0000   1.0000   1.0000   1.0000   1.0000   1.0000
     1.0000   1.0000   1.0000   1.0000   1.0000   1.0000   1.0000   1.0000
     1.0000   1.0000   1.0000   1.0000   1.0000   1.0000   1.0000   1.0000
     1.0000   1.0000   1.0000   1.0000   1.0000   1.0000   1.0000   1.0000
     1.0000   1.0000   1.0000   1.0000   1.0000   1.0000   1.0000   1.0000

          k = 0.0833 0.1122 0.0222 ( 62988 PWs)   bands (ev):

   -18.4227 -18.4227 -18.4227 -18.4227 -18.4225 -18.4225 -18.4225 -18.4225
   -18.4113 -18.4113 -18.4113 -18.4113 -18.4112 -18.4112 -18.4112 -18.4112
   -17.8432 -17.8432 -17.8429 -17.8429 -17.8425 -17.8425 -17.8423 -17.8423
   -17.3846 -17.3846 -17.3846 -17.3846 -17.3846 -17.3846 -17.3846 -17.3846
   -17.3732 -17.3732 -17.3731 -17.3731 -17.3731 -17.3731 -17.3731 -17.3731
   -17.3702 -17.3702 -17.3702 -17.3702 -17.3698 -17.3698 -17.3698 -17.3698
    -8.9103  -8.9103  -8.8920  -8.8920  -8.7291  -8.7291  -8.7037  -8.7037
    -8.5984  -8.5984  -8.5972  -8.5972  -8.5188  -8.5188  -8.4885  -8.4885
    -8.4057  -8.4057  -8.4006  -8.4006  -8.3833  -8.3833  -8.3478  -8.3478
    -5.7824  -5.7824  -5.7778  -5.7778  -5.7663  -5.7663  -5.7588  -5.7588
    -4.1858  -4.1858  -4.1787  -4.1787  -4.1638  -4.1638  -4.1524  -4.1524
    -4.1380  -4.1380  -4.1338  -4.1338  -4.1215  -4.1215  -4.1186  -4.1186
    -3.0448  -3.0448  -3.0266  -3.0266  -2.9418  -2.9418  -2.8935  -2.8935
    -0.0900  -0.0900   0.0369   0.0369   0.3976   0.3976   0.4499   0.4499
     0.5256   0.5256   0.6411   0.6411   0.6837   0.6837   0.7422   0.7422
     0.9018   0.9018   0.9285   0.9285   1.0043   1.0043   1.0889   1.0889
     1.1586   1.1586   1.2298   1.2298   1.3665   1.3665   1.4038   1.4038
     1.4273   1.4273   1.5114   1.5114   1.5568   1.5568   1.6402   1.6402
     1.7719   1.7719   1.8443   1.8443   1.8939   1.8939   1.9408   1.9408
     2.0051   2.0051   2.0356   2.0356   2.1657   2.1657   2.1936   2.1936
     2.2623   2.2623   2.3026   2.3026   2.3580   2.3580   2.4027   2.4027
     2.4718   2.4718   2.5732   2.5732   2.8134   2.8134   2.9821   2.9821

     occupation numbers 
     1.0000   1.0000   1.0000   1.0000   1.0000   1.0000   1.0000   1.0000
     1.0000   1.0000   1.0000   1.0000   1.0000   1.0000   1.0000   1.0000
     1.0000   1.0000   1.0000   1.0000   1.0000   1.0000   1.0000   1.0000
     1.0000   1.0000   1.0000   1.0000   1.0000   1.0000   1.0000   1.0000
     1.0000   1.0000   1.0000   1.0000   1.0000   1.0000   1.0000   1.0000
     1.0000   1.0000   1.0000   1.0000   1.0000   1.0000   1.0000   1.0000
     1.0000   1.0000   1.0000   1.0000   1.0000   1.0000   1.0000   1.0000
     1.0000   1.0000   1.0000   1.0000   1.0000   1.0000   1.0000   1.0000
     1.0000   1.0000   1.0000   1.0000   1.0000   1.0000   1.0000   1.0000
     1.0000   1.0000   1.0000   1.0000   1.0000   1.0000   1.0000   1.0000
     1.0000   1.0000   1.0000   1.0000   1.0000   1.0000   1.0000   1.0000
     1.0000   1.0000   1.0000   1.0000   1.0000   1.0000   1.0000   1.0000
     1.0000   1.0000   1.0000   1.0000   1.0000   1.0000   1.0000   1.0000
     1.0000   1.0000   1.0000   1.0000   1.0000   1.0000   1.0000   1.0000
     1.0000   1.0000   1.0000   1.0000   1.0000   1.0000   1.0000   1.0000
     1.0000   1.0000   1.0000   1.0000   1.0000   1.0000   1.0000   1.0000
     1.0000   1.0000   1.0000   1.0000   1.0000   1.0000   1.0000   1.0000
     1.0000   1.0000   1.0000   1.0000   1.0000   1.0000   1.0000   1.0000
     1.0000   1.0000   1.0000   1.0000   1.0000   1.0000   1.0000   1.0000
     1.0000   1.0000   1.0000   1.0000   1.0000   1.0000   1.0000   1.0000
     1.0000   1.0000   1.0000   1.0000   1.0000   1.0000   1.0000   1.0000
     1.0000   1.0000   1.0000   1.0000   1.0000   1.0000   1.0000   1.0000

          k = 0.0833 0.1122 0.0666 ( 62961 PWs)   bands (ev):

   -18.4227 -18.4227 -18.4227 -18.4227 -18.4225 -18.4225 -18.4225 -18.4225
   -18.4113 -18.4113 -18.4113 -18.4113 -18.4112 -18.4112 -18.4112 -18.4112
   -17.8431 -17.8431 -17.8430 -17.8430 -17.8425 -17.8425 -17.8423 -17.8423
   -17.3846 -17.3846 -17.3846 -17.3846 -17.3846 -17.3846 -17.3846 -17.3846
   -17.3731 -17.3731 -17.3731 -17.3731 -17.3731 -17.3731 -17.3731 -17.3731
   -17.3702 -17.3702 -17.3702 -17.3702 -17.3698 -17.3698 -17.3698 -17.3698
    -8.9082  -8.9082  -8.8948  -8.8948  -8.7248  -8.7248  -8.7063  -8.7063
    -8.5998  -8.5998  -8.5975  -8.5975  -8.5151  -8.5151  -8.4926  -8.4926
    -8.4075  -8.4075  -8.4006  -8.4006  -8.3766  -8.3766  -8.3513  -8.3513
    -5.7820  -5.7820  -5.7787  -5.7787  -5.7651  -5.7651  -5.7595  -5.7595
    -4.1855  -4.1855  -4.1804  -4.1804  -4.1622  -4.1622  -4.1535  -4.1535
    -4.1374  -4.1374  -4.1340  -4.1340  -4.1209  -4.1209  -4.1188  -4.1188
    -3.0426  -3.0426  -3.0294  -3.0294  -2.9351  -2.9351  -2.8999  -2.8999
    -0.0746  -0.0746   0.0189   0.0189   0.4025   0.4025   0.4439   0.4439
     0.5367   0.5367   0.6221   0.6221   0.6987   0.6987   0.7435   0.7435
     0.8966   0.8966   0.9259   0.9259   1.0047   1.0047   1.0749   1.0749
     1.1746   1.1746   1.2335   1.2335   1.3632   1.3632   1.4024   1.4024
     1.4341   1.4341   1.5035   1.5035   1.5650   1.5650   1.6279   1.6279
     1.7860   1.7860   1.8377   1.8377   1.8961   1.8961   1.9276   1.9276
     2.0119   2.0119   2.0383   2.0383   2.1653   2.1653   2.1886   2.1886
     2.2652   2.2652   2.2953   2.2953   2.3699   2.3699   2.4009   2.4009
     2.4878   2.4878   2.5636   2.5636   2.8310   2.8310   2.9564   2.9564

     occupation numbers 
     1.0000   1.0000   1.0000   1.0000   1.0000   1.0000   1.0000   1.0000
     1.0000   1.0000   1.0000   1.0000   1.0000   1.0000   1.0000   1.0000
     1.0000   1.0000   1.0000   1.0000   1.0000   1.0000   1.0000   1.0000
     1.0000   1.0000   1.0000   1.0000   1.0000   1.0000   1.0000   1.0000
     1.0000   1.0000   1.0000   1.0000   1.0000   1.0000   1.0000   1.0000
     1.0000   1.0000   1.0000   1.0000   1.0000   1.0000   1.0000   1.0000
     1.0000   1.0000   1.0000   1.0000   1.0000   1.0000   1.0000   1.0000
     1.0000   1.0000   1.0000   1.0000   1.0000   1.0000   1.0000   1.0000
     1.0000   1.0000   1.0000   1.0000   1.0000   1.0000   1.0000   1.0000
     1.0000   1.0000   1.0000   1.0000   1.0000   1.0000   1.0000   1.0000
     1.0000   1.0000   1.0000   1.0000   1.0000   1.0000   1.0000   1.0000
     1.0000   1.0000   1.0000   1.0000   1.0000   1.0000   1.0000   1.0000
     1.0000   1.0000   1.0000   1.0000   1.0000   1.0000   1.0000   1.0000
     1.0000   1.0000   1.0000   1.0000   1.0000   1.0000   1.0000   1.0000
     1.0000   1.0000   1.0000   1.0000   1.0000   1.0000   1.0000   1.0000
     1.0000   1.0000   1.0000   1.0000   1.0000   1.0000   1.0000   1.0000
     1.0000   1.0000   1.0000   1.0000   1.0000   1.0000   1.0000   1.0000
     1.0000   1.0000   1.0000   1.0000   1.0000   1.0000   1.0000   1.0000
     1.0000   1.0000   1.0000   1.0000   1.0000   1.0000   1.0000   1.0000
     1.0000   1.0000   1.0000   1.0000   1.0000   1.0000   1.0000   1.0000
     1.0000   1.0000   1.0000   1.0000   1.0000   1.0000   1.0000   1.0000
     1.0000   1.0000   1.0000   1.0000   1.0000   1.0000   1.0000   1.0000

          k = 0.0833 0.1122 0.1110 ( 62960 PWs)   bands (ev):

   -18.4227 -18.4227 -18.4227 -18.4227 -18.4225 -18.4225 -18.4225 -18.4225
   -18.4113 -18.4113 -18.4113 -18.4113 -18.4112 -18.4112 -18.4112 -18.4112
   -17.8431 -17.8431 -17.8430 -17.8430 -17.8424 -17.8424 -17.8423 -17.8423
   -17.3846 -17.3846 -17.3846 -17.3846 -17.3846 -17.3846 -17.3846 -17.3846
   -17.3731 -17.3731 -17.3731 -17.3731 -17.3731 -17.3731 -17.3731 -17.3731
   -17.3702 -17.3702 -17.3702 -17.3702 -17.3698 -17.3698 -17.3698 -17.3698
    -8.9043  -8.9043  -8.8994  -8.8994  -8.7181  -8.7181  -8.7114  -8.7114
    -8.6002  -8.6002  -8.5991  -8.5991  -8.5083  -8.5083  -8.4999  -8.4999
    -8.4062  -8.4062  -8.4032  -8.4032  -8.3671  -8.3671  -8.3581  -8.3581
    -5.7812  -5.7812  -5.7799  -5.7799  -5.7635  -5.7635  -5.7606  -5.7606
    -4.1846  -4.1846  -4.1824  -4.1824  -4.1603  -4.1603  -4.1550  -4.1550
    -4.1365  -4.1365  -4.1345  -4.1345  -4.1201  -4.1201  -4.1193  -4.1193
    -3.0386  -3.0386  -3.0338  -3.0338  -2.9237  -2.9237  -2.9109  -2.9109
    -0.0481  -0.0481  -0.0102  -0.0102   0.4101   0.4101   0.4350   0.4350
     0.5551   0.5551   0.5977   0.5977   0.7187   0.7187   0.7387   0.7387
     0.8876   0.8876   0.9256   0.9256   1.0098   1.0098   1.0574   1.0574
     1.1976   1.1976   1.2291   1.2291   1.3626   1.3626   1.3934   1.3934
     1.4565   1.4565   1.4835   1.4835   1.5837   1.5837   1.6072   1.6072
     1.8062   1.8062   1.8275   1.8275   1.9003   1.9003   1.9113   1.9113
     2.0177   2.0177   2.0405   2.0405   2.1653   2.1653   2.1834   2.1834
     2.2688   2.2688   2.2890   2.2890   2.3836   2.3836   2.3947   2.3947
     2.5150   2.5150   2.5434   2.5434   2.8666   2.8666   2.9132   2.9132

     occupation numbers 
     1.0000   1.0000   1.0000   1.0000   1.0000   1.0000   1.0000   1.0000
     1.0000   1.0000   1.0000   1.0000   1.0000   1.0000   1.0000   1.0000
     1.0000   1.0000   1.0000   1.0000   1.0000   1.0000   1.0000   1.0000
     1.0000   1.0000   1.0000   1.0000   1.0000   1.0000   1.0000   1.0000
     1.0000   1.0000   1.0000   1.0000   1.0000   1.0000   1.0000   1.0000
     1.0000   1.0000   1.0000   1.0000   1.0000   1.0000   1.0000   1.0000
     1.0000   1.0000   1.0000   1.0000   1.0000   1.0000   1.0000   1.0000
     1.0000   1.0000   1.0000   1.0000   1.0000   1.0000   1.0000   1.0000
     1.0000   1.0000   1.0000   1.0000   1.0000   1.0000   1.0000   1.0000
     1.0000   1.0000   1.0000   1.0000   1.0000   1.0000   1.0000   1.0000
     1.0000   1.0000   1.0000   1.0000   1.0000   1.0000   1.0000   1.0000
     1.0000   1.0000   1.0000   1.0000   1.0000   1.0000   1.0000   1.0000
     1.0000   1.0000   1.0000   1.0000   1.0000   1.0000   1.0000   1.0000
     1.0000   1.0000   1.0000   1.0000   1.0000   1.0000   1.0000   1.0000
     1.0000   1.0000   1.0000   1.0000   1.0000   1.0000   1.0000   1.0000
     1.0000   1.0000   1.0000   1.0000   1.0000   1.0000   1.0000   1.0000
     1.0000   1.0000   1.0000   1.0000   1.0000   1.0000   1.0000   1.0000
     1.0000   1.0000   1.0000   1.0000   1.0000   1.0000   1.0000   1.0000
     1.0000   1.0000   1.0000   1.0000   1.0000   1.0000   1.0000   1.0000
     1.0000   1.0000   1.0000   1.0000   1.0000   1.0000   1.0000   1.0000
     1.0000   1.0000   1.0000   1.0000   1.0000   1.0000   1.0000   1.0000
     1.0000   1.0000   1.0000   1.0000   1.0000   1.0000   1.0000   1.0000

          k = 0.0833 0.1870 0.0222 ( 62979 PWs)   bands (ev):

   -18.4227 -18.4227 -18.4227 -18.4227 -18.4225 -18.4225 -18.4225 -18.4225
   -18.4113 -18.4113 -18.4113 -18.4113 -18.4112 -18.4112 -18.4112 -18.4112
   -17.8430 -17.8430 -17.8428 -17.8428 -17.8427 -17.8427 -17.8425 -17.8425
   -17.3846 -17.3846 -17.3846 -17.3846 -17.3846 -17.3846 -17.3846 -17.3846
   -17.3732 -17.3732 -17.3731 -17.3731 -17.3731 -17.3731 -17.3731 -17.3731
   -17.3702 -17.3702 -17.3702 -17.3702 -17.3698 -17.3698 -17.3698 -17.3698
    -8.8942  -8.8942  -8.8866  -8.8866  -8.7388  -8.7388  -8.7332  -8.7332
    -8.6129  -8.6129  -8.6102  -8.6102  -8.4883  -8.4883  -8.4754  -8.4754
    -8.4008  -8.4008  -8.3942  -8.3942  -8.3780  -8.3780  -8.3604  -8.3604
    -5.7784  -5.7784  -5.7734  -5.7734  -5.7707  -5.7707  -5.7648  -5.7648
    -4.1813  -4.1813  -4.1751  -4.1751  -4.1686  -4.1686  -4.1607  -4.1607
    -4.1365  -4.1365  -4.1344  -4.1344  -4.1235  -4.1235  -4.1221  -4.1221
    -3.0443  -3.0443  -3.0369  -3.0369  -2.9154  -2.9154  -2.8982  -2.8982
    -0.0445  -0.0445   0.0149   0.0149   0.3784   0.3784   0.4207   0.4207
     0.5398   0.5398   0.6245   0.6245   0.6860   0.6860   0.7488   0.7488
     0.8948   0.8948   0.9046   0.9046   1.0231   1.0231   1.0859   1.0859
     1.2076   1.2076   1.2414   1.2414   1.3436   1.3436   1.4200   1.4200
     1.4328   1.4328   1.4996   1.4996   1.5963   1.5963   1.6179   1.6179
     1.7814   1.7814   1.8177   1.8177   1.8669   1.8669   1.9366   1.9366
     2.0055   2.0055   2.0532   2.0532   2.1547   2.1547   2.2112   2.2112
     2.2736   2.2736   2.3014   2.3014   2.3653   2.3653   2.3923   2.3923
     2.4580   2.4580   2.5031   2.5031   2.8954   2.8954   2.9705   2.9705

     occupation numbers 
     1.0000   1.0000   1.0000   1.0000   1.0000   1.0000   1.0000   1.0000
     1.0000   1.0000   1.0000   1.0000   1.0000   1.0000   1.0000   1.0000
     1.0000   1.0000   1.0000   1.0000   1.0000   1.0000   1.0000   1.0000
     1.0000   1.0000   1.0000   1.0000   1.0000   1.0000   1.0000   1.0000
     1.0000   1.0000   1.0000   1.0000   1.0000   1.0000   1.0000   1.0000
     1.0000   1.0000   1.0000   1.0000   1.0000   1.0000   1.0000   1.0000
     1.0000   1.0000   1.0000   1.0000   1.0000   1.0000   1.0000   1.0000
     1.0000   1.0000   1.0000   1.0000   1.0000   1.0000   1.0000   1.0000
     1.0000   1.0000   1.0000   1.0000   1.0000   1.0000   1.0000   1.0000
     1.0000   1.0000   1.0000   1.0000   1.0000   1.0000   1.0000   1.0000
     1.0000   1.0000   1.0000   1.0000   1.0000   1.0000   1.0000   1.0000
     1.0000   1.0000   1.0000   1.0000   1.0000   1.0000   1.0000   1.0000
     1.0000   1.0000   1.0000   1.0000   1.0000   1.0000   1.0000   1.0000
     1.0000   1.0000   1.0000   1.0000   1.0000   1.0000   1.0000   1.0000
     1.0000   1.0000   1.0000   1.0000   1.0000   1.0000   1.0000   1.0000
     1.0000   1.0000   1.0000   1.0000   1.0000   1.0000   1.0000   1.0000
     1.0000   1.0000   1.0000   1.0000   1.0000   1.0000   1.0000   1.0000
     1.0000   1.0000   1.0000   1.0000   1.0000   1.0000   1.0000   1.0000
     1.0000   1.0000   1.0000   1.0000   1.0000   1.0000   1.0000   1.0000
     1.0000   1.0000   1.0000   1.0000   1.0000   1.0000   1.0000   1.0000
     1.0000   1.0000   1.0000   1.0000   1.0000   1.0000   1.0000   1.0000
     1.0000   1.0000   1.0000   1.0000   1.0000   1.0000   1.0000   1.0000

          k = 0.0833 0.1870 0.0666 ( 63005 PWs)   bands (ev):

   -18.4227 -18.4227 -18.4227 -18.4227 -18.4225 -18.4225 -18.4225 -18.4225
   -18.4113 -18.4113 -18.4113 -18.4113 -18.4112 -18.4112 -18.4112 -18.4112
   -17.8429 -17.8429 -17.8428 -17.8428 -17.8426 -17.8426 -17.8425 -17.8425
   -17.3846 -17.3846 -17.3846 -17.3846 -17.3846 -17.3846 -17.3846 -17.3846
   -17.3732 -17.3732 -17.3731 -17.3731 -17.3731 -17.3731 -17.3731 -17.3731
   -17.3702 -17.3702 -17.3702 -17.3702 -17.3698 -17.3698 -17.3698 -17.3698
    -8.8933  -8.8933  -8.8877  -8.8877  -8.7380  -8.7380  -8.7339  -8.7339
    -8.6121  -8.6121  -8.6096  -8.6096  -8.4892  -8.4892  -8.4795  -8.4795
    -8.3981  -8.3981  -8.3877  -8.3877  -8.3804  -8.3804  -8.3636  -8.3636
    -5.7780  -5.7780  -5.7749  -5.7749  -5.7692  -5.7692  -5.7652  -5.7652
    -4.1811  -4.1811  -4.1768  -4.1768  -4.1672  -4.1672  -4.1616  -4.1616
    -4.1359  -4.1359  -4.1343  -4.1343  -4.1232  -4.1232  -4.1221  -4.1221
    -3.0429  -3.0429  -3.0375  -3.0375  -2.9136  -2.9136  -2.9010  -2.9010
    -0.0354  -0.0354   0.0088   0.0088   0.3807   0.3807   0.4129   0.4129
     0.5539   0.5539   0.6235   0.6235   0.6813   0.6813   0.7361   0.7361
     0.8925   0.8925   0.9026   0.9026   1.0245   1.0245   1.0708   1.0708
     1.2201   1.2201   1.2599   1.2599   1.3539   1.3539   1.4108   1.4108
     1.4325   1.4325   1.4861   1.4861   1.5997   1.5997   1.6173   1.6173
     1.7868   1.7868   1.8147   1.8147   1.8721   1.8721   1.9218   1.9218
     2.0210   2.0210   2.0553   2.0553   2.1591   2.1591   2.2022   2.2022
     2.2760   2.2760   2.2958   2.2958   2.3703   2.3703   2.3899   2.3899
     2.4677   2.4677   2.5022   2.5022   2.8983   2.8983   2.9545   2.9545

     occupation numbers 
     1.0000   1.0000   1.0000   1.0000   1.0000   1.0000   1.0000   1.0000
     1.0000   1.0000   1.0000   1.0000   1.0000   1.0000   1.0000   1.0000
     1.0000   1.0000   1.0000   1.0000   1.0000   1.0000   1.0000   1.0000
     1.0000   1.0000   1.0000   1.0000   1.0000   1.0000   1.0000   1.0000
     1.0000   1.0000   1.0000   1.0000   1.0000   1.0000   1.0000   1.0000
     1.0000   1.0000   1.0000   1.0000   1.0000   1.0000   1.0000   1.0000
     1.0000   1.0000   1.0000   1.0000   1.0000   1.0000   1.0000   1.0000
     1.0000   1.0000   1.0000   1.0000   1.0000   1.0000   1.0000   1.0000
     1.0000   1.0000   1.0000   1.0000   1.0000   1.0000   1.0000   1.0000
     1.0000   1.0000   1.0000   1.0000   1.0000   1.0000   1.0000   1.0000
     1.0000   1.0000   1.0000   1.0000   1.0000   1.0000   1.0000   1.0000
     1.0000   1.0000   1.0000   1.0000   1.0000   1.0000   1.0000   1.0000
     1.0000   1.0000   1.0000   1.0000   1.0000   1.0000   1.0000   1.0000
     1.0000   1.0000   1.0000   1.0000   1.0000   1.0000   1.0000   1.0000
     1.0000   1.0000   1.0000   1.0000   1.0000   1.0000   1.0000   1.0000
     1.0000   1.0000   1.0000   1.0000   1.0000   1.0000   1.0000   1.0000
     1.0000   1.0000   1.0000   1.0000   1.0000   1.0000   1.0000   1.0000
     1.0000   1.0000   1.0000   1.0000   1.0000   1.0000   1.0000   1.0000
     1.0000   1.0000   1.0000   1.0000   1.0000   1.0000   1.0000   1.0000
     1.0000   1.0000   1.0000   1.0000   1.0000   1.0000   1.0000   1.0000
     1.0000   1.0000   1.0000   1.0000   1.0000   1.0000   1.0000   1.0000
     1.0000   1.0000   1.0000   1.0000   1.0000   1.0000   1.0000   1.0000

          k = 0.0833 0.1870 0.1110 ( 62993 PWs)   bands (ev):

   -18.4227 -18.4227 -18.4227 -18.4227 -18.4225 -18.4225 -18.4225 -18.4225
   -18.4113 -18.4113 -18.4113 -18.4113 -18.4112 -18.4112 -18.4112 -18.4112
   -17.8429 -17.8429 -17.8429 -17.8429 -17.8426 -17.8426 -17.8425 -17.8425
   -17.3846 -17.3846 -17.3846 -17.3846 -17.3846 -17.3846 -17.3846 -17.3846
   -17.3732 -17.3732 -17.3731 -17.3731 -17.3731 -17.3731 -17.3731 -17.3731
   -17.3702 -17.3702 -17.3702 -17.3702 -17.3698 -17.3698 -17.3698 -17.3698
    -8.8916  -8.8916  -8.8896  -8.8896  -8.7366  -8.7366  -8.7352  -8.7352
    -8.6107  -8.6107  -8.6096  -8.6096  -8.4885  -8.4885  -8.4849  -8.4849
    -8.3926  -8.3926  -8.3866  -8.3866  -8.3777  -8.3777  -8.3697  -8.3697
    -5.7773  -5.7773  -5.7763  -5.7763  -5.7677  -5.7677  -5.7660  -5.7660
    -4.1804  -4.1804  -4.1786  -4.1786  -4.1658  -4.1658  -4.1629  -4.1629
    -4.1353  -4.1353  -4.1343  -4.1343  -4.1227  -4.1227  -4.1222  -4.1222
    -3.0408  -3.0408  -3.0387  -3.0387  -2.9102  -2.9102  -2.9055  -2.9055
    -0.0205  -0.0205  -0.0029  -0.0029   0.3872   0.3872   0.4012   0.4012
     0.5773   0.5773   0.6083   0.6083   0.6904   0.6904   0.7141   0.7141
     0.8906   0.8906   0.9014   0.9014   1.0298   1.0298   1.0526   1.0526
     1.2362   1.2362   1.2758   1.2758   1.3631   1.3631   1.3992   1.3992
     1.4419   1.4419   1.4638   1.4638   1.6060   1.6060   1.6143   1.6143
     1.7925   1.7925   1.8109   1.8109   1.8841   1.8841   1.9026   1.9026
     2.0394   2.0394   2.0524   2.0524   2.1684   2.1684   2.1880   2.1880
     2.2807   2.2807   2.2883   2.2883   2.3776   2.3776   2.3850   2.3850
     2.4819   2.4819   2.4968   2.4968   2.9093   2.9093   2.9304   2.9304

     occupation numbers 
     1.0000   1.0000   1.0000   1.0000   1.0000   1.0000   1.0000   1.0000
     1.0000   1.0000   1.0000   1.0000   1.0000   1.0000   1.0000   1.0000
     1.0000   1.0000   1.0000   1.0000   1.0000   1.0000   1.0000   1.0000
     1.0000   1.0000   1.0000   1.0000   1.0000   1.0000   1.0000   1.0000
     1.0000   1.0000   1.0000   1.0000   1.0000   1.0000   1.0000   1.0000
     1.0000   1.0000   1.0000   1.0000   1.0000   1.0000   1.0000   1.0000
     1.0000   1.0000   1.0000   1.0000   1.0000   1.0000   1.0000   1.0000
     1.0000   1.0000   1.0000   1.0000   1.0000   1.0000   1.0000   1.0000
     1.0000   1.0000   1.0000   1.0000   1.0000   1.0000   1.0000   1.0000
     1.0000   1.0000   1.0000   1.0000   1.0000   1.0000   1.0000   1.0000
     1.0000   1.0000   1.0000   1.0000   1.0000   1.0000   1.0000   1.0000
     1.0000   1.0000   1.0000   1.0000   1.0000   1.0000   1.0000   1.0000
     1.0000   1.0000   1.0000   1.0000   1.0000   1.0000   1.0000   1.0000
     1.0000   1.0000   1.0000   1.0000   1.0000   1.0000   1.0000   1.0000
     1.0000   1.0000   1.0000   1.0000   1.0000   1.0000   1.0000   1.0000
     1.0000   1.0000   1.0000   1.0000   1.0000   1.0000   1.0000   1.0000
     1.0000   1.0000   1.0000   1.0000   1.0000   1.0000   1.0000   1.0000
     1.0000   1.0000   1.0000   1.0000   1.0000   1.0000   1.0000   1.0000
     1.0000   1.0000   1.0000   1.0000   1.0000   1.0000   1.0000   1.0000
     1.0000   1.0000   1.0000   1.0000   1.0000   1.0000   1.0000   1.0000
     1.0000   1.0000   1.0000   1.0000   1.0000   1.0000   1.0000   1.0000
     1.0000   1.0000   1.0000   1.0000   1.0000   1.0000   1.0000   1.0000

          k = 0.2500 0.0374 0.0222 ( 62964 PWs)   bands (ev):

   -18.4229 -18.4229 -18.4229 -18.4229 -18.4227 -18.4227 -18.4227 -18.4227
   -18.4111 -18.4111 -18.4110 -18.4110 -18.4110 -18.4110 -18.4110 -18.4110
   -17.8382 -17.8382 -17.8380 -17.8380 -17.8374 -17.8374 -17.8373 -17.8373
   -17.3850 -17.3850 -17.3850 -17.3850 -17.3850 -17.3850 -17.3850 -17.3850
   -17.3731 -17.3731 -17.3731 -17.3731 -17.3729 -17.3729 -17.3729 -17.3729
   -17.3698 -17.3698 -17.3698 -17.3698 -17.3696 -17.3696 -17.3696 -17.3696
    -8.8199  -8.8199  -8.8008  -8.8008  -8.6569  -8.6569  -8.6175  -8.6175
    -8.5336  -8.5336  -8.5151  -8.5151  -8.5057  -8.5057  -8.4807  -8.4807
    -8.4050  -8.4050  -8.4019  -8.4019  -8.3799  -8.3799  -8.3736  -8.3736
    -5.8012  -5.8012  -5.7963  -5.7963  -5.7952  -5.7952  -5.7900  -5.7900
    -4.2243  -4.2243  -4.2184  -4.2184  -4.2043  -4.2043  -4.1946  -4.1946
    -4.1610  -4.1610  -4.1590  -4.1590  -4.1538  -4.1538  -4.1494  -4.1494
    -3.1826  -3.1826  -3.1763  -3.1763  -3.0811  -3.0811  -3.0634  -3.0634
    -0.0052  -0.0052   0.0763   0.0763   0.1440   0.1440   0.1754   0.1754
     0.2394   0.2394   0.3472   0.3472   0.5244   0.5244   0.6068   0.6068
     0.6609   0.6609   0.6927   0.6927   0.7280   0.7280   0.7865   0.7865
     1.0151   1.0151   1.0546   1.0546   1.2828   1.2828   1.3301   1.3301
     1.3989   1.3989   1.4953   1.4953   1.5568   1.5568   1.6383   1.6383
     1.6959   1.6959   1.7503   1.7503   1.8340   1.8340   1.8704   1.8704
     1.8854   1.8854   1.9853   1.9853   2.0119   2.0119   2.0526   2.0526
     2.1207   2.1207   2.1816   2.1816   2.3127   2.3127   2.3978   2.3978
     2.6185   2.6185   2.7525   2.7525   3.0069   3.0069   3.0332   3.0332

     occupation numbers 
     1.0000   1.0000   1.0000   1.0000   1.0000   1.0000   1.0000   1.0000
     1.0000   1.0000   1.0000   1.0000   1.0000   1.0000   1.0000   1.0000
     1.0000   1.0000   1.0000   1.0000   1.0000   1.0000   1.0000   1.0000
     1.0000   1.0000   1.0000   1.0000   1.0000   1.0000   1.0000   1.0000
     1.0000   1.0000   1.0000   1.0000   1.0000   1.0000   1.0000   1.0000
     1.0000   1.0000   1.0000   1.0000   1.0000   1.0000   1.0000   1.0000
     1.0000   1.0000   1.0000   1.0000   1.0000   1.0000   1.0000   1.0000
     1.0000   1.0000   1.0000   1.0000   1.0000   1.0000   1.0000   1.0000
     1.0000   1.0000   1.0000   1.0000   1.0000   1.0000   1.0000   1.0000
     1.0000   1.0000   1.0000   1.0000   1.0000   1.0000   1.0000   1.0000
     1.0000   1.0000   1.0000   1.0000   1.0000   1.0000   1.0000   1.0000
     1.0000   1.0000   1.0000   1.0000   1.0000   1.0000   1.0000   1.0000
     1.0000   1.0000   1.0000   1.0000   1.0000   1.0000   1.0000   1.0000
     1.0000   1.0000   1.0000   1.0000   1.0000   1.0000   1.0000   1.0000
     1.0000   1.0000   1.0000   1.0000   1.0000   1.0000   1.0000   1.0000
     1.0000   1.0000   1.0000   1.0000   1.0000   1.0000   1.0000   1.0000
     1.0000   1.0000   1.0000   1.0000   1.0000   1.0000   1.0000   1.0000
     1.0000   1.0000   1.0000   1.0000   1.0000   1.0000   1.0000   1.0000
     1.0000   1.0000   1.0000   1.0000   1.0000   1.0000   1.0000   1.0000
     1.0000   1.0000   1.0000   1.0000   1.0000   1.0000   1.0000   1.0000
     1.0000   1.0000   1.0000   1.0000   1.0000   1.0000   1.0000   1.0000
     1.0000   1.0000   1.0000   1.0000   1.0000   1.0000   1.0000   1.0000

          k = 0.2500 0.0374 0.0666 ( 62984 PWs)   bands (ev):

   -18.4229 -18.4229 -18.4229 -18.4229 -18.4227 -18.4227 -18.4227 -18.4227
   -18.4111 -18.4111 -18.4110 -18.4110 -18.4110 -18.4110 -18.4110 -18.4110
   -17.8382 -17.8382 -17.8381 -17.8381 -17.8374 -17.8374 -17.8373 -17.8373
   -17.3850 -17.3850 -17.3850 -17.3850 -17.3850 -17.3850 -17.3850 -17.3850
   -17.3731 -17.3731 -17.3731 -17.3731 -17.3729 -17.3729 -17.3729 -17.3729
   -17.3698 -17.3698 -17.3698 -17.3698 -17.3696 -17.3696 -17.3696 -17.3696
    -8.8178  -8.8178  -8.8038  -8.8038  -8.6514  -8.6514  -8.6226  -8.6226
    -8.5323  -8.5323  -8.5205  -8.5205  -8.4996  -8.4996  -8.4830  -8.4830
    -8.4040  -8.4040  -8.4012  -8.4012  -8.3796  -8.3796  -8.3748  -8.3748
    -5.8013  -5.8013  -5.7968  -5.7968  -5.7946  -5.7946  -5.7900  -5.7900
    -4.2243  -4.2243  -4.2186  -4.2186  -4.2043  -4.2043  -4.1946  -4.1946
    -4.1612  -4.1612  -4.1592  -4.1592  -4.1534  -4.1534  -4.1491  -4.1491
    -3.1819  -3.1819  -3.1772  -3.1772  -3.0787  -3.0787  -3.0658  -3.0658
    -0.0006  -0.0006   0.0647   0.0647   0.1413   0.1413   0.1769   0.1769
     0.2514   0.2514   0.3548   0.3548   0.5280   0.5280   0.6003   0.6003
     0.6579   0.6579   0.6840   0.6840   0.7337   0.7337   0.7884   0.7884
     0.9991   0.9991   1.0598   1.0598   1.2571   1.2571   1.3331   1.3331
     1.4139   1.4139   1.5030   1.5030   1.5596   1.5596   1.6335   1.6335
     1.7085   1.7085   1.7497   1.7497   1.8339   1.8339   1.8597   1.8597
     1.8959   1.8959   1.9927   1.9927   2.0130   2.0130   2.0497   2.0497
     2.1150   2.1150   2.1752   2.1752   2.3232   2.3232   2.3972   2.3972
     2.6344   2.6344   2.7336   2.7336   2.9927   2.9927   3.0431   3.0431

     occupation numbers 
     1.0000   1.0000   1.0000   1.0000   1.0000   1.0000   1.0000   1.0000
     1.0000   1.0000   1.0000   1.0000   1.0000   1.0000   1.0000   1.0000
     1.0000   1.0000   1.0000   1.0000   1.0000   1.0000   1.0000   1.0000
     1.0000   1.0000   1.0000   1.0000   1.0000   1.0000   1.0000   1.0000
     1.0000   1.0000   1.0000   1.0000   1.0000   1.0000   1.0000   1.0000
     1.0000   1.0000   1.0000   1.0000   1.0000   1.0000   1.0000   1.0000
     1.0000   1.0000   1.0000   1.0000   1.0000   1.0000   1.0000   1.0000
     1.0000   1.0000   1.0000   1.0000   1.0000   1.0000   1.0000   1.0000
     1.0000   1.0000   1.0000   1.0000   1.0000   1.0000   1.0000   1.0000
     1.0000   1.0000   1.0000   1.0000   1.0000   1.0000   1.0000   1.0000
     1.0000   1.0000   1.0000   1.0000   1.0000   1.0000   1.0000   1.0000
     1.0000   1.0000   1.0000   1.0000   1.0000   1.0000   1.0000   1.0000
     1.0000   1.0000   1.0000   1.0000   1.0000   1.0000   1.0000   1.0000
     1.0000   1.0000   1.0000   1.0000   1.0000   1.0000   1.0000   1.0000
     1.0000   1.0000   1.0000   1.0000   1.0000   1.0000   1.0000   1.0000
     1.0000   1.0000   1.0000   1.0000   1.0000   1.0000   1.0000   1.0000
     1.0000   1.0000   1.0000   1.0000   1.0000   1.0000   1.0000   1.0000
     1.0000   1.0000   1.0000   1.0000   1.0000   1.0000   1.0000   1.0000
     1.0000   1.0000   1.0000   1.0000   1.0000   1.0000   1.0000   1.0000
     1.0000   1.0000   1.0000   1.0000   1.0000   1.0000   1.0000   1.0000
     1.0000   1.0000   1.0000   1.0000   1.0000   1.0000   1.0000   1.0000
     1.0000   1.0000   1.0000   1.0000   1.0000   1.0000   1.0000   1.0000

          k = 0.2500 0.0374 0.1110 ( 62996 PWs)   bands (ev):

   -18.4229 -18.4229 -18.4229 -18.4229 -18.4227 -18.4227 -18.4227 -18.4227
   -18.4111 -18.4111 -18.4111 -18.4111 -18.4110 -18.4110 -18.4110 -18.4110
   -17.8381 -17.8381 -17.8381 -17.8381 -17.8374 -17.8374 -17.8373 -17.8373
   -17.3850 -17.3850 -17.3850 -17.3850 -17.3850 -17.3850 -17.3850 -17.3850
   -17.3731 -17.3731 -17.3731 -17.3731 -17.3729 -17.3729 -17.3729 -17.3729
   -17.3698 -17.3698 -17.3698 -17.3698 -17.3696 -17.3696 -17.3696 -17.3696
    -8.8137  -8.8137  -8.8087  -8.8087  -8.6420  -8.6420  -8.6315  -8.6315
    -8.5296  -8.5296  -8.5256  -8.5256  -8.4931  -8.4931  -8.4874  -8.4874
    -8.4025  -8.4025  -8.4011  -8.4011  -8.3786  -8.3786  -8.3768  -8.3768
    -5.8013  -5.8013  -5.7972  -5.7972  -5.7942  -5.7942  -5.7900  -5.7900
    -4.2243  -4.2243  -4.2189  -4.2189  -4.2043  -4.2043  -4.1947  -4.1947
    -4.1613  -4.1613  -4.1593  -4.1593  -4.1532  -4.1532  -4.1488  -4.1488
    -3.1806  -3.1806  -3.1786  -3.1786  -3.0747  -3.0747  -3.0699  -3.0699
     0.0065   0.0065   0.0504   0.0504   0.1429   0.1429   0.1735   0.1735
     0.2659   0.2659   0.3612   0.3612   0.5376   0.5376   0.5841   0.5841
     0.6549   0.6549   0.6755   0.6755   0.7504   0.7504   0.7822   0.7822
     0.9868   0.9868   1.0618   1.0618   1.2409   1.2409   1.3245   1.3245
     1.4324   1.4324   1.5063   1.5063   1.5717   1.5717   1.6208   1.6208
     1.7252   1.7252   1.7464   1.7464   1.8361   1.8361   1.8494   1.8494
     1.9068   1.9068   1.9893   1.9893   2.0255   2.0255   2.0447   2.0447
     2.1071   2.1071   2.1694   2.1694   2.3363   2.3363   2.3939   2.3939
     2.6630   2.6630   2.7021   2.7021   2.9828   2.9828   3.0489   3.0489

     occupation numbers 
     1.0000   1.0000   1.0000   1.0000   1.0000   1.0000   1.0000   1.0000
     1.0000   1.0000   1.0000   1.0000   1.0000   1.0000   1.0000   1.0000
     1.0000   1.0000   1.0000   1.0000   1.0000   1.0000   1.0000   1.0000
     1.0000   1.0000   1.0000   1.0000   1.0000   1.0000   1.0000   1.0000
     1.0000   1.0000   1.0000   1.0000   1.0000   1.0000   1.0000   1.0000
     1.0000   1.0000   1.0000   1.0000   1.0000   1.0000   1.0000   1.0000
     1.0000   1.0000   1.0000   1.0000   1.0000   1.0000   1.0000   1.0000
     1.0000   1.0000   1.0000   1.0000   1.0000   1.0000   1.0000   1.0000
     1.0000   1.0000   1.0000   1.0000   1.0000   1.0000   1.0000   1.0000
     1.0000   1.0000   1.0000   1.0000   1.0000   1.0000   1.0000   1.0000
     1.0000   1.0000   1.0000   1.0000   1.0000   1.0000   1.0000   1.0000
     1.0000   1.0000   1.0000   1.0000   1.0000   1.0000   1.0000   1.0000
     1.0000   1.0000   1.0000   1.0000   1.0000   1.0000   1.0000   1.0000
     1.0000   1.0000   1.0000   1.0000   1.0000   1.0000   1.0000   1.0000
     1.0000   1.0000   1.0000   1.0000   1.0000   1.0000   1.0000   1.0000
     1.0000   1.0000   1.0000   1.0000   1.0000   1.0000   1.0000   1.0000
     1.0000   1.0000   1.0000   1.0000   1.0000   1.0000   1.0000   1.0000
     1.0000   1.0000   1.0000   1.0000   1.0000   1.0000   1.0000   1.0000
     1.0000   1.0000   1.0000   1.0000   1.0000   1.0000   1.0000   1.0000
     1.0000   1.0000   1.0000   1.0000   1.0000   1.0000   1.0000   1.0000
     1.0000   1.0000   1.0000   1.0000   1.0000   1.0000   1.0000   1.0000
     1.0000   1.0000   1.0000   1.0000   1.0000   1.0000   1.0000   1.0000

          k = 0.2500 0.1122 0.0222 ( 63023 PWs)   bands (ev):

   -18.4229 -18.4229 -18.4229 -18.4229 -18.4227 -18.4227 -18.4227 -18.4227
   -18.4111 -18.4111 -18.4111 -18.4111 -18.4110 -18.4110 -18.4110 -18.4110
   -17.8381 -17.8381 -17.8379 -17.8379 -17.8375 -17.8375 -17.8374 -17.8374
   -17.3850 -17.3850 -17.3850 -17.3850 -17.3850 -17.3850 -17.3850 -17.3850
   -17.3731 -17.3731 -17.3731 -17.3731 -17.3730 -17.3730 -17.3729 -17.3729
   -17.3698 -17.3698 -17.3698 -17.3698 -17.3696 -17.3696 -17.3696 -17.3696
    -8.8106  -8.8106  -8.7953  -8.7953  -8.6621  -8.6621  -8.6406  -8.6406
    -8.5483  -8.5483  -8.5412  -8.5412  -8.4787  -8.4787  -8.4562  -8.4562
    -8.4020  -8.4020  -8.3976  -8.3976  -8.3819  -8.3819  -8.3747  -8.3747
    -5.8018  -5.8018  -5.7969  -5.7969  -5.7952  -5.7952  -5.7899  -5.7899
    -4.2236  -4.2236  -4.2175  -4.2175  -4.2069  -4.2069  -4.1994  -4.1994
    -4.1620  -4.1620  -4.1585  -4.1585  -4.1539  -4.1539  -4.1488  -4.1488
    -3.1741  -3.1741  -3.1687  -3.1687  -3.0827  -3.0827  -3.0691  -3.0691
    -0.0280  -0.0280   0.0479   0.0479   0.1275   0.1275   0.1633   0.1633
     0.2749   0.2749   0.3779   0.3779   0.4913   0.4913   0.5639   0.5639
     0.6752   0.6752   0.6987   0.6987   0.7493   0.7493   0.8138   0.8138
     1.0237   1.0237   1.0776   1.0776   1.2955   1.2955   1.3535   1.3535
     1.3931   1.3931   1.4725   1.4725   1.5979   1.5979   1.6667   1.6667
     1.7183   1.7183   1.7690   1.7690   1.8134   1.8134   1.8431   1.8431
     1.8844   1.8844   1.9700   1.9700   1.9840   1.9840   2.0803   2.0803
     2.1396   2.1396   2.1623   2.1623   2.3111   2.3111   2.3405   2.3405
     2.6376   2.6376   2.7671   2.7671   2.9418   2.9418   2.9981   2.9981

     occupation numbers 
     1.0000   1.0000   1.0000   1.0000   1.0000   1.0000   1.0000   1.0000
     1.0000   1.0000   1.0000   1.0000   1.0000   1.0000   1.0000   1.0000
     1.0000   1.0000   1.0000   1.0000   1.0000   1.0000   1.0000   1.0000
     1.0000   1.0000   1.0000   1.0000   1.0000   1.0000   1.0000   1.0000
     1.0000   1.0000   1.0000   1.0000   1.0000   1.0000   1.0000   1.0000
     1.0000   1.0000   1.0000   1.0000   1.0000   1.0000   1.0000   1.0000
     1.0000   1.0000   1.0000   1.0000   1.0000   1.0000   1.0000   1.0000
     1.0000   1.0000   1.0000   1.0000   1.0000   1.0000   1.0000   1.0000
     1.0000   1.0000   1.0000   1.0000   1.0000   1.0000   1.0000   1.0000
     1.0000   1.0000   1.0000   1.0000   1.0000   1.0000   1.0000   1.0000
     1.0000   1.0000   1.0000   1.0000   1.0000   1.0000   1.0000   1.0000
     1.0000   1.0000   1.0000   1.0000   1.0000   1.0000   1.0000   1.0000
     1.0000   1.0000   1.0000   1.0000   1.0000   1.0000   1.0000   1.0000
     1.0000   1.0000   1.0000   1.0000   1.0000   1.0000   1.0000   1.0000
     1.0000   1.0000   1.0000   1.0000   1.0000   1.0000   1.0000   1.0000
     1.0000   1.0000   1.0000   1.0000   1.0000   1.0000   1.0000   1.0000
     1.0000   1.0000   1.0000   1.0000   1.0000   1.0000   1.0000   1.0000
     1.0000   1.0000   1.0000   1.0000   1.0000   1.0000   1.0000   1.0000
     1.0000   1.0000   1.0000   1.0000   1.0000   1.0000   1.0000   1.0000
     1.0000   1.0000   1.0000   1.0000   1.0000   1.0000   1.0000   1.0000
     1.0000   1.0000   1.0000   1.0000   1.0000   1.0000   1.0000   1.0000
     1.0000   1.0000   1.0000   1.0000   1.0000   1.0000   1.0000   1.0000

          k = 0.2500 0.1122 0.0666 ( 63008 PWs)   bands (ev):

   -18.4229 -18.4229 -18.4229 -18.4229 -18.4227 -18.4227 -18.4227 -18.4227
   -18.4111 -18.4111 -18.4111 -18.4111 -18.4110 -18.4110 -18.4110 -18.4110
   -17.8381 -17.8381 -17.8380 -17.8380 -17.8375 -17.8375 -17.8374 -17.8374
   -17.3850 -17.3850 -17.3850 -17.3850 -17.3850 -17.3850 -17.3850 -17.3850
   -17.3731 -17.3731 -17.3731 -17.3731 -17.3730 -17.3730 -17.3729 -17.3729
   -17.3698 -17.3698 -17.3698 -17.3698 -17.3696 -17.3696 -17.3696 -17.3696
    -8.8088  -8.8088  -8.7976  -8.7976  -8.6588  -8.6588  -8.6431  -8.6431
    -8.5480  -8.5480  -8.5426  -8.5426  -8.4759  -8.4759  -8.4594  -8.4594
    -8.4011  -8.4011  -8.3966  -8.3966  -8.3816  -8.3816  -8.3758  -8.3758
    -5.8017  -5.8017  -5.7978  -5.7978  -5.7942  -5.7942  -5.7901  -5.7901
    -4.2233  -4.2233  -4.2180  -4.2180  -4.2069  -4.2069  -4.1997  -4.1997
    -4.1617  -4.1617  -4.1586  -4.1586  -4.1536  -4.1536  -4.1488  -4.1488
    -3.1735  -3.1735  -3.1694  -3.1694  -3.0810  -3.0810  -3.0710  -3.0710
    -0.0208  -0.0208   0.0392   0.0392   0.1305   0.1305   0.1632   0.1632
     0.2805   0.2805   0.3712   0.3712   0.4999   0.4999   0.5579   0.5579
     0.6745   0.6745   0.7074   0.7074   0.7420   0.7420   0.8080   0.8080
     1.0144   1.0144   1.0804   1.0804   1.2824   1.2824   1.3565   1.3565
     1.4102   1.4102   1.4768   1.4768   1.5952   1.5952   1.6545   1.6545
     1.7283   1.7283   1.7673   1.7673   1.8190   1.8190   1.8471   1.8471
     1.8792   1.8792   1.9585   1.9585   2.0067   2.0067   2.0779   2.0779
     2.1323   2.1323   2.1600   2.1600   2.3125   2.3125   2.3453   2.3453
     2.6537   2.6537   2.7509   2.7509   2.9420   2.9420   2.9899   2.9899

     occupation numbers 
     1.0000   1.0000   1.0000   1.0000   1.0000   1.0000   1.0000   1.0000
     1.0000   1.0000   1.0000   1.0000   1.0000   1.0000   1.0000   1.0000
     1.0000   1.0000   1.0000   1.0000   1.0000   1.0000   1.0000   1.0000
     1.0000   1.0000   1.0000   1.0000   1.0000   1.0000   1.0000   1.0000
     1.0000   1.0000   1.0000   1.0000   1.0000   1.0000   1.0000   1.0000
     1.0000   1.0000   1.0000   1.0000   1.0000   1.0000   1.0000   1.0000
     1.0000   1.0000   1.0000   1.0000   1.0000   1.0000   1.0000   1.0000
     1.0000   1.0000   1.0000   1.0000   1.0000   1.0000   1.0000   1.0000
     1.0000   1.0000   1.0000   1.0000   1.0000   1.0000   1.0000   1.0000
     1.0000   1.0000   1.0000   1.0000   1.0000   1.0000   1.0000   1.0000
     1.0000   1.0000   1.0000   1.0000   1.0000   1.0000   1.0000   1.0000
     1.0000   1.0000   1.0000   1.0000   1.0000   1.0000   1.0000   1.0000
     1.0000   1.0000   1.0000   1.0000   1.0000   1.0000   1.0000   1.0000
     1.0000   1.0000   1.0000   1.0000   1.0000   1.0000   1.0000   1.0000
     1.0000   1.0000   1.0000   1.0000   1.0000   1.0000   1.0000   1.0000
     1.0000   1.0000   1.0000   1.0000   1.0000   1.0000   1.0000   1.0000
     1.0000   1.0000   1.0000   1.0000   1.0000   1.0000   1.0000   1.0000
     1.0000   1.0000   1.0000   1.0000   1.0000   1.0000   1.0000   1.0000
     1.0000   1.0000   1.0000   1.0000   1.0000   1.0000   1.0000   1.0000
     1.0000   1.0000   1.0000   1.0000   1.0000   1.0000   1.0000   1.0000
     1.0000   1.0000   1.0000   1.0000   1.0000   1.0000   1.0000   1.0000
     1.0000   1.0000   1.0000   1.0000   1.0000   1.0000   1.0000   1.0000

          k = 0.2500 0.1122 0.1110 ( 62985 PWs)   bands (ev):

   -18.4229 -18.4229 -18.4229 -18.4229 -18.4227 -18.4227 -18.4227 -18.4227
   -18.4111 -18.4111 -18.4110 -18.4110 -18.4110 -18.4110 -18.4110 -18.4110
   -17.8380 -17.8380 -17.8380 -17.8380 -17.8375 -17.8375 -17.8374 -17.8374
   -17.3850 -17.3850 -17.3850 -17.3850 -17.3850 -17.3850 -17.3850 -17.3850
   -17.3731 -17.3731 -17.3731 -17.3731 -17.3729 -17.3729 -17.3729 -17.3729
   -17.3698 -17.3698 -17.3698 -17.3698 -17.3696 -17.3696 -17.3696 -17.3696
    -8.8055  -8.8055  -8.8015  -8.8015  -8.6533  -8.6533  -8.6476  -8.6476
    -8.5468  -8.5468  -8.5448  -8.5448  -8.4709  -8.4709  -8.4649  -8.4649
    -8.3991  -8.3991  -8.3969  -8.3969  -8.3802  -8.3802  -8.3778  -8.3778
    -5.8016  -5.8016  -5.7985  -5.7985  -5.7935  -5.7935  -5.7903  -5.7903
    -4.2229  -4.2229  -4.2186  -4.2186  -4.2068  -4.2068  -4.2000  -4.2000
    -4.1615  -4.1615  -4.1586  -4.1586  -4.1532  -4.1532  -4.1488  -4.1488
    -3.1723  -3.1723  -3.1706  -3.1706  -3.0779  -3.0779  -3.0741  -3.0741
    -0.0095  -0.0095   0.0253   0.0253   0.1384   0.1384   0.1586   0.1586
     0.2889   0.2889   0.3619   0.3619   0.5141   0.5141   0.5459   0.5459
     0.6763   0.6763   0.7071   0.7071   0.7509   0.7509   0.7924   0.7924
     1.0083   1.0083   1.0808   1.0808   1.2746   1.2746   1.3508   1.3508
     1.4364   1.4364   1.4751   1.4751   1.6042   1.6042   1.6311   1.6311
     1.7427   1.7427   1.7592   1.7592   1.8295   1.8295   1.8422   1.8422
     1.8848   1.8848   1.9463   1.9463   2.0307   2.0307   2.0703   2.0703
     2.1247   2.1247   2.1575   2.1575   2.3170   2.3170   2.3474   2.3474
     2.6805   2.6805   2.7238   2.7238   2.9435   2.9435   2.9805   2.9805

     occupation numbers 
     1.0000   1.0000   1.0000   1.0000   1.0000   1.0000   1.0000   1.0000
     1.0000   1.0000   1.0000   1.0000   1.0000   1.0000   1.0000   1.0000
     1.0000   1.0000   1.0000   1.0000   1.0000   1.0000   1.0000   1.0000
     1.0000   1.0000   1.0000   1.0000   1.0000   1.0000   1.0000   1.0000
     1.0000   1.0000   1.0000   1.0000   1.0000   1.0000   1.0000   1.0000
     1.0000   1.0000   1.0000   1.0000   1.0000   1.0000   1.0000   1.0000
     1.0000   1.0000   1.0000   1.0000   1.0000   1.0000   1.0000   1.0000
     1.0000   1.0000   1.0000   1.0000   1.0000   1.0000   1.0000   1.0000
     1.0000   1.0000   1.0000   1.0000   1.0000   1.0000   1.0000   1.0000
     1.0000   1.0000   1.0000   1.0000   1.0000   1.0000   1.0000   1.0000
     1.0000   1.0000   1.0000   1.0000   1.0000   1.0000   1.0000   1.0000
     1.0000   1.0000   1.0000   1.0000   1.0000   1.0000   1.0000   1.0000
     1.0000   1.0000   1.0000   1.0000   1.0000   1.0000   1.0000   1.0000
     1.0000   1.0000   1.0000   1.0000   1.0000   1.0000   1.0000   1.0000
     1.0000   1.0000   1.0000   1.0000   1.0000   1.0000   1.0000   1.0000
     1.0000   1.0000   1.0000   1.0000   1.0000   1.0000   1.0000   1.0000
     1.0000   1.0000   1.0000   1.0000   1.0000   1.0000   1.0000   1.0000
     1.0000   1.0000   1.0000   1.0000   1.0000   1.0000   1.0000   1.0000
     1.0000   1.0000   1.0000   1.0000   1.0000   1.0000   1.0000   1.0000
     1.0000   1.0000   1.0000   1.0000   1.0000   1.0000   1.0000   1.0000
     1.0000   1.0000   1.0000   1.0000   1.0000   1.0000   1.0000   1.0000
     1.0000   1.0000   1.0000   1.0000   1.0000   1.0000   1.0000   1.0000

          k = 0.2500 0.1870 0.0222 ( 63032 PWs)   bands (ev):

   -18.4229 -18.4229 -18.4229 -18.4229 -18.4227 -18.4227 -18.4227 -18.4227
   -18.4111 -18.4111 -18.4111 -18.4111 -18.4110 -18.4110 -18.4110 -18.4110
   -17.8379 -17.8379 -17.8378 -17.8378 -17.8377 -17.8377 -17.8375 -17.8375
   -17.3850 -17.3850 -17.3850 -17.3850 -17.3850 -17.3850 -17.3850 -17.3850
   -17.3731 -17.3731 -17.3731 -17.3731 -17.3730 -17.3730 -17.3729 -17.3729
   -17.3698 -17.3698 -17.3698 -17.3698 -17.3696 -17.3696 -17.3696 -17.3696
    -8.7974  -8.7974  -8.7911  -8.7911  -8.6685  -8.6685  -8.6631  -8.6631
    -8.5566  -8.5566  -8.5554  -8.5554  -8.4569  -8.4569  -8.4476  -8.4476
    -8.3980  -8.3980  -8.3931  -8.3931  -8.3825  -8.3825  -8.3777  -8.3777
    -5.8023  -5.8023  -5.7980  -5.7980  -5.7948  -5.7948  -5.7900  -5.7900
    -4.2213  -4.2213  -4.2167  -4.2167  -4.2095  -4.2095  -4.2062  -4.2062
    -4.1613  -4.1613  -4.1587  -4.1587  -4.1536  -4.1536  -4.1490  -4.1490
    -3.1640  -3.1640  -3.1613  -3.1613  -3.0830  -3.0830  -3.0776  -3.0776
    -0.0545  -0.0545   0.0306   0.0306   0.1206   0.1206   0.1677   0.1677
     0.2991   0.2991   0.3556   0.3556   0.4747   0.4747   0.5347   0.5347
     0.6862   0.6862   0.7115   0.7115   0.7750   0.7750   0.8556   0.8556
     1.0409   1.0409   1.0720   1.0720   1.3192   1.3192   1.3740   1.3740
     1.3930   1.3930   1.4327   1.4327   1.6485   1.6485   1.7008   1.7008
     1.7212   1.7212   1.7582   1.7582   1.8279   1.8279   1.8517   1.8517
     1.8747   1.8747   1.9151   1.9151   1.9699   1.9699   2.0930   2.0930
     2.1655   2.1655   2.2063   2.2063   2.2528   2.2528   2.2787   2.2787
     2.6950   2.6950   2.7830   2.7830   2.8702   2.8702   2.9335   2.9335

     occupation numbers 
     1.0000   1.0000   1.0000   1.0000   1.0000   1.0000   1.0000   1.0000
     1.0000   1.0000   1.0000   1.0000   1.0000   1.0000   1.0000   1.0000
     1.0000   1.0000   1.0000   1.0000   1.0000   1.0000   1.0000   1.0000
     1.0000   1.0000   1.0000   1.0000   1.0000   1.0000   1.0000   1.0000
     1.0000   1.0000   1.0000   1.0000   1.0000   1.0000   1.0000   1.0000
     1.0000   1.0000   1.0000   1.0000   1.0000   1.0000   1.0000   1.0000
     1.0000   1.0000   1.0000   1.0000   1.0000   1.0000   1.0000   1.0000
     1.0000   1.0000   1.0000   1.0000   1.0000   1.0000   1.0000   1.0000
     1.0000   1.0000   1.0000   1.0000   1.0000   1.0000   1.0000   1.0000
     1.0000   1.0000   1.0000   1.0000   1.0000   1.0000   1.0000   1.0000
     1.0000   1.0000   1.0000   1.0000   1.0000   1.0000   1.0000   1.0000
     1.0000   1.0000   1.0000   1.0000   1.0000   1.0000   1.0000   1.0000
     1.0000   1.0000   1.0000   1.0000   1.0000   1.0000   1.0000   1.0000
     1.0000   1.0000   1.0000   1.0000   1.0000   1.0000   1.0000   1.0000
     1.0000   1.0000   1.0000   1.0000   1.0000   1.0000   1.0000   1.0000
     1.0000   1.0000   1.0000   1.0000   1.0000   1.0000   1.0000   1.0000
     1.0000   1.0000   1.0000   1.0000   1.0000   1.0000   1.0000   1.0000
     1.0000   1.0000   1.0000   1.0000   1.0000   1.0000   1.0000   1.0000
     1.0000   1.0000   1.0000   1.0000   1.0000   1.0000   1.0000   1.0000
     1.0000   1.0000   1.0000   1.0000   1.0000   1.0000   1.0000   1.0000
     1.0000   1.0000   1.0000   1.0000   1.0000   1.0000   1.0000   1.0000
     1.0000   1.0000   1.0000   1.0000   1.0000   1.0000   1.0000   1.0000

          k = 0.2500 0.1870 0.0666 ( 63007 PWs)   bands (ev):

   -18.4229 -18.4229 -18.4229 -18.4229 -18.4227 -18.4227 -18.4227 -18.4227
   -18.4111 -18.4111 -18.4111 -18.4111 -18.4110 -18.4110 -18.4110 -18.4110
   -17.8379 -17.8379 -17.8378 -17.8378 -17.8377 -17.8377 -17.8376 -17.8376
   -17.3850 -17.3850 -17.3850 -17.3850 -17.3850 -17.3850 -17.3850 -17.3850
   -17.3731 -17.3731 -17.3731 -17.3731 -17.3729 -17.3729 -17.3729 -17.3729
   -17.3698 -17.3698 -17.3698 -17.3698 -17.3696 -17.3696 -17.3696 -17.3696
    -8.7966  -8.7966  -8.7920  -8.7920  -8.6678  -8.6678  -8.6638  -8.6638
    -8.5562  -8.5562  -8.5548  -8.5548  -8.4570  -8.4570  -8.4502  -8.4502
    -8.3959  -8.3959  -8.3911  -8.3911  -8.3835  -8.3835  -8.3790  -8.3790
    -5.8020  -5.8020  -5.7991  -5.7991  -5.7936  -5.7936  -5.7903  -5.7903
    -4.2207  -4.2207  -4.2171  -4.2171  -4.2096  -4.2096  -4.2067  -4.2067
    -4.1609  -4.1609  -4.1588  -4.1588  -4.1531  -4.1531  -4.1494  -4.1494
    -3.1636  -3.1636  -3.1616  -3.1616  -3.0824  -3.0824  -3.0785  -3.0785
    -0.0425  -0.0425   0.0233   0.0233   0.1193   0.1193   0.1592   0.1592
     0.3091   0.3091   0.3538   0.3538   0.4849   0.4849   0.5306   0.5306
     0.6823   0.6823   0.7076   0.7076   0.7725   0.7725   0.8356   0.8356
     1.0448   1.0448   1.0779   1.0779   1.3241   1.3241   1.3729   1.3729
     1.4090   1.4090   1.4393   1.4393   1.6437   1.6437   1.6903   1.6903
     1.7234   1.7234   1.7536   1.7536   1.8308   1.8308   1.8439   1.8439
     1.8754   1.8754   1.9110   1.9110   1.9905   1.9905   2.0767   2.0767
     2.1692   2.1692   2.2017   2.2017   2.2633   2.2633   2.2812   2.2812
     2.7085   2.7085   2.7786   2.7786   2.8682   2.8682   2.9180   2.9180

     occupation numbers 
     1.0000   1.0000   1.0000   1.0000   1.0000   1.0000   1.0000   1.0000
     1.0000   1.0000   1.0000   1.0000   1.0000   1.0000   1.0000   1.0000
     1.0000   1.0000   1.0000   1.0000   1.0000   1.0000   1.0000   1.0000
     1.0000   1.0000   1.0000   1.0000   1.0000   1.0000   1.0000   1.0000
     1.0000   1.0000   1.0000   1.0000   1.0000   1.0000   1.0000   1.0000
     1.0000   1.0000   1.0000   1.0000   1.0000   1.0000   1.0000   1.0000
     1.0000   1.0000   1.0000   1.0000   1.0000   1.0000   1.0000   1.0000
     1.0000   1.0000   1.0000   1.0000   1.0000   1.0000   1.0000   1.0000
     1.0000   1.0000   1.0000   1.0000   1.0000   1.0000   1.0000   1.0000
     1.0000   1.0000   1.0000   1.0000   1.0000   1.0000   1.0000   1.0000
     1.0000   1.0000   1.0000   1.0000   1.0000   1.0000   1.0000   1.0000
     1.0000   1.0000   1.0000   1.0000   1.0000   1.0000   1.0000   1.0000
     1.0000   1.0000   1.0000   1.0000   1.0000   1.0000   1.0000   1.0000
     1.0000   1.0000   1.0000   1.0000   1.0000   1.0000   1.0000   1.0000
     1.0000   1.0000   1.0000   1.0000   1.0000   1.0000   1.0000   1.0000
     1.0000   1.0000   1.0000   1.0000   1.0000   1.0000   1.0000   1.0000
     1.0000   1.0000   1.0000   1.0000   1.0000   1.0000   1.0000   1.0000
[...]
     1.0000   1.0000   1.0000   1.0000   1.0000   1.0000   1.0000   1.0000
     1.0000   1.0000   1.0000   1.0000   1.0000   1.0000   1.0000   1.0000
     1.0000   1.0000   1.0000   1.0000   1.0000   1.0000   1.0000   1.0000

          k = 0.4167 0.1122 0.0666 ( 63041 PWs)   bands (ev):

   -18.4231 -18.4231 -18.4231 -18.4231 -18.4230 -18.4230 -18.4230 -18.4230
   -18.4108 -18.4108 -18.4108 -18.4108 -18.4108 -18.4108 -18.4108 -18.4108
   -17.8330 -17.8330 -17.8329 -17.8329 -17.8325 -17.8325 -17.8325 -17.8325
   -17.3855 -17.3855 -17.3855 -17.3855 -17.3855 -17.3855 -17.3855 -17.3855
   -17.3730 -17.3730 -17.3730 -17.3730 -17.3729 -17.3729 -17.3729 -17.3729
   -17.3694 -17.3694 -17.3693 -17.3693 -17.3693 -17.3693 -17.3693 -17.3693
    -8.6656  -8.6656  -8.6623  -8.6623  -8.5962  -8.5962  -8.5941  -8.5941
    -8.4750  -8.4750  -8.4719  -8.4719  -8.4350  -8.4350  -8.4319  -8.4319
    -8.4272  -8.4272  -8.4187  -8.4187  -8.4073  -8.4073  -8.4025  -8.4025
    -5.8334  -5.8334  -5.8310  -5.8310  -5.8125  -5.8125  -5.8106  -5.8106
    -4.2976  -4.2976  -4.2939  -4.2939  -4.2581  -4.2581  -4.2542  -4.2542
    -4.1703  -4.1703  -4.1696  -4.1696  -4.1462  -4.1462  -4.1450  -4.1450
    -3.3164  -3.3164  -3.2989  -3.2989  -3.2731  -3.2731  -3.2570  -3.2570
    -0.1598  -0.1598  -0.1342  -0.1342  -0.0853  -0.0853  -0.0688  -0.0688
     0.2691   0.2691   0.3087   0.3087   0.3904   0.3904   0.4082   0.4082
     0.4858   0.4858   0.5257   0.5257   0.6579   0.6579   0.6972   0.6972
     1.0378   1.0378   1.0743   1.0743   1.1900   1.1900   1.2566   1.2566
     1.3731   1.3731   1.4604   1.4604   1.5200   1.5200   1.5748   1.5748
     1.6280   1.6280   1.6631   1.6631   1.7165   1.7165   1.7497   1.7497
     1.8380   1.8380   1.8912   1.8912   1.9271   1.9271   1.9922   1.9922
     2.0683   2.0683   2.1235   2.1235   2.2094   2.2094   2.2536   2.2536
     2.6199   2.6199   2.7658   2.7658   2.8608   2.8608   2.9281   2.9281

     occupation numbers 
     1.0000   1.0000   1.0000   1.0000   1.0000   1.0000   1.0000   1.0000
     1.0000   1.0000   1.0000   1.0000   1.0000   1.0000   1.0000   1.0000
     1.0000   1.0000   1.0000   1.0000   1.0000   1.0000   1.0000   1.0000
     1.0000   1.0000   1.0000   1.0000   1.0000   1.0000   1.0000   1.0000
     1.0000   1.0000   1.0000   1.0000   1.0000   1.0000   1.0000   1.0000
     1.0000   1.0000   1.0000   1.0000   1.0000   1.0000   1.0000   1.0000
     1.0000   1.0000   1.0000   1.0000   1.0000   1.0000   1.0000   1.0000
     1.0000   1.0000   1.0000   1.0000   1.0000   1.0000   1.0000   1.0000
     1.0000   1.0000   1.0000   1.0000   1.0000   1.0000   1.0000   1.0000
     1.0000   1.0000   1.0000   1.0000   1.0000   1.0000   1.0000   1.0000
     1.0000   1.0000   1.0000   1.0000   1.0000   1.0000   1.0000   1.0000
     1.0000   1.0000   1.0000   1.0000   1.0000   1.0000   1.0000   1.0000
     1.0000   1.0000   1.0000   1.0000   1.0000   1.0000   1.0000   1.0000
     1.0000   1.0000   1.0000   1.0000   1.0000   1.0000   1.0000   1.0000
     1.0000   1.0000   1.0000   1.0000   1.0000   1.0000   1.0000   1.0000
     1.0000   1.0000   1.0000   1.0000   1.0000   1.0000   1.0000   1.0000
     1.0000   1.0000   1.0000   1.0000   1.0000   1.0000   1.0000   1.0000
     1.0000   1.0000   1.0000   1.0000   1.0000   1.0000   1.0000   1.0000
     1.0000   1.0000   1.0000   1.0000   1.0000   1.0000   1.0000   1.0000
     1.0000   1.0000   1.0000   1.0000   1.0000   1.0000   1.0000   1.0000
     1.0000   1.0000   1.0000   1.0000   1.0000   1.0000   1.0000   1.0000
     1.0000   1.0000   1.0000   1.0000   1.0000   1.0000   1.0000   1.0000

          k = 0.4167 0.1122 0.1110 ( 63034 PWs)   bands (ev):

   -18.4231 -18.4231 -18.4230 -18.4230 -18.4230 -18.4230 -18.4230 -18.4230
   -18.4108 -18.4108 -18.4108 -18.4108 -18.4108 -18.4108 -18.4108 -18.4108
   -17.8330 -17.8330 -17.8329 -17.8329 -17.8325 -17.8325 -17.8325 -17.8325
   -17.3855 -17.3855 -17.3855 -17.3855 -17.3855 -17.3855 -17.3855 -17.3855
   -17.3730 -17.3730 -17.3730 -17.3730 -17.3729 -17.3729 -17.3729 -17.3729
   -17.3694 -17.3694 -17.3693 -17.3693 -17.3693 -17.3693 -17.3693 -17.3693
    -8.6646  -8.6646  -8.6634  -8.6634  -8.5955  -8.5955  -8.5948  -8.5948
    -8.4741  -8.4741  -8.4729  -8.4729  -8.4343  -8.4343  -8.4329  -8.4329
    -8.4247  -8.4247  -8.4215  -8.4215  -8.4054  -8.4054  -8.4036  -8.4036
    -5.8333  -5.8333  -5.8311  -5.8311  -5.8121  -5.8121  -5.8110  -5.8110
    -4.2973  -4.2973  -4.2941  -4.2941  -4.2574  -4.2574  -4.2549  -4.2549
    -4.1700  -4.1700  -4.1697  -4.1697  -4.1460  -4.1460  -4.1453  -4.1453
    -3.3112  -3.3112  -3.3049  -3.3049  -3.2676  -3.2676  -3.2618  -3.2618
    -0.1527  -0.1527  -0.1418  -0.1418  -0.0830  -0.0830  -0.0716  -0.0716
     0.2778   0.2778   0.2967   0.2967   0.4021   0.4021   0.4128   0.4128
     0.4935   0.4935   0.5239   0.5239   0.6511   0.6511   0.6791   0.6791
     1.0449   1.0449   1.0618   1.0618   1.2048   1.2048   1.2410   1.2410
     1.3768   1.3768   1.4661   1.4661   1.5428   1.5428   1.5823   1.5823
     1.6180   1.6180   1.6442   1.6442   1.7259   1.7259   1.7392   1.7392
     1.8375   1.8375   1.8893   1.8893   1.9395   1.9395   1.9821   1.9821
     2.0741   2.0741   2.1100   2.1100   2.2271   2.2271   2.2451   2.2451
     2.6664   2.6664   2.7217   2.7217   2.8749   2.8749   2.9130   2.9130

     occupation numbers 
     1.0000   1.0000   1.0000   1.0000   1.0000   1.0000   1.0000   1.0000
     1.0000   1.0000   1.0000   1.0000   1.0000   1.0000   1.0000   1.0000
     1.0000   1.0000   1.0000   1.0000   1.0000   1.0000   1.0000   1.0000
     1.0000   1.0000   1.0000   1.0000   1.0000   1.0000   1.0000   1.0000
     1.0000   1.0000   1.0000   1.0000   1.0000   1.0000   1.0000   1.0000
     1.0000   1.0000   1.0000   1.0000   1.0000   1.0000   1.0000   1.0000
     1.0000   1.0000   1.0000   1.0000   1.0000   1.0000   1.0000   1.0000
     1.0000   1.0000   1.0000   1.0000   1.0000   1.0000   1.0000   1.0000
     1.0000   1.0000   1.0000   1.0000   1.0000   1.0000   1.0000   1.0000
     1.0000   1.0000   1.0000   1.0000   1.0000   1.0000   1.0000   1.0000
     1.0000   1.0000   1.0000   1.0000   1.0000   1.0000   1.0000   1.0000
     1.0000   1.0000   1.0000   1.0000   1.0000   1.0000   1.0000   1.0000
     1.0000   1.0000   1.0000   1.0000   1.0000   1.0000   1.0000   1.0000
     1.0000   1.0000   1.0000   1.0000   1.0000   1.0000   1.0000   1.0000
     1.0000   1.0000   1.0000   1.0000   1.0000   1.0000   1.0000   1.0000
     1.0000   1.0000   1.0000   1.0000   1.0000   1.0000   1.0000   1.0000
     1.0000   1.0000   1.0000   1.0000   1.0000   1.0000   1.0000   1.0000
     1.0000   1.0000   1.0000   1.0000   1.0000   1.0000   1.0000   1.0000
     1.0000   1.0000   1.0000   1.0000   1.0000   1.0000   1.0000   1.0000
     1.0000   1.0000   1.0000   1.0000   1.0000   1.0000   1.0000   1.0000
     1.0000   1.0000   1.0000   1.0000   1.0000   1.0000   1.0000   1.0000
     1.0000   1.0000   1.0000   1.0000   1.0000   1.0000   1.0000   1.0000

          k = 0.4167 0.1870 0.0222 ( 63044 PWs)   bands (ev):

   -18.4231 -18.4231 -18.4231 -18.4231 -18.4230 -18.4230 -18.4230 -18.4230
   -18.4108 -18.4108 -18.4108 -18.4108 -18.4108 -18.4108 -18.4108 -18.4108
   -17.8328 -17.8328 -17.8328 -17.8328 -17.8327 -17.8327 -17.8326 -17.8326
   -17.3855 -17.3855 -17.3855 -17.3855 -17.3855 -17.3855 -17.3855 -17.3855
   -17.3730 -17.3730 -17.3730 -17.3730 -17.3729 -17.3729 -17.3729 -17.3729
   -17.3694 -17.3694 -17.3694 -17.3694 -17.3693 -17.3693 -17.3693 -17.3693
    -8.6609  -8.6609  -8.6592  -8.6592  -8.6004  -8.6004  -8.5992  -8.5992
    -8.4810  -8.4810  -8.4791  -8.4791  -8.4275  -8.4275  -8.4270  -8.4270
    -8.4203  -8.4203  -8.4145  -8.4145  -8.4119  -8.4119  -8.4066  -8.4066
    -5.8271  -5.8271  -5.8251  -5.8251  -5.8188  -5.8188  -5.8165  -5.8165
    -4.2860  -4.2860  -4.2818  -4.2818  -4.2709  -4.2709  -4.2662  -4.2662
    -4.1632  -4.1632  -4.1621  -4.1621  -4.1532  -4.1532  -4.1523  -4.1523
    -3.3042  -3.3042  -3.2950  -3.2950  -3.2769  -3.2769  -3.2686  -3.2686
    -0.1230  -0.1230  -0.1042  -0.1042  -0.0428  -0.0428  -0.0370  -0.0370
     0.2392   0.2392   0.2595   0.2595   0.3517   0.3517   0.3670   0.3670
     0.4630   0.4630   0.5215   0.5215   0.6559   0.6559   0.7038   0.7038
     1.0470   1.0470   1.0746   1.0746   1.1517   1.1517   1.2479   1.2479
     1.3940   1.3940   1.4466   1.4466   1.5113   1.5113   1.5795   1.5795
     1.6192   1.6192   1.6514   1.6514   1.6701   1.6701   1.7420   1.7420
     1.8425   1.8425   1.8765   1.8765   1.9070   1.9070   1.9949   1.9949
     2.1401   2.1401   2.1730   2.1730   2.2021   2.2021   2.2214   2.2214
     2.7268   2.7268   2.8442   2.8442   2.8709   2.8709   2.9137   2.9137

     occupation numbers 
     1.0000   1.0000   1.0000   1.0000   1.0000   1.0000   1.0000   1.0000
     1.0000   1.0000   1.0000   1.0000   1.0000   1.0000   1.0000   1.0000
     1.0000   1.0000   1.0000   1.0000   1.0000   1.0000   1.0000   1.0000
     1.0000   1.0000   1.0000   1.0000   1.0000   1.0000   1.0000   1.0000
     1.0000   1.0000   1.0000   1.0000   1.0000   1.0000   1.0000   1.0000
     1.0000   1.0000   1.0000   1.0000   1.0000   1.0000   1.0000   1.0000
     1.0000   1.0000   1.0000   1.0000   1.0000   1.0000   1.0000   1.0000
     1.0000   1.0000   1.0000   1.0000   1.0000   1.0000   1.0000   1.0000
     1.0000   1.0000   1.0000   1.0000   1.0000   1.0000   1.0000   1.0000
     1.0000   1.0000   1.0000   1.0000   1.0000   1.0000   1.0000   1.0000
     1.0000   1.0000   1.0000   1.0000   1.0000   1.0000   1.0000   1.0000
     1.0000   1.0000   1.0000   1.0000   1.0000   1.0000   1.0000   1.0000
     1.0000   1.0000   1.0000   1.0000   1.0000   1.0000   1.0000   1.0000
     1.0000   1.0000   1.0000   1.0000   1.0000   1.0000   1.0000   1.0000
     1.0000   1.0000   1.0000   1.0000   1.0000   1.0000   1.0000   1.0000
     1.0000   1.0000   1.0000   1.0000   1.0000   1.0000   1.0000   1.0000
     1.0000   1.0000   1.0000   1.0000   1.0000   1.0000   1.0000   1.0000
     1.0000   1.0000   1.0000   1.0000   1.0000   1.0000   1.0000   1.0000
     1.0000   1.0000   1.0000   1.0000   1.0000   1.0000   1.0000   1.0000
     1.0000   1.0000   1.0000   1.0000   1.0000   1.0000   1.0000   1.0000
     1.0000   1.0000   1.0000   1.0000   1.0000   1.0000   1.0000   1.0000
     1.0000   1.0000   1.0000   1.0000   1.0000   1.0000   1.0000   1.0000

          k = 0.4167 0.1870 0.0666 ( 63041 PWs)   bands (ev):

   -18.4231 -18.4231 -18.4231 -18.4231 -18.4230 -18.4230 -18.4230 -18.4230
   -18.4108 -18.4108 -18.4108 -18.4108 -18.4108 -18.4108 -18.4108 -18.4108
   -17.8328 -17.8328 -17.8328 -17.8328 -17.8327 -17.8327 -17.8326 -17.8326
   -17.3855 -17.3855 -17.3855 -17.3855 -17.3855 -17.3855 -17.3855 -17.3855
   -17.3730 -17.3730 -17.3730 -17.3730 -17.3729 -17.3729 -17.3729 -17.3729
   -17.3694 -17.3694 -17.3693 -17.3693 -17.3693 -17.3693 -17.3693 -17.3693
    -8.6607  -8.6607  -8.6594  -8.6594  -8.6002  -8.6002  -8.5994  -8.5994
    -8.4808  -8.4808  -8.4794  -8.4794  -8.4277  -8.4277  -8.4269  -8.4269
    -8.4195  -8.4195  -8.4143  -8.4143  -8.4120  -8.4120  -8.4073  -8.4073
    -5.8270  -5.8270  -5.8252  -5.8252  -5.8185  -5.8185  -5.8168  -5.8168
    -4.2856  -4.2856  -4.2823  -4.2823  -4.2703  -4.2703  -4.2669  -4.2669
    -4.1629  -4.1629  -4.1620  -4.1620  -4.1533  -4.1533  -4.1526  -4.1526
    -3.3030  -3.3030  -3.2963  -3.2963  -3.2757  -3.2757  -3.2696  -3.2696
    -0.1217  -0.1217  -0.1076  -0.1076  -0.0440  -0.0440  -0.0371  -0.0371
     0.2394   0.2394   0.2543   0.2543   0.3578   0.3578   0.3689   0.3689
     0.4753   0.4753   0.5208   0.5208   0.6603   0.6603   0.6996   0.6996
     1.0381   1.0381   1.0592   1.0592   1.1602   1.1602   1.2318   1.2318
     1.4003   1.4003   1.4480   1.4480   1.5290   1.5290   1.5794   1.5794
     1.6196   1.6196   1.6462   1.6462   1.6785   1.6785   1.7262   1.7262
     1.8479   1.8479   1.8788   1.8788   1.9199   1.9199   1.9838   1.9838
     2.1384   2.1384   2.1691   2.1691   2.2011   2.2011   2.2195   2.2195
     2.7458   2.7458   2.8354   2.8354   2.8735   2.8735   2.9086   2.9086

     occupation numbers 
     1.0000   1.0000   1.0000   1.0000   1.0000   1.0000   1.0000   1.0000
     1.0000   1.0000   1.0000   1.0000   1.0000   1.0000   1.0000   1.0000
     1.0000   1.0000   1.0000   1.0000   1.0000   1.0000   1.0000   1.0000
     1.0000   1.0000   1.0000   1.0000   1.0000   1.0000   1.0000   1.0000
     1.0000   1.0000   1.0000   1.0000   1.0000   1.0000   1.0000   1.0000
     1.0000   1.0000   1.0000   1.0000   1.0000   1.0000   1.0000   1.0000
     1.0000   1.0000   1.0000   1.0000   1.0000   1.0000   1.0000   1.0000
     1.0000   1.0000   1.0000   1.0000   1.0000   1.0000   1.0000   1.0000
     1.0000   1.0000   1.0000   1.0000   1.0000   1.0000   1.0000   1.0000
     1.0000   1.0000   1.0000   1.0000   1.0000   1.0000   1.0000   1.0000
     1.0000   1.0000   1.0000   1.0000   1.0000   1.0000   1.0000   1.0000
     1.0000   1.0000   1.0000   1.0000   1.0000   1.0000   1.0000   1.0000
     1.0000   1.0000   1.0000   1.0000   1.0000   1.0000   1.0000   1.0000
     1.0000   1.0000   1.0000   1.0000   1.0000   1.0000   1.0000   1.0000
     1.0000   1.0000   1.0000   1.0000   1.0000   1.0000   1.0000   1.0000
     1.0000   1.0000   1.0000   1.0000   1.0000   1.0000   1.0000   1.0000
     1.0000   1.0000   1.0000   1.0000   1.0000   1.0000   1.0000   1.0000
     1.0000   1.0000   1.0000   1.0000   1.0000   1.0000   1.0000   1.0000
     1.0000   1.0000   1.0000   1.0000   1.0000   1.0000   1.0000   1.0000
     1.0000   1.0000   1.0000   1.0000   1.0000   1.0000   1.0000   1.0000
     1.0000   1.0000   1.0000   1.0000   1.0000   1.0000   1.0000   1.0000
     1.0000   1.0000   1.0000   1.0000   1.0000   1.0000   1.0000   1.0000

          k = 0.4167 0.1870 0.1110 ( 63056 PWs)   bands (ev):

   -18.4231 -18.4231 -18.4231 -18.4231 -18.4230 -18.4230 -18.4230 -18.4230
   -18.4108 -18.4108 -18.4108 -18.4108 -18.4108 -18.4108 -18.4108 -18.4108
   -17.8328 -17.8328 -17.8328 -17.8328 -17.8326 -17.8326 -17.8326 -17.8326
   -17.3855 -17.3855 -17.3855 -17.3855 -17.3855 -17.3855 -17.3855 -17.3855
   -17.3730 -17.3730 -17.3730 -17.3730 -17.3729 -17.3729 -17.3729 -17.3729
   -17.3694 -17.3694 -17.3694 -17.3694 -17.3693 -17.3693 -17.3693 -17.3693
    -8.6603  -8.6603  -8.6598  -8.6598  -8.5999  -8.5999  -8.5996  -8.5996
    -8.4804  -8.4804  -8.4799  -8.4799  -8.4276  -8.4276  -8.4272  -8.4272
    -8.4178  -8.4178  -8.4158  -8.4158  -8.4105  -8.4105  -8.4088  -8.4088
    -5.8268  -5.8268  -5.8255  -5.8255  -5.8179  -5.8179  -5.8173  -5.8173
    -4.2849  -4.2849  -4.2829  -4.2829  -4.2693  -4.2693  -4.2680  -4.2680
    -4.1625  -4.1625  -4.1620  -4.1620  -4.1535  -4.1535  -4.1528  -4.1528
    -3.3010  -3.3010  -3.2986  -3.2986  -3.2737  -3.2737  -3.2715  -3.2715
    -0.1190  -0.1190  -0.1125  -0.1125  -0.0450  -0.0450  -0.0374  -0.0374
     0.2409   0.2409   0.2483   0.2483   0.3643   0.3643   0.3701   0.3701
     0.4940   0.4940   0.5126   0.5126   0.6727   0.6727   0.6886   0.6886
     1.0333   1.0333   1.0412   1.0412   1.1773   1.1773   1.2055   1.2055
     1.4100   1.4100   1.4471   1.4471   1.5472   1.5472   1.5808   1.5808
     1.6201   1.6201   1.6412   1.6412   1.6875   1.6875   1.7078   1.7078
     1.8533   1.8533   1.8811   1.8811   1.9386   1.9386   1.9654   1.9654
     2.1441   2.1441   2.1578   2.1578   2.2010   2.2010   2.2175   2.2175
     2.7773   2.7773   2.8115   2.8115   2.8788   2.8788   2.9034   2.9034

     occupation numbers 
     1.0000   1.0000   1.0000   1.0000   1.0000   1.0000   1.0000   1.0000
     1.0000   1.0000   1.0000   1.0000   1.0000   1.0000   1.0000   1.0000
     1.0000   1.0000   1.0000   1.0000   1.0000   1.0000   1.0000   1.0000
     1.0000   1.0000   1.0000   1.0000   1.0000   1.0000   1.0000   1.0000
     1.0000   1.0000   1.0000   1.0000   1.0000   1.0000   1.0000   1.0000
     1.0000   1.0000   1.0000   1.0000   1.0000   1.0000   1.0000   1.0000
     1.0000   1.0000   1.0000   1.0000   1.0000   1.0000   1.0000   1.0000
     1.0000   1.0000   1.0000   1.0000   1.0000   1.0000   1.0000   1.0000
     1.0000   1.0000   1.0000   1.0000   1.0000   1.0000   1.0000   1.0000
     1.0000   1.0000   1.0000   1.0000   1.0000   1.0000   1.0000   1.0000
     1.0000   1.0000   1.0000   1.0000   1.0000   1.0000   1.0000   1.0000
     1.0000   1.0000   1.0000   1.0000   1.0000   1.0000   1.0000   1.0000
     1.0000   1.0000   1.0000   1.0000   1.0000   1.0000   1.0000   1.0000
     1.0000   1.0000   1.0000   1.0000   1.0000   1.0000   1.0000   1.0000
     1.0000   1.0000   1.0000   1.0000   1.0000   1.0000   1.0000   1.0000
     1.0000   1.0000   1.0000   1.0000   1.0000   1.0000   1.0000   1.0000
     1.0000   1.0000   1.0000   1.0000   1.0000   1.0000   1.0000   1.0000
     1.0000   1.0000   1.0000   1.0000   1.0000   1.0000   1.0000   1.0000
     1.0000   1.0000   1.0000   1.0000   1.0000   1.0000   1.0000   1.0000
     1.0000   1.0000   1.0000   1.0000   1.0000   1.0000   1.0000   1.0000
     1.0000   1.0000   1.0000   1.0000   1.0000   1.0000   1.0000   1.0000
     1.0000   1.0000   1.0000   1.0000   1.0000   1.0000   1.0000   1.0000

     highest occupied level (ev):     3.0489

     Writing output data file ./CsSnI3.save/

     init_run     :      8.31s CPU      6.15s WALL (       1 calls)
     electrons    :   1976.91s CPU   1134.52s WALL (       1 calls)

     Called by init_run:
     wfcinit      :      0.00s CPU      0.00s WALL (       1 calls)
     wfcinit:atom :      0.41s CPU      0.35s WALL (      27 calls)
     wfcinit:wfcr :     67.72s CPU     39.38s WALL (      27 calls)
     potinit      :      0.24s CPU      0.20s WALL (       1 calls)
     hinit0       :      2.99s CPU      2.09s WALL (       1 calls)

     Called by electrons:
     c_bands      :   1976.90s CPU   1134.50s WALL (       1 calls)
     v_of_rho     :      0.13s CPU      0.08s WALL (       1 calls)
     v_h          :      0.01s CPU      0.00s WALL (       1 calls)
     v_xc         :      0.12s CPU      0.08s WALL (       1 calls)
     newd         :      4.70s CPU      3.46s WALL (       1 calls)

     Called by c_bands:
     init_us_2    :      0.76s CPU      0.47s WALL (      27 calls)
     cegterg      :   1896.30s CPU   1084.95s WALL (      54 calls)

     Called by sum_band:

     Called by *egterg:
     cdiaghg      :     70.94s CPU     46.88s WALL (     882 calls)
     cegterg:over :    179.35s CPU    121.83s WALL (     855 calls)
     cegterg:upda :     71.29s CPU     36.25s WALL (     855 calls)
     cegterg:last :    203.54s CPU    106.80s WALL (     711 calls)
     h_psi        :   1192.86s CPU    641.87s WALL (     936 calls)
     s_psi        :    190.08s CPU    128.88s WALL (     936 calls)
     g_psi        :      4.59s CPU      2.31s WALL (     855 calls)

     Called by h_psi:
     h_psi:calbec :    195.49s CPU    113.85s WALL (     936 calls)
     vloc_psi     :    811.97s CPU    414.80s WALL (     936 calls)
     add_vuspsi   :    174.46s CPU    107.32s WALL (     936 calls)

     General routines
     calbec       :    195.47s CPU    113.84s WALL (     936 calls)
     fft          :      0.18s CPU      0.13s WALL (      19 calls)
     ffts         :      0.02s CPU      0.01s WALL (       4 calls)
     fftw         :    703.73s CPU    360.07s WALL (  532328 calls)
     interpolate  :      0.05s CPU      0.03s WALL (       4 calls)
     davcio       :      0.10s CPU      0.60s WALL (      54 calls)

     Parallel routines
     fft_scatt_xy :     51.65s CPU     26.16s WALL (  532351 calls)
     fft_scatt_yz :    431.16s CPU    221.77s WALL (  532351 calls)

     PWSCF        :  33m20.66s CPU  19m37.85s WALL


   This run was terminated on:   9:53:46  31Jan2021            

=------------------------------------------------------------------------------=
   JOB DONE.
=------------------------------------------------------------------------------=
