
     Program PWSCF v.6.7MaX starts on 31Jan2021 at  9:31:11 

     This program is part of the open-source Quantum ESPRESSO suite
     for quantum simulation of materials; please cite
         "P. Giannozzi et al., J. Phys.:Condens. Matter 21 395502 (2009);
         "P. Giannozzi et al., J. Phys.:Condens. Matter 29 465901 (2017);
          URL http://www.quantum-espresso.org", 
     in publications or presentations arising from this work. More details at
     http://www.quantum-espresso.org/quote

     Parallel version (MPI & OpenMP), running on      96 processor cores
     Number of MPI processes:                48
     Threads/MPI process:                     2

     MPI processes distributed on     2 nodes
     R & G space division:  proc/nbgrp/npool/nimage =      48
     Waiting for input...
     Reading input from standard input

     Current dimensions of program PWSCF are:
     Max number of different atomic species (ntypx) = 10
     Max number of k-points (npk) =  40000
     Max angular momentum in pseudopotentials (lmaxx) =  3
     Message from routine iosys:
     BEWARE:  force calculation with tetrahedra (not recommanded)
     Message from routine iosys:
     BEWARE: stress calculation with tetrahedra (not recommanded)
     file Cs.rel-pbesol-spn-rrkjus_psl.1.0.0.UPF: wavefunction(s)  5S 6S renormalized
     file Sn.rel-pbesol-dn-rrkjus_psl.1.0.0.UPF: wavefunction(s)  5S 4D 4D renormalized
     file I.rel-pbesol-n-rrkjus_psl.1.0.0.UPF: wavefunction(s)  5S renormalized

     Subspace diagonalization in iterative solution of the eigenvalue problem:
     a serial algorithm will be used


     Parallelization info
     --------------------
     sticks:   dense  smooth     PW     G-vecs:    dense   smooth      PW
     Min         107      86     22                14667    10498    1402
     Max         108      87     23                14680    10509    1415
     Sum        5183    4145   1087               704507   504115   67611


     Title: 
     CsSnI3                                                                     


     bravais-lattice index     =            8
     lattice parameter (alat)  =       9.1317  a.u.
     unit-cell volume          =    6370.5385 (a.u.)^3
     number of atoms/cell      =           20
     number of atomic types    =            3
     number of electrons       =       176.00
     number of Kohn-Sham states=          212
     kinetic-energy cutoff     =      70.0000  Ry
     charge density cutoff     =     350.0000  Ry
     scf convergence threshold =      1.0E-06
     mixing beta               =       0.7000
     number of iterations used =            8  plain     mixing
     Exchange-correlation= PBESOL
                           (   1   4  10   8   0   0   0)
     Non magnetic calculation with spin-orbit


     celldm(1)=   9.131705  celldm(2)=   2.227728  celldm(3)=   3.755420
     celldm(4)=   0.000000  celldm(5)=   0.000000  celldm(6)=   0.000000

     crystal axes: (cart. coord. in units of alat)
               a(1) = (   1.000000   0.000000   0.000000 )  
               a(2) = (   0.000000   2.227728   0.000000 )  
               a(3) = (   0.000000   0.000000   3.755420 )  

     reciprocal axes: (cart. coord. in units 2 pi/alat)
               b(1) = (  1.000000  0.000000  0.000000 )  
               b(2) = (  0.000000  0.448888  0.000000 )  
               b(3) = (  0.000000  0.000000  0.266282 )  


     PseudoPot. # 1 for Cs read from file:
     /scratch/cmalosso/degironcoli/pseudo/pseudo-usp/Cs.rel-pbesol-spn-rrkjus_psl.1.0.0.UPF
     MD5 check sum: 846889b67fb1b19751b5b37931589d70
     Pseudo is Ultrasoft + core correction, Zval =  9.0
     Generated using &quot;atomic&quot; code by A. Dal Corso  v.6.4.1
     Using radial grid of 1251 points, 15 beta functions with: 
                l(1) =   0
                l(2) =   0
                l(3) =   0
                l(4) =   1
                l(5) =   1
                l(6) =   1
                l(7) =   1
                l(8) =   2
                l(9) =   2
               l(10) =   2
               l(11) =   2
               l(12) =   3
               l(13) =   3
               l(14) =   3
               l(15) =   3
     Q(r) pseudized with 0 coefficients 


     PseudoPot. # 2 for Sn read from file:
     /scratch/cmalosso/degironcoli/pseudo/pseudo-usp/Sn.rel-pbesol-dn-rrkjus_psl.1.0.0.UPF
     MD5 check sum: c1cf6ea56b96a3656bdf0d1db379e093
     Pseudo is Ultrasoft + core correction, Zval = 14.0
     Generated using &quot;atomic&quot; code by A. Dal Corso  v.6.3
     Using radial grid of 1243 points, 10 beta functions with: 
                l(1) =   0
                l(2) =   0
                l(3) =   1
                l(4) =   1
                l(5) =   1
                l(6) =   1
                l(7) =   2
                l(8) =   2
                l(9) =   2
               l(10) =   2
     Q(r) pseudized with 0 coefficients 


     PseudoPot. # 3 for I  read from file:
     /scratch/cmalosso/degironcoli/pseudo/pseudo-usp/I.rel-pbesol-n-rrkjus_psl.1.0.0.UPF
     MD5 check sum: 0f96c6bfb1b448f280658f96eb466b08
     Pseudo is Ultrasoft + core correction, Zval =  7.0
     Generated using &quot;atomic&quot; code by A. Dal Corso  v.6.3
     Using radial grid of 1247 points, 10 beta functions with: 
                l(1) =   0
                l(2) =   0
                l(3) =   1
                l(4) =   1
                l(5) =   1
                l(6) =   1
                l(7) =   2
                l(8) =   2
                l(9) =   2
               l(10) =   2
     Q(r) pseudized with 0 coefficients 


     atomic species   valence    mass     pseudopotential
        Cs             9.00   132.90000     Cs( 1.00)
        Sn            14.00   118.70000     Sn( 1.00)
        I              7.00   126.90000     I ( 1.00)

      8 Sym. Ops., with inversion, found ( 6 have fractional translation)


                                    s                        frac. trans.

      isym =  1     identity                                     

 cryst.   s( 1) = (     1          0          0      )
                  (     0          1          0      )
                  (     0          0          1      )

 cart.    s( 1) = (  1.0000000  0.0000000  0.0000000 )
                  (  0.0000000  1.0000000  0.0000000 )
                  (  0.0000000  0.0000000  1.0000000 )


      isym =  2     180 deg rotation - cart. axis [0,0,1]        

 cryst.   s( 2) = (    -1          0          0      )    f =(  0.0000000 )
                  (     0         -1          0      )       (  0.5000000 )
                  (     0          0          1      )       (  0.5000000 )

 cart.    s( 2) = ( -1.0000000  0.0000000  0.0000000 )    f =(  0.0000000 )
                  (  0.0000000 -1.0000000  0.0000000 )       (  1.1138638 )
                  (  0.0000000  0.0000000  1.0000000 )       (  1.8777098 )


      isym =  3     180 deg rotation - cart. axis [0,1,0]        

 cryst.   s( 3) = (    -1          0          0      )    f =(  0.5000000 )
                  (     0          1          0      )       ( -0.5000000 )
                  (     0          0         -1      )       ( -0.5000000 )

 cart.    s( 3) = ( -1.0000000  0.0000000  0.0000000 )    f =(  0.5000000 )
                  (  0.0000000  1.0000000  0.0000000 )       ( -1.1138638 )
                  (  0.0000000  0.0000000 -1.0000000 )       ( -1.8777098 )


      isym =  4     180 deg rotation - cart. axis [1,0,0]        

 cryst.   s( 4) = (     1          0          0      )    f =( -0.5000000 )
                  (     0         -1          0      )       (  0.0000000 )
                  (     0          0         -1      )       (  0.0000000 )

 cart.    s( 4) = (  1.0000000  0.0000000  0.0000000 )    f =( -0.5000000 )
                  (  0.0000000 -1.0000000  0.0000000 )       (  0.0000000 )
                  (  0.0000000  0.0000000 -1.0000000 )       (  0.0000000 )


      isym =  5     inversion                                    

 cryst.   s( 5) = (    -1          0          0      )
                  (     0         -1          0      )
                  (     0          0         -1      )

 cart.    s( 5) = ( -1.0000000  0.0000000  0.0000000 )
                  (  0.0000000 -1.0000000  0.0000000 )
                  (  0.0000000  0.0000000 -1.0000000 )


      isym =  6     inv. 180 deg rotation - cart. axis [0,0,1]   

 cryst.   s( 6) = (     1          0          0      )    f =(  0.0000000 )
                  (     0          1          0      )       ( -0.5000000 )
                  (     0          0         -1      )       ( -0.5000000 )

 cart.    s( 6) = (  1.0000000  0.0000000  0.0000000 )    f =(  0.0000000 )
                  (  0.0000000  1.0000000  0.0000000 )       ( -1.1138638 )
                  (  0.0000000  0.0000000 -1.0000000 )       ( -1.8777098 )


      isym =  7     inv. 180 deg rotation - cart. axis [0,1,0]   

 cryst.   s( 7) = (     1          0          0      )    f =( -0.5000000 )
                  (     0         -1          0      )       (  0.5000000 )
                  (     0          0          1      )       (  0.5000000 )

 cart.    s( 7) = (  1.0000000  0.0000000  0.0000000 )    f =( -0.5000000 )
                  (  0.0000000 -1.0000000  0.0000000 )       (  1.1138638 )
                  (  0.0000000  0.0000000  1.0000000 )       (  1.8777098 )


      isym =  8     inv. 180 deg rotation - cart. axis [1,0,0]   

 cryst.   s( 8) = (    -1          0          0      )    f =(  0.5000000 )
                  (     0          1          0      )       (  0.0000000 )
                  (     0          0          1      )       (  0.0000000 )

 cart.    s( 8) = ( -1.0000000  0.0000000  0.0000000 )    f =(  0.5000000 )
                  (  0.0000000  1.0000000  0.0000000 )       (  0.0000000 )
                  (  0.0000000  0.0000000  1.0000000 )       (  0.0000000 )


     double point group D_2h (mmm) 
     there are 10 classes and  2 irreducible representations
     the character table:

       E     -E     C2    C2'  C2''  i     -i     s_v   s_v' s_v''
                   -C2   -C2'  -C2''             -s_v  -s_v' -s_v'
G_5+   2.00 -2.00  0.00  0.00  0.00  2.00 -2.00  0.00  0.00  0.00
G_5-   2.00 -2.00  0.00  0.00  0.00 -2.00  2.00  0.00  0.00  0.00

     the symmetry operations in each class and the name of the first element:

     E             1
          identity                                               
     -E           -1
          identity E                                             
      C2  -C2      2   -2
          180 deg rotation - cart. axis [0,0,1]                  
      C2' -C2'     4   -4
          180 deg rotation - cart. axis [1,0,0]                  
     C2'' -C2''    3   -3
          180 deg rotation - cart. axis [0,1,0]                  
     i             5
          inversion                                              
     -i           -5
          inversion E                                            
      s_v -s_v     6   -6
          inv. 180 deg rotation - cart. axis [0,0,1]             
      s_v'-s_v'    8   -8
          inv. 180 deg rotation - cart. axis [1,0,0]             
     s_v''-s_v'    7   -7
          inv. 180 deg rotation - cart. axis [0,1,0]             

   Cartesian axes

     site n.     atom                  positions (alat units)
         1           Cs  tau(   1) = (   0.2500000   0.1859640   2.5168147  )
         2           Cs  tau(   2) = (   0.7500000   2.0417636   1.2386050  )
         3           Cs  tau(   3) = (   0.2500000   1.2998278   3.1163149  )
         4           Cs  tau(   4) = (   0.7500000   0.9278998   0.6391048  )
         5           Sn  tau(   5) = (   0.2500000   0.7615710   1.6485466  )
         6           Sn  tau(   6) = (   0.7500000   1.4661567   2.1068731  )
         7           Sn  tau(   7) = (   0.2500000   1.8754348   0.2291632  )
         8           Sn  tau(   8) = (   0.7500000   0.3522928   3.5262565  )
         9           I   tau(   9) = (   0.7500000   0.0581437   0.4202578  )
        10           I   tau(  10) = (   0.2500000   2.1695839   3.3351619  )
        11           I   tau(  11) = (   0.7500000   1.1720075   1.4574521  )
        12           I   tau(  12) = (   0.2500000   1.0557201   2.2979676  )
        13           I   tau(  13) = (   0.7500000   0.6531118   2.9738192  )
        14           I   tau(  14) = (   0.2500000   1.5746158   0.7816005  )
        15           I   tau(  15) = (   0.7500000   1.7669756   2.6593103  )
        16           I   tau(  16) = (   0.2500000   0.4607520   1.0961094  )
        17           I   tau(  17) = (   0.7500000   0.3753632   1.8734812  )
        18           I   tau(  18) = (   0.2500000   1.8523644   1.8819384  )
        19           I   tau(  19) = (   0.7500000   1.4892270   0.0042286  )
        20           I   tau(  20) = (   0.2500000   0.7385006   3.7511911  )

   Crystallographic axes

     site n.     atom                  positions (cryst. coord.)
         1           Cs  tau(   1) = (  0.2500000  0.0834770  0.6701820  )
         2           Cs  tau(   2) = (  0.7500000  0.9165230  0.3298180  )
         3           Cs  tau(   3) = (  0.2500000  0.5834770  0.8298180  )
         4           Cs  tau(   4) = (  0.7500000  0.4165230  0.1701820  )
         5           Sn  tau(   5) = (  0.2500000  0.3418600  0.4389780  )
         6           Sn  tau(   6) = (  0.7500000  0.6581400  0.5610220  )
         7           Sn  tau(   7) = (  0.2500000  0.8418600  0.0610220  )
         8           Sn  tau(   8) = (  0.7500000  0.1581400  0.9389780  )
         9           I   tau(   9) = (  0.7500000  0.0261000  0.1119070  )
        10           I   tau(  10) = (  0.2500000  0.9739000  0.8880930  )
        11           I   tau(  11) = (  0.7500000  0.5261000  0.3880930  )
        12           I   tau(  12) = (  0.2500000  0.4739000  0.6119070  )
        13           I   tau(  13) = (  0.7500000  0.2931740  0.7918740  )
        14           I   tau(  14) = (  0.2500000  0.7068260  0.2081260  )
        15           I   tau(  15) = (  0.7500000  0.7931740  0.7081260  )
        16           I   tau(  16) = (  0.2500000  0.2068260  0.2918740  )
        17           I   tau(  17) = (  0.7500000  0.1684960  0.4988740  )
        18           I   tau(  18) = (  0.2500000  0.8315040  0.5011260  )
        19           I   tau(  19) = (  0.7500000  0.6684960  0.0011260  )
        20           I   tau(  20) = (  0.2500000  0.3315040  0.9988740  )

     number of k points=     1 (tetrahedron method)
                       cart. coord. in units 2pi/alat
        k(    1) = (   0.2500000   0.1122220   0.0665705), wk =   1.0000000

                       cryst. coord.
        k(    1) = (   0.2500000   0.2500000   0.2500000), wk =   1.0000000

     Dense  grid:   704507 G-vectors     FFT dimensions: (  60, 128, 216)

     Smooth grid:   504115 G-vectors     FFT dimensions: (  50, 120, 192)

     Dynamical RAM for                 wfc:       8.49 MB

     Dynamical RAM for     wfc (w. buffer):       8.49 MB

     Dynamical RAM for           str. fact:       0.67 MB

     Dynamical RAM for           local pot:       0.00 MB

     Dynamical RAM for          nlocal pot:      15.94 MB

     Dynamical RAM for                qrad:      36.03 MB

     Dynamical RAM for          rho,v,vnew:       6.20 MB

     Dynamical RAM for               rhoin:       2.07 MB

     Dynamical RAM for            rho*nmix:      14.33 MB

     Dynamical RAM for           G-vectors:       0.92 MB

     Dynamical RAM for          h,s,v(r/c):       8.23 MB

     Dynamical RAM for          <psi|beta>:       5.15 MB

     Dynamical RAM for                 psi:      16.98 MB

     Dynamical RAM for                hpsi:      16.98 MB

     Dynamical RAM for                spsi:      16.98 MB

     Dynamical RAM for      wfcinit/wfcrot:      13.76 MB

     Dynamical RAM for           addusdens:     460.07 MB

     Dynamical RAM for          addusforce:     465.66 MB

     Dynamical RAM for         addusstress:     464.10 MB

     Estimated static dynamical RAM per process >      87.88 MB

     Estimated max dynamical RAM per process >     553.54 MB

     Estimated total dynamical RAM >      25.95 GB

     Initial potential from superposition of free atoms

     starting charge  175.84164, renormalised to  176.00000
     Starting wfcs are  208 randomized atomic wfcs +    4 random wfcs

     total cpu time spent up to now is       14.4 secs

     Self-consistent Calculation

     iteration #  1     ecut=    70.00 Ry     beta= 0.70
     Davidson diagonalization with overlap
     ethr =  1.00E-02,  avg # of iterations =  7.0

     Threshold (ethr) on eigenvalues was too large:
     Diagonalizing with lowered threshold

     Davidson diagonalization with overlap
     ethr =  2.85E-04,  avg # of iterations = 11.0

     total cpu time spent up to now is       36.5 secs

     total energy              =   -1267.95233166 Ry
     estimated scf accuracy    <       0.42871856 Ry

     iteration #  2     ecut=    70.00 Ry     beta= 0.70
     Davidson diagonalization with overlap
     ethr =  2.44E-04,  avg # of iterations = 10.0

     total cpu time spent up to now is       49.4 secs

     total energy              =   -1267.99151270 Ry
     estimated scf accuracy    <       0.72927663 Ry

     iteration #  3     ecut=    70.00 Ry     beta= 0.70
     Davidson diagonalization with overlap
     ethr =  2.44E-04,  avg # of iterations =  3.0

     total cpu time spent up to now is       60.8 secs

     total energy              =   -1268.15134834 Ry
     estimated scf accuracy    <       0.02682287 Ry

     iteration #  4     ecut=    70.00 Ry     beta= 0.70
     Davidson diagonalization with overlap
     c_bands:  4 eigenvalues not converged
     ethr =  1.52E-05,  avg # of iterations = 20.0

     total cpu time spent up to now is       76.1 secs

     total energy              =   -1268.15947265 Ry
     estimated scf accuracy    <       0.00504881 Ry

     iteration #  5     ecut=    70.00 Ry     beta= 0.70
     Davidson diagonalization with overlap
     ethr =  2.87E-06,  avg # of iterations = 13.0

     total cpu time spent up to now is       89.7 secs

     total energy              =   -1268.16086972 Ry
     estimated scf accuracy    <       0.00097805 Ry

     iteration #  6     ecut=    70.00 Ry     beta= 0.70
     Davidson diagonalization with overlap
     ethr =  5.56E-07,  avg # of iterations =  2.0

     total cpu time spent up to now is      100.9 secs

     total energy              =   -1268.16108809 Ry
     estimated scf accuracy    <       0.00008922 Ry

     iteration #  7     ecut=    70.00 Ry     beta= 0.70
     Davidson diagonalization with overlap
     ethr =  5.07E-08,  avg # of iterations =  5.0

     total cpu time spent up to now is      113.2 secs

     total energy              =   -1268.16112433 Ry
     estimated scf accuracy    <       0.00001079 Ry

     iteration #  8     ecut=    70.00 Ry     beta= 0.70
     Davidson diagonalization with overlap
     ethr =  6.13E-09,  avg # of iterations =  4.0

     total cpu time spent up to now is      124.9 secs

     End of self-consistent calculation

          k = 0.2500 0.1122 0.0666 ( 63008 PWs)   bands (ev):

   -18.4226 -18.4226 -18.4226 -18.4226 -18.4224 -18.4224 -18.4224 -18.4224
   -18.4107 -18.4107 -18.4107 -18.4107 -18.4106 -18.4106 -18.4106 -18.4106
   -17.8388 -17.8388 -17.8387 -17.8387 -17.8383 -17.8383 -17.8382 -17.8382
   -17.3848 -17.3848 -17.3847 -17.3847 -17.3847 -17.3847 -17.3847 -17.3847
   -17.3728 -17.3728 -17.3728 -17.3728 -17.3726 -17.3726 -17.3726 -17.3726
   -17.3695 -17.3695 -17.3695 -17.3695 -17.3693 -17.3693 -17.3693 -17.3693
    -8.8091  -8.8091  -8.7978  -8.7978  -8.6590  -8.6590  -8.6431  -8.6431
    -8.5478  -8.5478  -8.5419  -8.5419  -8.4759  -8.4759  -8.4589  -8.4589
    -8.4019  -8.4019  -8.3973  -8.3973  -8.3817  -8.3817  -8.3763  -8.3763
    -5.8025  -5.8025  -5.7986  -5.7986  -5.7949  -5.7949  -5.7908  -5.7908
    -4.2241  -4.2241  -4.2188  -4.2188  -4.2076  -4.2076  -4.2004  -4.2004
    -4.1625  -4.1625  -4.1593  -4.1593  -4.1543  -4.1543  -4.1495  -4.1495
    -3.1732  -3.1732  -3.1692  -3.1692  -3.0807  -3.0807  -3.0708  -3.0708
    -0.0210  -0.0210   0.0391   0.0391   0.1308   0.1308   0.1635   0.1635
     0.2806   0.2806   0.3712   0.3712   0.5001   0.5001   0.5581   0.5581
     0.6744   0.6744   0.7074   0.7074   0.7416   0.7416   0.8078   0.8078
     1.0143   1.0143   1.0803   1.0803   1.2823   1.2823   1.3564   1.3564
     1.4100   1.4100   1.4767   1.4767   1.5948   1.5948   1.6543   1.6543
     1.7280   1.7280   1.7669   1.7669   1.8191   1.8191   1.8472   1.8472
     1.8793   1.8793   1.9583   1.9583   2.0064   2.0064   2.0775   2.0775
     2.1321   2.1321   2.1598   2.1598   2.3126   2.3126   2.3453   2.3453
     2.6536   2.6536   2.7508   2.7508   2.9421   2.9421   2.9898   2.9898
     5.6315   5.6315   5.7704   5.7704   5.8290   5.8290   5.9165   5.9165
     6.0209   6.0209   6.0514   6.0514   6.1516   6.1516   6.1978   6.1978
     6.3077   6.3077   6.3968   6.3968   6.4264   6.4264   6.5228   6.5228
     7.6130   7.6130   7.7171   7.7171   7.8594   7.8594   8.0148   8.0149
     8.1067   8.1074   8.2156   8.2163

     occupation numbers 
     1.0000   1.0000   1.0000   1.0000   1.0000   1.0000   1.0000   1.0000
     1.0000   1.0000   1.0000   1.0000   1.0000   1.0000   1.0000   1.0000
     1.0000   1.0000   1.0000   1.0000   1.0000   1.0000   1.0000   1.0000
     1.0000   1.0000   1.0000   1.0000   1.0000   1.0000   1.0000   1.0000
     1.0000   1.0000   1.0000   1.0000   1.0000   1.0000   1.0000   1.0000
     1.0000   1.0000   1.0000   1.0000   1.0000   1.0000   1.0000   1.0000
     1.0000   1.0000   1.0000   1.0000   1.0000   1.0000   1.0000   1.0000
     1.0000   1.0000   1.0000   1.0000   1.0000   1.0000   1.0000   1.0000
     1.0000   1.0000   1.0000   1.0000   1.0000   1.0000   1.0000   1.0000
     1.0000   1.0000   1.0000   1.0000   1.0000   1.0000   1.0000   1.0000
     1.0000   1.0000   1.0000   1.0000   1.0000   1.0000   1.0000   1.0000
     1.0000   1.0000   1.0000   1.0000   1.0000   1.0000   1.0000   1.0000
     1.0000   1.0000   1.0000   1.0000   1.0000   1.0000   1.0000   1.0000
     1.0000   1.0000   1.0000   1.0000   1.0000   1.0000   1.0000   1.0000
     1.0000   1.0000   1.0000   1.0000   1.0000   1.0000   1.0000   1.0000
     1.0000   1.0000   1.0000   1.0000   1.0000   1.0000   1.0000   1.0000
     1.0000   1.0000   1.0000   1.0000   1.0000   1.0000   1.0000   1.0000
     1.0000   1.0000   1.0000   1.0000   1.0000   1.0000   1.0000   1.0000
     1.0000   1.0000   1.0000   1.0000   1.0000   1.0000   1.0000   1.0000
     1.0000   1.0000   1.0000   1.0000   1.0000   1.0000   1.0000   1.0000
     1.0000   1.0000   1.0000   1.0000   1.0000   1.0000   1.0000   1.0000
     1.0000   1.0000   1.0000   1.0000   1.0000   1.0000   1.0000   1.0000
     0.0000   0.0000   0.0000   0.0000   0.0000   0.0000   0.0000   0.0000
     0.0000   0.0000   0.0000   0.0000   0.0000   0.0000   0.0000   0.0000
     0.0000   0.0000   0.0000   0.0000   0.0000   0.0000   0.0000   0.0000
     0.0000   0.0000   0.0000   0.0000   0.0000   0.0000   0.0000   0.0000
     0.0000   0.0000   0.0000   0.0000

     the Fermi energy is     5.1076 ev

!    total energy              =   -1268.16112770 Ry
     estimated scf accuracy    <       0.00000057 Ry

     The total energy is the sum of the following terms:
     one-electron contribution =    -488.15302847 Ry
     hartree contribution      =     316.30472183 Ry
     xc contribution           =    -462.74321667 Ry
     ewald contribution        =    -633.56960439 Ry

     convergence has been achieved in   8 iterations

     Forces acting on atoms (cartesian axes, Ry/au):

     atom    1 type  1   force =    -0.00000000   -0.00091727    0.00003119
     atom    2 type  1   force =     0.00000000    0.00091727   -0.00003119
     atom    3 type  1   force =     0.00000000   -0.00091727   -0.00003119
     atom    4 type  1   force =     0.00000000    0.00091727    0.00003119
     atom    5 type  2   force =     0.00000000   -0.00158404   -0.00006274
     atom    6 type  2   force =    -0.00000000    0.00158404    0.00006274
     atom    7 type  2   force =     0.00000000   -0.00158404    0.00006274
     atom    8 type  2   force =    -0.00000000    0.00158404   -0.00006274
     atom    9 type  3   force =    -0.00000000    0.00101609   -0.00205819
     atom   10 type  3   force =     0.00000000   -0.00101609    0.00205819
     atom   11 type  3   force =     0.00000000    0.00101609    0.00205819
     atom   12 type  3   force =     0.00000000   -0.00101609   -0.00205819
     atom   13 type  3   force =     0.00000000   -0.00165279    0.00225658
     atom   14 type  3   force =    -0.00000000    0.00165279   -0.00225658
     atom   15 type  3   force =     0.00000000   -0.00165279   -0.00225658
     atom   16 type  3   force =    -0.00000000    0.00165279    0.00225658
     atom   17 type  3   force =     0.00000000   -0.00198341    0.00056944
     atom   18 type  3   force =    -0.00000000    0.00198341   -0.00056944
     atom   19 type  3   force =     0.00000000   -0.00198341   -0.00056944
     atom   20 type  3   force =    -0.00000000    0.00198341    0.00056944
     The non-local contrib.  to forces
     atom    1 type  1   force =     0.00000000    0.00253516   -0.00365755
     atom    2 type  1   force =     0.00000000   -0.00253516    0.00365755
     atom    3 type  1   force =     0.00000000    0.00253516    0.00365755
     atom    4 type  1   force =     0.00000000   -0.00253516   -0.00365755
     atom    5 type  2   force =     0.00000000   -0.08446737   -0.12906701
     atom    6 type  2   force =     0.00000000    0.08446737    0.12906701
     atom    7 type  2   force =     0.00000000   -0.08446737    0.12906701
     atom    8 type  2   force =     0.00000000    0.08446737   -0.12906701
     atom    9 type  3   force =     0.00000000   -0.05025717   -0.04899176
     atom   10 type  3   force =     0.00000000    0.05025717    0.04899176
     atom   11 type  3   force =    -0.00000000   -0.05025717    0.04899176
     atom   12 type  3   force =     0.00000000    0.05025717   -0.04899176
     atom   13 type  3   force =     0.00000000   -0.03235387    0.05475388
     atom   14 type  3   force =     0.00000000    0.03235387   -0.05475388
     atom   15 type  3   force =     0.00000000   -0.03235387   -0.05475388
     atom   16 type  3   force =     0.00000000    0.03235387    0.05475388
     atom   17 type  3   force =     0.00000000    0.05668986   -0.01765449
     atom   18 type  3   force =     0.00000000   -0.05668986    0.01765449
     atom   19 type  3   force =     0.00000000    0.05668986    0.01765449
     atom   20 type  3   force =     0.00000000   -0.05668986   -0.01765449
     The ionic contribution  to forces
     atom    1 type  1   force =    -0.00000000    0.02273773    0.42856976
     atom    2 type  1   force =    -0.00000000   -0.02273773   -0.42856976
     atom    3 type  1   force =    -0.00000000    0.02273773   -0.42856976
     atom    4 type  1   force =    -0.00000000   -0.02273773    0.42856976
     atom    5 type  2   force =    -0.00000000   -2.44382135   -1.60292983
     atom    6 type  2   force =     0.00000000    2.44382135    1.60292983
     atom    7 type  2   force =    -0.00000000   -2.44382135    1.60292983
     atom    8 type  2   force =     0.00000000    2.44382135   -1.60292983
     atom    9 type  3   force =    -0.00000000    3.00608891    5.13288893
     atom   10 type  3   force =     0.00000000   -3.00608891   -5.13288893
     atom   11 type  3   force =    -0.00000000    3.00608891   -5.13288893
     atom   12 type  3   force =    -0.00000000   -3.00608891    5.13288893
     atom   13 type  3   force =     0.00000000    2.02422849   -3.75281499
     atom   14 type  3   force =    -0.00000000   -2.02422849    3.75281499
     atom   15 type  3   force =     0.00000000    2.02422849    3.75281499
     atom   16 type  3   force =    -0.00000000   -2.02422849   -3.75281499
     atom   17 type  3   force =     0.00000000   -4.20564473    2.10270404
     atom   18 type  3   force =     0.00000000    4.20564473   -2.10270404
     atom   19 type  3   force =     0.00000000   -4.20564473   -2.10270404
     atom   20 type  3   force =     0.00000000    4.20564473    2.10270404
     The local contribution  to forces
     atom    1 type  1   force =    -0.00000000   -0.02625461   -0.42509133
     atom    2 type  1   force =     0.00000000    0.02625461    0.42509133
     atom    3 type  1   force =    -0.00000000   -0.02625461    0.42509133
     atom    4 type  1   force =     0.00000000    0.02625461   -0.42509133
     atom    5 type  2   force =    -0.00000000    2.52745104    1.73203526
     atom    6 type  2   force =    -0.00000000   -2.52745104   -1.73203526
     atom    7 type  2   force =    -0.00000000    2.52745104   -1.73203526
     atom    8 type  2   force =    -0.00000000   -2.52745104    1.73203526
     atom    9 type  3   force =     0.00000000   -2.96020205   -5.09150201
     atom   10 type  3   force =    -0.00000000    2.96020205    5.09150201
     atom   11 type  3   force =     0.00000000   -2.96020205    5.09150201
     atom   12 type  3   force =    -0.00000000    2.96020205   -5.09150201
     atom   13 type  3   force =     0.00000000   -1.99648439    3.70559928
     atom   14 type  3   force =    -0.00000000    1.99648439   -3.70559928
     atom   15 type  3   force =     0.00000000   -1.99648439   -3.70559928
     atom   16 type  3   force =    -0.00000000    1.99648439    3.70559928
     atom   17 type  3   force =    -0.00000000    4.15318300   -2.08657380
     atom   18 type  3   force =    -0.00000000   -4.15318300    2.08657380
     atom   19 type  3   force =     0.00000000    4.15318300    2.08657380
     atom   20 type  3   force =    -0.00000000   -4.15318300   -2.08657380
     The core correction contribution to forces
     atom    1 type  1   force =     0.00000000   -0.00006354    0.00021434
     atom    2 type  1   force =     0.00000000    0.00006354   -0.00021434
     atom    3 type  1   force =     0.00000000   -0.00006354   -0.00021434
     atom    4 type  1   force =    -0.00000000    0.00006354    0.00021434
     atom    5 type  2   force =    -0.00000000    0.00019097    0.00017486
     atom    6 type  2   force =    -0.00000000   -0.00019097   -0.00017486
     atom    7 type  2   force =    -0.00000000    0.00019097   -0.00017486
     atom    8 type  2   force =    -0.00000000   -0.00019097    0.00017486
     atom    9 type  3   force =     0.00000000    0.00538577    0.00545806
     atom   10 type  3   force =    -0.00000000   -0.00538577   -0.00545806
     atom   11 type  3   force =     0.00000000    0.00538577   -0.00545806
     atom   12 type  3   force =    -0.00000000   -0.00538577    0.00545806
     atom   13 type  3   force =    -0.00000000    0.00321171   -0.00549124
     atom   14 type  3   force =    -0.00000000   -0.00321171    0.00549124
     atom   15 type  3   force =     0.00000000    0.00321171    0.00549124
     atom   16 type  3   force =    -0.00000000   -0.00321171   -0.00549124
     atom   17 type  3   force =     0.00000000   -0.00644143    0.00210486
     atom   18 type  3   force =    -0.00000000    0.00644143   -0.00210486
     atom   19 type  3   force =     0.00000000   -0.00644143   -0.00210486
     atom   20 type  3   force =    -0.00000000    0.00644143    0.00210486
     The Hubbard contrib.    to forces
     atom    1 type  1   force =     0.00000000    0.00000000    0.00000000
     atom    2 type  1   force =     0.00000000    0.00000000    0.00000000
     atom    3 type  1   force =     0.00000000    0.00000000    0.00000000
     atom    4 type  1   force =     0.00000000    0.00000000    0.00000000
     atom    5 type  2   force =     0.00000000    0.00000000    0.00000000
     atom    6 type  2   force =     0.00000000    0.00000000    0.00000000
     atom    7 type  2   force =     0.00000000    0.00000000    0.00000000
     atom    8 type  2   force =     0.00000000    0.00000000    0.00000000
     atom    9 type  3   force =     0.00000000    0.00000000    0.00000000
     atom   10 type  3   force =     0.00000000    0.00000000    0.00000000
     atom   11 type  3   force =     0.00000000    0.00000000    0.00000000
     atom   12 type  3   force =     0.00000000    0.00000000    0.00000000
     atom   13 type  3   force =     0.00000000    0.00000000    0.00000000
     atom   14 type  3   force =     0.00000000    0.00000000    0.00000000
     atom   15 type  3   force =     0.00000000    0.00000000    0.00000000
     atom   16 type  3   force =     0.00000000    0.00000000    0.00000000
     atom   17 type  3   force =     0.00000000    0.00000000    0.00000000
     atom   18 type  3   force =     0.00000000    0.00000000    0.00000000
     atom   19 type  3   force =     0.00000000    0.00000000    0.00000000
     atom   20 type  3   force =     0.00000000    0.00000000    0.00000000
     The SCF correction term to forces
     atom    1 type  1   force =     0.00000000    0.00012799   -0.00000404
     atom    2 type  1   force =    -0.00000000   -0.00012799    0.00000404
     atom    3 type  1   force =     0.00000000    0.00012799    0.00000404
     atom    4 type  1   force =    -0.00000000   -0.00012799   -0.00000404
     atom    5 type  2   force =     0.00000000   -0.00093733   -0.00027603
     atom    6 type  2   force =     0.00000000    0.00093733    0.00027603
     atom    7 type  2   force =     0.00000000   -0.00093733    0.00027603
     atom    8 type  2   force =    -0.00000000    0.00093733   -0.00027603
     atom    9 type  3   force =     0.00000000    0.00000064    0.00008858
     atom   10 type  3   force =    -0.00000000   -0.00000064   -0.00008858
     atom   11 type  3   force =    -0.00000000    0.00000064   -0.00008858
     atom   12 type  3   force =    -0.00000000   -0.00000064    0.00008858
     atom   13 type  3   force =    -0.00000000   -0.00025472    0.00020964
     atom   14 type  3   force =    -0.00000000    0.00025472   -0.00020964
     atom   15 type  3   force =     0.00000000   -0.00025472   -0.00020964
     atom   16 type  3   force =    -0.00000000    0.00025472    0.00020964
     atom   17 type  3   force =     0.00000000    0.00022988   -0.00001116
     atom   18 type  3   force =    -0.00000000   -0.00022988    0.00001116
     atom   19 type  3   force =    -0.00000000    0.00022988    0.00001116
     atom   20 type  3   force =     0.00000000   -0.00022988   -0.00001116

     Total force =     0.009101     Total SCF correction =     0.002136
     SCF correction compared to forces is large: reduce conv_thr to get better values


     Computing stress (Cartesian axis) and pressure

          total   stress  (Ry/bohr**3)                   (kbar)     P=      -12.91
  -0.00011660   0.00000000   0.00000000          -17.15        0.00        0.00
   0.00000000  -0.00006629   0.00000000            0.00       -9.75        0.00
   0.00000000   0.00000000  -0.00008045            0.00        0.00      -11.83

     kinetic stress (kbar)   5514.45      0.00      0.00
                                0.00   5535.20      0.00
                                0.00      0.00   5527.18

     local   stress (kbar)  -4553.39      0.00     -0.00
                                0.00  -1927.12      0.00
                               -0.00      0.00  -1031.58

     nonloc. stress (kbar)   1158.53      0.00      0.00
                                0.00   1159.15      0.00
                                0.00      0.00   1161.40

     hartree stress (kbar)   3399.86      0.00      0.00
                                0.00   2187.59      0.00
                                0.00      0.00   1716.49

     exc-cor stress (kbar)   5452.08     -0.00     -0.00
                               -0.00   5452.00      0.00
                               -0.00      0.00   5452.20

     corecor stress (kbar)  -7203.87      0.00      0.00
                                0.00  -7204.42     -0.00
                                0.00     -0.00  -7204.43

     ewald   stress (kbar)  -3784.80      0.00     -0.00
                                0.00  -5212.16      0.00
                               -0.00      0.00  -5633.09

     hubbard stress (kbar)      0.00      0.00      0.00
                                0.00      0.00      0.00
                                0.00      0.00      0.00

     DFT-D   stress (kbar)      0.00      0.00      0.00
                                0.00      0.00      0.00
                                0.00      0.00      0.00

     XDM     stress (kbar)      0.00      0.00      0.00
                                0.00      0.00      0.00
                                0.00      0.00      0.00

     dft-nl  stress (kbar)      0.00      0.00      0.00
                                0.00      0.00      0.00
                                0.00      0.00      0.00

     TS-vdW  stress (kbar)      0.00      0.00      0.00
                                0.00      0.00      0.00
                                0.00      0.00      0.00



     Writing output data file ./CsSnI3.save/

     init_run     :     12.01s CPU     10.65s WALL (       1 calls)
     electrons    :    173.60s CPU    111.16s WALL (       1 calls)
     forces       :     14.15s CPU     11.28s WALL (       1 calls)
     stress       :     57.22s CPU     31.74s WALL (       1 calls)

     Called by init_run:
     wfcinit      :      2.85s CPU      2.63s WALL (       1 calls)
     wfcinit:atom :      0.01s CPU      0.01s WALL (       1 calls)
     wfcinit:wfcr :      2.83s CPU      2.60s WALL (       1 calls)
     potinit      :      1.13s CPU      0.78s WALL (       1 calls)
     hinit0       :      3.00s CPU      3.03s WALL (       1 calls)

     Called by electrons:
     c_bands      :     88.89s CPU     51.58s WALL (       9 calls)
     sum_band     :     44.41s CPU     30.39s WALL (       9 calls)
     v_of_rho     :      1.19s CPU      0.83s WALL (       9 calls)
     v_h          :      0.12s CPU      0.07s WALL (       9 calls)
     v_xc         :      1.33s CPU      0.89s WALL (      11 calls)
     newd         :     41.91s CPU     29.46s WALL (       9 calls)
     mix_rho      :      0.77s CPU      0.74s WALL (       9 calls)

     Called by c_bands:
     init_us_2    :      0.50s CPU      0.28s WALL (      19 calls)
     cegterg      :     85.25s CPU     49.51s WALL (       9 calls)

     Called by sum_band:
     sum_band:wei :      0.01s CPU      0.01s WALL (       9 calls)
     sum_band:loo :     12.99s CPU      6.95s WALL (       9 calls)
     sum_band:buf :      0.00s CPU      0.00s WALL (       9 calls)
     sum_band:ini :      0.25s CPU      0.14s WALL (       9 calls)
     sum_band:cal :      2.47s CPU      1.35s WALL (       9 calls)
     sum_band:bec :      1.22s CPU      0.79s WALL (       9 calls)
     addusdens    :     30.06s CPU     22.19s WALL (       9 calls)
     addusd:skk   :      0.05s CPU      0.03s WALL (      27 calls)
     addusd:dgemm :      9.19s CPU     11.61s WALL (      27 calls)
     addusd:qvan2 :     20.39s CPU     10.27s WALL (      27 calls)

     Called by *egterg:
     cdiaghg      :      8.28s CPU      6.33s WALL (      83 calls)
     cegterg:over :      6.84s CPU      4.51s WALL (      75 calls)
     cegterg:upda :      3.40s CPU      1.84s WALL (      75 calls)
     cegterg:last :      6.14s CPU      3.22s WALL (      21 calls)
     h_psi        :     50.46s CPU     27.18s WALL (      85 calls)
     s_psi        :      8.55s CPU      5.57s WALL (      85 calls)
     g_psi        :      0.13s CPU      0.07s WALL (      75 calls)

     Called by h_psi:
     h_psi:calbec :      7.99s CPU      4.51s WALL (      85 calls)
     vloc_psi     :     34.42s CPU     17.84s WALL (      85 calls)
     add_vuspsi   :      7.76s CPU      4.60s WALL (      85 calls)

     General routines
     calbec       :     11.94s CPU      6.73s WALL (      99 calls)
     fft          :      2.05s CPU      1.83s WALL (     216 calls)
     ffts         :      0.76s CPU      0.58s WALL (      72 calls)
     fftw         :     35.59s CPU     18.47s WALL (   25668 calls)
     interpolate  :      0.51s CPU      0.29s WALL (      36 calls)

     Parallel routines
     fft_scatt_xy :      2.87s CPU      1.46s WALL (   25956 calls)
     fft_scatt_yz :     24.51s CPU     13.36s WALL (   25956 calls)

     PWSCF        :   4m19.42s CPU   2m52.10s WALL


   This run was terminated on:   9:34: 3  31Jan2021            

=------------------------------------------------------------------------------=
   JOB DONE.
=------------------------------------------------------------------------------=
