
     Program PWSCF v.6.7MaX starts on 31Jan2021 at 15:30:20 

     This program is part of the open-source Quantum ESPRESSO suite
     for quantum simulation of materials; please cite
         "P. Giannozzi et al., J. Phys.:Condens. Matter 21 395502 (2009);
         "P. Giannozzi et al., J. Phys.:Condens. Matter 29 465901 (2017);
          URL http://www.quantum-espresso.org", 
     in publications or presentations arising from this work. More details at
     http://www.quantum-espresso.org/quote

     Parallel version (MPI & OpenMP), running on      96 processor cores
     Number of MPI processes:                48
     Threads/MPI process:                     2

     MPI processes distributed on     2 nodes
     R & G space division:  proc/nbgrp/npool/nimage =      48
     Waiting for input...
     Reading input from standard input

     Current dimensions of program PWSCF are:
     Max number of different atomic species (ntypx) = 10
     Max number of k-points (npk) =  40000
     Max angular momentum in pseudopotentials (lmaxx) =  3
     file Cs.rel-pbesol-spn-rrkjus_psl.1.0.0.UPF: wavefunction(s)  5S 6S renormalized
     file I.rel-pbesol-n-rrkjus_psl.1.0.0.UPF: wavefunction(s)  5S renormalized

     Subspace diagonalization in iterative solution of the eigenvalue problem:
     a serial algorithm will be used

     Found symmetry operation: I + (  0.0000 -0.5000 -0.5000)
     This is a supercell, fractional translations are disabled

     Parallelization info
     --------------------
     sticks:   dense  smooth     PW     G-vecs:    dense   smooth      PW
     Min          51      41     11                 1925     1379     207
     Max          52      42     12                 1930     1383     212
     Sum        2469    1993    561                92469    66299   10059


     Title: 
     CsIbcc                                                                     


     bravais-lattice index     =            1
     lattice parameter (alat)  =       8.8160  a.u.
     unit-cell volume          =     685.1896 (a.u.)^3
     number of atoms/cell      =            8
     number of atomic types    =            2
     number of electrons       =        64.00
     number of Kohn-Sham states=           64
     kinetic-energy cutoff     =      80.0000  Ry
     charge density cutoff     =     400.0000  Ry
     scf convergence threshold =      1.0E-06
     mixing beta               =       0.3500
     number of iterations used =            8  plain     mixing
     Exchange-correlation= PBESOL
                           (   1   4  10   8   0   0   0)
     Non magnetic calculation with spin-orbit


     celldm(1)=   8.815973  celldm(2)=   0.000000  celldm(3)=   0.000000
     celldm(4)=   0.000000  celldm(5)=   0.000000  celldm(6)=   0.000000

     crystal axes: (cart. coord. in units of alat)
               a(1) = (   1.000000   0.000000   0.000000 )  
               a(2) = (   0.000000   1.000000   0.000000 )  
               a(3) = (   0.000000   0.000000   1.000000 )  

     reciprocal axes: (cart. coord. in units 2 pi/alat)
               b(1) = (  1.000000  0.000000  0.000000 )  
               b(2) = (  0.000000  1.000000  0.000000 )  
               b(3) = (  0.000000  0.000000  1.000000 )  


     PseudoPot. # 1 for Cs read from file:
     /scratch/cmalosso/degironcoli/pseudo/pseudo-usp/Cs.rel-pbesol-spn-rrkjus_psl.1.0.0.UPF
     MD5 check sum: 846889b67fb1b19751b5b37931589d70
     Pseudo is Ultrasoft + core correction, Zval =  9.0
     Generated using &quot;atomic&quot; code by A. Dal Corso  v.6.4.1
     Using radial grid of 1251 points, 15 beta functions with: 
                l(1) =   0
                l(2) =   0
                l(3) =   0
                l(4) =   1
                l(5) =   1
                l(6) =   1
                l(7) =   1
                l(8) =   2
                l(9) =   2
               l(10) =   2
               l(11) =   2
               l(12) =   3
               l(13) =   3
               l(14) =   3
               l(15) =   3
     Q(r) pseudized with 0 coefficients 


     PseudoPot. # 2 for I  read from file:
     /scratch/cmalosso/degironcoli/pseudo/pseudo-usp/I.rel-pbesol-n-rrkjus_psl.1.0.0.UPF
     MD5 check sum: 0f96c6bfb1b448f280658f96eb466b08
     Pseudo is Ultrasoft + core correction, Zval =  7.0
     Generated using &quot;atomic&quot; code by A. Dal Corso  v.6.3
     Using radial grid of 1247 points, 10 beta functions with: 
                l(1) =   0
                l(2) =   0
                l(3) =   1
                l(4) =   1
                l(5) =   1
                l(6) =   1
                l(7) =   2
                l(8) =   2
                l(9) =   2
               l(10) =   2
     Q(r) pseudized with 0 coefficients 


     atomic species   valence    mass     pseudopotential
        Cs             9.00   132.90000     Cs( 1.00)
        I              7.00   126.90000     I ( 1.00)

     48 Sym. Ops., with inversion, found


                                    s                        frac. trans.

      isym =  1     identity                                     

 cryst.   s( 1) = (     1          0          0      )
                  (     0          1          0      )
                  (     0          0          1      )

 cart.    s( 1) = (  1.0000000  0.0000000  0.0000000 )
                  (  0.0000000  1.0000000  0.0000000 )
                  (  0.0000000  0.0000000  1.0000000 )


      isym =  2     180 deg rotation - cart. axis [0,0,1]        

 cryst.   s( 2) = (    -1          0          0      )
                  (     0         -1          0      )
                  (     0          0          1      )

 cart.    s( 2) = ( -1.0000000  0.0000000  0.0000000 )
                  (  0.0000000 -1.0000000  0.0000000 )
                  (  0.0000000  0.0000000  1.0000000 )


      isym =  3     180 deg rotation - cart. axis [0,1,0]        

 cryst.   s( 3) = (    -1          0          0      )
                  (     0          1          0      )
                  (     0          0         -1      )

 cart.    s( 3) = ( -1.0000000  0.0000000  0.0000000 )
                  (  0.0000000  1.0000000  0.0000000 )
                  (  0.0000000  0.0000000 -1.0000000 )


      isym =  4     180 deg rotation - cart. axis [1,0,0]        

 cryst.   s( 4) = (     1          0          0      )
                  (     0         -1          0      )
                  (     0          0         -1      )

 cart.    s( 4) = (  1.0000000  0.0000000  0.0000000 )
                  (  0.0000000 -1.0000000  0.0000000 )
                  (  0.0000000  0.0000000 -1.0000000 )


      isym =  5     180 deg rotation - cart. axis [1,1,0]        

 cryst.   s( 5) = (     0          1          0      )
                  (     1          0          0      )
                  (     0          0         -1      )

 cart.    s( 5) = (  0.0000000  1.0000000  0.0000000 )
                  (  1.0000000  0.0000000  0.0000000 )
                  (  0.0000000  0.0000000 -1.0000000 )


      isym =  6     180 deg rotation - cart. axis [1,-1,0]       

 cryst.   s( 6) = (     0         -1          0      )
                  (    -1          0          0      )
                  (     0          0         -1      )

 cart.    s( 6) = (  0.0000000 -1.0000000  0.0000000 )
                  ( -1.0000000  0.0000000  0.0000000 )
                  (  0.0000000  0.0000000 -1.0000000 )


      isym =  7      90 deg rotation - cart. axis [0,0,-1]       

 cryst.   s( 7) = (     0         -1          0      )
                  (     1          0          0      )
                  (     0          0          1      )

 cart.    s( 7) = (  0.0000000  1.0000000  0.0000000 )
                  ( -1.0000000  0.0000000  0.0000000 )
                  (  0.0000000  0.0000000  1.0000000 )


      isym =  8      90 deg rotation - cart. axis [0,0,1]        

 cryst.   s( 8) = (     0          1          0      )
                  (    -1          0          0      )
                  (     0          0          1      )

 cart.    s( 8) = (  0.0000000 -1.0000000  0.0000000 )
                  (  1.0000000  0.0000000  0.0000000 )
                  (  0.0000000  0.0000000  1.0000000 )


      isym =  9     180 deg rotation - cart. axis [1,0,1]        

 cryst.   s( 9) = (     0          0          1      )
                  (     0         -1          0      )
                  (     1          0          0      )

 cart.    s( 9) = (  0.0000000  0.0000000  1.0000000 )
                  (  0.0000000 -1.0000000  0.0000000 )
                  (  1.0000000  0.0000000  0.0000000 )


      isym = 10     180 deg rotation - cart. axis [-1,0,1]       

 cryst.   s(10) = (     0          0         -1      )
                  (     0         -1          0      )
                  (    -1          0          0      )

 cart.    s(10) = (  0.0000000  0.0000000 -1.0000000 )
                  (  0.0000000 -1.0000000  0.0000000 )
                  ( -1.0000000  0.0000000  0.0000000 )


      isym = 11      90 deg rotation - cart. axis [0,1,0]        

 cryst.   s(11) = (     0          0         -1      )
                  (     0          1          0      )
                  (     1          0          0      )

 cart.    s(11) = (  0.0000000  0.0000000  1.0000000 )
                  (  0.0000000  1.0000000  0.0000000 )
                  ( -1.0000000  0.0000000  0.0000000 )


      isym = 12      90 deg rotation - cart. axis [0,-1,0]       

 cryst.   s(12) = (     0          0          1      )
                  (     0          1          0      )
                  (    -1          0          0      )

 cart.    s(12) = (  0.0000000  0.0000000 -1.0000000 )
                  (  0.0000000  1.0000000  0.0000000 )
                  (  1.0000000  0.0000000  0.0000000 )


      isym = 13     180 deg rotation - cart. axis [0,1,1]        

 cryst.   s(13) = (    -1          0          0      )
                  (     0          0          1      )
                  (     0          1          0      )

 cart.    s(13) = ( -1.0000000  0.0000000  0.0000000 )
                  (  0.0000000  0.0000000  1.0000000 )
                  (  0.0000000  1.0000000  0.0000000 )


      isym = 14     180 deg rotation - cart. axis [0,1,-1]       

 cryst.   s(14) = (    -1          0          0      )
                  (     0          0         -1      )
                  (     0         -1          0      )

 cart.    s(14) = ( -1.0000000  0.0000000  0.0000000 )
                  (  0.0000000  0.0000000 -1.0000000 )
                  (  0.0000000 -1.0000000  0.0000000 )


      isym = 15      90 deg rotation - cart. axis [-1,0,0]       

 cryst.   s(15) = (     1          0          0      )
                  (     0          0         -1      )
                  (     0          1          0      )

 cart.    s(15) = (  1.0000000  0.0000000  0.0000000 )
                  (  0.0000000  0.0000000  1.0000000 )
                  (  0.0000000 -1.0000000  0.0000000 )


      isym = 16      90 deg rotation - cart. axis [1,0,0]        

 cryst.   s(16) = (     1          0          0      )
                  (     0          0          1      )
                  (     0         -1          0      )

 cart.    s(16) = (  1.0000000  0.0000000  0.0000000 )
                  (  0.0000000  0.0000000 -1.0000000 )
                  (  0.0000000  1.0000000  0.0000000 )


      isym = 17     120 deg rotation - cart. axis [-1,-1,-1]     

 cryst.   s(17) = (     0          0          1      )
                  (     1          0          0      )
                  (     0          1          0      )

 cart.    s(17) = (  0.0000000  1.0000000  0.0000000 )
                  (  0.0000000  0.0000000  1.0000000 )
                  (  1.0000000  0.0000000  0.0000000 )


      isym = 18     120 deg rotation - cart. axis [-1,1,1]       

 cryst.   s(18) = (     0          0         -1      )
                  (    -1          0          0      )
                  (     0          1          0      )

 cart.    s(18) = (  0.0000000 -1.0000000  0.0000000 )
                  (  0.0000000  0.0000000  1.0000000 )
                  ( -1.0000000  0.0000000  0.0000000 )


      isym = 19     120 deg rotation - cart. axis [1,1,-1]       

 cryst.   s(19) = (     0          0         -1      )
                  (     1          0          0      )
                  (     0         -1          0      )

 cart.    s(19) = (  0.0000000  1.0000000  0.0000000 )
                  (  0.0000000  0.0000000 -1.0000000 )
                  ( -1.0000000  0.0000000  0.0000000 )


      isym = 20     120 deg rotation - cart. axis [1,-1,1]       

 cryst.   s(20) = (     0          0          1      )
                  (    -1          0          0      )
                  (     0         -1          0      )

 cart.    s(20) = (  0.0000000 -1.0000000  0.0000000 )
                  (  0.0000000  0.0000000 -1.0000000 )
                  (  1.0000000  0.0000000  0.0000000 )


      isym = 21     120 deg rotation - cart. axis [1,1,1]        

 cryst.   s(21) = (     0          1          0      )
                  (     0          0          1      )
                  (     1          0          0      )

 cart.    s(21) = (  0.0000000  0.0000000  1.0000000 )
                  (  1.0000000  0.0000000  0.0000000 )
                  (  0.0000000  1.0000000  0.0000000 )


      isym = 22     120 deg rotation - cart. axis [-1,1,-1]      

 cryst.   s(22) = (     0         -1          0      )
                  (     0          0         -1      )
                  (     1          0          0      )

 cart.    s(22) = (  0.0000000  0.0000000  1.0000000 )
                  ( -1.0000000  0.0000000  0.0000000 )
                  (  0.0000000 -1.0000000  0.0000000 )


      isym = 23     120 deg rotation - cart. axis [1,-1,-1]      

 cryst.   s(23) = (     0         -1          0      )
                  (     0          0          1      )
                  (    -1          0          0      )

 cart.    s(23) = (  0.0000000  0.0000000 -1.0000000 )
                  ( -1.0000000  0.0000000  0.0000000 )
                  (  0.0000000  1.0000000  0.0000000 )


      isym = 24     120 deg rotation - cart. axis [-1,-1,1]      

 cryst.   s(24) = (     0          1          0      )
                  (     0          0         -1      )
                  (    -1          0          0      )

 cart.    s(24) = (  0.0000000  0.0000000 -1.0000000 )
                  (  1.0000000  0.0000000  0.0000000 )
                  (  0.0000000 -1.0000000  0.0000000 )


      isym = 25     inversion                                    

 cryst.   s(25) = (    -1          0          0      )
                  (     0         -1          0      )
                  (     0          0         -1      )

 cart.    s(25) = ( -1.0000000  0.0000000  0.0000000 )
                  (  0.0000000 -1.0000000  0.0000000 )
                  (  0.0000000  0.0000000 -1.0000000 )


      isym = 26     inv. 180 deg rotation - cart. axis [0,0,1]   

 cryst.   s(26) = (     1          0          0      )
                  (     0          1          0      )
                  (     0          0         -1      )

 cart.    s(26) = (  1.0000000  0.0000000  0.0000000 )
                  (  0.0000000  1.0000000  0.0000000 )
                  (  0.0000000  0.0000000 -1.0000000 )


      isym = 27     inv. 180 deg rotation - cart. axis [0,1,0]   

 cryst.   s(27) = (     1          0          0      )
                  (     0         -1          0      )
                  (     0          0          1      )

 cart.    s(27) = (  1.0000000  0.0000000  0.0000000 )
                  (  0.0000000 -1.0000000  0.0000000 )
                  (  0.0000000  0.0000000  1.0000000 )


      isym = 28     inv. 180 deg rotation - cart. axis [1,0,0]   

 cryst.   s(28) = (    -1          0          0      )
                  (     0          1          0      )
                  (     0          0          1      )

 cart.    s(28) = ( -1.0000000  0.0000000  0.0000000 )
                  (  0.0000000  1.0000000  0.0000000 )
                  (  0.0000000  0.0000000  1.0000000 )


      isym = 29     inv. 180 deg rotation - cart. axis [1,1,0]   

 cryst.   s(29) = (     0         -1          0      )
                  (    -1          0          0      )
                  (     0          0          1      )

 cart.    s(29) = (  0.0000000 -1.0000000  0.0000000 )
                  ( -1.0000000  0.0000000  0.0000000 )
                  (  0.0000000  0.0000000  1.0000000 )


      isym = 30     inv. 180 deg rotation - cart. axis [1,-1,0]  

 cryst.   s(30) = (     0          1          0      )
                  (     1          0          0      )
                  (     0          0          1      )

 cart.    s(30) = (  0.0000000  1.0000000  0.0000000 )
                  (  1.0000000  0.0000000  0.0000000 )
                  (  0.0000000  0.0000000  1.0000000 )


      isym = 31     inv.  90 deg rotation - cart. axis [0,0,-1]  

 cryst.   s(31) = (     0          1          0      )
                  (    -1          0          0      )
                  (     0          0         -1      )

 cart.    s(31) = (  0.0000000 -1.0000000  0.0000000 )
                  (  1.0000000  0.0000000  0.0000000 )
                  (  0.0000000  0.0000000 -1.0000000 )


      isym = 32     inv.  90 deg rotation - cart. axis [0,0,1]   

 cryst.   s(32) = (     0         -1          0      )
                  (     1          0          0      )
                  (     0          0         -1      )

 cart.    s(32) = (  0.0000000  1.0000000  0.0000000 )
                  ( -1.0000000  0.0000000  0.0000000 )
                  (  0.0000000  0.0000000 -1.0000000 )


      isym = 33     inv. 180 deg rotation - cart. axis [1,0,1]   

 cryst.   s(33) = (     0          0         -1      )
                  (     0          1          0      )
                  (    -1          0          0      )

 cart.    s(33) = (  0.0000000  0.0000000 -1.0000000 )
                  (  0.0000000  1.0000000  0.0000000 )
                  ( -1.0000000  0.0000000  0.0000000 )


      isym = 34     inv. 180 deg rotation - cart. axis [-1,0,1]  

 cryst.   s(34) = (     0          0          1      )
                  (     0          1          0      )
                  (     1          0          0      )

 cart.    s(34) = (  0.0000000  0.0000000  1.0000000 )
                  (  0.0000000  1.0000000  0.0000000 )
                  (  1.0000000  0.0000000  0.0000000 )


      isym = 35     inv.  90 deg rotation - cart. axis [0,1,0]   

 cryst.   s(35) = (     0          0          1      )
                  (     0         -1          0      )
                  (    -1          0          0      )

 cart.    s(35) = (  0.0000000  0.0000000 -1.0000000 )
                  (  0.0000000 -1.0000000  0.0000000 )
                  (  1.0000000  0.0000000  0.0000000 )


      isym = 36     inv.  90 deg rotation - cart. axis [0,-1,0]  

 cryst.   s(36) = (     0          0         -1      )
                  (     0         -1          0      )
                  (     1          0          0      )

 cart.    s(36) = (  0.0000000  0.0000000  1.0000000 )
                  (  0.0000000 -1.0000000  0.0000000 )
                  ( -1.0000000  0.0000000  0.0000000 )


      isym = 37     inv. 180 deg rotation - cart. axis [0,1,1]   

 cryst.   s(37) = (     1          0          0      )
                  (     0          0         -1      )
                  (     0         -1          0      )

 cart.    s(37) = (  1.0000000  0.0000000  0.0000000 )
                  (  0.0000000  0.0000000 -1.0000000 )
                  (  0.0000000 -1.0000000  0.0000000 )


      isym = 38     inv. 180 deg rotation - cart. axis [0,1,-1]  

 cryst.   s(38) = (     1          0          0      )
                  (     0          0          1      )
                  (     0          1          0      )

 cart.    s(38) = (  1.0000000  0.0000000  0.0000000 )
                  (  0.0000000  0.0000000  1.0000000 )
                  (  0.0000000  1.0000000  0.0000000 )


      isym = 39     inv.  90 deg rotation - cart. axis [-1,0,0]  

 cryst.   s(39) = (    -1          0          0      )
                  (     0          0          1      )
                  (     0         -1          0      )

 cart.    s(39) = ( -1.0000000  0.0000000  0.0000000 )
                  (  0.0000000  0.0000000 -1.0000000 )
                  (  0.0000000  1.0000000  0.0000000 )


      isym = 40     inv.  90 deg rotation - cart. axis [1,0,0]   

 cryst.   s(40) = (    -1          0          0      )
                  (     0          0         -1      )
                  (     0          1          0      )

 cart.    s(40) = ( -1.0000000  0.0000000  0.0000000 )
                  (  0.0000000  0.0000000  1.0000000 )
                  (  0.0000000 -1.0000000  0.0000000 )


      isym = 41     inv. 120 deg rotation - cart. axis [-1,-1,-1]

 cryst.   s(41) = (     0          0         -1      )
                  (    -1          0          0      )
                  (     0         -1          0      )

 cart.    s(41) = (  0.0000000 -1.0000000  0.0000000 )
                  (  0.0000000  0.0000000 -1.0000000 )
                  ( -1.0000000  0.0000000  0.0000000 )


      isym = 42     inv. 120 deg rotation - cart. axis [-1,1,1]  

 cryst.   s(42) = (     0          0          1      )
                  (     1          0          0      )
                  (     0         -1          0      )

 cart.    s(42) = (  0.0000000  1.0000000  0.0000000 )
                  (  0.0000000  0.0000000 -1.0000000 )
                  (  1.0000000  0.0000000  0.0000000 )


      isym = 43     inv. 120 deg rotation - cart. axis [1,1,-1]  

 cryst.   s(43) = (     0          0          1      )
                  (    -1          0          0      )
                  (     0          1          0      )

 cart.    s(43) = (  0.0000000 -1.0000000  0.0000000 )
                  (  0.0000000  0.0000000  1.0000000 )
                  (  1.0000000  0.0000000  0.0000000 )


      isym = 44     inv. 120 deg rotation - cart. axis [1,-1,1]  

 cryst.   s(44) = (     0          0         -1      )
                  (     1          0          0      )
                  (     0          1          0      )

 cart.    s(44) = (  0.0000000  1.0000000  0.0000000 )
                  (  0.0000000  0.0000000  1.0000000 )
                  ( -1.0000000  0.0000000  0.0000000 )


      isym = 45     inv. 120 deg rotation - cart. axis [1,1,1]   

 cryst.   s(45) = (     0         -1          0      )
                  (     0          0         -1      )
                  (    -1          0          0      )

 cart.    s(45) = (  0.0000000  0.0000000 -1.0000000 )
                  ( -1.0000000  0.0000000  0.0000000 )
                  (  0.0000000 -1.0000000  0.0000000 )


      isym = 46     inv. 120 deg rotation - cart. axis [-1,1,-1] 

 cryst.   s(46) = (     0          1          0      )
                  (     0          0          1      )
                  (    -1          0          0      )

 cart.    s(46) = (  0.0000000  0.0000000 -1.0000000 )
                  (  1.0000000  0.0000000  0.0000000 )
                  (  0.0000000  1.0000000  0.0000000 )


      isym = 47     inv. 120 deg rotation - cart. axis [1,-1,-1] 

 cryst.   s(47) = (     0          1          0      )
                  (     0          0         -1      )
                  (     1          0          0      )

 cart.    s(47) = (  0.0000000  0.0000000  1.0000000 )
                  (  1.0000000  0.0000000  0.0000000 )
                  (  0.0000000 -1.0000000  0.0000000 )


      isym = 48     inv. 120 deg rotation - cart. axis [-1,-1,1] 

 cryst.   s(48) = (     0         -1          0      )
                  (     0          0          1      )
                  (     1          0          0      )

 cart.    s(48) = (  0.0000000  0.0000000  1.0000000 )
                  ( -1.0000000  0.0000000  0.0000000 )
                  (  0.0000000  1.0000000  0.0000000 )


     double point group O_h (m-3m) 
     there are 16 classes and  6 irreducible representations
     the character table:

       E     -E    8C3   -8C3   3C2  6C4   -6C4   6C2' i     -i    8S6   -8S6 
                               -3C2              -6C2'                        
G_6+   2.00 -2.00  1.00 -1.00  0.00  1.41 -1.41  0.00  2.00 -2.00  1.00 -1.00
G_7+   2.00 -2.00  1.00 -1.00  0.00 -1.41  1.41  0.00  2.00 -2.00  1.00 -1.00
G_8+   4.00 -4.00 -1.00  1.00  0.00  0.00  0.00  0.00  4.00 -4.00 -1.00  1.00
G_6-   2.00 -2.00  1.00 -1.00  0.00  1.41 -1.41  0.00 -2.00  2.00 -1.00  1.00
G_7-   2.00 -2.00  1.00 -1.00  0.00 -1.41  1.41  0.00 -2.00  2.00 -1.00  1.00
G_8-   4.00 -4.00 -1.00  1.00  0.00  0.00  0.00  0.00 -4.00  4.00  1.00 -1.00

        3s_h 6S4   -6S4   6s_d
       -3s_h             -6s_d
G_6+   0.00  1.41 -1.41  0.00
G_7+   0.00 -1.41  1.41  0.00
G_8+   0.00  0.00  0.00  0.00
G_6-   0.00 -1.41  1.41  0.00
G_7-   0.00  1.41 -1.41  0.00
G_8-   0.00  0.00  0.00  0.00

     the symmetry operations in each class and the name of the first element:

     E             1
          identity                                               
     -E           -1
          identity E                                             
     8C3          17   19   20   18   24   21   22   23
          120 deg rotation - cart. axis [-1,-1,-1]               
     -8C3        -17  -19  -20  -18  -24  -21  -22  -23
          120 deg rotation - cart. axis [-1,-1,-1] E             
      3C2 -3C2     2   -2    4   -4    3   -3
          180 deg rotation - cart. axis [0,0,1]                  
     6C4           7    8   15   16   12   11
           90 deg rotation - cart. axis [0,0,-1]                 
     -6C4         -7   -8  -15  -16  -12  -11
           90 deg rotation - cart. axis [0,0,-1] E               
      6C2'-6C2'    5   -5   -6    6   14  -13  -14   13   10   -9  -10    9
          180 deg rotation - cart. axis [1,1,0]                  
     i            25
          inversion                                              
     -i          -25
          inversion E                                            
     8S6          41   43   44   42   48   45   46   47
          inv. 120 deg rotation - cart. axis [-1,-1,-1]          
     -8S6        -41  -43  -44  -42  -48  -45  -46  -47
          inv. 120 deg rotation - cart. axis [-1,-1,-1] E        
      3s_h-3s_h   26  -26   28  -28   27  -27
          inv. 180 deg rotation - cart. axis [0,0,1]             
     6S4          31   32   39   40   36   35
          inv.  90 deg rotation - cart. axis [0,0,-1]            
     -6S4        -31  -32  -39  -40  -36  -35
          inv.  90 deg rotation - cart. axis [0,0,-1] E          
      6s_d-6s_d   29  -29  -30   30   38  -37  -38   37   34  -33  -34   33
          inv. 180 deg rotation - cart. axis [1,1,0]             

   Cartesian axes

     site n.     atom                  positions (alat units)
         1           Cs  tau(   1) = (   0.0000000   0.0000000   0.0000000  )
         2           Cs  tau(   2) = (   0.0000000   0.5000000   0.5000000  )
         3           Cs  tau(   3) = (   0.5000000   0.0000000   0.5000000  )
         4           Cs  tau(   4) = (   0.5000000   0.5000000   0.0000000  )
         5           I   tau(   5) = (   0.5000000   0.0000000   0.0000000  )
         6           I   tau(   6) = (   0.5000000   0.5000000   0.5000000  )
         7           I   tau(   7) = (   0.0000000   0.0000000   0.5000000  )
         8           I   tau(   8) = (   0.0000000   0.5000000   0.0000000  )

   Crystallographic axes

     site n.     atom                  positions (cryst. coord.)
         1           Cs  tau(   1) = (  0.0000000  0.0000000  0.0000000  )
         2           Cs  tau(   2) = (  0.0000000  0.5000000  0.5000000  )
         3           Cs  tau(   3) = (  0.5000000  0.0000000  0.5000000  )
         4           Cs  tau(   4) = (  0.5000000  0.5000000  0.0000000  )
         5           I   tau(   5) = (  0.5000000  0.0000000  0.0000000  )
         6           I   tau(   6) = (  0.5000000  0.5000000  0.5000000  )
         7           I   tau(   7) = (  0.0000000  0.0000000  0.5000000  )
         8           I   tau(   8) = (  0.0000000  0.5000000  0.0000000  )

     number of k points=    10
                       cart. coord. in units 2pi/alat
        k(    1) = (   0.1000000   0.1000000   0.1000000), wk =   0.0640000
        k(    2) = (   0.1000000   0.1000000   0.3000000), wk =   0.1920000
        k(    3) = (   0.1000000   0.1000000  -0.5000000), wk =   0.0960000
        k(    4) = (   0.1000000   0.3000000   0.3000000), wk =   0.1920000
        k(    5) = (   0.1000000   0.3000000  -0.5000000), wk =   0.1920000
        k(    6) = (   0.1000000  -0.5000000  -0.5000000), wk =   0.0480000
        k(    7) = (   0.3000000   0.3000000   0.3000000), wk =   0.0640000
        k(    8) = (   0.3000000   0.3000000  -0.5000000), wk =   0.0960000
        k(    9) = (   0.3000000  -0.5000000  -0.5000000), wk =   0.0480000
        k(   10) = (  -0.5000000  -0.5000000  -0.5000000), wk =   0.0080000

                       cryst. coord.
        k(    1) = (   0.1000000   0.1000000   0.1000000), wk =   0.0640000
        k(    2) = (   0.1000000   0.1000000   0.3000000), wk =   0.1920000
        k(    3) = (   0.1000000   0.1000000  -0.5000000), wk =   0.0960000
        k(    4) = (   0.1000000   0.3000000   0.3000000), wk =   0.1920000
        k(    5) = (   0.1000000   0.3000000  -0.5000000), wk =   0.1920000
        k(    6) = (   0.1000000  -0.5000000  -0.5000000), wk =   0.0480000
        k(    7) = (   0.3000000   0.3000000   0.3000000), wk =   0.0640000
        k(    8) = (   0.3000000   0.3000000  -0.5000000), wk =   0.0960000
        k(    9) = (   0.3000000  -0.5000000  -0.5000000), wk =   0.0480000
        k(   10) = (  -0.5000000  -0.5000000  -0.5000000), wk =   0.0080000

     Dense  grid:    92469 G-vectors     FFT dimensions: (  60,  60,  60)

     Smooth grid:    66299 G-vectors     FFT dimensions: (  54,  54,  54)

     Dynamical RAM for                 wfc:       0.34 MB

     Dynamical RAM for     wfc (w. buffer):       3.70 MB

     Dynamical RAM for           str. fact:       0.06 MB

     Dynamical RAM for           local pot:       0.00 MB

     Dynamical RAM for          nlocal pot:       1.02 MB

     Dynamical RAM for                qrad:      25.69 MB

     Dynamical RAM for          rho,v,vnew:       1.01 MB

     Dynamical RAM for               rhoin:       0.34 MB

     Dynamical RAM for            rho*nmix:       1.88 MB

     Dynamical RAM for           G-vectors:       0.12 MB

     Dynamical RAM for          h,s,v(r/c):       0.75 MB

     Dynamical RAM for          <psi|beta>:       0.76 MB

     Dynamical RAM for                 psi:       0.67 MB

     Dynamical RAM for                hpsi:       0.67 MB

     Dynamical RAM for                spsi:       0.67 MB

     Dynamical RAM for      wfcinit/wfcrot:       0.69 MB

     Dynamical RAM for           addusdens:      60.19 MB

     Dynamical RAM for          addusforce:      60.57 MB

     Dynamical RAM for         addusstress:      60.95 MB

     Estimated static dynamical RAM per process >      34.34 MB

     Estimated max dynamical RAM per process >      95.29 MB

     Estimated total dynamical RAM >       4.47 GB

     Initial potential from superposition of free atoms

     starting charge   63.84620, renormalised to   64.00000
     Starting wfcs are   72 randomized atomic wfcs

     total cpu time spent up to now is        5.8 secs

     Self-consistent Calculation

     iteration #  1     ecut=    80.00 Ry     beta= 0.35
     Davidson diagonalization with overlap
     ethr =  1.00E-02,  avg # of iterations =  8.7

     Threshold (ethr) on eigenvalues was too large:
     Diagonalizing with lowered threshold

     Davidson diagonalization with overlap
     c_bands:  4 eigenvalues not converged
     c_bands:  2 eigenvalues not converged
     c_bands:  3 eigenvalues not converged
     c_bands:  1 eigenvalues not converged
     c_bands:  5 eigenvalues not converged
     c_bands:  4 eigenvalues not converged
     ethr =  1.85E-04,  avg # of iterations = 17.1

     total cpu time spent up to now is       26.7 secs

     total energy              =    -341.46985748 Ry
     estimated scf accuracy    <       0.11805243 Ry

     iteration #  2     ecut=    80.00 Ry     beta= 0.35
     Davidson diagonalization with overlap
     ethr =  1.84E-04,  avg # of iterations =  4.2

     total cpu time spent up to now is       32.5 secs

     total energy              =    -341.46083968 Ry
     estimated scf accuracy    <       0.03760967 Ry

     iteration #  3     ecut=    80.00 Ry     beta= 0.35
     Davidson diagonalization with overlap
     c_bands:  2 eigenvalues not converged
     ethr =  5.88E-05,  avg # of iterations =  8.1

     total cpu time spent up to now is       40.5 secs

     total energy              =    -341.47447008 Ry
     estimated scf accuracy    <       0.00161895 Ry

     iteration #  4     ecut=    80.00 Ry     beta= 0.35
     Davidson diagonalization with overlap
     c_bands:  1 eigenvalues not converged
     c_bands:  5 eigenvalues not converged
     c_bands:  2 eigenvalues not converged
     ethr =  2.53E-06,  avg # of iterations = 19.6

     total cpu time spent up to now is       56.3 secs

     total energy              =    -341.47969540 Ry
     estimated scf accuracy    <       0.00060123 Ry

     iteration #  5     ecut=    80.00 Ry     beta= 0.35
     Davidson diagonalization with overlap
     c_bands:  2 eigenvalues not converged
     c_bands:  2 eigenvalues not converged
     ethr =  9.39E-07,  avg # of iterations = 11.1

     total cpu time spent up to now is       66.4 secs

     total energy              =    -341.49391664 Ry
     estimated scf accuracy    <       0.00157710 Ry

     iteration #  6     ecut=    80.00 Ry     beta= 0.35
     Davidson diagonalization with overlap
     c_bands:  2 eigenvalues not converged
     ethr =  9.39E-07,  avg # of iterations =  5.6

     total cpu time spent up to now is       73.1 secs

     total energy              =    -341.49676424 Ry
     estimated scf accuracy    <       0.00033293 Ry

     iteration #  7     ecut=    80.00 Ry     beta= 0.35
     Davidson diagonalization with overlap
     c_bands:  2 eigenvalues not converged
     ethr =  5.20E-07,  avg # of iterations = 11.5

     total cpu time spent up to now is       84.3 secs

     total energy              =    -341.49486016 Ry
     estimated scf accuracy    <       0.00360506 Ry

     iteration #  8     ecut=    80.00 Ry     beta= 0.35
     Davidson diagonalization with overlap
     c_bands:  1 eigenvalues not converged
     ethr =  5.20E-07,  avg # of iterations = 10.8

     total cpu time spent up to now is       96.4 secs

     total energy              =    -341.49561227 Ry
     estimated scf accuracy    <       0.00002502 Ry

     iteration #  9     ecut=    80.00 Ry     beta= 0.35
     Davidson diagonalization with overlap
     c_bands:  4 eigenvalues not converged
     c_bands:  2 eigenvalues not converged
     c_bands:  1 eigenvalues not converged
     c_bands:  4 eigenvalues not converged
     ethr =  3.91E-08,  avg # of iterations = 16.3

     total cpu time spent up to now is      108.2 secs

     total energy              =    -341.49567006 Ry
     estimated scf accuracy    <       0.00008106 Ry

     iteration # 10     ecut=    80.00 Ry     beta= 0.35
     Davidson diagonalization with overlap
     c_bands:  4 eigenvalues not converged
     ethr =  3.91E-08,  avg # of iterations =  4.0

     total cpu time spent up to now is      114.4 secs

     total energy              =    -341.49572591 Ry
     estimated scf accuracy    <       0.00012464 Ry

     iteration # 11     ecut=    80.00 Ry     beta= 0.35
     Davidson diagonalization with overlap
     ethr =  3.91E-08,  avg # of iterations =  7.4

     total cpu time spent up to now is      123.6 secs

     total energy              =    -341.49572110 Ry
     estimated scf accuracy    <       0.00015490 Ry

     iteration # 12     ecut=    80.00 Ry     beta= 0.35
     Davidson diagonalization with overlap
     ethr =  3.91E-08,  avg # of iterations =  4.4

     total cpu time spent up to now is      129.6 secs

     total energy              =    -341.49579739 Ry
     estimated scf accuracy    <       0.00010897 Ry

     iteration # 13     ecut=    80.00 Ry     beta= 0.35
     Davidson diagonalization with overlap
     c_bands:  4 eigenvalues not converged
     ethr =  3.91E-08,  avg # of iterations = 11.5

     total cpu time spent up to now is      139.6 secs

     total energy              =    -341.49578384 Ry
     estimated scf accuracy    <       0.00034963 Ry

     iteration # 14     ecut=    80.00 Ry     beta= 0.35
     Davidson diagonalization with overlap
     ethr =  3.91E-08,  avg # of iterations =  2.4

     total cpu time spent up to now is      145.0 secs

     total energy              =    -341.49563554 Ry
     estimated scf accuracy    <       0.00027039 Ry

     iteration # 15     ecut=    80.00 Ry     beta= 0.35
     Davidson diagonalization with overlap
     ethr =  3.91E-08,  avg # of iterations = 12.9

     total cpu time spent up to now is      156.2 secs

     total energy              =    -341.49568084 Ry
     estimated scf accuracy    <       0.00003248 Ry

     iteration # 16     ecut=    80.00 Ry     beta= 0.35
     Davidson diagonalization with overlap
     ethr =  3.91E-08,  avg # of iterations =  2.7

     total cpu time spent up to now is      162.2 secs

     total energy              =    -341.49569250 Ry
     estimated scf accuracy    <       0.00002195 Ry

     iteration # 17     ecut=    80.00 Ry     beta= 0.35
     Davidson diagonalization with overlap
     ethr =  3.43E-08,  avg # of iterations =  6.2

     total cpu time spent up to now is      169.9 secs

     total energy              =    -341.49569094 Ry
     estimated scf accuracy    <       0.00004779 Ry

     iteration # 18     ecut=    80.00 Ry     beta= 0.35
     Davidson diagonalization with overlap
     ethr =  3.43E-08,  avg # of iterations =  1.3

     total cpu time spent up to now is      175.1 secs

     total energy              =    -341.49568749 Ry
     estimated scf accuracy    <       0.00003123 Ry

     iteration # 19     ecut=    80.00 Ry     beta= 0.35
     Davidson diagonalization with overlap
     ethr =  3.43E-08,  avg # of iterations =  1.2

     total cpu time spent up to now is      180.1 secs

     total energy              =    -341.49567853 Ry
     estimated scf accuracy    <       0.00002495 Ry

     iteration # 20     ecut=    80.00 Ry     beta= 0.35
     Davidson diagonalization with overlap
     ethr =  3.43E-08,  avg # of iterations =  2.4

     total cpu time spent up to now is      185.4 secs

     total energy              =    -341.49567929 Ry
     estimated scf accuracy    <       0.00000959 Ry

     iteration # 21     ecut=    80.00 Ry     beta= 0.35
     Davidson diagonalization with overlap
     ethr =  1.50E-08,  avg # of iterations =  6.3

     total cpu time spent up to now is      192.2 secs

     total energy              =    -341.49568176 Ry
     estimated scf accuracy    <       0.00000227 Ry

     iteration # 22     ecut=    80.00 Ry     beta= 0.35
     Davidson diagonalization with overlap
     c_bands:  4 eigenvalues not converged
     ethr =  3.54E-09,  avg # of iterations = 11.4

     total cpu time spent up to now is      201.9 secs

     total energy              =    -341.49568477 Ry
     estimated scf accuracy    <       0.00000272 Ry

     iteration # 23     ecut=    80.00 Ry     beta= 0.35
     Davidson diagonalization with overlap
     c_bands:  3 eigenvalues not converged
     ethr =  3.54E-09,  avg # of iterations =  9.1

     total cpu time spent up to now is      209.3 secs

     total energy              =    -341.49568495 Ry
     estimated scf accuracy    <       0.00001095 Ry

     iteration # 24     ecut=    80.00 Ry     beta= 0.35
     Davidson diagonalization with overlap
     ethr =  3.54E-09,  avg # of iterations =  1.6

     total cpu time spent up to now is      215.0 secs

     total energy              =    -341.49568216 Ry
     estimated scf accuracy    <       0.00000988 Ry

     iteration # 25     ecut=    80.00 Ry     beta= 0.35
     Davidson diagonalization with overlap
     ethr =  3.54E-09,  avg # of iterations =  7.5

     total cpu time spent up to now is      221.9 secs

     total energy              =    -341.49568186 Ry
     estimated scf accuracy    <       0.00000233 Ry

     iteration # 26     ecut=    80.00 Ry     beta= 0.35
     Davidson diagonalization with overlap
     ethr =  3.54E-09,  avg # of iterations = 10.3

     total cpu time spent up to now is      229.9 secs

     End of self-consistent calculation

          k = 0.1000 0.1000 0.1000 (  8295 PWs)   bands (ev):

    -1.7288  -1.7288   2.4636   2.4636   2.4647   2.4647   2.4647   2.4647
     8.9664   8.9664   8.9665   8.9665   8.9672   8.9672  10.2885  10.2885
    10.2885  10.2885  10.2888  10.2888  12.6842  12.6842  12.6843  12.6843
    12.6845  12.6845  13.8328  13.8328  14.0640  14.0640  14.0640  14.0640
    14.0645  14.0645  15.7005  15.7005  16.6765  16.6765  19.9626  19.9626
    22.8022  22.8022  22.8022  22.8022  22.8022  22.8022  24.5514  24.5514
    25.7566  25.7566  26.0034  26.0034  26.8947  26.8947  27.1912  27.1912
    27.2810  27.2810  28.7801  28.7801  28.7802  28.7802  28.7803  28.7803

     occupation numbers 
     1.0000   1.0000   1.0000   1.0000   1.0000   1.0000   1.0000   1.0000
     1.0000   1.0000   1.0000   1.0000   1.0000   1.0000   1.0000   1.0000
     1.0000   1.0000   1.0000   1.0000   1.0000   1.0000   1.0000   1.0000
     1.0000   1.0000   1.0000   1.0000   1.0000   1.0000   1.0000   1.0000
     1.0000   1.0000   1.0000   1.0000   1.0000   1.0000   1.0000   1.0000
     1.0000   1.0000   1.0000   1.0000   1.0000   1.0000   1.0000   1.0000
     1.0000   1.0000   1.0000   1.0000   1.0000   1.0000   1.0000   1.0000
     1.0000   1.0000   1.0000   1.0000   1.0000   1.0000   1.0000   1.0000

          k = 0.1000 0.1000 0.3000 (  8298 PWs)   bands (ev):

    -1.2094  -1.2094   1.1797   1.1797   2.6831   2.6831   2.6840   2.6840
     8.0441   8.0441   8.0449   8.0449   9.5167   9.5167  10.0326  10.0326
    10.0329  10.0329  12.0781  12.0781  12.0783  12.0783  12.1034  12.1034
    12.3774  12.3774  13.3088  13.3088  14.7691  14.7691  14.9607  14.9607
    16.1263  16.1263  16.8631  16.8631  16.8634  16.8634  20.9428  20.9428
    22.6819  22.6819  23.2493  23.2493  24.6228  24.6228  24.6229  24.6229
    25.2639  25.2639  25.3537  25.3537  25.3540  25.3540  25.6193  25.6193
    26.6142  26.6142  27.6410  27.6410  28.7658  28.7658  28.8789  28.8789

     occupation numbers 
     1.0000   1.0000   1.0000   1.0000   1.0000   1.0000   1.0000   1.0000
     1.0000   1.0000   1.0000   1.0000   1.0000   1.0000   1.0000   1.0000
     1.0000   1.0000   1.0000   1.0000   1.0000   1.0000   1.0000   1.0000
     1.0000   1.0000   1.0000   1.0000   1.0000   1.0000   1.0000   1.0000
     1.0000   1.0000   1.0000   1.0000   1.0000   1.0000   1.0000   1.0000
     1.0000   1.0000   1.0000   1.0000   1.0000   1.0000   1.0000   1.0000
     1.0000   1.0000   1.0000   1.0000   1.0000   1.0000   1.0000   1.0000
     1.0000   1.0000   1.0000   1.0000   1.0000   1.0000   1.0000   1.0000

          k = 0.1000 0.1000-0.5000 (  8304 PWs)   bands (ev):

    -0.2009  -0.2009  -0.1998  -0.1998   2.8442   2.8442   2.8451   2.8451
     7.4138   7.4138   7.4148   7.4148  10.5704  10.5704  10.5712  10.5712
    10.6712  10.6712  10.6724  10.6724  11.1525  11.1525  11.1536  11.1536
    13.8614  13.8614  13.8625  13.8625  14.8855  14.8855  14.8864  14.8864
    17.1469  17.1469  17.1471  17.1471  19.8943  19.8943  19.8943  19.8943
    21.9047  21.9047  21.9051  21.9051  24.0997  24.0997  24.1008  24.1008
    26.0580  26.0580  26.0582  26.0582  26.5112  26.5112  26.5121  26.5121
    27.4935  27.4935  27.4937  27.4937  27.6882  27.6882  27.6884  27.6884

     occupation numbers 
     1.0000   1.0000   1.0000   1.0000   1.0000   1.0000   1.0000   1.0000
     1.0000   1.0000   1.0000   1.0000   1.0000   1.0000   1.0000   1.0000
     1.0000   1.0000   1.0000   1.0000   1.0000   1.0000   1.0000   1.0000
     1.0000   1.0000   1.0000   1.0000   1.0000   1.0000   1.0000   1.0000
     1.0000   1.0000   1.0000   1.0000   1.0000   1.0000   1.0000   1.0000
     1.0000   1.0000   1.0000   1.0000   1.0000   1.0000   1.0000   1.0000
     1.0000   1.0000   1.0000   1.0000   1.0000   1.0000   1.0000   1.0000
     1.0000   1.0000   1.0000   1.0000   1.0000   1.0000   1.0000   1.0000

          k = 0.1000 0.3000 0.3000 (  8299 PWs)   bands (ev):

    -0.7022  -0.7022   1.5692   1.5692   1.5699   1.5699   2.6204   2.6204
     6.9449   6.9449   7.9855   7.9855   7.9864   7.9864  10.3181  10.3181
    10.4344  10.4344  12.2863  12.2863  12.2864  12.2864  13.0748  13.0748
    13.0753  13.0753  14.0160  14.0160  14.4412  14.4412  16.7853  16.7853
    17.1085  17.1085  17.4061  17.4061  17.4067  17.4067  21.4631  21.4631
    22.2556  22.2556  22.5685  22.5685  24.0240  24.0240  24.0243  24.0243
    24.8005  24.8005  25.0913  25.0913  25.0914  25.0914  26.0891  26.0891
    26.2671  26.2671  27.5755  27.5755  27.8207  27.8207  28.0237  28.0237

     occupation numbers 
     1.0000   1.0000   1.0000   1.0000   1.0000   1.0000   1.0000   1.0000
     1.0000   1.0000   1.0000   1.0000   1.0000   1.0000   1.0000   1.0000
     1.0000   1.0000   1.0000   1.0000   1.0000   1.0000   1.0000   1.0000
     1.0000   1.0000   1.0000   1.0000   1.0000   1.0000   1.0000   1.0000
     1.0000   1.0000   1.0000   1.0000   1.0000   1.0000   1.0000   1.0000
     1.0000   1.0000   1.0000   1.0000   1.0000   1.0000   1.0000   1.0000
     1.0000   1.0000   1.0000   1.0000   1.0000   1.0000   1.0000   1.0000
     1.0000   1.0000   1.0000   1.0000   1.0000   1.0000   1.0000   1.0000

          k = 0.1000 0.3000-0.5000 (  8234 PWs)   bands (ev):

     0.2730   0.2730   0.2741   0.2741   2.1875   2.1875   2.1884   2.1884
     6.8928   6.8928   6.8938   6.8938   8.8362   8.8362   8.8371   8.8371
    11.3205  11.3205  11.3217  11.3217  13.3476  13.3476  13.3488  13.3488
    13.7032  13.7032  13.7042  13.7042  16.0113  16.0113  16.0115  16.0115
    18.7179  18.7179  18.7184  18.7184  19.3785  19.3785  19.3786  19.3786
    21.6998  21.6998  21.7001  21.7001  22.8078  22.8078  22.8089  22.8089
    24.7890  24.7890  24.7892  24.7892  26.1362  26.1362  26.1370  26.1370
    27.0684  27.0684  27.0690  27.0690  27.8321  27.8321  27.8331  27.8331

     occupation numbers 
     1.0000   1.0000   1.0000   1.0000   1.0000   1.0000   1.0000   1.0000
     1.0000   1.0000   1.0000   1.0000   1.0000   1.0000   1.0000   1.0000
     1.0000   1.0000   1.0000   1.0000   1.0000   1.0000   1.0000   1.0000
     1.0000   1.0000   1.0000   1.0000   1.0000   1.0000   1.0000   1.0000
     1.0000   1.0000   1.0000   1.0000   1.0000   1.0000   1.0000   1.0000
     1.0000   1.0000   1.0000   1.0000   1.0000   1.0000   1.0000   1.0000
     1.0000   1.0000   1.0000   1.0000   1.0000   1.0000   1.0000   1.0000
     1.0000   1.0000   1.0000   1.0000   1.0000   1.0000   1.0000   1.0000

          k = 0.1000-0.5000-0.5000 (  8280 PWs)   bands (ev):

     1.1508   1.1508   1.1525   1.1525   1.1525   1.1525   1.1529   1.1529
     7.4579   7.4579   7.4580   7.4580   7.4580   7.4580   7.4599   7.4599
    12.2392  12.2392  12.2405  12.2405  12.2405  12.2405  12.2417  12.2417
    16.2276  16.2276  16.2279  16.2279  16.2282  16.2282  16.2289  16.2289
    19.3433  19.3433  19.3438  19.3438  19.3439  19.3439  19.3442  19.3442
    21.4537  21.4537  21.4547  21.4547  21.4551  21.4551  21.4554  21.4554
    24.4974  24.4974  24.4976  24.4976  24.4979  24.4979  24.4981  24.4981
    27.8673  27.8673  27.8677  27.8677  27.8677  27.8677  27.8686  27.8686

     occupation numbers 
     1.0000   1.0000   1.0000   1.0000   1.0000   1.0000   1.0000   1.0000
     1.0000   1.0000   1.0000   1.0000   1.0000   1.0000   1.0000   1.0000
     1.0000   1.0000   1.0000   1.0000   1.0000   1.0000   1.0000   1.0000
     1.0000   1.0000   1.0000   1.0000   1.0000   1.0000   1.0000   1.0000
     1.0000   1.0000   1.0000   1.0000   1.0000   1.0000   1.0000   1.0000
     1.0000   1.0000   1.0000   1.0000   1.0000   1.0000   1.0000   1.0000
     1.0000   1.0000   1.0000   1.0000   1.0000   1.0000   1.0000   1.0000
     1.0000   1.0000   1.0000   1.0000   1.0000   1.0000   1.0000   1.0000

          k = 0.3000 0.3000 0.3000 (  8294 PWs)   bands (ev):

    -0.2144  -0.2144   1.8326   1.8326   1.8339   1.8339   1.8339   1.8339
     6.5866   6.5866   6.5867   6.5867   6.5880   6.5880   8.6484   8.6484
    13.0631  13.0631  13.0639  13.0639  13.0640  13.0640  14.5277  14.5277
    14.5278  14.5278  14.5281  14.5281  15.7707  15.7707  16.9138  16.9138
    17.3756  17.3756  17.3756  17.3756  17.3765  17.3765  21.2903  21.2903
    21.6540  21.6540  22.2180  22.2180  23.7180  23.7180  23.7181  23.7181
    23.7182  23.7182  23.9525  23.9525  25.1220  25.1220  25.1224  25.1224
    25.1225  25.1225  27.3442  27.3442  27.3443  27.3443  27.3447  27.3447

     occupation numbers 
     1.0000   1.0000   1.0000   1.0000   1.0000   1.0000   1.0000   1.0000
     1.0000   1.0000   1.0000   1.0000   1.0000   1.0000   1.0000   1.0000
     1.0000   1.0000   1.0000   1.0000   1.0000   1.0000   1.0000   1.0000
     1.0000   1.0000   1.0000   1.0000   1.0000   1.0000   1.0000   1.0000
     1.0000   1.0000   1.0000   1.0000   1.0000   1.0000   1.0000   1.0000
     1.0000   1.0000   1.0000   1.0000   1.0000   1.0000   1.0000   1.0000
     1.0000   1.0000   1.0000   1.0000   1.0000   1.0000   1.0000   1.0000
     1.0000   1.0000   1.0000   1.0000   1.0000   1.0000   1.0000   1.0000

          k = 0.3000 0.3000-0.5000 (  8258 PWs)   bands (ev):

     0.7027   0.7027   0.7037   0.7037   2.0365   2.0365   2.0375   2.0375
     5.9116   5.9116   5.9126   5.9126   7.2510   7.2510   7.2520   7.2520
    13.5540  13.5540  13.5551  13.5551  14.5496  14.5496  14.5505  14.5505
    15.1053  15.1053  15.1062  15.1062  16.1668  16.1668  16.1671  16.1671
    18.8635  18.8635  18.8640  18.8640  19.4749  19.4749  19.4752  19.4752
    20.9902  20.9902  20.9906  20.9906  22.5306  22.5306  22.5317  22.5317
    23.0392  23.0392  23.0394  23.0394  24.9351  24.9351  24.9359  24.9359
    25.1078  25.1078  25.1088  25.1088  26.9344  26.9344  26.9354  26.9354

     occupation numbers 
     1.0000   1.0000   1.0000   1.0000   1.0000   1.0000   1.0000   1.0000
     1.0000   1.0000   1.0000   1.0000   1.0000   1.0000   1.0000   1.0000
     1.0000   1.0000   1.0000   1.0000   1.0000   1.0000   1.0000   1.0000
     1.0000   1.0000   1.0000   1.0000   1.0000   1.0000   1.0000   1.0000
     1.0000   1.0000   1.0000   1.0000   1.0000   1.0000   1.0000   1.0000
     1.0000   1.0000   1.0000   1.0000   1.0000   1.0000   1.0000   1.0000
     1.0000   1.0000   1.0000   1.0000   1.0000   1.0000   1.0000   1.0000
     1.0000   1.0000   1.0000   1.0000   1.0000   1.0000   1.0000   1.0000

          k = 0.3000-0.5000-0.5000 (  8276 PWs)   bands (ev):

     1.4285   1.4285   1.4304   1.4304   1.4304   1.4304   1.4305   1.4305
     6.0488   6.0488   6.0489   6.0489   6.0489   6.0489   6.0509   6.0509
    14.6980  14.6980  14.6990  14.6990  14.6991  14.6991  14.7001  14.7001
    16.5796  16.5796  16.5798  16.5798  16.5802  16.5802  16.5809  16.5809
    19.7517  19.7517  19.7523  19.7523  19.7524  19.7524  19.7528  19.7528
    20.6884  20.6884  20.6893  20.6893  20.6899  20.6899  20.6900  20.6900
    22.6921  22.6921  22.6925  22.6925  22.6928  22.6928  22.6930  22.6930
    25.0810  25.0810  25.0816  25.0816  25.0817  25.0817  25.0830  25.0830

     occupation numbers 
     1.0000   1.0000   1.0000   1.0000   1.0000   1.0000   1.0000   1.0000
     1.0000   1.0000   1.0000   1.0000   1.0000   1.0000   1.0000   1.0000
     1.0000   1.0000   1.0000   1.0000   1.0000   1.0000   1.0000   1.0000
     1.0000   1.0000   1.0000   1.0000   1.0000   1.0000   1.0000   1.0000
     1.0000   1.0000   1.0000   1.0000   1.0000   1.0000   1.0000   1.0000
     1.0000   1.0000   1.0000   1.0000   1.0000   1.0000   1.0000   1.0000
     1.0000   1.0000   1.0000   1.0000   1.0000   1.0000   1.0000   1.0000
     1.0000   1.0000   1.0000   1.0000   1.0000   1.0000   1.0000   1.0000

          k =-0.5000-0.5000-0.5000 (  8240 PWs)   bands (ev):

     1.6460   1.6460   1.6480   1.6480   1.6480   1.6480   1.6480   1.6480
     5.3600   5.3600   5.3600   5.3600   5.3600   5.3600   5.3622   5.3622
    16.1683  16.1683  16.1694  16.1694  16.1696  16.1696  16.1696  16.1696
    17.3103  17.3103  17.3103  17.3103  17.3112  17.3112  17.3112  17.3112
    19.7438  19.7438  19.7438  19.7438  19.7441  19.7441  19.7456  19.7456
    20.5366  20.5366  20.5366  20.5366  20.5377  20.5377  20.5377  20.5377
    21.5609  21.5609  21.5615  21.5615  21.5618  21.5618  21.5618  21.5618
    22.9916  22.9916  22.9916  22.9916  22.9917  22.9917  22.9930  22.9930

     occupation numbers 
     1.0000   1.0000   1.0000   1.0000   1.0000   1.0000   1.0000   1.0000
     1.0000   1.0000   1.0000   1.0000   1.0000   1.0000   1.0000   1.0000
     1.0000   1.0000   1.0000   1.0000   1.0000   1.0000   1.0000   1.0000
     1.0000   1.0000   1.0000   1.0000   1.0000   1.0000   1.0000   1.0000
     1.0000   1.0000   1.0000   1.0000   1.0000   1.0000   1.0000   1.0000
     1.0000   1.0000   1.0000   1.0000   1.0000   1.0000   1.0000   1.0000
     1.0000   1.0000   1.0000   1.0000   1.0000   1.0000   1.0000   1.0000
     1.0000   1.0000   1.0000   1.0000   1.0000   1.0000   1.0000   1.0000

     highest occupied level (ev):    28.8789

!    total energy              =    -341.49568268 Ry
     estimated scf accuracy    <       0.00000052 Ry

     The total energy is the sum of the following terms:
     one-electron contribution =     143.20880488 Ry
     hartree contribution      =       5.36725723 Ry
     xc contribution           =    -157.34004805 Ry
     ewald contribution        =    -332.73169674 Ry

     convergence has been achieved in  26 iterations

     Forces acting on atoms (cartesian axes, Ry/au):

     atom    1 type  1   force =     0.00000000    0.00000000    0.00000000
     atom    2 type  1   force =     0.00000000    0.00000000    0.00000000
     atom    3 type  1   force =     0.00000000    0.00000000    0.00000000
     atom    4 type  1   force =     0.00000000    0.00000000    0.00000000
     atom    5 type  2   force =     0.00000000    0.00000000    0.00000000
     atom    6 type  2   force =     0.00000000    0.00000000    0.00000000
     atom    7 type  2   force =     0.00000000    0.00000000    0.00000000
     atom    8 type  2   force =     0.00000000    0.00000000    0.00000000
     The non-local contrib.  to forces
     atom    1 type  1   force =     0.00000000    0.00000000    0.00000000
     atom    2 type  1   force =     0.00000000    0.00000000    0.00000000
     atom    3 type  1   force =     0.00000000    0.00000000    0.00000000
     atom    4 type  1   force =     0.00000000    0.00000000    0.00000000
     atom    5 type  2   force =     0.00000000    0.00000000    0.00000000
     atom    6 type  2   force =     0.00000000    0.00000000    0.00000000
     atom    7 type  2   force =     0.00000000    0.00000000    0.00000000
     atom    8 type  2   force =     0.00000000    0.00000000    0.00000000
     The ionic contribution  to forces
     atom    1 type  1   force =    -0.00000000   -0.00000000   -0.00000000
     atom    2 type  1   force =    -0.00000000    0.00000000    0.00000000
     atom    3 type  1   force =     0.00000000   -0.00000000    0.00000000
     atom    4 type  1   force =     0.00000000    0.00000000   -0.00000000
     atom    5 type  2   force =     0.00000000   -0.00000000   -0.00000000
     atom    6 type  2   force =     0.00000000    0.00000000    0.00000000
     atom    7 type  2   force =    -0.00000000   -0.00000000    0.00000000
     atom    8 type  2   force =    -0.00000000    0.00000000   -0.00000000
     The local contribution  to forces
     atom    1 type  1   force =    -0.00000000   -0.00000000   -0.00000000
     atom    2 type  1   force =    -0.00000000    0.00000000    0.00000000
     atom    3 type  1   force =     0.00000000   -0.00000000    0.00000000
     atom    4 type  1   force =     0.00000000    0.00000000   -0.00000000
     atom    5 type  2   force =     0.00000000   -0.00000000   -0.00000000
     atom    6 type  2   force =     0.00000000    0.00000000    0.00000000
     atom    7 type  2   force =    -0.00000000   -0.00000000    0.00000000
     atom    8 type  2   force =    -0.00000000    0.00000000   -0.00000000
     The core correction contribution to forces
     atom    1 type  1   force =    -0.00000000   -0.00000000   -0.00000000
     atom    2 type  1   force =    -0.00000000    0.00000000    0.00000000
     atom    3 type  1   force =    -0.00000000   -0.00000000    0.00000000
     atom    4 type  1   force =    -0.00000000    0.00000000   -0.00000000
     atom    5 type  2   force =     0.00000000   -0.00000000   -0.00000000
     atom    6 type  2   force =     0.00000000    0.00000000    0.00000000
     atom    7 type  2   force =    -0.00000000   -0.00000000    0.00000000
     atom    8 type  2   force =    -0.00000000    0.00000000   -0.00000000
     The Hubbard contrib.    to forces
     atom    1 type  1   force =     0.00000000    0.00000000    0.00000000
     atom    2 type  1   force =     0.00000000    0.00000000    0.00000000
     atom    3 type  1   force =     0.00000000    0.00000000    0.00000000
     atom    4 type  1   force =     0.00000000    0.00000000    0.00000000
     atom    5 type  2   force =     0.00000000    0.00000000    0.00000000
     atom    6 type  2   force =     0.00000000    0.00000000    0.00000000
     atom    7 type  2   force =     0.00000000    0.00000000    0.00000000
     atom    8 type  2   force =     0.00000000    0.00000000    0.00000000
     The SCF correction term to forces
     atom    1 type  1   force =     0.00000000   -0.00000000    0.00000000
     atom    2 type  1   force =    -0.00000000   -0.00000000    0.00000000
     atom    3 type  1   force =    -0.00000000   -0.00000000    0.00000000
     atom    4 type  1   force =     0.00000000    0.00000000    0.00000000
     atom    5 type  2   force =    -0.00000000    0.00000000    0.00000000
     atom    6 type  2   force =    -0.00000000   -0.00000000   -0.00000000
     atom    7 type  2   force =    -0.00000000    0.00000000   -0.00000000
     atom    8 type  2   force =    -0.00000000    0.00000000    0.00000000

     Total force =     0.000000     Total SCF correction =     0.000000


     Computing stress (Cartesian axis) and pressure

          total   stress  (Ry/bohr**3)                   (kbar)     P=     4116.84
   0.02798568   0.00000000   0.00000000         4116.84        0.00        0.00
   0.00000000   0.02798568   0.00000000            0.00     4116.84        0.00
   0.00000000   0.00000000   0.02798568            0.00        0.00     4116.84

     kinetic stress (kbar)  15342.24      0.00      0.00
                                0.00  15342.24      0.00
                                0.00      0.00  15342.24

     local   stress (kbar)   6143.75      0.00     -0.00
                                0.00   6143.75      0.00
                               -0.00      0.00   6143.75

     nonloc. stress (kbar)  11656.23      0.00      0.00
                                0.00  11656.23      0.00
                                0.00      0.00  11656.23

     hartree stress (kbar)    384.10     -0.00      0.00
                               -0.00    384.10      0.00
                                0.00      0.00    384.10

     exc-cor stress (kbar)  17117.83      0.00      0.00
                                0.00  17117.83      0.00
                                0.00      0.00  17117.83

     corecor stress (kbar) -22715.66     -0.00     -0.00
                               -0.00 -22715.66     -0.00
                               -0.00     -0.00 -22715.66

     ewald   stress (kbar) -23811.67      0.00     -0.00
                                0.00 -23811.67      0.00
                               -0.00      0.00 -23811.67

     hubbard stress (kbar)      0.00      0.00      0.00
                                0.00      0.00      0.00
                                0.00      0.00      0.00

     DFT-D   stress (kbar)      0.00      0.00      0.00
                                0.00      0.00      0.00
                                0.00      0.00      0.00

     XDM     stress (kbar)      0.00      0.00      0.00
                                0.00      0.00      0.00
                                0.00      0.00      0.00

     dft-nl  stress (kbar)      0.00      0.00      0.00
                                0.00      0.00      0.00
                                0.00      0.00      0.00

     TS-vdW  stress (kbar)      0.00      0.00      0.00
                                0.00      0.00      0.00
                                0.00      0.00      0.00



     Writing output data file ./CsIbcc.save/

     init_run     :      5.87s CPU      4.24s WALL (       1 calls)
     electrons    :    356.14s CPU    224.31s WALL (       1 calls)
     forces       :      6.46s CPU      5.94s WALL (       1 calls)
     stress       :     19.97s CPU     10.77s WALL (       1 calls)

     Called by init_run:
     wfcinit      :      2.51s CPU      1.53s WALL (       1 calls)
     wfcinit:atom :      0.01s CPU      0.01s WALL (      10 calls)
     wfcinit:wfcr :      2.43s CPU      1.48s WALL (      10 calls)
     potinit      :      0.20s CPU      0.19s WALL (       1 calls)
     hinit0       :      1.54s CPU      1.01s WALL (       1 calls)

     Called by electrons:
     c_bands      :    259.82s CPU    150.92s WALL (      27 calls)
     sum_band     :     53.38s CPU     34.63s WALL (      27 calls)
     v_of_rho     :      0.49s CPU      0.26s WALL (      27 calls)
     v_h          :      0.05s CPU      0.03s WALL (      27 calls)
     v_xc         :      0.47s CPU      0.24s WALL (      29 calls)
     newd         :     42.23s CPU     38.24s WALL (      27 calls)
     mix_rho      :      0.45s CPU      0.28s WALL (      27 calls)

     Called by c_bands:
     init_us_2    :      0.92s CPU      0.49s WALL (     570 calls)
     cegterg      :    253.24s CPU    145.56s WALL (     274 calls)

     Called by sum_band:
     sum_band:wei :      0.00s CPU      0.00s WALL (      27 calls)
     sum_band:loo :     43.11s CPU     27.13s WALL (      27 calls)
     sum_band:buf :      0.09s CPU      0.05s WALL (     270 calls)
     sum_band:ini :      0.36s CPU      0.19s WALL (     270 calls)
     sum_band:cal :      2.80s CPU      1.48s WALL (     270 calls)
     sum_band:bec :     18.67s CPU     13.54s WALL (     270 calls)
     addusdens    :      9.57s CPU      7.02s WALL (      27 calls)
     addusd:skk   :      0.01s CPU      0.01s WALL (      54 calls)
     addusd:dgemm :      2.66s CPU      3.45s WALL (      54 calls)
     addusd:qvan2 :      6.66s CPU      3.43s WALL (      54 calls)

     Called by *egterg:
     cdiaghg      :     23.97s CPU     13.39s WALL (    2420 calls)
     cegterg:over :     14.07s CPU      9.13s WALL (    2156 calls)
     cegterg:upda :      2.30s CPU      1.18s WALL (    2156 calls)
     cegterg:last :      4.07s CPU      2.07s WALL (     977 calls)
     h_psi        :    176.04s CPU     96.46s WALL (    2440 calls)
     s_psi        :     26.53s CPU     19.24s WALL (    2440 calls)
     g_psi        :      0.33s CPU      0.17s WALL (    2156 calls)

     Called by h_psi:
     h_psi:calbec :     13.36s CPU      7.17s WALL (    2440 calls)
     vloc_psi     :    145.78s CPU     77.35s WALL (    2440 calls)
     add_vuspsi   :     16.61s CPU     11.79s WALL (    2440 calls)

     General routines
     calbec       :     17.32s CPU      9.59s WALL (    2760 calls)
     fft          :      0.89s CPU      0.50s WALL (     612 calls)
     ffts         :      0.55s CPU      0.38s WALL (     216 calls)
     fftw         :    155.32s CPU     83.19s WALL (  310920 calls)
     interpolate  :      0.26s CPU      0.13s WALL (     108 calls)

     Parallel routines
     fft_scatt_xy :      7.77s CPU      4.00s WALL (  311748 calls)
     fft_scatt_yz :    103.83s CPU     56.60s WALL (  311748 calls)

     PWSCF        :   6m30.71s CPU   4m12.79s WALL


   This run was terminated on:  15:34:32  31Jan2021            

=------------------------------------------------------------------------------=
   JOB DONE.
=------------------------------------------------------------------------------=
