
     Program PWSCF v.6.4.1 starts on 23Jan2021 at 18:48:55 

     This program is part of the open-source Quantum ESPRESSO suite
     for quantum simulation of materials; please cite
         "P. Giannozzi et al., J. Phys.:Condens. Matter 21 395502 (2009);
         "P. Giannozzi et al., J. Phys.:Condens. Matter 29 465901 (2017);
          URL http://www.quantum-espresso.org", 
     in publications or presentations arising from this work. More details at
     http://www.quantum-espresso.org/quote

     Parallel version (MPI & OpenMP), running on      48 processor cores
     Number of MPI processes:                24
     Threads/MPI process:                     2

     MPI processes distributed on     1 nodes
     R & G space division:  proc/nbgrp/npool/nimage =      24
     Waiting for input...
     Reading input from standard input

     Current dimensions of program PWSCF are:
     Max number of different atomic species (ntypx) = 10
     Max number of k-points (npk) =  40000
     Max angular momentum in pseudopotentials (lmaxx) =  3
               file Sn.rel-pbesol-dn-kjpaw_psl.1.0.0.UPF: wavefunction(s)  5S 5P 5P 4D 4D renormalized
               file I.rel-pbesol-n-kjpaw_psl.1.0.0.UPF: wavefunction(s)  5S renormalized

     Subspace diagonalization in iterative solution of the eigenvalue problem:
     one sub-group per band group will be used
     scalapack distributed-memory algorithm (size of sub-group:  3*  3 procs)

 
     Parallelization info
     --------------------
     sticks:   dense  smooth     PW     G-vecs:    dense   smooth      PW
     Min         331     220     59                22177    12071    1675
     Max         332     222     60                22180    12072    1678
     Sum        7957    5297   1425               532289   289715   40243
 

     Title: 
     SnI2                                                                       


     bravais-lattice index     =            1
     lattice parameter (alat)  =      14.4199  a.u.
     unit-cell volume          =    2998.4083 (a.u.)^3
     number of atoms/cell      =            6
     number of atomic types    =            2
     number of electrons       =        56.00
     number of Kohn-Sham states=           56
     kinetic-energy cutoff     =      80.0000  Ry
     charge density cutoff     =     480.0000  Ry
     convergence threshold     =      1.0E-06
     mixing beta               =       0.3500
     number of iterations used =            8  plain     mixing
     Exchange-correlation      = SLA PW PSX PSC ( 1  4 10  8 0 0)
     Non magnetic calculation with spin-orbit


     celldm(1)=  14.419945  celldm(2)=   0.000000  celldm(3)=   0.000000
     celldm(4)=   0.000000  celldm(5)=   0.000000  celldm(6)=   0.000000

     crystal axes: (cart. coord. in units of alat)
               a(1) = (   1.000000   0.000000   0.000000 )  
               a(2) = (   0.000000   1.000000   0.000000 )  
               a(3) = (   0.000000   0.000000   1.000000 )  

     reciprocal axes: (cart. coord. in units 2 pi/alat)
               b(1) = (  1.000000  0.000000  0.000000 )  
               b(2) = (  0.000000  1.000000  0.000000 )  
               b(3) = (  0.000000  0.000000  1.000000 )  


     PseudoPot. # 1 for Sn read from file:
     /marconi_scratch/userexternal/cmalosso/degironcoli/pseudo/Sn.rel-pbesol-dn-kjpaw_psl.1.0.0.UPF
     MD5 check sum: e69eff64f15ae39ad43ef58bacbfdf88
     Pseudo is Projector augmented-wave + core cor, Zval = 14.0
     Generated using "atomic" code by A. Dal Corso v.6.3
     Shape of augmentation charge: PSQ
     Using radial grid of 1243 points, 10 beta functions with: 
                l(1) =   0
                l(2) =   0
                l(3) =   1
                l(4) =   1
                l(5) =   1
                l(6) =   1
                l(7) =   2
                l(8) =   2
                l(9) =   2
               l(10) =   2
     Q(r) pseudized with 0 coefficients 


     PseudoPot. # 2 for I  read from file:
     /marconi_scratch/userexternal/cmalosso/degironcoli/pseudo/I.rel-pbesol-n-kjpaw_psl.1.0.0.UPF
     MD5 check sum: 4478c427bd443f303eca1937a163b991
     Pseudo is Projector augmented-wave + core cor, Zval =  7.0
     Generated using "atomic" code by A. Dal Corso v.6.3
     Shape of augmentation charge: PSQ
     Using radial grid of 1247 points, 10 beta functions with: 
                l(1) =   0
                l(2) =   0
                l(3) =   1
                l(4) =   1
                l(5) =   1
                l(6) =   1
                l(7) =   2
                l(8) =   2
                l(9) =   2
               l(10) =   2
     Q(r) pseudized with 0 coefficients 


     atomic species   valence    mass     pseudopotential
        Sn            14.00   118.70000     Sn( 1.00)
        I              7.00   126.90000     I ( 1.00)

     16 Sym. Ops., with inversion, found ( 8 have fractional translation)


                                    s                        frac. trans.

      isym =  1     identity                                     

 cryst.   s( 1) = (     1          0          0      )
                  (     0          1          0      )
                  (     0          0          1      )

 cart.    s( 1) = (  1.0000000  0.0000000  0.0000000 )
                  (  0.0000000  1.0000000  0.0000000 )
                  (  0.0000000  0.0000000  1.0000000 )


      isym =  2     180 deg rotation - cart. axis [0,0,1]        

 cryst.   s( 2) = (    -1          0          0      )
                  (     0         -1          0      )
                  (     0          0          1      )

 cart.    s( 2) = ( -1.0000000  0.0000000  0.0000000 )
                  (  0.0000000 -1.0000000  0.0000000 )
                  (  0.0000000  0.0000000  1.0000000 )


      isym =  3     180 deg rotation - cart. axis [0,1,0]        

 cryst.   s( 3) = (    -1          0          0      )    f =(  0.5000000 )
                  (     0          1          0      )       ( -0.5000000 )
                  (     0          0         -1      )       (  0.5000000 )

 cart.    s( 3) = ( -1.0000000  0.0000000  0.0000000 )    f =(  0.5000000 )
                  (  0.0000000  1.0000000  0.0000000 )       ( -0.5000000 )
                  (  0.0000000  0.0000000 -1.0000000 )       (  0.5000000 )


      isym =  4     180 deg rotation - cart. axis [1,0,0]        

 cryst.   s( 4) = (     1          0          0      )    f =( -0.5000000 )
                  (     0         -1          0      )       (  0.5000000 )
                  (     0          0         -1      )       (  0.5000000 )

 cart.    s( 4) = (  1.0000000  0.0000000  0.0000000 )    f =( -0.5000000 )
                  (  0.0000000 -1.0000000  0.0000000 )       (  0.5000000 )
                  (  0.0000000  0.0000000 -1.0000000 )       (  0.5000000 )


      isym =  5     180 deg rotation - cart. axis [1,1,0]        

 cryst.   s( 5) = (     0          1          0      )
                  (     1          0          0      )
                  (     0          0         -1      )

 cart.    s( 5) = (  0.0000000  1.0000000  0.0000000 )
                  (  1.0000000  0.0000000  0.0000000 )
                  (  0.0000000  0.0000000 -1.0000000 )


      isym =  6     180 deg rotation - cart. axis [1,-1,0]       

 cryst.   s( 6) = (     0         -1          0      )
                  (    -1          0          0      )
                  (     0          0         -1      )

 cart.    s( 6) = (  0.0000000 -1.0000000  0.0000000 )
                  ( -1.0000000  0.0000000  0.0000000 )
                  (  0.0000000  0.0000000 -1.0000000 )


      isym =  7      90 deg rotation - cart. axis [0,0,-1]       

 cryst.   s( 7) = (     0         -1          0      )    f =( -0.5000000 )
                  (     1          0          0      )       (  0.5000000 )
                  (     0          0          1      )       ( -0.5000000 )

 cart.    s( 7) = (  0.0000000  1.0000000  0.0000000 )    f =( -0.5000000 )
                  ( -1.0000000  0.0000000  0.0000000 )       (  0.5000000 )
                  (  0.0000000  0.0000000  1.0000000 )       ( -0.5000000 )


      isym =  8      90 deg rotation - cart. axis [0,0,1]        

 cryst.   s( 8) = (     0          1          0      )    f =(  0.5000000 )
                  (    -1          0          0      )       ( -0.5000000 )
                  (     0          0          1      )       ( -0.5000000 )

 cart.    s( 8) = (  0.0000000 -1.0000000  0.0000000 )    f =(  0.5000000 )
                  (  1.0000000  0.0000000  0.0000000 )       ( -0.5000000 )
                  (  0.0000000  0.0000000  1.0000000 )       ( -0.5000000 )


      isym =  9     inversion                                    

 cryst.   s( 9) = (    -1          0          0      )
                  (     0         -1          0      )
                  (     0          0         -1      )

 cart.    s( 9) = ( -1.0000000  0.0000000  0.0000000 )
                  (  0.0000000 -1.0000000  0.0000000 )
                  (  0.0000000  0.0000000 -1.0000000 )


      isym = 10     inv. 180 deg rotation - cart. axis [0,0,1]   

 cryst.   s(10) = (     1          0          0      )
                  (     0          1          0      )
                  (     0          0         -1      )

 cart.    s(10) = (  1.0000000  0.0000000  0.0000000 )
                  (  0.0000000  1.0000000  0.0000000 )
                  (  0.0000000  0.0000000 -1.0000000 )


      isym = 11     inv. 180 deg rotation - cart. axis [0,1,0]   

 cryst.   s(11) = (     1          0          0      )    f =( -0.5000000 )
                  (     0         -1          0      )       (  0.5000000 )
                  (     0          0          1      )       ( -0.5000000 )

 cart.    s(11) = (  1.0000000  0.0000000  0.0000000 )    f =( -0.5000000 )
                  (  0.0000000 -1.0000000  0.0000000 )       (  0.5000000 )
                  (  0.0000000  0.0000000  1.0000000 )       ( -0.5000000 )


      isym = 12     inv. 180 deg rotation - cart. axis [1,0,0]   

 cryst.   s(12) = (    -1          0          0      )    f =(  0.5000000 )
                  (     0          1          0      )       ( -0.5000000 )
                  (     0          0          1      )       ( -0.5000000 )

 cart.    s(12) = ( -1.0000000  0.0000000  0.0000000 )    f =(  0.5000000 )
                  (  0.0000000  1.0000000  0.0000000 )       ( -0.5000000 )
                  (  0.0000000  0.0000000  1.0000000 )       ( -0.5000000 )


      isym = 13     inv. 180 deg rotation - cart. axis [1,1,0]   

 cryst.   s(13) = (     0         -1          0      )
                  (    -1          0          0      )
                  (     0          0          1      )

 cart.    s(13) = (  0.0000000 -1.0000000  0.0000000 )
                  ( -1.0000000  0.0000000  0.0000000 )
                  (  0.0000000  0.0000000  1.0000000 )


      isym = 14     inv. 180 deg rotation - cart. axis [1,-1,0]  

 cryst.   s(14) = (     0          1          0      )
                  (     1          0          0      )
                  (     0          0          1      )

 cart.    s(14) = (  0.0000000  1.0000000  0.0000000 )
                  (  1.0000000  0.0000000  0.0000000 )
                  (  0.0000000  0.0000000  1.0000000 )


      isym = 15     inv.  90 deg rotation - cart. axis [0,0,-1]  

 cryst.   s(15) = (     0          1          0      )    f =(  0.5000000 )
                  (    -1          0          0      )       ( -0.5000000 )
                  (     0          0         -1      )       (  0.5000000 )

 cart.    s(15) = (  0.0000000 -1.0000000  0.0000000 )    f =(  0.5000000 )
                  (  1.0000000  0.0000000  0.0000000 )       ( -0.5000000 )
                  (  0.0000000  0.0000000 -1.0000000 )       (  0.5000000 )


      isym = 16     inv.  90 deg rotation - cart. axis [0,0,1]   

 cryst.   s(16) = (     0         -1          0      )    f =( -0.5000000 )
                  (     1          0          0      )       (  0.5000000 )
                  (     0          0         -1      )       (  0.5000000 )

 cart.    s(16) = (  0.0000000  1.0000000  0.0000000 )    f =( -0.5000000 )
                  ( -1.0000000  0.0000000  0.0000000 )       (  0.5000000 )
                  (  0.0000000  0.0000000 -1.0000000 )       (  0.5000000 )


     double point group D_4h(4/mmm)
     there are 14 classes and  4 irreducible representations
     the character table:

       E     -E    2C4   -2C4   C2    2C2' 2C2'' i     -i    2S4   -2S4   s_h 
                               -C2   -2C2' -2C2'                         -s_h 
G_6+   2.00 -2.00  1.41 -1.41  0.00  0.00  0.00  2.00 -2.00  1.41 -1.41  0.00
G_7+   2.00 -2.00 -1.41  1.41  0.00  0.00  0.00  2.00 -2.00 -1.41  1.41  0.00
G_6-   2.00 -2.00  1.41 -1.41  0.00  0.00  0.00 -2.00  2.00 -1.41  1.41  0.00
G_7-   2.00 -2.00 -1.41  1.41  0.00  0.00  0.00 -2.00  2.00  1.41 -1.41  0.00

        2s_v  2s_d
       -2s_v -2s_d
G_6+   0.00  0.00
G_7+   0.00  0.00
G_6-   0.00  0.00
G_7-   0.00  0.00

     the symmetry operations in each class and the name of the first element:

     E             1
          identity                                               
     -E           -1
          identity E                                             
     2C4           7    8
           90 deg rotation - cart. axis [0,0,-1]                 
     -2C4         -7   -8
           90 deg rotation - cart. axis [0,0,-1] E               
      C2  -C2      2   -2
          180 deg rotation - cart. axis [0,0,1]                  
      2C2'-2C2'    3   -3    4   -4
          180 deg rotation - cart. axis [0,1,0]                  
     2C2''-2C2'    5   -5   -6    6
          180 deg rotation - cart. axis [1,1,0]                  
     i             9
          inversion                                              
     -i           -9
          inversion E                                            
     2S4          15   16
          inv.  90 deg rotation - cart. axis [0,0,-1]            
     -2S4        -15  -16
          inv.  90 deg rotation - cart. axis [0,0,-1] E          
      s_h -s_h    10  -10
          inv. 180 deg rotation - cart. axis [0,0,1]             
      2s_v-2s_v   11  -11   12  -12
          inv. 180 deg rotation - cart. axis [0,1,0]             
      2s_d-2s_d   13  -13  -14   14
          inv. 180 deg rotation - cart. axis [1,1,0]             

   Cartesian axes

     site n.     atom                  positions (alat units)
         1           Sn  tau(   1) = (   0.0000000   0.0000000   0.0000000  )
         2           Sn  tau(   2) = (   0.5000000   0.5000000   0.5000000  )
         3           I   tau(   3) = (   0.2985210   0.2985210   0.0000000  )
         4           I   tau(   4) = (   0.7014790   0.7014790   0.0000000  )
         5           I   tau(   5) = (   0.7985210   0.2014790   0.5000000  )
         6           I   tau(   6) = (   0.2014790   0.7985210   0.5000000  )

   Crystallographic axes

     site n.     atom                  positions (cryst. coord.)
         1           Sn  tau(   1) = (  0.0000000  0.0000000  0.0000000  )
         2           Sn  tau(   2) = (  0.5000000  0.5000000  0.5000000  )
         3           I   tau(   3) = (  0.2985210  0.2985210  0.0000000  )
         4           I   tau(   4) = (  0.7014790  0.7014790  0.0000000  )
         5           I   tau(   5) = (  0.7985210  0.2014790  0.5000000  )
         6           I   tau(   6) = (  0.2014790  0.7985210  0.5000000  )

     number of k points=    18
                       cart. coord. in units 2pi/alat
        k(    1) = (   0.0833333   0.0833333   0.0833333), wk =   0.0370370
        k(    2) = (   0.0833333   0.0833333   0.2500000), wk =   0.0370370
        k(    3) = (   0.0833333   0.0833333   0.4166667), wk =   0.0370370
        k(    4) = (   0.0833333   0.2500000   0.2500000), wk =   0.0740741
        k(    5) = (   0.0833333   0.2500000   0.4166667), wk =   0.0740741
        k(    6) = (   0.0833333   0.4166667   0.4166667), wk =   0.0740741
        k(    7) = (   0.2500000   0.2500000   0.2500000), wk =   0.0370370
        k(    8) = (   0.2500000   0.2500000   0.4166667), wk =   0.0370370
        k(    9) = (   0.2500000   0.4166667   0.4166667), wk =   0.0740741
        k(   10) = (   0.4166667   0.4166667   0.4166667), wk =   0.0370370
        k(   11) = (   0.0833333   0.2500000   0.0833333), wk =   0.0740741
        k(   12) = (   0.0833333   0.4166667   0.0833333), wk =   0.0740741
        k(   13) = (   0.2500000   0.2500000   0.0833333), wk =   0.0370370
        k(   14) = (   0.2500000   0.4166667   0.0833333), wk =   0.0740741
        k(   15) = (   0.4166667   0.0833333   0.2500000), wk =   0.0740741
        k(   16) = (   0.4166667   0.4166667   0.0833333), wk =   0.0370370
        k(   17) = (   0.2500000   0.4166667   0.2500000), wk =   0.0740741
        k(   18) = (   0.4166667   0.4166667   0.2500000), wk =   0.0370370

                       cryst. coord.
        k(    1) = (   0.0833333   0.0833333   0.0833333), wk =   0.0370370
        k(    2) = (   0.0833333   0.0833333   0.2500000), wk =   0.0370370
        k(    3) = (   0.0833333   0.0833333   0.4166667), wk =   0.0370370
        k(    4) = (   0.0833333   0.2500000   0.2500000), wk =   0.0740741
        k(    5) = (   0.0833333   0.2500000   0.4166667), wk =   0.0740741
        k(    6) = (   0.0833333   0.4166667   0.4166667), wk =   0.0740741
        k(    7) = (   0.2500000   0.2500000   0.2500000), wk =   0.0370370
        k(    8) = (   0.2500000   0.2500000   0.4166667), wk =   0.0370370
        k(    9) = (   0.2500000   0.4166667   0.4166667), wk =   0.0740741
        k(   10) = (   0.4166667   0.4166667   0.4166667), wk =   0.0370370
        k(   11) = (   0.0833333   0.2500000   0.0833333), wk =   0.0740741
        k(   12) = (   0.0833333   0.4166667   0.0833333), wk =   0.0740741
        k(   13) = (   0.2500000   0.2500000   0.0833333), wk =   0.0370370
        k(   14) = (   0.2500000   0.4166667   0.0833333), wk =   0.0740741
        k(   15) = (   0.4166667   0.0833333   0.2500000), wk =   0.0740741
        k(   16) = (   0.4166667   0.4166667   0.0833333), wk =   0.0370370
        k(   17) = (   0.2500000   0.4166667   0.2500000), wk =   0.0740741
        k(   18) = (   0.4166667   0.4166667   0.2500000), wk =   0.0370370

     Dense  grid:   532289 G-vectors     FFT dimensions: ( 108, 108, 108)

     Smooth grid:   289715 G-vectors     FFT dimensions: (  90,  90,  90)

     Dynamical RAM for                 wfc:       2.58 MB

     Dynamical RAM for     wfc (w. buffer):      49.00 MB

     Dynamical RAM for           str. fact:       0.68 MB

     Dynamical RAM for           local pot:       0.00 MB

     Dynamical RAM for          nlocal pot:       4.70 MB

     Dynamical RAM for                qrad:      21.12 MB

     Dynamical RAM for          rho,v,vnew:       9.40 MB

     Dynamical RAM for               rhoin:       3.13 MB

     Dynamical RAM for            rho*nmix:      21.66 MB

     Dynamical RAM for           G-vectors:       1.36 MB

     Dynamical RAM for          h,s,v(r/c):       0.25 MB

     Dynamical RAM for          <psi|beta>:       0.35 MB

     Dynamical RAM for                 psi:      10.32 MB

     Dynamical RAM for                hpsi:      10.32 MB

     Dynamical RAM for                spsi:      10.32 MB

     Dynamical RAM for      wfcinit/wfcrot:       4.80 MB

     Dynamical RAM for           addusdens:     207.79 MB

     Dynamical RAM for          addusforce:     212.10 MB

     Dynamical RAM for         addusstress:     212.53 MB

     Estimated static dynamical RAM per process >     115.62 MB

     Estimated max dynamical RAM per process >     328.15 MB

     Estimated total dynamical RAM >       7.69 GB

     Initial potential from superposition of free atoms

     starting charge   55.99771, renormalised to   56.00000
     Starting wfcs are   68 randomized atomic wfcs
     Checking if some PAW data can be deallocated... 
       PAW data deallocated on   16 nodes for type:  1
       PAW data deallocated on    8 nodes for type:  2

     total cpu time spent up to now is       35.2 secs

     Self-consistent Calculation

     iteration #  1     ecut=    80.00 Ry     beta= 0.35
     Davidson diagonalization with overlap
     ethr =  1.00E-02,  avg # of iterations =  1.0

     total cpu time spent up to now is       97.5 secs

     total energy              =   -2370.83367655 Ry
     Harris-Foulkes estimate   =   -2371.11826771 Ry
     estimated scf accuracy    <       0.58841753 Ry

     iteration #  2     ecut=    80.00 Ry     beta= 0.35
     Davidson diagonalization with overlap
     ethr =  1.05E-03,  avg # of iterations =  3.0

     total cpu time spent up to now is      181.8 secs

     total energy              =   -2370.93666357 Ry
     Harris-Foulkes estimate   =   -2370.94759346 Ry
     estimated scf accuracy    <       0.04051707 Ry

     iteration #  3     ecut=    80.00 Ry     beta= 0.35
     Davidson diagonalization with overlap
     ethr =  7.24E-05,  avg # of iterations =  3.4

     total cpu time spent up to now is      269.7 secs

     total energy              =   -2370.94049573 Ry
     Harris-Foulkes estimate   =   -2370.94276563 Ry
     estimated scf accuracy    <       0.00902853 Ry

     iteration #  4     ecut=    80.00 Ry     beta= 0.35
     Davidson diagonalization with overlap
     ethr =  1.61E-05,  avg # of iterations =  3.0

     total cpu time spent up to now is      355.5 secs

     total energy              =   -2370.94167895 Ry
     Harris-Foulkes estimate   =   -2370.94162302 Ry
     estimated scf accuracy    <       0.00058717 Ry

     iteration #  5     ecut=    80.00 Ry     beta= 0.35
     Davidson diagonalization with overlap
     ethr =  1.05E-06,  avg # of iterations =  5.0

     total cpu time spent up to now is      464.8 secs

     total energy              =   -2370.94184129 Ry
     Harris-Foulkes estimate   =   -2370.94189281 Ry
     estimated scf accuracy    <       0.00011126 Ry

     iteration #  6     ecut=    80.00 Ry     beta= 0.35
     Davidson diagonalization with overlap
     ethr =  1.99E-07,  avg # of iterations =  3.2

     total cpu time spent up to now is      553.4 secs

     total energy              =   -2370.94186972 Ry
     Harris-Foulkes estimate   =   -2370.94186256 Ry
     estimated scf accuracy    <       0.00000985 Ry

     iteration #  7     ecut=    80.00 Ry     beta= 0.35
     Davidson diagonalization with overlap
     ethr =  1.76E-08,  avg # of iterations =  2.3

     total cpu time spent up to now is      633.3 secs

     End of self-consistent calculation

          k = 0.0833 0.0833 0.0833 ( 36254 PWs)   bands (ev):

   -23.2749 -23.2749 -23.2749 -23.2749 -23.1424 -23.1424 -23.1424 -23.1424
   -22.2552 -22.2552 -22.2552 -22.2552 -22.1399 -22.1399 -22.1399 -22.1399
   -22.0862 -22.0862 -22.0861 -22.0861 -11.6251 -11.6251 -11.5346 -11.5346
   -11.4849 -11.4849 -11.4807 -11.4807  -7.0756  -7.0756  -6.8764  -6.8764
    -2.6891  -2.6891  -2.5275  -2.5275  -2.1414  -2.1414  -2.0303  -2.0303
    -1.8828  -1.8828  -1.5311  -1.5311  -1.2278  -1.2278  -1.1345  -1.1345
    -1.1097  -1.1097  -0.9973  -0.9973  -0.9256  -0.9256  -0.8851  -0.8851

     occupation numbers 
     1.0000   1.0000   1.0000   1.0000   1.0000   1.0000   1.0000   1.0000
     1.0000   1.0000   1.0000   1.0000   1.0000   1.0000   1.0000   1.0000
     1.0000   1.0000   1.0000   1.0000   1.0000   1.0000   1.0000   1.0000
     1.0000   1.0000   1.0000   1.0000   1.0000   1.0000   1.0000   1.0000
     1.0000   1.0000   1.0000   1.0000   1.0000   1.0000   1.0000   1.0000
     1.0000   1.0000   1.0000   1.0000   1.0000   1.0000   1.0000   1.0000
     1.0000   1.0000   1.0000   1.0000   1.0000   1.0000   1.0000   1.0000

          k = 0.0833 0.0833 0.2500 ( 36242 PWs)   bands (ev):

   -23.2749 -23.2749 -23.2749 -23.2749 -23.1424 -23.1424 -23.1424 -23.1424
   -22.2552 -22.2552 -22.2552 -22.2552 -22.1399 -22.1399 -22.1399 -22.1399
   -22.0862 -22.0862 -22.0861 -22.0861 -11.6128 -11.6128 -11.5464 -11.5464
   -11.4849 -11.4849 -11.4805 -11.4805  -7.0556  -7.0556  -6.9100  -6.9100
    -2.6764  -2.6764  -2.5248  -2.5248  -2.1300  -2.1300  -2.0087  -2.0087
    -1.8573  -1.8573  -1.5556  -1.5556  -1.2255  -1.2255  -1.1757  -1.1757
    -1.1331  -1.1331  -1.0252  -1.0252  -0.9360  -0.9360  -0.8985  -0.8985

     occupation numbers 
     1.0000   1.0000   1.0000   1.0000   1.0000   1.0000   1.0000   1.0000
     1.0000   1.0000   1.0000   1.0000   1.0000   1.0000   1.0000   1.0000
     1.0000   1.0000   1.0000   1.0000   1.0000   1.0000   1.0000   1.0000
     1.0000   1.0000   1.0000   1.0000   1.0000   1.0000   1.0000   1.0000
     1.0000   1.0000   1.0000   1.0000   1.0000   1.0000   1.0000   1.0000
     1.0000   1.0000   1.0000   1.0000   1.0000   1.0000   1.0000   1.0000
     1.0000   1.0000   1.0000   1.0000   1.0000   1.0000   1.0000   1.0000

          k = 0.0833 0.0833 0.4167 ( 36256 PWs)   bands (ev):

   -23.2749 -23.2749 -23.2749 -23.2749 -23.1424 -23.1424 -23.1424 -23.1424
   -22.2552 -22.2552 -22.2552 -22.2552 -22.1399 -22.1399 -22.1399 -22.1399
   -22.0862 -22.0862 -22.0862 -22.0862 -11.5916 -11.5916 -11.5670 -11.5670
   -11.4848 -11.4848 -11.4803 -11.4803  -7.0163  -7.0163  -6.9629  -6.9629
    -2.6642  -2.6642  -2.5207  -2.5207  -2.1288  -2.1288  -1.9913  -1.9913
    -1.7908  -1.7908  -1.6124  -1.6124  -1.2243  -1.2243  -1.2045  -1.2045
    -1.1368  -1.1368  -1.0600  -1.0600  -0.9629  -0.9629  -0.9126  -0.9126

     occupation numbers 
     1.0000   1.0000   1.0000   1.0000   1.0000   1.0000   1.0000   1.0000
     1.0000   1.0000   1.0000   1.0000   1.0000   1.0000   1.0000   1.0000
     1.0000   1.0000   1.0000   1.0000   1.0000   1.0000   1.0000   1.0000
     1.0000   1.0000   1.0000   1.0000   1.0000   1.0000   1.0000   1.0000
     1.0000   1.0000   1.0000   1.0000   1.0000   1.0000   1.0000   1.0000
     1.0000   1.0000   1.0000   1.0000   1.0000   1.0000   1.0000   1.0000
     1.0000   1.0000   1.0000   1.0000   1.0000   1.0000   1.0000   1.0000

          k = 0.0833 0.2500 0.2500 ( 36257 PWs)   bands (ev):

   -23.2749 -23.2749 -23.2749 -23.2749 -23.1424 -23.1424 -23.1424 -23.1424
   -22.2552 -22.2552 -22.2552 -22.2552 -22.1399 -22.1399 -22.1399 -22.1399
   -22.0862 -22.0862 -22.0862 -22.0862 -11.5978 -11.5978 -11.5416 -11.5416
   -11.4994 -11.4994 -11.4865 -11.4865  -7.0326  -7.0326  -6.9253  -6.9253
    -2.8236  -2.8236  -2.6496  -2.6496  -2.1000  -2.1000  -1.9426  -1.9426
    -1.8153  -1.8153  -1.5775  -1.5775  -1.2510  -1.2510  -1.1834  -1.1834
    -1.0538  -1.0538  -0.9653  -0.9653  -0.9004  -0.9004  -0.7165  -0.7165

     occupation numbers 
     1.0000   1.0000   1.0000   1.0000   1.0000   1.0000   1.0000   1.0000
     1.0000   1.0000   1.0000   1.0000   1.0000   1.0000   1.0000   1.0000
     1.0000   1.0000   1.0000   1.0000   1.0000   1.0000   1.0000   1.0000
     1.0000   1.0000   1.0000   1.0000   1.0000   1.0000   1.0000   1.0000
     1.0000   1.0000   1.0000   1.0000   1.0000   1.0000   1.0000   1.0000
     1.0000   1.0000   1.0000   1.0000   1.0000   1.0000   1.0000   1.0000
     1.0000   1.0000   1.0000   1.0000   1.0000   1.0000   1.0000   1.0000

          k = 0.0833 0.2500 0.4167 ( 36241 PWs)   bands (ev):

   -23.2749 -23.2749 -23.2749 -23.2749 -23.1424 -23.1424 -23.1424 -23.1424
   -22.2552 -22.2552 -22.2552 -22.2552 -22.1399 -22.1399 -22.1399 -22.1399
   -22.0862 -22.0862 -22.0862 -22.0862 -11.5803 -11.5803 -11.5573 -11.5573
   -11.4993 -11.4993 -11.4875 -11.4875  -7.0057  -7.0057  -6.9651  -6.9651
    -2.8362  -2.8362  -2.6535  -2.6535  -2.0661  -2.0661  -1.8881  -1.8881
    -1.8357  -1.8357  -1.5855  -1.5855  -1.2580  -1.2580  -1.1792  -1.1792
    -1.0692  -1.0692  -0.9812  -0.9812  -0.8938  -0.8938  -0.7158  -0.7158

     occupation numbers 
     1.0000   1.0000   1.0000   1.0000   1.0000   1.0000   1.0000   1.0000
     1.0000   1.0000   1.0000   1.0000   1.0000   1.0000   1.0000   1.0000
     1.0000   1.0000   1.0000   1.0000   1.0000   1.0000   1.0000   1.0000
     1.0000   1.0000   1.0000   1.0000   1.0000   1.0000   1.0000   1.0000
     1.0000   1.0000   1.0000   1.0000   1.0000   1.0000   1.0000   1.0000
     1.0000   1.0000   1.0000   1.0000   1.0000   1.0000   1.0000   1.0000
     1.0000   1.0000   1.0000   1.0000   1.0000   1.0000   1.0000   1.0000

          k = 0.0833 0.4167 0.4167 ( 36255 PWs)   bands (ev):

   -23.2749 -23.2749 -23.2749 -23.2749 -23.1424 -23.1424 -23.1424 -23.1424
   -22.2552 -22.2552 -22.2552 -22.2552 -22.1399 -22.1399 -22.1399 -22.1399
   -22.0862 -22.0862 -22.0862 -22.0862 -11.5615 -11.5615 -11.5483 -11.5483
   -11.5124 -11.5124 -11.5027 -11.5027  -6.9895  -6.9895  -6.9730  -6.9730
    -2.9034  -2.9034  -2.8265  -2.8265  -2.0210  -2.0210  -1.9110  -1.9110
    -1.7870  -1.7870  -1.5875  -1.5875  -1.2454  -1.2454  -1.1988  -1.1988
    -0.9698  -0.9698  -0.9365  -0.9365  -0.7196  -0.7196  -0.5767  -0.5767

     occupation numbers 
     1.0000   1.0000   1.0000   1.0000   1.0000   1.0000   1.0000   1.0000
     1.0000   1.0000   1.0000   1.0000   1.0000   1.0000   1.0000   1.0000
     1.0000   1.0000   1.0000   1.0000   1.0000   1.0000   1.0000   1.0000
     1.0000   1.0000   1.0000   1.0000   1.0000   1.0000   1.0000   1.0000
     1.0000   1.0000   1.0000   1.0000   1.0000   1.0000   1.0000   1.0000
     1.0000   1.0000   1.0000   1.0000   1.0000   1.0000   1.0000   1.0000
     1.0000   1.0000   1.0000   1.0000   1.0000   1.0000   1.0000   1.0000

          k = 0.2500 0.2500 0.2500 ( 36273 PWs)   bands (ev):

   -23.2749 -23.2749 -23.2749 -23.2749 -23.1424 -23.1424 -23.1424 -23.1424
   -22.2552 -22.2552 -22.2552 -22.2552 -22.1399 -22.1399 -22.1399 -22.1399
   -22.0862 -22.0862 -22.0862 -22.0862 -11.5893 -11.5893 -11.5415 -11.5415
   -11.5085 -11.5085 -11.4854 -11.4854  -7.0225  -7.0225  -6.9420  -6.9420
    -2.8819  -2.8819  -2.5367  -2.5367  -2.0973  -2.0973  -1.9282  -1.9282
    -1.8741  -1.8741  -1.6050  -1.6050  -1.2971  -1.2971  -1.2296  -1.2296
    -1.1229  -1.1229  -0.9348  -0.9348  -0.8797  -0.8797  -0.5899  -0.5899

     occupation numbers 
     1.0000   1.0000   1.0000   1.0000   1.0000   1.0000   1.0000   1.0000
     1.0000   1.0000   1.0000   1.0000   1.0000   1.0000   1.0000   1.0000
     1.0000   1.0000   1.0000   1.0000   1.0000   1.0000   1.0000   1.0000
     1.0000   1.0000   1.0000   1.0000   1.0000   1.0000   1.0000   1.0000
     1.0000   1.0000   1.0000   1.0000   1.0000   1.0000   1.0000   1.0000
     1.0000   1.0000   1.0000   1.0000   1.0000   1.0000   1.0000   1.0000
     1.0000   1.0000   1.0000   1.0000   1.0000   1.0000   1.0000   1.0000

          k = 0.2500 0.2500 0.4167 ( 36198 PWs)   bands (ev):

   -23.2749 -23.2749 -23.2749 -23.2749 -23.1424 -23.1424 -23.1424 -23.1424
   -22.2552 -22.2552 -22.2552 -22.2552 -22.1399 -22.1399 -22.1399 -22.1399
   -22.0862 -22.0862 -22.0862 -22.0862 -11.5781 -11.5781 -11.5487 -11.5487
   -11.5116 -11.5116 -11.4852 -11.4852  -7.0067  -7.0067  -6.9712  -6.9712
    -2.8997  -2.8997  -2.5221  -2.5221  -2.1181  -2.1181  -1.8888  -1.8888
    -1.8749  -1.8749  -1.5845  -1.5845  -1.3095  -1.3095  -1.2079  -1.2079
    -1.1224  -1.1224  -0.9292  -0.9292  -0.8695  -0.8695  -0.5794  -0.5794

     occupation numbers 
     1.0000   1.0000   1.0000   1.0000   1.0000   1.0000   1.0000   1.0000
     1.0000   1.0000   1.0000   1.0000   1.0000   1.0000   1.0000   1.0000
     1.0000   1.0000   1.0000   1.0000   1.0000   1.0000   1.0000   1.0000
     1.0000   1.0000   1.0000   1.0000   1.0000   1.0000   1.0000   1.0000
     1.0000   1.0000   1.0000   1.0000   1.0000   1.0000   1.0000   1.0000
     1.0000   1.0000   1.0000   1.0000   1.0000   1.0000   1.0000   1.0000
     1.0000   1.0000   1.0000   1.0000   1.0000   1.0000   1.0000   1.0000

          k = 0.2500 0.4167 0.4167 ( 36191 PWs)   bands (ev):

   -23.2749 -23.2749 -23.2749 -23.2749 -23.1424 -23.1424 -23.1424 -23.1424
   -22.2552 -22.2552 -22.2552 -22.2552 -22.1399 -22.1399 -22.1399 -22.1399
   -22.0862 -22.0862 -22.0862 -22.0862 -11.5685 -11.5685 -11.5542 -11.5542
   -11.5069 -11.5069 -11.4931 -11.4931  -7.0002  -7.0002  -6.9848  -6.9848
    -2.8252  -2.8252  -2.6486  -2.6486  -2.0809  -2.0809  -1.9415  -1.9415
    -1.8242  -1.8242  -1.5904  -1.5904  -1.2939  -1.2939  -1.2373  -1.2373
    -1.0310  -1.0310  -0.8996  -0.8996  -0.8334  -0.8334  -0.7234  -0.7234

     occupation numbers 
     1.0000   1.0000   1.0000   1.0000   1.0000   1.0000   1.0000   1.0000
     1.0000   1.0000   1.0000   1.0000   1.0000   1.0000   1.0000   1.0000
     1.0000   1.0000   1.0000   1.0000   1.0000   1.0000   1.0000   1.0000
     1.0000   1.0000   1.0000   1.0000   1.0000   1.0000   1.0000   1.0000
     1.0000   1.0000   1.0000   1.0000   1.0000   1.0000   1.0000   1.0000
     1.0000   1.0000   1.0000   1.0000   1.0000   1.0000   1.0000   1.0000
     1.0000   1.0000   1.0000   1.0000   1.0000   1.0000   1.0000   1.0000

          k = 0.4167 0.4167 0.4167 ( 36180 PWs)   bands (ev):

   -23.2749 -23.2749 -23.2749 -23.2749 -23.1424 -23.1424 -23.1424 -23.1424
   -22.2552 -22.2552 -22.2552 -22.2552 -22.1399 -22.1399 -22.1399 -22.1399
   -22.0862 -22.0862 -22.0862 -22.0862 -11.5702 -11.5702 -11.5645 -11.5645
   -11.4959 -11.4959 -11.4902 -11.4902  -7.0070  -7.0070  -7.0002  -7.0002
    -2.6459  -2.6459  -2.5236  -2.5236  -2.1167  -2.1167  -1.9832  -1.9832
    -1.8686  -1.8686  -1.6655  -1.6655  -1.3340  -1.3340  -1.2826  -1.2826
    -1.0950  -1.0950  -1.0127  -1.0127  -0.8118  -0.8118  -0.7970  -0.7970

     occupation numbers 
     1.0000   1.0000   1.0000   1.0000   1.0000   1.0000   1.0000   1.0000
     1.0000   1.0000   1.0000   1.0000   1.0000   1.0000   1.0000   1.0000
     1.0000   1.0000   1.0000   1.0000   1.0000   1.0000   1.0000   1.0000
     1.0000   1.0000   1.0000   1.0000   1.0000   1.0000   1.0000   1.0000
     1.0000   1.0000   1.0000   1.0000   1.0000   1.0000   1.0000   1.0000
     1.0000   1.0000   1.0000   1.0000   1.0000   1.0000   1.0000   1.0000
     1.0000   1.0000   1.0000   1.0000   1.0000   1.0000   1.0000   1.0000

          k = 0.0833 0.2500 0.0833 ( 36242 PWs)   bands (ev):

   -23.2749 -23.2749 -23.2749 -23.2749 -23.1424 -23.1424 -23.1424 -23.1424
   -22.2552 -22.2552 -22.2552 -22.2552 -22.1399 -22.1399 -22.1399 -22.1399
   -22.0862 -22.0862 -22.0861 -22.0861 -11.6084 -11.6084 -11.5332 -11.5332
   -11.4989 -11.4989 -11.4857 -11.4857  -7.0456  -7.0456  -6.8991  -6.8991
    -2.8081  -2.8081  -2.6446  -2.6446  -2.1571  -2.1571  -1.9728  -1.9728
    -1.8037  -1.8037  -1.5564  -1.5564  -1.2440  -1.2440  -1.1875  -1.1875
    -1.0401  -1.0401  -0.9575  -0.9575  -0.9030  -0.9030  -0.7164  -0.7164

     occupation numbers 
     1.0000   1.0000   1.0000   1.0000   1.0000   1.0000   1.0000   1.0000
     1.0000   1.0000   1.0000   1.0000   1.0000   1.0000   1.0000   1.0000
     1.0000   1.0000   1.0000   1.0000   1.0000   1.0000   1.0000   1.0000
     1.0000   1.0000   1.0000   1.0000   1.0000   1.0000   1.0000   1.0000
     1.0000   1.0000   1.0000   1.0000   1.0000   1.0000   1.0000   1.0000
     1.0000   1.0000   1.0000   1.0000   1.0000   1.0000   1.0000   1.0000
     1.0000   1.0000   1.0000   1.0000   1.0000   1.0000   1.0000   1.0000

          k = 0.0833 0.4167 0.0833 ( 36256 PWs)   bands (ev):

   -23.2749 -23.2749 -23.2749 -23.2749 -23.1424 -23.1424 -23.1424 -23.1424
   -22.2552 -22.2552 -22.2552 -22.2552 -22.1399 -22.1399 -22.1399 -22.1399
   -22.0862 -22.0862 -22.0862 -22.0862 -11.5795 -11.5795 -11.5481 -11.5481
   -11.5043 -11.5043 -11.4954 -11.4954  -6.9956  -6.9956  -6.9418  -6.9418
    -2.8608  -2.8608  -2.7939  -2.7939  -2.1019  -2.1019  -2.0141  -2.0141
    -1.7071  -1.7071  -1.6072  -1.6072  -1.2701  -1.2701  -1.2457  -1.2457
    -0.9984  -0.9984  -0.9498  -0.9498  -0.7256  -0.7256  -0.5976  -0.5976

     occupation numbers 
     1.0000   1.0000   1.0000   1.0000   1.0000   1.0000   1.0000   1.0000
     1.0000   1.0000   1.0000   1.0000   1.0000   1.0000   1.0000   1.0000
     1.0000   1.0000   1.0000   1.0000   1.0000   1.0000   1.0000   1.0000
     1.0000   1.0000   1.0000   1.0000   1.0000   1.0000   1.0000   1.0000
     1.0000   1.0000   1.0000   1.0000   1.0000   1.0000   1.0000   1.0000
     1.0000   1.0000   1.0000   1.0000   1.0000   1.0000   1.0000   1.0000
     1.0000   1.0000   1.0000   1.0000   1.0000   1.0000   1.0000   1.0000

          k = 0.2500 0.2500 0.0833 ( 36257 PWs)   bands (ev):

   -23.2749 -23.2749 -23.2749 -23.2749 -23.1424 -23.1424 -23.1424 -23.1424
   -22.2552 -22.2552 -22.2552 -22.2552 -22.1399 -22.1399 -22.1399 -22.1399
   -22.0862 -22.0862 -22.0862 -22.0862 -11.5974 -11.5974 -11.5379 -11.5379
   -11.5050 -11.5050 -11.4856 -11.4856  -7.0298  -7.0298  -6.9213  -6.9213
    -2.8603  -2.8603  -2.5529  -2.5529  -2.0865  -2.0865  -1.9815  -1.9815
    -1.8704  -1.8704  -1.5880  -1.5880  -1.2965  -1.2965  -1.2509  -1.2509
    -1.1229  -1.1229  -0.9341  -0.9341  -0.8992  -0.8992  -0.5991  -0.5991

     occupation numbers 
     1.0000   1.0000   1.0000   1.0000   1.0000   1.0000   1.0000   1.0000
     1.0000   1.0000   1.0000   1.0000   1.0000   1.0000   1.0000   1.0000
     1.0000   1.0000   1.0000   1.0000   1.0000   1.0000   1.0000   1.0000
     1.0000   1.0000   1.0000   1.0000   1.0000   1.0000   1.0000   1.0000
     1.0000   1.0000   1.0000   1.0000   1.0000   1.0000   1.0000   1.0000
     1.0000   1.0000   1.0000   1.0000   1.0000   1.0000   1.0000   1.0000
     1.0000   1.0000   1.0000   1.0000   1.0000   1.0000   1.0000   1.0000

          k = 0.2500 0.4167 0.0833 ( 36241 PWs)   bands (ev):

   -23.2749 -23.2749 -23.2749 -23.2749 -23.1424 -23.1424 -23.1424 -23.1424
   -22.2552 -22.2552 -22.2552 -22.2552 -22.1399 -22.1399 -22.1399 -22.1399
   -22.0862 -22.0862 -22.0862 -22.0862 -11.5781 -11.5781 -11.5555 -11.5555
   -11.5005 -11.5005 -11.4916 -11.4916  -6.9989  -6.9989  -6.9588  -6.9588
    -2.7912  -2.7912  -2.6407  -2.6407  -2.0665  -2.0665  -2.0084  -2.0084
    -1.7682  -1.7682  -1.6418  -1.6418  -1.3507  -1.3507  -1.3230  -1.3230
    -1.0351  -1.0351  -0.9336  -0.9336  -0.8592  -0.8592  -0.7095  -0.7095

     occupation numbers 
     1.0000   1.0000   1.0000   1.0000   1.0000   1.0000   1.0000   1.0000
     1.0000   1.0000   1.0000   1.0000   1.0000   1.0000   1.0000   1.0000
     1.0000   1.0000   1.0000   1.0000   1.0000   1.0000   1.0000   1.0000
     1.0000   1.0000   1.0000   1.0000   1.0000   1.0000   1.0000   1.0000
     1.0000   1.0000   1.0000   1.0000   1.0000   1.0000   1.0000   1.0000
     1.0000   1.0000   1.0000   1.0000   1.0000   1.0000   1.0000   1.0000
     1.0000   1.0000   1.0000   1.0000   1.0000   1.0000   1.0000   1.0000

          k = 0.4167 0.0833 0.2500 ( 36241 PWs)   bands (ev):

   -23.2749 -23.2749 -23.2749 -23.2749 -23.1424 -23.1424 -23.1424 -23.1424
   -22.2552 -22.2552 -22.2552 -22.2552 -22.1399 -22.1399 -22.1399 -22.1399
   -22.0862 -22.0862 -22.0862 -22.0862 -11.5723 -11.5723 -11.5467 -11.5467
   -11.5085 -11.5085 -11.4986 -11.4986  -6.9949  -6.9949  -6.9551  -6.9551
    -2.8842  -2.8842  -2.8113  -2.8113  -2.0497  -2.0497  -1.9616  -1.9616
    -1.7570  -1.7570  -1.5944  -1.5944  -1.2608  -1.2608  -1.2263  -1.2263
    -0.9999  -0.9999  -0.9283  -0.9283  -0.7264  -0.7264  -0.5901  -0.5901

     occupation numbers 
     1.0000   1.0000   1.0000   1.0000   1.0000   1.0000   1.0000   1.0000
     1.0000   1.0000   1.0000   1.0000   1.0000   1.0000   1.0000   1.0000
     1.0000   1.0000   1.0000   1.0000   1.0000   1.0000   1.0000   1.0000
     1.0000   1.0000   1.0000   1.0000   1.0000   1.0000   1.0000   1.0000
     1.0000   1.0000   1.0000   1.0000   1.0000   1.0000   1.0000   1.0000
     1.0000   1.0000   1.0000   1.0000   1.0000   1.0000   1.0000   1.0000
     1.0000   1.0000   1.0000   1.0000   1.0000   1.0000   1.0000   1.0000

          k = 0.4167 0.4167 0.0833 ( 36255 PWs)   bands (ev):

   -23.2749 -23.2749 -23.2749 -23.2749 -23.1424 -23.1424 -23.1424 -23.1424
   -22.2552 -22.2552 -22.2552 -22.2552 -22.1399 -22.1399 -22.1399 -22.1399
   -22.0862 -22.0862 -22.0862 -22.0862 -11.5735 -11.5735 -11.5654 -11.5654
   -11.4944 -11.4944 -11.4906 -11.4906  -6.9964  -6.9964  -6.9814  -6.9814
    -2.6361  -2.6361  -2.5426  -2.5426  -2.0241  -2.0241  -1.9619  -1.9619
    -1.8502  -1.8502  -1.7240  -1.7240  -1.4117  -1.4117  -1.4021  -1.4021
    -1.1229  -1.1229  -1.0284  -1.0284  -0.8418  -0.8418  -0.8176  -0.8176

     occupation numbers 
     1.0000   1.0000   1.0000   1.0000   1.0000   1.0000   1.0000   1.0000
     1.0000   1.0000   1.0000   1.0000   1.0000   1.0000   1.0000   1.0000
     1.0000   1.0000   1.0000   1.0000   1.0000   1.0000   1.0000   1.0000
     1.0000   1.0000   1.0000   1.0000   1.0000   1.0000   1.0000   1.0000
     1.0000   1.0000   1.0000   1.0000   1.0000   1.0000   1.0000   1.0000
     1.0000   1.0000   1.0000   1.0000   1.0000   1.0000   1.0000   1.0000
     1.0000   1.0000   1.0000   1.0000   1.0000   1.0000   1.0000   1.0000

          k = 0.2500 0.4167 0.2500 ( 36198 PWs)   bands (ev):

   -23.2749 -23.2749 -23.2749 -23.2749 -23.1424 -23.1424 -23.1424 -23.1424
   -22.2552 -22.2552 -22.2552 -22.2552 -22.1399 -22.1399 -22.1399 -22.1399
   -22.0862 -22.0862 -22.0862 -22.0862 -11.5737 -11.5737 -11.5546 -11.5546
   -11.5036 -11.5036 -11.4923 -11.4923  -7.0008  -7.0008  -6.9705  -6.9705
    -2.8098  -2.8098  -2.6448  -2.6448  -2.0674  -2.0674  -1.9631  -1.9631
    -1.8081  -1.8081  -1.6265  -1.6265  -1.3210  -1.3210  -1.2849  -1.2849
    -1.0289  -1.0289  -0.9173  -0.9173  -0.8472  -0.8472  -0.7150  -0.7150

     occupation numbers 
     1.0000   1.0000   1.0000   1.0000   1.0000   1.0000   1.0000   1.0000
     1.0000   1.0000   1.0000   1.0000   1.0000   1.0000   1.0000   1.0000
     1.0000   1.0000   1.0000   1.0000   1.0000   1.0000   1.0000   1.0000
     1.0000   1.0000   1.0000   1.0000   1.0000   1.0000   1.0000   1.0000
     1.0000   1.0000   1.0000   1.0000   1.0000   1.0000   1.0000   1.0000
     1.0000   1.0000   1.0000   1.0000   1.0000   1.0000   1.0000   1.0000
     1.0000   1.0000   1.0000   1.0000   1.0000   1.0000   1.0000   1.0000

          k = 0.4167 0.4167 0.2500 ( 36191 PWs)   bands (ev):

   -23.2749 -23.2749 -23.2749 -23.2749 -23.1424 -23.1424 -23.1424 -23.1424
   -22.2552 -22.2552 -22.2552 -22.2552 -22.1399 -22.1399 -22.1399 -22.1399
   -22.0862 -22.0862 -22.0862 -22.0862 -11.5719 -11.5719 -11.5649 -11.5649
   -11.4951 -11.4951 -11.4904 -11.4904  -7.0021  -7.0021  -6.9905  -6.9905
    -2.6415  -2.6415  -2.5327  -2.5327  -2.0710  -2.0710  -1.9637  -1.9637
    -1.8650  -1.8650  -1.7018  -1.7018  -1.3740  -1.3740  -1.3542  -1.3542
    -1.0999  -1.0999  -1.0101  -1.0101  -0.8276  -0.8276  -0.8109  -0.8109

     occupation numbers 
     1.0000   1.0000   1.0000   1.0000   1.0000   1.0000   1.0000   1.0000
     1.0000   1.0000   1.0000   1.0000   1.0000   1.0000   1.0000   1.0000
     1.0000   1.0000   1.0000   1.0000   1.0000   1.0000   1.0000   1.0000
     1.0000   1.0000   1.0000   1.0000   1.0000   1.0000   1.0000   1.0000
     1.0000   1.0000   1.0000   1.0000   1.0000   1.0000   1.0000   1.0000
     1.0000   1.0000   1.0000   1.0000   1.0000   1.0000   1.0000   1.0000
     1.0000   1.0000   1.0000   1.0000   1.0000   1.0000   1.0000   1.0000

     highest occupied level (ev):    -0.5767

!    total energy              =   -2370.94187174 Ry
     Harris-Foulkes estimate   =   -2370.94187169 Ry
     estimated scf accuracy    <       0.00000041 Ry

     total all-electron energy =    -81634.464078 Ry

     The total energy is the sum of the following terms:

     one-electron contribution =    -248.68384471 Ry
     hartree contribution      =     145.43432710 Ry
     xc contribution           =    -157.08942000 Ry
     ewald contribution        =    -190.25175950 Ry
     one-center paw contrib.   =   -1920.35117462 Ry
      -> PAW hartree energy AE =     107.22493018 Ry
      -> PAW hartree energy PS =    -106.44031501 Ry
      -> PAW xc energy AE      =    -324.23248597 Ry
      -> PAW xc energy PS      =      46.59270287 Ry
      -> total E_H with PAW    =     146.21894227 Ry
      -> total E_XC with PAW   =    -434.72920310 Ry

     convergence has been achieved in   7 iterations

     Forces acting on atoms (cartesian axes, Ry/au):

     atom    1 type  1   force =     0.00000000    0.00000000    0.00000000
     atom    2 type  1   force =     0.00000000    0.00000000    0.00000000
     atom    3 type  2   force =    -0.01799069   -0.01799069    0.00000000
     atom    4 type  2   force =     0.01799069    0.01799069    0.00000000
     atom    5 type  2   force =    -0.01799069    0.01799069    0.00000000
     atom    6 type  2   force =     0.01799069   -0.01799069    0.00000000
     The non-local contrib.  to forces
     atom    1 type  1   force =     0.00000000    0.00000000    0.00000000
     atom    2 type  1   force =     0.00000000    0.00000000    0.00000000
     atom    3 type  2   force =    -0.04128098   -0.04128098    0.00000000
     atom    4 type  2   force =     0.04128098    0.04128098    0.00000000
     atom    5 type  2   force =    -0.04128098    0.04128098    0.00000000
     atom    6 type  2   force =     0.04128098   -0.04128098    0.00000000
     The ionic contribution  to forces
     atom    1 type  1   force =    -0.00000000   -0.00000000   -0.00000000
     atom    2 type  1   force =     0.00000000    0.00000000    0.00000000
     atom    3 type  2   force =     1.38633657    1.38633657    0.00000000
     atom    4 type  2   force =    -1.38633657   -1.38633657    0.00000000
     atom    5 type  2   force =     1.38633657   -1.38633657    0.00000000
     atom    6 type  2   force =    -1.38633657    1.38633657    0.00000000
     The local contribution  to forces
     atom    1 type  1   force =     0.00000000    0.00000000    0.00000000
     atom    2 type  1   force =     0.00000000    0.00000000    0.00000000
     atom    3 type  2   force =    -1.36674614   -1.36674614    0.00000000
     atom    4 type  2   force =     1.36674614    1.36674614    0.00000000
     atom    5 type  2   force =    -1.36674614    1.36674614    0.00000000
     atom    6 type  2   force =     1.36674614   -1.36674614    0.00000000
     The core correction contribution to forces
     atom    1 type  1   force =     0.00000000    0.00000000    0.00000000
     atom    2 type  1   force =     0.00000000    0.00000000    0.00000000
     atom    3 type  2   force =     0.00390735    0.00390735    0.00000000
     atom    4 type  2   force =    -0.00390735   -0.00390735    0.00000000
     atom    5 type  2   force =     0.00390735   -0.00390735    0.00000000
     atom    6 type  2   force =    -0.00390735    0.00390735    0.00000000
     The Hubbard contrib.    to forces
     atom    1 type  1   force =     0.00000000    0.00000000    0.00000000
     atom    2 type  1   force =     0.00000000    0.00000000    0.00000000
     atom    3 type  2   force =     0.00000000    0.00000000    0.00000000
     atom    4 type  2   force =     0.00000000    0.00000000    0.00000000
     atom    5 type  2   force =     0.00000000    0.00000000    0.00000000
     atom    6 type  2   force =     0.00000000    0.00000000    0.00000000
     The SCF correction term to forces
     atom    1 type  1   force =     0.00000000    0.00000000    0.00000000
     atom    2 type  1   force =    -0.00000000    0.00000000   -0.00000000
     atom    3 type  2   force =    -0.00020749   -0.00020749    0.00000000
     atom    4 type  2   force =     0.00020749    0.00020749   -0.00000000
     atom    5 type  2   force =    -0.00020749    0.00020749   -0.00000000
     atom    6 type  2   force =     0.00020749   -0.00020749   -0.00000000

     Total force =     0.050885     Total SCF correction =     0.000587


     Computing stress (Cartesian axis) and pressure

     Message from routine stres:
     noncollinear stress + GGA not implemented

     Writing output data file SnI2.save/
 
     init_run     :     18.91s CPU     30.25s WALL (       1 calls)
     electrons    :    393.18s CPU    598.27s WALL (       1 calls)
     forces       :      4.49s CPU      6.25s WALL (       1 calls)

     Called by init_run:
     wfcinit      :     16.99s CPU     27.53s WALL (       1 calls)
     wfcinit:atom :      0.04s CPU      0.04s WALL (      18 calls)
     wfcinit:wfcr :     16.66s CPU     27.03s WALL (      18 calls)
     potinit      :      0.46s CPU      0.61s WALL (       1 calls)
     hinit0       :      0.48s CPU      0.76s WALL (       1 calls)

     Called by electrons:
     c_bands      :    304.73s CPU    459.69s WALL (       7 calls)
     sum_band     :     78.28s CPU    124.49s WALL (       7 calls)
     v_of_rho     :      0.50s CPU      0.68s WALL (       8 calls)
     v_h          :      0.02s CPU      0.03s WALL (       8 calls)
     v_xc         :      0.80s CPU      1.16s WALL (       9 calls)
     newd         :      6.25s CPU      8.56s WALL (       8 calls)
     PAW_pot      :      2.15s CPU      2.94s WALL (       8 calls)
     mix_rho      :      0.83s CPU      1.17s WALL (       7 calls)

     Called by c_bands:
     init_us_2    :      1.06s CPU      1.46s WALL (     288 calls)
     cegterg      :    291.11s CPU    444.85s WALL (     126 calls)

     Called by sum_band:
     sum_band:bec :      1.61s CPU      2.22s WALL (     126 calls)
     addusdens    :      4.58s CPU      5.96s WALL (       7 calls)

     Called by *egterg:
     h_psi        :    227.49s CPU    355.50s WALL (     521 calls)
     s_psi        :      3.94s CPU      4.52s WALL (     521 calls)
     g_psi        :      0.25s CPU      0.26s WALL (     377 calls)
     cdiaghg      :     18.02s CPU     28.01s WALL (     503 calls)
     cegterg:over :     21.02s CPU     28.33s WALL (     377 calls)
     cegterg:upda :     18.60s CPU     27.51s WALL (     377 calls)
     cegterg:last :      3.99s CPU      5.72s WALL (     126 calls)
     cdiaghg:chol :      1.10s CPU      1.70s WALL (     503 calls)
     cdiaghg:inve :      0.87s CPU      1.27s WALL (     503 calls)
     cdiaghg:para :      4.52s CPU      8.25s WALL (    1006 calls)

     Called by h_psi:
     h_psi:pot    :    226.37s CPU    354.29s WALL (     521 calls)
     h_psi:calbec :      4.23s CPU      4.85s WALL (     521 calls)
     vloc_psi     :    217.97s CPU    344.58s WALL (     521 calls)
     add_vuspsi   :      4.18s CPU      4.86s WALL (     521 calls)

     General routines
     calbec       :      7.31s CPU      8.91s WALL (     719 calls)
     fft          :      2.06s CPU      3.25s WALL (     176 calls)
     ffts         :      0.19s CPU      0.37s WALL (      60 calls)
     fftw         :    271.68s CPU    440.40s WALL (   92972 calls)
     interpolate  :      0.68s CPU      1.16s WALL (      32 calls)
 
     Parallel routines
     fft_scatt_xy :      7.93s CPU      9.78s WALL (   93208 calls)
     fft_scatt_yz :    227.22s CPU    383.20s WALL (   93208 calls)

     PAW routines
     PAW_pot      :      2.15s CPU      2.94s WALL (       8 calls)
     PAW_symme    :      0.07s CPU      0.09s WALL (      15 calls)
 
     PWSCF        :   7m 4.23s CPU  10m45.09s WALL

 
   This run was terminated on:  18:59:40  23Jan2021            

=------------------------------------------------------------------------------=
   JOB DONE.
=------------------------------------------------------------------------------=
