
     Program PWSCF v.6.7MaX starts on 14Jan2021 at 14: 5:26 

     This program is part of the open-source Quantum ESPRESSO suite
     for quantum simulation of materials; please cite
         "P. Giannozzi et al., J. Phys.:Condens. Matter 21 395502 (2009);
         "P. Giannozzi et al., J. Phys.:Condens. Matter 29 465901 (2017);
          URL http://www.quantum-espresso.org", 
     in publications or presentations arising from this work. More details at
     http://www.quantum-espresso.org/quote

     Parallel version (MPI), running on    19 processors

     MPI processes distributed on     1 nodes
     R & G space division:  proc/nbgrp/npool/nimage =      19
     Waiting for input...
     Reading input from standard input

     Current dimensions of program PWSCF are:
     Max number of different atomic species (ntypx) = 10
     Max number of k-points (npk) =  40000
     Max angular momentum in pseudopotentials (lmaxx) =  3
     file Sn.pbe-dn-kjpaw_psl.1.0.0.UPF: wavefunction(s)  5S 5P 4D renormalized
     file I.pbe-n-kjpaw_psl.1.0.0.UPF: wavefunction(s)  5S renormalized

     Subspace diagonalization in iterative solution of the eigenvalue problem:
     a serial algorithm will be used

     Message from routine setup:
     using ibrav=0 with symmetry is DISCOURAGED, use correct ibrav instead

     Parallelization info
     --------------------
     sticks:   dense  smooth     PW     G-vecs:    dense   smooth      PW
     Min         240     240     65                12242    12242    1743
     Max         241     241     66                12247    12247    1746
     Sum        4577    4577   1245               232653   232653   33131


     Title: 
     SnI4un                                                                     


     bravais-lattice index     =            0
     lattice parameter (alat)  =      12.6355  a.u.
     unit-cell volume          =    2017.3401 (a.u.)^3
     number of atoms/cell      =            5
     number of atomic types    =            2
     number of electrons       =        42.00
     number of Kohn-Sham states=           21
     kinetic-energy cutoff     =      90.0000  Ry
     charge density cutoff     =     360.0000  Ry
     scf convergence threshold =      1.0E-06
     mixing beta               =       0.5000
     number of iterations used =            8  plain     mixing
     energy convergence thresh.=      1.0E-04
     force convergence thresh. =      1.0E-04
     press convergence thresh. =      5.0E-01
     Exchange-correlation= SLA  PW   PBX  PBC
                           (   1   4   3   4   0   0   0)
     nstep                     =           50


     celldm(1)=  12.635518  celldm(2)=   0.000000  celldm(3)=   0.000000
     celldm(4)=   0.000000  celldm(5)=   0.000000  celldm(6)=   0.000000

     crystal axes: (cart. coord. in units of alat)
               a(1) = (   1.000000   0.000000   0.000000 )  
               a(2) = (   0.000000   1.000000   0.000000 )  
               a(3) = (   0.000000   0.000000   1.000000 )  

     reciprocal axes: (cart. coord. in units 2 pi/alat)
               b(1) = (  1.000000  0.000000  0.000000 )  
               b(2) = (  0.000000  1.000000  0.000000 )  
               b(3) = (  0.000000  0.000000  1.000000 )  


     PseudoPot. # 1 for Sn read from file:
     ../../../pseudo/Sn.pbe-dn-kjpaw_psl.1.0.0.UPF
     MD5 check sum: 67f11dec737d427557dc41ea34975807
     Pseudo is Projector augmented-wave + core cor, Zval = 14.0
     Generated using &quot;atomic&quot; code by A. Dal Corso  v.6.3
     Shape of augmentation charge: PSQ
     Using radial grid of 1243 points,  6 beta functions with: 
                l(1) =   0
                l(2) =   0
                l(3) =   1
                l(4) =   1
                l(5) =   2
                l(6) =   2
     Q(r) pseudized with 0 coefficients 


     PseudoPot. # 2 for I  read from file:
     ../../../pseudo/I.pbe-n-kjpaw_psl.1.0.0.UPF
     MD5 check sum: cd3d296c3308a581e1559a0c8a554cb5
     Pseudo is Projector augmented-wave + core cor, Zval =  7.0
     Generated using &quot;atomic&quot; code by A. Dal Corso  v.6.3
     Shape of augmentation charge: PSQ
     Using radial grid of 1247 points,  6 beta functions with: 
                l(1) =   0
                l(2) =   0
                l(3) =   1
                l(4) =   1
                l(5) =   2
                l(6) =   2
     Q(r) pseudized with 0 coefficients 


     atomic species   valence    mass     pseudopotential
        Sn            14.00   118.70000     Sn( 1.00)
        I              7.00   126.90000     I ( 1.00)

     24 Sym. Ops. (no inversion) found


                                    s                        frac. trans.

      isym =  1     identity                                     

 cryst.   s( 1) = (     1          0          0      )
                  (     0          1          0      )
                  (     0          0          1      )

 cart.    s( 1) = (  1.0000000  0.0000000  0.0000000 )
                  (  0.0000000  1.0000000  0.0000000 )
                  (  0.0000000  0.0000000  1.0000000 )


      isym =  2     180 deg rotation - cart. axis [0,0,1]        

 cryst.   s( 2) = (    -1          0          0      )
                  (     0         -1          0      )
                  (     0          0          1      )

 cart.    s( 2) = ( -1.0000000  0.0000000  0.0000000 )
                  (  0.0000000 -1.0000000  0.0000000 )
                  (  0.0000000  0.0000000  1.0000000 )


      isym =  3     180 deg rotation - cart. axis [0,1,0]        

 cryst.   s( 3) = (    -1          0          0      )
                  (     0          1          0      )
                  (     0          0         -1      )

 cart.    s( 3) = ( -1.0000000  0.0000000  0.0000000 )
                  (  0.0000000  1.0000000  0.0000000 )
                  (  0.0000000  0.0000000 -1.0000000 )


      isym =  4     180 deg rotation - cart. axis [1,0,0]        

 cryst.   s( 4) = (     1          0          0      )
                  (     0         -1          0      )
                  (     0          0         -1      )

 cart.    s( 4) = (  1.0000000  0.0000000  0.0000000 )
                  (  0.0000000 -1.0000000  0.0000000 )
                  (  0.0000000  0.0000000 -1.0000000 )


      isym =  5     120 deg rotation - cart. axis [-1,-1,-1]     

 cryst.   s( 5) = (     0          0          1      )
                  (     1          0          0      )
                  (     0          1          0      )

 cart.    s( 5) = (  0.0000000  1.0000000  0.0000000 )
                  (  0.0000000  0.0000000  1.0000000 )
                  (  1.0000000  0.0000000  0.0000000 )


      isym =  6     120 deg rotation - cart. axis [-1,1,1]       

 cryst.   s( 6) = (     0          0         -1      )
                  (    -1          0          0      )
                  (     0          1          0      )

 cart.    s( 6) = (  0.0000000 -1.0000000  0.0000000 )
                  (  0.0000000  0.0000000  1.0000000 )
                  ( -1.0000000  0.0000000  0.0000000 )


      isym =  7     120 deg rotation - cart. axis [1,1,-1]       

 cryst.   s( 7) = (     0          0         -1      )
                  (     1          0          0      )
                  (     0         -1          0      )

 cart.    s( 7) = (  0.0000000  1.0000000  0.0000000 )
                  (  0.0000000  0.0000000 -1.0000000 )
                  ( -1.0000000  0.0000000  0.0000000 )


      isym =  8     120 deg rotation - cart. axis [1,-1,1]       

 cryst.   s( 8) = (     0          0          1      )
                  (    -1          0          0      )
                  (     0         -1          0      )

 cart.    s( 8) = (  0.0000000 -1.0000000  0.0000000 )
                  (  0.0000000  0.0000000 -1.0000000 )
                  (  1.0000000  0.0000000  0.0000000 )


      isym =  9     120 deg rotation - cart. axis [1,1,1]        

 cryst.   s( 9) = (     0          1          0      )
                  (     0          0          1      )
                  (     1          0          0      )

 cart.    s( 9) = (  0.0000000  0.0000000  1.0000000 )
                  (  1.0000000  0.0000000  0.0000000 )
                  (  0.0000000  1.0000000  0.0000000 )


      isym = 10     120 deg rotation - cart. axis [-1,1,-1]      

 cryst.   s(10) = (     0         -1          0      )
                  (     0          0         -1      )
                  (     1          0          0      )

 cart.    s(10) = (  0.0000000  0.0000000  1.0000000 )
                  ( -1.0000000  0.0000000  0.0000000 )
                  (  0.0000000 -1.0000000  0.0000000 )


      isym = 11     120 deg rotation - cart. axis [1,-1,-1]      

 cryst.   s(11) = (     0         -1          0      )
                  (     0          0          1      )
                  (    -1          0          0      )

 cart.    s(11) = (  0.0000000  0.0000000 -1.0000000 )
                  ( -1.0000000  0.0000000  0.0000000 )
                  (  0.0000000  1.0000000  0.0000000 )


      isym = 12     120 deg rotation - cart. axis [-1,-1,1]      

 cryst.   s(12) = (     0          1          0      )
                  (     0          0         -1      )
                  (    -1          0          0      )

 cart.    s(12) = (  0.0000000  0.0000000 -1.0000000 )
                  (  1.0000000  0.0000000  0.0000000 )
                  (  0.0000000 -1.0000000  0.0000000 )


      isym = 13     inv. 180 deg rotation - cart. axis [1,1,0]   

 cryst.   s(13) = (     0         -1          0      )
                  (    -1          0          0      )
                  (     0          0          1      )

 cart.    s(13) = (  0.0000000 -1.0000000  0.0000000 )
                  ( -1.0000000  0.0000000  0.0000000 )
                  (  0.0000000  0.0000000  1.0000000 )


      isym = 14     inv. 180 deg rotation - cart. axis [1,-1,0]  

 cryst.   s(14) = (     0          1          0      )
                  (     1          0          0      )
                  (     0          0          1      )

 cart.    s(14) = (  0.0000000  1.0000000  0.0000000 )
                  (  1.0000000  0.0000000  0.0000000 )
                  (  0.0000000  0.0000000  1.0000000 )


      isym = 15     inv.  90 deg rotation - cart. axis [0,0,-1]  

 cryst.   s(15) = (     0          1          0      )
                  (    -1          0          0      )
                  (     0          0         -1      )

 cart.    s(15) = (  0.0000000 -1.0000000  0.0000000 )
                  (  1.0000000  0.0000000  0.0000000 )
                  (  0.0000000  0.0000000 -1.0000000 )


      isym = 16     inv.  90 deg rotation - cart. axis [0,0,1]   

 cryst.   s(16) = (     0         -1          0      )
                  (     1          0          0      )
                  (     0          0         -1      )

 cart.    s(16) = (  0.0000000  1.0000000  0.0000000 )
                  ( -1.0000000  0.0000000  0.0000000 )
                  (  0.0000000  0.0000000 -1.0000000 )


      isym = 17     inv. 180 deg rotation - cart. axis [1,0,1]   

 cryst.   s(17) = (     0          0         -1      )
                  (     0          1          0      )
                  (    -1          0          0      )

 cart.    s(17) = (  0.0000000  0.0000000 -1.0000000 )
                  (  0.0000000  1.0000000  0.0000000 )
                  ( -1.0000000  0.0000000  0.0000000 )


      isym = 18     inv. 180 deg rotation - cart. axis [-1,0,1]  

 cryst.   s(18) = (     0          0          1      )
                  (     0          1          0      )
                  (     1          0          0      )

 cart.    s(18) = (  0.0000000  0.0000000  1.0000000 )
                  (  0.0000000  1.0000000  0.0000000 )
                  (  1.0000000  0.0000000  0.0000000 )


      isym = 19     inv.  90 deg rotation - cart. axis [0,1,0]   

 cryst.   s(19) = (     0          0          1      )
                  (     0         -1          0      )
                  (    -1          0          0      )

 cart.    s(19) = (  0.0000000  0.0000000 -1.0000000 )
                  (  0.0000000 -1.0000000  0.0000000 )
                  (  1.0000000  0.0000000  0.0000000 )


      isym = 20     inv.  90 deg rotation - cart. axis [0,-1,0]  

 cryst.   s(20) = (     0          0         -1      )
                  (     0         -1          0      )
                  (     1          0          0      )

 cart.    s(20) = (  0.0000000  0.0000000  1.0000000 )
                  (  0.0000000 -1.0000000  0.0000000 )
                  ( -1.0000000  0.0000000  0.0000000 )


      isym = 21     inv. 180 deg rotation - cart. axis [0,1,1]   

 cryst.   s(21) = (     1          0          0      )
                  (     0          0         -1      )
                  (     0         -1          0      )

 cart.    s(21) = (  1.0000000  0.0000000  0.0000000 )
                  (  0.0000000  0.0000000 -1.0000000 )
                  (  0.0000000 -1.0000000  0.0000000 )


      isym = 22     inv. 180 deg rotation - cart. axis [0,1,-1]  

 cryst.   s(22) = (     1          0          0      )
                  (     0          0          1      )
                  (     0          1          0      )

 cart.    s(22) = (  1.0000000  0.0000000  0.0000000 )
                  (  0.0000000  0.0000000  1.0000000 )
                  (  0.0000000  1.0000000  0.0000000 )


      isym = 23     inv.  90 deg rotation - cart. axis [-1,0,0]  

 cryst.   s(23) = (    -1          0          0      )
                  (     0          0          1      )
                  (     0         -1          0      )

 cart.    s(23) = ( -1.0000000  0.0000000  0.0000000 )
                  (  0.0000000  0.0000000 -1.0000000 )
                  (  0.0000000  1.0000000  0.0000000 )


      isym = 24     inv.  90 deg rotation - cart. axis [1,0,0]   

 cryst.   s(24) = (    -1          0          0      )
                  (     0          0         -1      )
                  (     0          1          0      )

 cart.    s(24) = ( -1.0000000  0.0000000  0.0000000 )
                  (  0.0000000  0.0000000  1.0000000 )
                  (  0.0000000 -1.0000000  0.0000000 )


   Cartesian axes

     site n.     atom                  positions (alat units)
         1           Sn  tau(   1) = (   0.0000000   0.0000000   0.0000000  )
         2           I   tau(   2) = (   0.2339030   0.7660970   0.7660970  )
         3           I   tau(   3) = (   0.7660970   0.2339030   0.7660970  )
         4           I   tau(   4) = (   0.7660970   0.7660970   0.2339030  )
         5           I   tau(   5) = (   0.2339030   0.2339030   0.2339030  )

   Crystallographic axes

     site n.     atom                  positions (cryst. coord.)
         1           Sn  tau(   1) = (  0.0000000  0.0000000  0.0000000  )
         2           I   tau(   2) = (  0.2339030  0.7660970  0.7660970  )
         3           I   tau(   3) = (  0.7660970  0.2339030  0.7660970  )
         4           I   tau(   4) = (  0.7660970  0.7660970  0.2339030  )
         5           I   tau(   5) = (  0.2339030  0.2339030  0.2339030  )

     number of k points=     4
                       cart. coord. in units 2pi/alat
        k(    1) = (   0.0000000   0.0000000   0.0000000), wk =   0.2500000
        k(    2) = (   0.0000000   0.0000000  -0.5000000), wk =   0.7500000
        k(    3) = (   0.0000000  -0.5000000  -0.5000000), wk =   0.7500000
        k(    4) = (  -0.5000000  -0.5000000  -0.5000000), wk =   0.2500000

                       cryst. coord.
        k(    1) = (   0.0000000   0.0000000   0.0000000), wk =   0.2500000
        k(    2) = (   0.0000000   0.0000000  -0.5000000), wk =   0.7500000
        k(    3) = (   0.0000000  -0.5000000  -0.5000000), wk =   0.7500000
        k(    4) = (  -0.5000000  -0.5000000  -0.5000000), wk =   0.2500000

     Dense  grid:   232653 G-vectors     FFT dimensions: (  80,  80,  80)

     Dynamical RAM for                 wfc:       0.49 MB

     Dynamical RAM for     wfc (w. buffer):       2.45 MB

     Dynamical RAM for           str. fact:       0.37 MB

     Dynamical RAM for           local pot:       0.00 MB

     Dynamical RAM for          nlocal pot:       2.10 MB

     Dynamical RAM for                qrad:       6.09 MB

     Dynamical RAM for          rho,v,vnew:       1.29 MB

     Dynamical RAM for               rhoin:       0.43 MB

     Dynamical RAM for            rho*nmix:       2.99 MB

     Dynamical RAM for           G-vectors:       0.79 MB

     Dynamical RAM for          h,s,v(r/c):       0.08 MB

     Dynamical RAM for          <psi|beta>:       0.03 MB

     Dynamical RAM for                 psi:       0.98 MB

     Dynamical RAM for                hpsi:       0.98 MB

     Dynamical RAM for                spsi:       0.98 MB

     Dynamical RAM for      wfcinit/wfcrot:       1.18 MB

     Dynamical RAM for           addusdens:      35.51 MB

     Dynamical RAM for          addusforce:      36.74 MB

     Dynamical RAM for         addusstress:      37.56 MB

     Estimated static dynamical RAM per process >      18.31 MB

     Estimated max dynamical RAM per process >      55.87 MB

     Estimated total dynamical RAM >       1.04 GB

     Initial potential from superposition of free atoms

     starting charge   41.99831, renormalised to   42.00000
     Starting wfcs are   25 randomized atomic wfcs
     Checking if some PAW data can be deallocated... 
       PAW data deallocated on   15 nodes for type:  1
       PAW data deallocated on    4 nodes for type:  2

     total cpu time spent up to now is        5.1 secs

     Self-consistent Calculation

     iteration #  1     ecut=    90.00 Ry     beta= 0.50
     Davidson diagonalization with overlap
     ethr =  1.00E-02,  avg # of iterations =  1.5

     Threshold (ethr) on eigenvalues was too large:
     Diagonalizing with lowered threshold

     Davidson diagonalization with overlap
     ethr =  3.55E-04,  avg # of iterations =  2.0

     total cpu time spent up to now is        8.3 secs

     total energy              =   -1957.80786000 Ry
     estimated scf accuracy    <       0.12349506 Ry

     iteration #  2     ecut=    90.00 Ry     beta= 0.50
     Davidson diagonalization with overlap
     ethr =  2.94E-04,  avg # of iterations =  4.0

     total cpu time spent up to now is       10.4 secs

     total energy              =   -1957.83383003 Ry
     estimated scf accuracy    <       0.03880306 Ry

     iteration #  3     ecut=    90.00 Ry     beta= 0.50
     Davidson diagonalization with overlap
     ethr =  9.24E-05,  avg # of iterations =  2.0

     total cpu time spent up to now is       12.2 secs

     total energy              =   -1957.84035135 Ry
     estimated scf accuracy    <       0.00235428 Ry

     iteration #  4     ecut=    90.00 Ry     beta= 0.50
     Davidson diagonalization with overlap
     ethr =  5.61E-06,  avg # of iterations =  4.2

     total cpu time spent up to now is       14.1 secs

     total energy              =   -1957.84052130 Ry
     estimated scf accuracy    <       0.00062510 Ry

     iteration #  5     ecut=    90.00 Ry     beta= 0.50
     Davidson diagonalization with overlap
     ethr =  1.49E-06,  avg # of iterations =  3.2

     total cpu time spent up to now is       16.0 secs

     total energy              =   -1957.84065592 Ry
     estimated scf accuracy    <       0.00001749 Ry

     iteration #  6     ecut=    90.00 Ry     beta= 0.50
     Davidson diagonalization with overlap
     ethr =  4.16E-08,  avg # of iterations =  4.8

     total cpu time spent up to now is       18.2 secs

     total energy              =   -1957.84065973 Ry
     estimated scf accuracy    <       0.00000915 Ry

     iteration #  7     ecut=    90.00 Ry     beta= 0.50
     Davidson diagonalization with overlap
     ethr =  2.18E-08,  avg # of iterations =  2.8

     total cpu time spent up to now is       20.2 secs

     End of self-consistent calculation

          k = 0.0000 0.0000 0.0000 ( 28991 PWs)   bands (ev):

   -21.3153 -21.3153 -21.3153 -21.2598 -21.2598 -11.8467 -11.1146 -11.1146
   -11.1146  -6.2836  -2.4192  -2.4192  -2.4192  -1.3472  -1.3472  -0.4654
    -0.4654  -0.4654  -0.2541  -0.2541  -0.2541

     occupation numbers 
     1.0000   1.0000   1.0000   1.0000   1.0000   1.0000   1.0000   1.0000
     1.0000   1.0000   1.0000   1.0000   1.0000   1.0000   1.0000   1.0000
     1.0000   1.0000   1.0000   1.0000   1.0000

          k = 0.0000 0.0000-0.5000 ( 29078 PWs)   bands (ev):

   -21.3153 -21.3153 -21.3153 -21.2598 -21.2598 -11.7914 -11.1896 -11.1129
   -11.1129  -6.2239  -2.5730  -2.4501  -2.4501  -1.1147  -0.9345  -0.8753
    -0.7778  -0.4826  -0.4826  -0.2849  -0.2849

     occupation numbers 
     1.0000   1.0000   1.0000   1.0000   1.0000   1.0000   1.0000   1.0000
     1.0000   1.0000   1.0000   1.0000   1.0000   1.0000   1.0000   1.0000
     1.0000   1.0000   1.0000   1.0000   1.0000

          k = 0.0000-0.5000-0.5000 ( 29116 PWs)   bands (ev):

   -21.3154 -21.3154 -21.3154 -21.2598 -21.2598 -11.7508 -11.1638 -11.1638
   -11.1354  -6.2186  -2.7068  -2.4632  -2.4632  -1.0508  -1.0508  -0.9065
    -0.6810  -0.4082  -0.4082  -0.3775  -0.1148

     occupation numbers 
     1.0000   1.0000   1.0000   1.0000   1.0000   1.0000   1.0000   1.0000
     1.0000   1.0000   1.0000   1.0000   1.0000   1.0000   1.0000   1.0000
     1.0000   1.0000   1.0000   1.0000   1.0000

          k =-0.5000-0.5000-0.5000 ( 29080 PWs)   bands (ev):

   -21.3154 -21.3154 -21.3154 -21.2598 -21.2598 -11.7255 -11.1616 -11.1616
   -11.1616  -6.2717  -2.6258  -2.6258  -2.6258  -0.9792  -0.9792  -0.9792
    -0.3260  -0.3260  -0.1627  -0.1627  -0.1627

     occupation numbers 
     1.0000   1.0000   1.0000   1.0000   1.0000   1.0000   1.0000   1.0000
     1.0000   1.0000   1.0000   1.0000   1.0000   1.0000   1.0000   1.0000
     1.0000   1.0000   1.0000   1.0000   1.0000

     highest occupied level (ev):    -0.1148

!    total energy              =   -1957.84066188 Ry

     total all-electron energy =    -69286.458223 Ry
     estimated scf accuracy    <       0.00000025 Ry

     The total energy is the sum of the following terms:
     one-electron contribution =    -155.27578648 Ry
     hartree contribution      =      94.73295769 Ry
     xc contribution           =    -110.99100041 Ry
     ewald contribution        =    -119.43299796 Ry
     one-center paw contrib.   =   -1666.87383471 Ry
      -> PAW hartree energy AE =     109.59988306 Ry
      -> PAW hartree energy PS =    -108.85533552 Ry
      -> PAW xc energy AE      =    -329.04066030 Ry
      -> PAW xc energy PS      =      47.34339118 Ry
      -> total E_H with PAW    =      95.47750523 Ry
      -> total E_XC with PAW   =    -392.68826953 Ry

     convergence has been achieved in   7 iterations

     Forces acting on atoms (cartesian axes, Ry/au):

     atom    1 type  1   force =     0.00000000    0.00000000    0.00000000
     atom    2 type  2   force =    -0.00074393    0.00074393    0.00074393
     atom    3 type  2   force =     0.00074393   -0.00074393    0.00074393
     atom    4 type  2   force =     0.00074393    0.00074393   -0.00074393
     atom    5 type  2   force =    -0.00074393   -0.00074393   -0.00074393
     The non-local contrib.  to forces
     atom    1 type  1   force =     0.00000000    0.00000000    0.00000000
     atom    2 type  2   force =    -0.09096509    0.09096509    0.09096509
     atom    3 type  2   force =     0.09096509   -0.09096509    0.09096509
     atom    4 type  2   force =     0.09096509    0.09096509   -0.09096509
     atom    5 type  2   force =    -0.09096509   -0.09096509   -0.09096509
     The ionic contribution  to forces
     atom    1 type  1   force =    -0.00000000   -0.00000000   -0.00000000
     atom    2 type  2   force =     3.79412130   -3.79412130   -3.79412130
     atom    3 type  2   force =    -3.79412130    3.79412130   -3.79412130
     atom    4 type  2   force =    -3.79412130   -3.79412130    3.79412130
     atom    5 type  2   force =     3.79412130    3.79412130    3.79412130
     The local contribution  to forces
     atom    1 type  1   force =     0.00000000    0.00000000    0.00000000
     atom    2 type  2   force =    -3.71524947    3.71524947    3.71524947
     atom    3 type  2   force =     3.71524947   -3.71524947    3.71524947
     atom    4 type  2   force =     3.71524947    3.71524947   -3.71524947
     atom    5 type  2   force =    -3.71524947   -3.71524947   -3.71524947
     The core correction contribution to forces
     atom    1 type  1   force =     0.00000000    0.00000000   -0.00000000
     atom    2 type  2   force =     0.01142316   -0.01142316   -0.01142316
     atom    3 type  2   force =    -0.01142316    0.01142316   -0.01142316
     atom    4 type  2   force =    -0.01142316   -0.01142316    0.01142316
     atom    5 type  2   force =     0.01142316    0.01142316    0.01142316
     The Hubbard contrib.    to forces
     atom    1 type  1   force =     0.00000000    0.00000000    0.00000000
     atom    2 type  2   force =     0.00000000    0.00000000    0.00000000
     atom    3 type  2   force =     0.00000000    0.00000000    0.00000000
     atom    4 type  2   force =     0.00000000    0.00000000    0.00000000
     atom    5 type  2   force =     0.00000000    0.00000000    0.00000000
     The SCF correction term to forces
     atom    1 type  1   force =    -0.00000000   -0.00000000    0.00000000
     atom    2 type  2   force =    -0.00007383    0.00007383    0.00007383
     atom    3 type  2   force =     0.00007383   -0.00007383    0.00007383
     atom    4 type  2   force =     0.00007383    0.00007383   -0.00007383
     atom    5 type  2   force =    -0.00007383   -0.00007383   -0.00007383

     Total force =     0.002577     Total SCF correction =     0.000256


     Computing stress (Cartesian axis) and pressure

          total   stress  (Ry/bohr**3)                   (kbar)     P=        0.73
   0.00000495   0.00000000   0.00000000            0.73        0.00        0.00
   0.00000000   0.00000495   0.00000000            0.00        0.73        0.00
   0.00000000   0.00000000   0.00000495            0.00        0.00        0.73

     kinetic stress (kbar)   4002.72      0.00      0.00
                                0.00   4002.72      0.00
                                0.00      0.00   4002.72

     local   stress (kbar)  -2878.12      0.00     -0.00
                                0.00  -2878.12     -0.00
                               -0.00     -0.00  -2878.12

     nonloc. stress (kbar)    795.42      0.00      0.00
                                0.00    795.42      0.00
                                0.00      0.00    795.42

     hartree stress (kbar)   2302.65     -0.00      0.00
                               -0.00   2302.65      0.00
                                0.00      0.00   2302.65

     exc-cor stress (kbar)   4100.16     -0.00      0.00
                               -0.00   4100.16      0.00
                                0.00      0.00   4100.16

     corecor stress (kbar)  -5419.08      0.00      0.00
                                0.00  -5419.08     -0.00
                               -0.00     -0.00  -5419.08

     ewald   stress (kbar)  -2903.03     -0.00     -0.00
                               -0.00  -2903.03     -0.00
                               -0.00     -0.00  -2903.03

     hubbard stress (kbar)      0.00      0.00      0.00
                                0.00      0.00      0.00
                                0.00      0.00      0.00

     DFT-D   stress (kbar)      0.00      0.00      0.00
                                0.00      0.00      0.00
                                0.00      0.00      0.00

     XDM     stress (kbar)      0.00      0.00      0.00
                                0.00      0.00      0.00
                                0.00      0.00      0.00

     dft-nl  stress (kbar)      0.00      0.00      0.00
                                0.00      0.00      0.00
                                0.00      0.00      0.00

     TS-vdW  stress (kbar)      0.00      0.00      0.00
                                0.00      0.00      0.00
                                0.00      0.00      0.00



     BFGS Geometry Optimization
     Energy error            =      0.0E+00
     Gradient error          =      7.4E-04
     Cell gradient error     =      5.0E-06


     number of scf cycles    =   1
     number of bfgs steps    =   0

     enthalpy new            =   -1957.8406618756 Ry

     new trust radius        =       0.0012885206 bohr
     new conv_thr            =       0.0000010000 Ry

     new unit-cell volume =   2018.08950 a.u.^3 (   299.05001 Ang^3 )
     density =      3.47766 g/cm^3

CELL_PARAMETERS (angstrom)
   6.687255871   0.000000000   0.000000000
   0.000000000   6.687255871   0.000000000
   0.000000000   0.000000000   6.687255871

ATOMIC_POSITIONS (crystal)
Sn            0.0000000000        0.0000000000        0.0000000000
I             0.2338441241        0.7661558759        0.7661558759
I             0.7661558759        0.2338441241        0.7661558759
I             0.7661558759        0.7661558759        0.2338441241
I             0.2338441241        0.2338441241        0.2338441241



     Writing output data file ./out/SnI4un.save/
     NEW-OLD atomic charge density approx. for the potential
     extrapolated charge   42.01560, renormalised to   42.00000

     total cpu time spent up to now is       32.4 secs

     Self-consistent Calculation

     iteration #  1     ecut=    90.00 Ry     beta= 0.50
     Davidson diagonalization with overlap
     ethr =  1.00E-06,  avg # of iterations =  2.0

     Threshold (ethr) on eigenvalues was too large:
     Diagonalizing with lowered threshold

     Davidson diagonalization with overlap
     ethr =  5.74E-08,  avg # of iterations =  4.0

     total cpu time spent up to now is       35.7 secs

     total energy              =   -1957.84063458 Ry
     estimated scf accuracy    <       0.00003292 Ry

     iteration #  2     ecut=    90.00 Ry     beta= 0.50
     Davidson diagonalization with overlap
     ethr =  7.84E-08,  avg # of iterations =  5.5

     total cpu time spent up to now is       38.2 secs

     total energy              =   -1957.84067215 Ry
     estimated scf accuracy    <       0.00009479 Ry

     iteration #  3     ecut=    90.00 Ry     beta= 0.50
     Davidson diagonalization with overlap
     ethr =  7.84E-08,  avg # of iterations =  2.0

     total cpu time spent up to now is       40.1 secs

     total energy              =   -1957.84067311 Ry
     estimated scf accuracy    <       0.00001921 Ry

     iteration #  4     ecut=    90.00 Ry     beta= 0.50
     Davidson diagonalization with overlap
     ethr =  4.57E-08,  avg # of iterations =  2.0

     total cpu time spent up to now is       41.9 secs

     total energy              =   -1957.84067396 Ry
     estimated scf accuracy    <       0.00000453 Ry

     iteration #  5     ecut=    90.00 Ry     beta= 0.50
     Davidson diagonalization with overlap
     ethr =  1.08E-08,  avg # of iterations =  4.0

     total cpu time spent up to now is       43.8 secs

     End of self-consistent calculation

          k = 0.0000 0.0000 0.0000 ( 28991 PWs)   bands (ev):

   -21.3267 -21.3267 -21.3267 -21.2711 -21.2711 -11.8513 -11.1183 -11.1183
   -11.1183  -6.2886  -2.4239  -2.4239  -2.4239  -1.3497  -1.3497  -0.4683
    -0.4683  -0.4683  -0.2579  -0.2579  -0.2579

     occupation numbers 
     1.0000   1.0000   1.0000   1.0000   1.0000   1.0000   1.0000   1.0000
     1.0000   1.0000   1.0000   1.0000   1.0000   1.0000   1.0000   1.0000
     1.0000   1.0000   1.0000   1.0000   1.0000

          k = 0.0000 0.0000-0.4999 ( 29078 PWs)   bands (ev):

   -21.3267 -21.3267 -21.3267 -21.2711 -21.2711 -11.7962 -11.1932 -11.1167
   -11.1167  -6.2290  -2.5772  -2.4548  -2.4548  -1.1178  -0.9374  -0.8782
    -0.7801  -0.4859  -0.4859  -0.2880  -0.2880

     occupation numbers 
     1.0000   1.0000   1.0000   1.0000   1.0000   1.0000   1.0000   1.0000
     1.0000   1.0000   1.0000   1.0000   1.0000   1.0000   1.0000   1.0000
     1.0000   1.0000   1.0000   1.0000   1.0000

          k = 0.0000-0.4999-0.4999 ( 29116 PWs)   bands (ev):

   -21.3267 -21.3267 -21.3267 -21.2711 -21.2711 -11.7557 -11.1675 -11.1675
   -11.1391  -6.2237  -2.7109  -2.4678  -2.4678  -1.0535  -1.0535  -0.9096
    -0.6838  -0.4112  -0.4112  -0.3813  -0.1179

     occupation numbers 
     1.0000   1.0000   1.0000   1.0000   1.0000   1.0000   1.0000   1.0000
     1.0000   1.0000   1.0000   1.0000   1.0000   1.0000   1.0000   1.0000
     1.0000   1.0000   1.0000   1.0000   1.0000

          k =-0.4999-0.4999-0.4999 ( 29080 PWs)   bands (ev):

   -21.3267 -21.3267 -21.3267 -21.2711 -21.2711 -11.7304 -11.1653 -11.1653
   -11.1653  -6.2766  -2.6300  -2.6300  -2.6300  -0.9823  -0.9823  -0.9823
    -0.3298  -0.3298  -0.1660  -0.1660  -0.1660

     occupation numbers 
     1.0000   1.0000   1.0000   1.0000   1.0000   1.0000   1.0000   1.0000
     1.0000   1.0000   1.0000   1.0000   1.0000   1.0000   1.0000   1.0000
     1.0000   1.0000   1.0000   1.0000   1.0000

     highest occupied level (ev):    -0.1179

!    total energy              =   -1957.84067450 Ry

     total all-electron energy =    -69286.458236 Ry
     estimated scf accuracy    <       0.00000060 Ry

     The total energy is the sum of the following terms:
     one-electron contribution =    -155.37365439 Ry
     hartree contribution      =      94.78471177 Ry
     xc contribution           =    -110.99318202 Ry
     ewald contribution        =    -119.38433013 Ry
     one-center paw contrib.   =   -1666.87421972 Ry
      -> PAW hartree energy AE =     109.60497541 Ry
      -> PAW hartree energy PS =    -108.86010001 Ry
      -> PAW xc energy AE      =    -329.04227951 Ry
      -> PAW xc energy PS      =      47.34453265 Ry
      -> total E_H with PAW    =      95.52958717 Ry
      -> total E_XC with PAW   =    -392.69092888 Ry

     convergence has been achieved in   5 iterations

     Forces acting on atoms (cartesian axes, Ry/au):

     atom    1 type  1   force =     0.00000000    0.00000000    0.00000000
     atom    2 type  2   force =    -0.00069017    0.00069017    0.00069017
     atom    3 type  2   force =     0.00069017   -0.00069017    0.00069017
     atom    4 type  2   force =     0.00069017    0.00069017   -0.00069017
     atom    5 type  2   force =    -0.00069017   -0.00069017   -0.00069017
     The non-local contrib.  to forces
     atom    1 type  1   force =     0.00000000    0.00000000    0.00000000
     atom    2 type  2   force =    -0.09081548    0.09081548    0.09081548
     atom    3 type  2   force =     0.09081548   -0.09081548    0.09081548
     atom    4 type  2   force =     0.09081548    0.09081548   -0.09081548
     atom    5 type  2   force =    -0.09081548   -0.09081548   -0.09081548
     The ionic contribution  to forces
     atom    1 type  1   force =    -0.00000000   -0.00000000    0.00000000
     atom    2 type  2   force =     3.79672164   -3.79672164   -3.79672164
     atom    3 type  2   force =    -3.79672164    3.79672164   -3.79672164
     atom    4 type  2   force =    -3.79672164   -3.79672164    3.79672164
     atom    5 type  2   force =     3.79672164    3.79672164    3.79672164
     The local contribution  to forces
     atom    1 type  1   force =     0.00000000    0.00000000   -0.00000000
     atom    2 type  2   force =    -3.71833124    3.71833124    3.71833124
     atom    3 type  2   force =     3.71833124   -3.71833124    3.71833124
     atom    4 type  2   force =     3.71833124    3.71833124   -3.71833124
     atom    5 type  2   force =    -3.71833124   -3.71833124   -3.71833124
     The core correction contribution to forces
     atom    1 type  1   force =     0.00000000    0.00000000   -0.00000000
     atom    2 type  2   force =     0.01140766   -0.01140766   -0.01140766
     atom    3 type  2   force =    -0.01140766    0.01140766   -0.01140766
     atom    4 type  2   force =    -0.01140766   -0.01140766    0.01140766
     atom    5 type  2   force =     0.01140766    0.01140766    0.01140766
     The Hubbard contrib.    to forces
     atom    1 type  1   force =     0.00000000    0.00000000    0.00000000
     atom    2 type  2   force =     0.00000000    0.00000000    0.00000000
     atom    3 type  2   force =     0.00000000    0.00000000    0.00000000
     atom    4 type  2   force =     0.00000000    0.00000000    0.00000000
     atom    5 type  2   force =     0.00000000    0.00000000    0.00000000
     The SCF correction term to forces
     atom    1 type  1   force =    -0.00000000    0.00000000   -0.00000000
     atom    2 type  2   force =     0.00032725   -0.00032725   -0.00032725
     atom    3 type  2   force =    -0.00032725    0.00032725   -0.00032725
     atom    4 type  2   force =    -0.00032725   -0.00032725    0.00032725
     atom    5 type  2   force =     0.00032725    0.00032725    0.00032725

     Total force =     0.002391     Total SCF correction =     0.001134
     SCF correction compared to forces is large: reduce conv_thr to get better values


     Computing stress (Cartesian axis) and pressure

          total   stress  (Ry/bohr**3)                   (kbar)     P=        2.34
   0.00001589   0.00000000   0.00000000            2.34        0.00        0.00
   0.00000000   0.00001589   0.00000000            0.00        2.34        0.00
   0.00000000   0.00000000   0.00001589            0.00        0.00        2.34

     kinetic stress (kbar)   4001.37      0.00      0.00
                                0.00   4001.37      0.00
                                0.00      0.00   4001.37

     local   stress (kbar)  -2879.33      0.00     -0.00
                                0.00  -2879.33     -0.00
                               -0.00     -0.00  -2879.33

     nonloc. stress (kbar)    796.49      0.00      0.00
                                0.00    796.49      0.00
                                0.00      0.00    796.49

     hartree stress (kbar)   2303.05      0.00     -0.00
                                0.00   2303.05      0.00
                               -0.00      0.00   2303.05

     exc-cor stress (kbar)   4098.62      0.00      0.00
                                0.00   4098.62      0.00
                                0.00      0.00   4098.62

     corecor stress (kbar)  -5417.10     -0.00     -0.00
                               -0.00  -5417.10      0.00
                               -0.00      0.00  -5417.10

     ewald   stress (kbar)  -2900.77     -0.00      0.00
                               -0.00  -2900.77      0.00
                                0.00      0.00  -2900.77

     hubbard stress (kbar)      0.00      0.00      0.00
                                0.00      0.00      0.00
                                0.00      0.00      0.00

     DFT-D   stress (kbar)      0.00      0.00      0.00
                                0.00      0.00      0.00
                                0.00      0.00      0.00

     XDM     stress (kbar)      0.00      0.00      0.00
                                0.00      0.00      0.00
                                0.00      0.00      0.00

     dft-nl  stress (kbar)      0.00      0.00      0.00
                                0.00      0.00      0.00
                                0.00      0.00      0.00

     TS-vdW  stress (kbar)      0.00      0.00      0.00
                                0.00      0.00      0.00
                                0.00      0.00      0.00


     Energy error            =      1.3E-05
     Gradient error          =      6.9E-04
     Cell gradient error     =      1.6E-05


     number of scf cycles    =   2
     number of bfgs steps    =   1

     enthalpy old            =   -1957.8406618756 Ry
     enthalpy new            =   -1957.8406744958 Ry

     CASE: enthalpy_new < enthalpy_old


     WARNING: bfgs curvature condition failed, Theta= 0.458
     new trust radius        =       0.0007471367 bohr
     new conv_thr            =       0.0000000100 Ry

     new unit-cell volume =   2018.39962 a.u.^3 (   299.09597 Ang^3 )
     density =      3.47713 g/cm^3

CELL_PARAMETERS (angstrom)
   6.687598400   0.000000000   0.000000000
   0.000000000   6.687598400   0.000000000
   0.000000000   0.000000000   6.687598400

ATOMIC_POSITIONS (crystal)
Sn            0.0000000000        0.0000000000        0.0000000000
I             0.2338099897        0.7661900103        0.7661900103
I             0.7661900103        0.2338099897        0.7661900103
I             0.7661900103        0.7661900103        0.2338099897
I             0.2338099897        0.2338099897        0.2338099897



     Writing output data file ./out/SnI4un.save/
     NEW-OLD atomic charge density approx. for the potential
     extrapolated charge   42.00645, renormalised to   42.00000

     total cpu time spent up to now is       56.1 secs

     Self-consistent Calculation

     iteration #  1     ecut=    90.00 Ry     beta= 0.50
     Davidson diagonalization with overlap
     ethr =  1.00E-06,  avg # of iterations =  2.0

     Threshold (ethr) on eigenvalues was too large:
     Diagonalizing with lowered threshold

     Davidson diagonalization with overlap
     ethr =  2.57E-08,  avg # of iterations =  4.0

     total cpu time spent up to now is       59.3 secs

     total energy              =   -1957.84066890 Ry
     estimated scf accuracy    <       0.00001405 Ry

     iteration #  2     ecut=    90.00 Ry     beta= 0.50
     Davidson diagonalization with overlap
     ethr =  3.35E-08,  avg # of iterations =  5.0

     total cpu time spent up to now is       61.5 secs

     total energy              =   -1957.84067954 Ry
     estimated scf accuracy    <       0.00002016 Ry

     iteration #  3     ecut=    90.00 Ry     beta= 0.50
     Davidson diagonalization with overlap
     ethr =  3.35E-08,  avg # of iterations =  2.0

     total cpu time spent up to now is       63.3 secs

     total energy              =   -1957.84068034 Ry
     estimated scf accuracy    <       0.00000286 Ry

     iteration #  4     ecut=    90.00 Ry     beta= 0.50
     Davidson diagonalization with overlap
     ethr =  6.81E-09,  avg # of iterations =  4.0

     total cpu time spent up to now is       65.2 secs

     total energy              =   -1957.84068087 Ry
     estimated scf accuracy    <       0.00000021 Ry

     iteration #  5     ecut=    90.00 Ry     beta= 0.50
     Davidson diagonalization with overlap
     ethr =  5.07E-10,  avg # of iterations =  3.0

     total cpu time spent up to now is       67.0 secs

     total energy              =   -1957.84068092 Ry
     estimated scf accuracy    <       0.00000016 Ry

     iteration #  6     ecut=    90.00 Ry     beta= 0.50
     Davidson diagonalization with overlap
     ethr =  3.82E-10,  avg # of iterations =  1.0

     total cpu time spent up to now is       68.6 secs

     total energy              =   -1957.84068092 Ry
     estimated scf accuracy    <       0.00000018 Ry

     iteration #  7     ecut=    90.00 Ry     beta= 0.50
     Davidson diagonalization with overlap
     ethr =  3.82E-10,  avg # of iterations =  1.0

     total cpu time spent up to now is       70.2 secs

     total energy              =   -1957.84068091 Ry
     estimated scf accuracy    <       0.00000020 Ry

     iteration #  8     ecut=    90.00 Ry     beta= 0.50
     Davidson diagonalization with overlap
     ethr =  3.82E-10,  avg # of iterations =  2.5

     total cpu time spent up to now is       72.1 secs

     total energy              =   -1957.84068092 Ry
     estimated scf accuracy    <       0.00000003 Ry

     iteration #  9     ecut=    90.00 Ry     beta= 0.50
     Davidson diagonalization with overlap
     ethr =  6.65E-11,  avg # of iterations =  5.0

     total cpu time spent up to now is       74.4 secs

     total energy              =   -1957.84068095 Ry
     estimated scf accuracy    <       0.00000002 Ry

     iteration # 10     ecut=    90.00 Ry     beta= 0.50
     Davidson diagonalization with overlap
     ethr =  3.95E-11,  avg # of iterations =  1.0

     total cpu time spent up to now is       76.0 secs

     total energy              =   -1957.84068094 Ry
     estimated scf accuracy    <       0.00000001 Ry

     iteration # 11     ecut=    90.00 Ry     beta= 0.50
     Davidson diagonalization with overlap
     ethr =  3.02E-11,  avg # of iterations =  3.2

     total cpu time spent up to now is       77.9 secs

     End of self-consistent calculation

          k = 0.0000 0.0000 0.0000 ( 28991 PWs)   bands (ev):

   -21.3238 -21.3238 -21.3238 -21.2681 -21.2681 -11.8519 -11.1186 -11.1186
   -11.1186  -6.2886  -2.4245  -2.4245  -2.4245  -1.3501  -1.3501  -0.4687
    -0.4687  -0.4687  -0.2586  -0.2586  -0.2586

     occupation numbers 
     1.0000   1.0000   1.0000   1.0000   1.0000   1.0000   1.0000   1.0000
     1.0000   1.0000   1.0000   1.0000   1.0000   1.0000   1.0000   1.0000
     1.0000   1.0000   1.0000   1.0000   1.0000

          k = 0.0000 0.0000-0.4999 ( 29078 PWs)   bands (ev):

   -21.3238 -21.3238 -21.3238 -21.2681 -21.2681 -11.7969 -11.1934 -11.1170
   -11.1170  -6.2290  -2.5776  -2.4555  -2.4555  -1.1184  -0.9379  -0.8787
    -0.7803  -0.4864  -0.4864  -0.2884  -0.2884

     occupation numbers 
     1.0000   1.0000   1.0000   1.0000   1.0000   1.0000   1.0000   1.0000
     1.0000   1.0000   1.0000   1.0000   1.0000   1.0000   1.0000   1.0000
     1.0000   1.0000   1.0000   1.0000   1.0000

          k = 0.0000-0.4999-0.4999 ( 29116 PWs)   bands (ev):

   -21.3238 -21.3238 -21.3238 -21.2681 -21.2681 -11.7564 -11.1677 -11.1677
   -11.1393  -6.2237  -2.7113  -2.4685  -2.4685  -1.0538  -1.0538  -0.9102
    -0.6841  -0.4116  -0.4116  -0.3821  -0.1184

     occupation numbers 
     1.0000   1.0000   1.0000   1.0000   1.0000   1.0000   1.0000   1.0000
     1.0000   1.0000   1.0000   1.0000   1.0000   1.0000   1.0000   1.0000
     1.0000   1.0000   1.0000   1.0000   1.0000

          k =-0.4999-0.4999-0.4999 ( 29080 PWs)   bands (ev):

   -21.3238 -21.3238 -21.3238 -21.2681 -21.2681 -11.7311 -11.1655 -11.1655
   -11.1655  -6.2765  -2.6305  -2.6305  -2.6305  -0.9827  -0.9827  -0.9827
    -0.3306  -0.3306  -0.1665  -0.1665  -0.1665

     occupation numbers 
     1.0000   1.0000   1.0000   1.0000   1.0000   1.0000   1.0000   1.0000
     1.0000   1.0000   1.0000   1.0000   1.0000   1.0000   1.0000   1.0000
     1.0000   1.0000   1.0000   1.0000   1.0000

     highest occupied level (ev):    -0.1184

!    total energy              =   -1957.84068094 Ry

     total all-electron energy =    -69286.458242 Ry
     estimated scf accuracy    <          6.8E-09 Ry

     The total energy is the sum of the following terms:
     one-electron contribution =    -155.41537811 Ry
     hartree contribution      =      94.79995567 Ry
     xc contribution           =    -110.99256600 Ry
     ewald contribution        =    -119.35855810 Ry
     one-center paw contrib.   =   -1666.87413439 Ry
      -> PAW hartree energy AE =     109.61040860 Ry
      -> PAW hartree energy PS =    -108.86584390 Ry
      -> PAW xc energy AE      =    -329.04198832 Ry
      -> PAW xc energy PS      =      47.34452401 Ry
      -> total E_H with PAW    =      95.54452037 Ry
      -> total E_XC with PAW   =    -392.69003031 Ry

     convergence has been achieved in  11 iterations

     Forces acting on atoms (cartesian axes, Ry/au):

     atom    1 type  1   force =     0.00000000    0.00000000    0.00000000
     atom    2 type  2   force =    -0.00056033    0.00056033    0.00056033
     atom    3 type  2   force =     0.00056033   -0.00056033    0.00056033
     atom    4 type  2   force =     0.00056033    0.00056033   -0.00056033
     atom    5 type  2   force =    -0.00056033   -0.00056033   -0.00056033
     The non-local contrib.  to forces
     atom    1 type  1   force =     0.00000000    0.00000000    0.00000000
     atom    2 type  2   force =    -0.09099663    0.09099663    0.09099663
     atom    3 type  2   force =     0.09099663   -0.09099663    0.09099663
     atom    4 type  2   force =     0.09099663    0.09099663   -0.09099663
     atom    5 type  2   force =    -0.09099663   -0.09099663   -0.09099663
     The ionic contribution  to forces
     atom    1 type  1   force =    -0.00000000   -0.00000000   -0.00000000
     atom    2 type  2   force =     3.79838569   -3.79838569   -3.79838569
     atom    3 type  2   force =    -3.79838569    3.79838569   -3.79838569
     atom    4 type  2   force =    -3.79838569   -3.79838569    3.79838569
     atom    5 type  2   force =     3.79838569    3.79838569    3.79838569
     The local contribution  to forces
     atom    1 type  1   force =     0.00000000    0.00000000    0.00000000
     atom    2 type  2   force =    -3.71942055    3.71942055    3.71942055
     atom    3 type  2   force =     3.71942055   -3.71942055    3.71942055
     atom    4 type  2   force =     3.71942055    3.71942055   -3.71942055
     atom    5 type  2   force =    -3.71942055   -3.71942055   -3.71942055
     The core correction contribution to forces
     atom    1 type  1   force =     0.00000000    0.00000000    0.00000000
     atom    2 type  2   force =     0.01142339   -0.01142339   -0.01142339
     atom    3 type  2   force =    -0.01142339    0.01142339   -0.01142339
     atom    4 type  2   force =    -0.01142339   -0.01142339    0.01142339
     atom    5 type  2   force =     0.01142339    0.01142339    0.01142339
     The Hubbard contrib.    to forces
     atom    1 type  1   force =     0.00000000    0.00000000    0.00000000
     atom    2 type  2   force =     0.00000000    0.00000000    0.00000000
     atom    3 type  2   force =     0.00000000    0.00000000    0.00000000
     atom    4 type  2   force =     0.00000000    0.00000000    0.00000000
     atom    5 type  2   force =     0.00000000    0.00000000    0.00000000
     The SCF correction term to forces
     atom    1 type  1   force =     0.00000000    0.00000000   -0.00000000
     atom    2 type  2   force =     0.00004778   -0.00004778   -0.00004778
     atom    3 type  2   force =    -0.00004778    0.00004778   -0.00004778
     atom    4 type  2   force =    -0.00004778   -0.00004778    0.00004778
     atom    5 type  2   force =     0.00004778    0.00004778    0.00004778

     Total force =     0.001941     Total SCF correction =     0.000166


     Computing stress (Cartesian axis) and pressure

          total   stress  (Ry/bohr**3)                   (kbar)     P=        1.53
   0.00001042   0.00000000   0.00000000            1.53        0.00        0.00
   0.00000000   0.00001042   0.00000000            0.00        1.53        0.00
   0.00000000   0.00000000   0.00001042            0.00        0.00        1.53

     kinetic stress (kbar)   4000.71      0.00      0.00
                                0.00   4000.71      0.00
                                0.00      0.00   4000.71

     local   stress (kbar)  -2879.96      0.00     -0.00
                                0.00  -2879.96     -0.00
                               -0.00     -0.00  -2879.96

     nonloc. stress (kbar)    795.67      0.00      0.00
                                0.00    795.67      0.00
                                0.00      0.00    795.67

     hartree stress (kbar)   2303.07      0.00      0.00
                                0.00   2303.07      0.00
                                0.00      0.00   2303.07

     exc-cor stress (kbar)   4097.99     -0.00     -0.00
                               -0.00   4097.99      0.00
                               -0.00      0.00   4097.99

     corecor stress (kbar)  -5416.25     -0.00      0.00
                               -0.00  -5416.25      0.00
                                0.00      0.00  -5416.25

     ewald   stress (kbar)  -2899.70     -0.00      0.00
                               -0.00  -2899.70      0.00
                                0.00      0.00  -2899.70

     hubbard stress (kbar)      0.00      0.00      0.00
                                0.00      0.00      0.00
                                0.00      0.00      0.00

     DFT-D   stress (kbar)      0.00      0.00      0.00
                                0.00      0.00      0.00
                                0.00      0.00      0.00

     XDM     stress (kbar)      0.00      0.00      0.00
                                0.00      0.00      0.00
                                0.00      0.00      0.00

     dft-nl  stress (kbar)      0.00      0.00      0.00
                                0.00      0.00      0.00
                                0.00      0.00      0.00

     TS-vdW  stress (kbar)      0.00      0.00      0.00
                                0.00      0.00      0.00
                                0.00      0.00      0.00


     Energy error            =      6.4E-06
     Gradient error          =      5.6E-04
     Cell gradient error     =      1.0E-05


     number of scf cycles    =   3
     number of bfgs steps    =   2

     enthalpy old            =   -1957.8406744958 Ry
     enthalpy new            =   -1957.8406809400 Ry

     CASE: enthalpy_new < enthalpy_old

     new trust radius        =       0.0008218925 bohr
     new conv_thr            =       0.0000000100 Ry

     new unit-cell volume =   2018.57901 a.u.^3 (   299.12255 Ang^3 )
     density =      3.47682 g/cm^3

CELL_PARAMETERS (angstrom)
   6.687796513   0.000000000   0.000000000
   0.000000000   6.687796513   0.000000000
   0.000000000   0.000000000   6.687796513

ATOMIC_POSITIONS (crystal)
Sn            0.0000000000        0.0000000000        0.0000000000
I             0.2337724418        0.7662275582        0.7662275582
I             0.7662275582        0.2337724418        0.7662275582
I             0.7662275582        0.7662275582        0.2337724418
I             0.2337724418        0.2337724418        0.2337724418



     Writing output data file ./out/SnI4un.save/
     NEW-OLD atomic charge density approx. for the potential
     extrapolated charge   42.00373, renormalised to   42.00000

     total cpu time spent up to now is       90.2 secs

     Self-consistent Calculation

     iteration #  1     ecut=    90.00 Ry     beta= 0.50
     Davidson diagonalization with overlap
     ethr =  1.00E-06,  avg # of iterations =  2.0

     Threshold (ethr) on eigenvalues was too large:
     Diagonalizing with lowered threshold

     Davidson diagonalization with overlap
     ethr =  6.35E-09,  avg # of iterations =  4.0

     total cpu time spent up to now is       93.5 secs

     total energy              =   -1957.84068269 Ry
     estimated scf accuracy    <       0.00000279 Ry

     iteration #  2     ecut=    90.00 Ry     beta= 0.50
     Davidson diagonalization with overlap
     ethr =  6.64E-09,  avg # of iterations =  6.0

     total cpu time spent up to now is       96.0 secs

     total energy              =   -1957.84068531 Ry
     estimated scf accuracy    <       0.00000656 Ry

     iteration #  3     ecut=    90.00 Ry     beta= 0.50
     Davidson diagonalization with overlap
     ethr =  6.64E-09,  avg # of iterations =  2.0

     total cpu time spent up to now is       97.8 secs

     total energy              =   -1957.84068550 Ry
     estimated scf accuracy    <       0.00000107 Ry

     iteration #  4     ecut=    90.00 Ry     beta= 0.50
     Davidson diagonalization with overlap
     ethr =  2.55E-09,  avg # of iterations =  4.0

     total cpu time spent up to now is       99.6 secs

     total energy              =   -1957.84068566 Ry
     estimated scf accuracy    <       0.00000013 Ry

     iteration #  5     ecut=    90.00 Ry     beta= 0.50
     Davidson diagonalization with overlap
     ethr =  2.99E-10,  avg # of iterations =  3.8

     total cpu time spent up to now is      101.4 secs

     total energy              =   -1957.84068568 Ry
     estimated scf accuracy    <       0.00000005 Ry

     iteration #  6     ecut=    90.00 Ry     beta= 0.50
     Davidson diagonalization with overlap
     ethr =  1.16E-10,  avg # of iterations =  1.0

     total cpu time spent up to now is      103.0 secs

     total energy              =   -1957.84068572 Ry
     estimated scf accuracy    <       0.00000004 Ry

     iteration #  7     ecut=    90.00 Ry     beta= 0.50
     Davidson diagonalization with overlap
     ethr =  1.04E-10,  avg # of iterations =  2.0

     total cpu time spent up to now is      104.8 secs

     total energy              =   -1957.84068571 Ry
     estimated scf accuracy    <       0.00000006 Ry

     iteration #  8     ecut=    90.00 Ry     beta= 0.50
     Davidson diagonalization with overlap
     ethr =  1.04E-10,  avg # of iterations =  1.0

     total cpu time spent up to now is      106.4 secs

     total energy              =   -1957.84068570 Ry
     estimated scf accuracy    <       0.00000003 Ry

     iteration #  9     ecut=    90.00 Ry     beta= 0.50
     Davidson diagonalization with overlap
     ethr =  7.43E-11,  avg # of iterations =  4.0

     total cpu time spent up to now is      108.6 secs

     total energy              =   -1957.84068571 Ry
     estimated scf accuracy    <       0.00000002 Ry

     iteration # 10     ecut=    90.00 Ry     beta= 0.50
     Davidson diagonalization with overlap
     ethr =  3.60E-11,  avg # of iterations =  4.0

     total cpu time spent up to now is      110.7 secs

     End of self-consistent calculation

          k = 0.0000 0.0000 0.0000 ( 28991 PWs)   bands (ev):

   -21.3238 -21.3238 -21.3238 -21.2681 -21.2681 -11.8534 -11.1195 -11.1195
   -11.1195  -6.2891  -2.4257  -2.4257  -2.4257  -1.3508  -1.3508  -0.4693
    -0.4693  -0.4693  -0.2595  -0.2595  -0.2595

     occupation numbers 
     1.0000   1.0000   1.0000   1.0000   1.0000   1.0000   1.0000   1.0000
     1.0000   1.0000   1.0000   1.0000   1.0000   1.0000   1.0000   1.0000
     1.0000   1.0000   1.0000   1.0000   1.0000

          k = 0.0000 0.0000-0.4999 ( 29078 PWs)   bands (ev):

   -21.3238 -21.3238 -21.3238 -21.2681 -21.2680 -11.7984 -11.1942 -11.1178
   -11.1178  -6.2296  -2.5785  -2.4567  -2.4567  -1.1193  -0.9386  -0.8795
    -0.7807  -0.4872  -0.4872  -0.2890  -0.2890

     occupation numbers 
     1.0000   1.0000   1.0000   1.0000   1.0000   1.0000   1.0000   1.0000
     1.0000   1.0000   1.0000   1.0000   1.0000   1.0000   1.0000   1.0000
     1.0000   1.0000   1.0000   1.0000   1.0000

          k = 0.0000-0.4999-0.4999 ( 29116 PWs)   bands (ev):

   -21.3238 -21.3238 -21.3238 -21.2681 -21.2681 -11.7580 -11.1686 -11.1686
   -11.1401  -6.2242  -2.7123  -2.4697  -2.4697  -1.0543  -1.0543  -0.9111
    -0.6846  -0.4123  -0.4123  -0.3832  -0.1191

     occupation numbers 
     1.0000   1.0000   1.0000   1.0000   1.0000   1.0000   1.0000   1.0000
     1.0000   1.0000   1.0000   1.0000   1.0000   1.0000   1.0000   1.0000
     1.0000   1.0000   1.0000   1.0000   1.0000

          k =-0.4999-0.4999-0.4999 ( 29080 PWs)   bands (ev):

   -21.3238 -21.3238 -21.3238 -21.2680 -21.2680 -11.7327 -11.1664 -11.1664
   -11.1664  -6.2770  -2.6316  -2.6316  -2.6316  -0.9833  -0.9833  -0.9833
    -0.3316  -0.3316  -0.1672  -0.1672  -0.1672

     occupation numbers 
     1.0000   1.0000   1.0000   1.0000   1.0000   1.0000   1.0000   1.0000
     1.0000   1.0000   1.0000   1.0000   1.0000   1.0000   1.0000   1.0000
     1.0000   1.0000   1.0000   1.0000   1.0000

     highest occupied level (ev):    -0.1191

!    total energy              =   -1957.84068571 Ry

     total all-electron energy =    -69286.458247 Ry
     estimated scf accuracy    <          7.6E-11 Ry

     The total energy is the sum of the following terms:
     one-electron contribution =    -155.46229790 Ry
     hartree contribution      =      94.82230211 Ry
     xc contribution           =    -110.99307841 Ry
     ewald contribution        =    -119.33338763 Ry
     one-center paw contrib.   =   -1666.87422387 Ry
      -> PAW hartree energy AE =     109.61429519 Ry
      -> PAW hartree energy PS =    -108.86976916 Ry
      -> PAW xc energy AE      =    -329.04224226 Ry
      -> PAW xc energy PS      =      47.34478930 Ry
      -> total E_H with PAW    =      95.56682814 Ry
      -> total E_XC with PAW   =    -392.69053138 Ry

     convergence has been achieved in  10 iterations

     Forces acting on atoms (cartesian axes, Ry/au):

     atom    1 type  1   force =     0.00000000    0.00000000    0.00000000
     atom    2 type  2   force =    -0.00048062    0.00048062    0.00048062
     atom    3 type  2   force =     0.00048062   -0.00048062    0.00048062
     atom    4 type  2   force =     0.00048062    0.00048062   -0.00048062
     atom    5 type  2   force =    -0.00048062   -0.00048062   -0.00048062
     The non-local contrib.  to forces
     atom    1 type  1   force =     0.00000000    0.00000000    0.00000000
     atom    2 type  2   force =    -0.09097559    0.09097559    0.09097559
     atom    3 type  2   force =     0.09097559   -0.09097559    0.09097559
     atom    4 type  2   force =     0.09097559    0.09097559   -0.09097559
     atom    5 type  2   force =    -0.09097559   -0.09097559   -0.09097559
     The ionic contribution  to forces
     atom    1 type  1   force =     0.00000000    0.00000000   -0.00000000
     atom    2 type  2   force =     3.80041961   -3.80041961   -3.80041961
     atom    3 type  2   force =    -3.80041961    3.80041961   -3.80041961
     atom    4 type  2   force =    -3.80041961   -3.80041961    3.80041961
     atom    5 type  2   force =     3.80041961    3.80041961    3.80041961
     The local contribution  to forces
     atom    1 type  1   force =     0.00000000    0.00000000   -0.00000000
     atom    2 type  2   force =    -3.72134830    3.72134830    3.72134830
     atom    3 type  2   force =     3.72134830   -3.72134830    3.72134830
     atom    4 type  2   force =     3.72134830    3.72134830   -3.72134830
     atom    5 type  2   force =    -3.72134830   -3.72134830   -3.72134830
     The core correction contribution to forces
     atom    1 type  1   force =     0.00000000    0.00000000   -0.00000000
     atom    2 type  2   force =     0.01141977   -0.01141977   -0.01141977
     atom    3 type  2   force =    -0.01141977    0.01141977   -0.01141977
     atom    4 type  2   force =    -0.01141977   -0.01141977    0.01141977
     atom    5 type  2   force =     0.01141977    0.01141977    0.01141977
     The Hubbard contrib.    to forces
     atom    1 type  1   force =     0.00000000    0.00000000    0.00000000
     atom    2 type  2   force =     0.00000000    0.00000000    0.00000000
     atom    3 type  2   force =     0.00000000    0.00000000    0.00000000
     atom    4 type  2   force =     0.00000000    0.00000000    0.00000000
     atom    5 type  2   force =     0.00000000    0.00000000    0.00000000
     The SCF correction term to forces
     atom    1 type  1   force =    -0.00000000    0.00000000    0.00000000
     atom    2 type  2   force =     0.00000389   -0.00000389   -0.00000389
     atom    3 type  2   force =    -0.00000389    0.00000389   -0.00000389
     atom    4 type  2   force =    -0.00000389   -0.00000389    0.00000389
     atom    5 type  2   force =     0.00000389    0.00000389    0.00000389

     Total force =     0.001665     Total SCF correction =     0.000013


     Computing stress (Cartesian axis) and pressure

          total   stress  (Ry/bohr**3)                   (kbar)     P=        1.53
   0.00001039   0.00000000   0.00000000            1.53        0.00        0.00
   0.00000000   0.00001039   0.00000000            0.00        1.53        0.00
   0.00000000   0.00000000   0.00001039            0.00        0.00        1.53

     kinetic stress (kbar)   4000.40      0.00      0.00
                                0.00   4000.40      0.00
                                0.00      0.00   4000.40

     local   stress (kbar)  -2880.86     -0.00      0.00
                               -0.00  -2880.86      0.00
                                0.00      0.00  -2880.86

     nonloc. stress (kbar)    795.57      0.00      0.00
                                0.00    795.57      0.00
                                0.00      0.00    795.57

     hartree stress (kbar)   2303.41      0.00      0.00
                                0.00   2303.41     -0.00
                                0.00     -0.00   2303.41

     exc-cor stress (kbar)   4097.62      0.00     -0.00
                                0.00   4097.62     -0.00
                               -0.00     -0.00   4097.62

     corecor stress (kbar)  -5415.77      0.00     -0.00
                                0.00  -5415.77     -0.00
                               -0.00     -0.00  -5415.77

     ewald   stress (kbar)  -2898.83     -0.00      0.00
                               -0.00  -2898.83      0.00
                                0.00      0.00  -2898.83

     hubbard stress (kbar)      0.00      0.00      0.00
                                0.00      0.00      0.00
                                0.00      0.00      0.00

     DFT-D   stress (kbar)      0.00      0.00      0.00
                                0.00      0.00      0.00
                                0.00      0.00      0.00

     XDM     stress (kbar)      0.00      0.00      0.00
                                0.00      0.00      0.00
                                0.00      0.00      0.00

     dft-nl  stress (kbar)      0.00      0.00      0.00
                                0.00      0.00      0.00
                                0.00      0.00      0.00

     TS-vdW  stress (kbar)      0.00      0.00      0.00
                                0.00      0.00      0.00
                                0.00      0.00      0.00


     Energy error            =      4.8E-06
     Gradient error          =      4.8E-04
     Cell gradient error     =      1.0E-05


     number of scf cycles    =   4
     number of bfgs steps    =   3

     enthalpy old            =   -1957.8406809400 Ry
     enthalpy new            =   -1957.8406857136 Ry

     CASE: enthalpy_new < enthalpy_old

     new trust radius        =       0.0012328753 bohr
     new conv_thr            =       0.0000000100 Ry

     new unit-cell volume =   2018.96411 a.u.^3 (   299.17961 Ang^3 )
     density =      3.47616 g/cm^3

CELL_PARAMETERS (angstrom)
   6.688221784   0.000000000   0.000000000
   0.000000000   6.688221784   0.000000000
   0.000000000   0.000000000   6.688221784

ATOMIC_POSITIONS (crystal)
Sn            0.0000000000        0.0000000000        0.0000000000
I             0.2337161200        0.7662838800        0.7662838800
I             0.7662838800        0.2337161200        0.7662838800
I             0.7662838800        0.7662838800        0.2337161200
I             0.2337161200        0.2337161200        0.2337161200



     Writing output data file ./out/SnI4un.save/
     NEW-OLD atomic charge density approx. for the potential
     extrapolated charge   42.00801, renormalised to   42.00000

     total cpu time spent up to now is      123.0 secs

     Self-consistent Calculation

     iteration #  1     ecut=    90.00 Ry     beta= 0.50
     Davidson diagonalization with overlap
     ethr =  1.00E-06,  avg # of iterations =  2.0

     Threshold (ethr) on eigenvalues was too large:
     Diagonalizing with lowered threshold

     Davidson diagonalization with overlap
     ethr =  2.16E-08,  avg # of iterations =  4.0

     total cpu time spent up to now is      126.3 secs

     total energy              =   -1957.84068160 Ry
     estimated scf accuracy    <       0.00001007 Ry

     iteration #  2     ecut=    90.00 Ry     beta= 0.50
     Davidson diagonalization with overlap
     ethr =  2.40E-08,  avg # of iterations =  5.5

     total cpu time spent up to now is      128.9 secs

     total energy              =   -1957.84069232 Ry
     estimated scf accuracy    <       0.00002773 Ry

     iteration #  3     ecut=    90.00 Ry     beta= 0.50
     Davidson diagonalization with overlap
     ethr =  2.40E-08,  avg # of iterations =  2.0

     total cpu time spent up to now is      130.7 secs

     total energy              =   -1957.84069270 Ry
     estimated scf accuracy    <       0.00000503 Ry

     iteration #  4     ecut=    90.00 Ry     beta= 0.50
     Davidson diagonalization with overlap
     ethr =  1.20E-08,  avg # of iterations =  2.0

     total cpu time spent up to now is      132.5 secs

     total energy              =   -1957.84069321 Ry
     estimated scf accuracy    <       0.00000079 Ry

     iteration #  5     ecut=    90.00 Ry     beta= 0.50
     Davidson diagonalization with overlap
     ethr =  1.89E-09,  avg # of iterations =  4.0

     total cpu time spent up to now is      134.4 secs

     total energy              =   -1957.84069343 Ry
     estimated scf accuracy    <       0.00000012 Ry

     iteration #  6     ecut=    90.00 Ry     beta= 0.50
     Davidson diagonalization with overlap
     ethr =  2.95E-10,  avg # of iterations =  1.0

     total cpu time spent up to now is      136.0 secs

     total energy              =   -1957.84069352 Ry
     estimated scf accuracy    <       0.00000012 Ry

     iteration #  7     ecut=    90.00 Ry     beta= 0.50
     Davidson diagonalization with overlap
     ethr =  2.81E-10,  avg # of iterations =  2.2

     total cpu time spent up to now is      137.7 secs

     total energy              =   -1957.84069349 Ry
     estimated scf accuracy    <       0.00000029 Ry

     iteration #  8     ecut=    90.00 Ry     beta= 0.50
     Davidson diagonalization with overlap
     ethr =  2.81E-10,  avg # of iterations =  1.2

     total cpu time spent up to now is      139.3 secs

     total energy              =   -1957.84069342 Ry
     estimated scf accuracy    <       0.00000018 Ry

     iteration #  9     ecut=    90.00 Ry     beta= 0.50
     Davidson diagonalization with overlap
     ethr =  2.81E-10,  avg # of iterations =  5.0

     total cpu time spent up to now is      141.5 secs

     total energy              =   -1957.84069348 Ry
     estimated scf accuracy    <       0.00000005 Ry

     iteration # 10     ecut=    90.00 Ry     beta= 0.50
     Davidson diagonalization with overlap
     ethr =  1.29E-10,  avg # of iterations =  4.0

     total cpu time spent up to now is      143.5 secs

     End of self-consistent calculation

          k = 0.0000 0.0000 0.0000 ( 28991 PWs)   bands (ev):

   -21.3250 -21.3250 -21.3250 -21.2692 -21.2692 -11.8558 -11.1211 -11.1211
   -11.1211  -6.2905  -2.4279  -2.4279  -2.4279  -1.3521  -1.3521  -0.4706
    -0.4706  -0.4706  -0.2614  -0.2614  -0.2614

     occupation numbers 
     1.0000   1.0000   1.0000   1.0000   1.0000   1.0000   1.0000   1.0000
     1.0000   1.0000   1.0000   1.0000   1.0000   1.0000   1.0000   1.0000
     1.0000   1.0000   1.0000   1.0000   1.0000

          k = 0.0000 0.0000-0.4999 ( 29078 PWs)   bands (ev):

   -21.3251 -21.3251 -21.3251 -21.2692 -21.2692 -11.8010 -11.1957 -11.1195
   -11.1195  -6.2311  -2.5803  -2.4589  -2.4589  -1.1209  -0.9400  -0.8810
    -0.7815  -0.4887  -0.4887  -0.2903  -0.2903

     occupation numbers 
     1.0000   1.0000   1.0000   1.0000   1.0000   1.0000   1.0000   1.0000
     1.0000   1.0000   1.0000   1.0000   1.0000   1.0000   1.0000   1.0000
     1.0000   1.0000   1.0000   1.0000   1.0000

          k = 0.0000-0.4999-0.4999 ( 29116 PWs)   bands (ev):

   -21.3251 -21.3251 -21.3251 -21.2692 -21.2692 -11.7606 -11.1702 -11.1702
   -11.1417  -6.2257  -2.7141  -2.4719  -2.4719  -1.0555  -1.0555  -0.9127
    -0.6858  -0.4136  -0.4136  -0.3852  -0.1204

     occupation numbers 
     1.0000   1.0000   1.0000   1.0000   1.0000   1.0000   1.0000   1.0000
     1.0000   1.0000   1.0000   1.0000   1.0000   1.0000   1.0000   1.0000
     1.0000   1.0000   1.0000   1.0000   1.0000

          k =-0.4999-0.4999-0.4999 ( 29080 PWs)   bands (ev):

   -21.3251 -21.3251 -21.3251 -21.2692 -21.2692 -11.7353 -11.1679 -11.1679
   -11.1679  -6.2783  -2.6336  -2.6336  -2.6336  -0.9846  -0.9846  -0.9846
    -0.3336  -0.3336  -0.1687  -0.1687  -0.1687

     occupation numbers 
     1.0000   1.0000   1.0000   1.0000   1.0000   1.0000   1.0000   1.0000
     1.0000   1.0000   1.0000   1.0000   1.0000   1.0000   1.0000   1.0000
     1.0000   1.0000   1.0000   1.0000   1.0000

     highest occupied level (ev):    -0.1204

!    total energy              =   -1957.84069349 Ry

     total all-electron energy =    -69286.458255 Ry
     estimated scf accuracy    <          3.5E-09 Ry

     The total energy is the sum of the following terms:
     one-electron contribution =    -155.53768759 Ry
     hartree contribution      =      94.85846496 Ry
     xc contribution           =    -110.99380604 Ry
     ewald contribution        =    -119.29332569 Ry
     one-center paw contrib.   =   -1666.87433913 Ry
      -> PAW hartree energy AE =     109.62127454 Ry
      -> PAW hartree energy PS =    -108.87679739 Ry
      -> PAW xc energy AE      =    -329.04277420 Ry
      -> PAW xc energy PS      =      47.34531473 Ry
      -> total E_H with PAW    =      95.60294211 Ry
      -> total E_XC with PAW   =    -392.69126551 Ry

     convergence has been achieved in  10 iterations

     Forces acting on atoms (cartesian axes, Ry/au):

     atom    1 type  1   force =     0.00000000    0.00000000    0.00000000
     atom    2 type  2   force =    -0.00038469    0.00038469    0.00038469
     atom    3 type  2   force =     0.00038469   -0.00038469    0.00038469
     atom    4 type  2   force =     0.00038469    0.00038469   -0.00038469
     atom    5 type  2   force =    -0.00038469   -0.00038469   -0.00038469
     The non-local contrib.  to forces
     atom    1 type  1   force =     0.00000000    0.00000000    0.00000000
     atom    2 type  2   force =    -0.09094175    0.09094175    0.09094175
     atom    3 type  2   force =     0.09094175   -0.09094175    0.09094175
     atom    4 type  2   force =     0.09094175    0.09094175   -0.09094175
     atom    5 type  2   force =    -0.09094175   -0.09094175   -0.09094175
     The ionic contribution  to forces
     atom    1 type  1   force =     0.00000000    0.00000000   -0.00000000
     atom    2 type  2   force =     3.80332596   -3.80332596   -3.80332596
     atom    3 type  2   force =    -3.80332596    3.80332596   -3.80332596
     atom    4 type  2   force =    -3.80332596   -3.80332596    3.80332596
     atom    5 type  2   force =     3.80332596    3.80332596    3.80332596
     The local contribution  to forces
     atom    1 type  1   force =     0.00000000    0.00000000    0.00000000
     atom    2 type  2   force =    -3.72421467    3.72421467    3.72421467
     atom    3 type  2   force =     3.72421467   -3.72421467    3.72421467
     atom    4 type  2   force =     3.72421467    3.72421467   -3.72421467
     atom    5 type  2   force =    -3.72421467   -3.72421467   -3.72421467
     The core correction contribution to forces
     atom    1 type  1   force =     0.00000000    0.00000000   -0.00000000
     atom    2 type  2   force =     0.01141204   -0.01141204   -0.01141204
     atom    3 type  2   force =    -0.01141204    0.01141204   -0.01141204
     atom    4 type  2   force =    -0.01141204   -0.01141204    0.01141204
     atom    5 type  2   force =     0.01141204    0.01141204    0.01141204
     The Hubbard contrib.    to forces
     atom    1 type  1   force =     0.00000000    0.00000000    0.00000000
     atom    2 type  2   force =     0.00000000    0.00000000    0.00000000
     atom    3 type  2   force =     0.00000000    0.00000000    0.00000000
     atom    4 type  2   force =     0.00000000    0.00000000    0.00000000
     atom    5 type  2   force =     0.00000000    0.00000000    0.00000000
     The SCF correction term to forces
     atom    1 type  1   force =    -0.00000000    0.00000000    0.00000000
     atom    2 type  2   force =     0.00003373   -0.00003373   -0.00003373
     atom    3 type  2   force =    -0.00003373    0.00003373   -0.00003373
     atom    4 type  2   force =    -0.00003373   -0.00003373    0.00003373
     atom    5 type  2   force =     0.00003373    0.00003373    0.00003373

     Total force =     0.001333     Total SCF correction =     0.000117


     Computing stress (Cartesian axis) and pressure

          total   stress  (Ry/bohr**3)                   (kbar)     P=        1.65
   0.00001120   0.00000000   0.00000000            1.65        0.00        0.00
   0.00000000   0.00001120   0.00000000            0.00        1.65        0.00
   0.00000000   0.00000000   0.00001120            0.00        0.00        1.65

     kinetic stress (kbar)   3999.69      0.00      0.00
                                0.00   3999.69      0.00
                                0.00      0.00   3999.69

     local   stress (kbar)  -2882.17      0.00      0.00
                                0.00  -2882.17      0.00
                                0.00      0.00  -2882.17

     nonloc. stress (kbar)    795.50      0.00      0.00
                                0.00    795.50      0.00
                                0.00      0.00    795.50

     hartree stress (kbar)   2303.85      0.00      0.00
                                0.00   2303.85     -0.00
                                0.00     -0.00   2303.85

     exc-cor stress (kbar)   4096.83     -0.00     -0.00
                               -0.00   4096.83     -0.00
                               -0.00     -0.00   4096.83

     corecor stress (kbar)  -5414.75      0.00      0.00
                                0.00  -5414.75      0.00
                                0.00      0.00  -5414.75

     ewald   stress (kbar)  -2897.30      0.00     -0.00
                                0.00  -2897.30     -0.00
                               -0.00     -0.00  -2897.30

     hubbard stress (kbar)      0.00      0.00      0.00
                                0.00      0.00      0.00
                                0.00      0.00      0.00

     DFT-D   stress (kbar)      0.00      0.00      0.00
                                0.00      0.00      0.00
                                0.00      0.00      0.00

     XDM     stress (kbar)      0.00      0.00      0.00
                                0.00      0.00      0.00
                                0.00      0.00      0.00

     dft-nl  stress (kbar)      0.00      0.00      0.00
                                0.00      0.00      0.00
                                0.00      0.00      0.00

     TS-vdW  stress (kbar)      0.00      0.00      0.00
                                0.00      0.00      0.00
                                0.00      0.00      0.00


     Energy error            =      7.8E-06
     Gradient error          =      3.8E-04
     Cell gradient error     =      1.1E-05


     number of scf cycles    =   5
     number of bfgs steps    =   4

     enthalpy old            =   -1957.8406857136 Ry
     enthalpy new            =   -1957.8406934924 Ry

     CASE: enthalpy_new < enthalpy_old

     new trust radius        =       0.0018494305 bohr
     new conv_thr            =       0.0000000100 Ry

     new unit-cell volume =   2019.71403 a.u.^3 (   299.29074 Ang^3 )
     density =      3.47487 g/cm^3

CELL_PARAMETERS (angstrom)
   6.689049770   0.000000000   0.000000000
   0.000000000   6.689049770   0.000000000
   0.000000000   0.000000000   6.689049770

ATOMIC_POSITIONS (crystal)
Sn            0.0000000000        0.0000000000        0.0000000000
I             0.2336316373        0.7663683627        0.7663683627
[...]
                  (     0          0         -1      )
                  (     0         -1          0      )

 cart.    s(21) = (  1.0000000  0.0000000  0.0000000 )
                  (  0.0000000  0.0000000 -1.0000000 )
                  (  0.0000000 -1.0000000  0.0000000 )


      isym = 22     inv. 180 deg rotation - cart. axis [0,1,-1]  

 cryst.   s(22) = (     1          0          0      )
                  (     0          0          1      )
                  (     0          1          0      )

 cart.    s(22) = (  1.0000000  0.0000000  0.0000000 )
                  (  0.0000000  0.0000000  1.0000000 )
                  (  0.0000000  1.0000000  0.0000000 )


      isym = 23     inv.  90 deg rotation - cart. axis [-1,0,0]  

 cryst.   s(23) = (    -1          0          0      )
                  (     0          0          1      )
                  (     0         -1          0      )

 cart.    s(23) = ( -1.0000000  0.0000000  0.0000000 )
                  (  0.0000000  0.0000000 -1.0000000 )
                  (  0.0000000  1.0000000  0.0000000 )


      isym = 24     inv.  90 deg rotation - cart. axis [1,0,0]   

 cryst.   s(24) = (    -1          0          0      )
                  (     0          0         -1      )
                  (     0          1          0      )

 cart.    s(24) = ( -1.0000000  0.0000000  0.0000000 )
                  (  0.0000000  0.0000000  1.0000000 )
                  (  0.0000000 -1.0000000  0.0000000 )


   Cartesian axes

     site n.     atom                  positions (alat units)
         1           Sn  tau(   1) = (   0.0000000   0.0000000   0.0000000  )
         2           I   tau(   2) = (   0.2337661   0.8453172   0.8453172  )
         3           I   tau(   3) = (   0.8453172   0.2337661   0.8453172  )
         4           I   tau(   4) = (   0.8453172   0.8453172   0.2337661  )
         5           I   tau(   5) = (   0.2337661   0.2337661   0.2337661  )

   Crystallographic axes

     site n.     atom                  positions (cryst. coord.)
         1           Sn  tau(   1) = (  0.0000000  0.0000000  0.0000000  )
         2           I   tau(   2) = (  0.2166340  0.7833660  0.7833660  )
         3           I   tau(   3) = (  0.7833660  0.2166340  0.7833660  )
         4           I   tau(   4) = (  0.7833660  0.7833660  0.2166340  )
         5           I   tau(   5) = (  0.2166340  0.2166340  0.2166340  )

     number of k points=     4
                       cart. coord. in units 2pi/alat
        k(    1) = (   0.0000000   0.0000000   0.0000000), wk =   0.2500000
        k(    2) = (   0.0000000   0.0000000  -0.4633563), wk =   0.7500000
        k(    3) = (   0.0000000  -0.4633563  -0.4633563), wk =   0.7500000
        k(    4) = (  -0.4633563  -0.4633563  -0.4633563), wk =   0.2500000

                       cryst. coord.
        k(    1) = (   0.0000000   0.0000000   0.0000000), wk =   0.2500000
        k(    2) = (   0.0000000   0.0000000  -0.5000000), wk =   0.7500000
        k(    3) = (   0.0000000  -0.5000000  -0.5000000), wk =   0.7500000
        k(    4) = (  -0.5000000  -0.5000000  -0.5000000), wk =   0.2500000

     Dense  grid:   292427 G-vectors     FFT dimensions: (  90,  90,  90)

     Dynamical RAM for                 wfc:       0.62 MB

     Dynamical RAM for     wfc (w. buffer):       3.08 MB

     Dynamical RAM for           str. fact:       0.47 MB

     Dynamical RAM for           local pot:       0.19 MB

     Dynamical RAM for          nlocal pot:       2.64 MB

     Dynamical RAM for                qrad:       6.09 MB

     Dynamical RAM for          rho,v,vnew:       1.63 MB

     Dynamical RAM for               rhoin:       0.54 MB

     Dynamical RAM for            rho*nmix:       3.76 MB

     Dynamical RAM for           G-vectors:       1.00 MB

     Dynamical RAM for          h,s,v(r/c):       0.08 MB

     Dynamical RAM for          <psi|beta>:       0.03 MB

     Dynamical RAM for                 psi:       1.23 MB

     Dynamical RAM for                hpsi:       1.23 MB

     Dynamical RAM for                spsi:       1.23 MB

     Dynamical RAM for      wfcinit/wfcrot:       1.48 MB

     Dynamical RAM for           addusdens:      44.63 MB

     Dynamical RAM for          addusforce:      46.17 MB

     Dynamical RAM for         addusstress:      47.21 MB

     Estimated static dynamical RAM per process >      21.65 MB

     Estimated max dynamical RAM per process >      68.86 MB

     Estimated total dynamical RAM >       1.28 GB

     Initial potential from superposition of free atoms

     starting charge   41.99831, renormalised to   42.00000
     Starting wfcs are   25 randomized atomic wfcs
     Checking if some PAW data can be deallocated... 
       PAW data deallocated on   15 nodes for type:  1
       PAW data deallocated on    4 nodes for type:  2

     total cpu time spent up to now is      913.5 secs

     Self-consistent Calculation

     iteration #  1     ecut=    90.00 Ry     beta= 0.50
     Davidson diagonalization with overlap
     ethr =  1.00E-06,  avg # of iterations =  9.0

     total cpu time spent up to now is      919.7 secs

     total energy              =   -1957.82107496 Ry
     estimated scf accuracy    <       0.11031571 Ry

     iteration #  2     ecut=    90.00 Ry     beta= 0.50
     Davidson diagonalization with overlap
     ethr =  2.63E-04,  avg # of iterations =  3.0

     total cpu time spent up to now is      922.3 secs

     total energy              =   -1957.83941099 Ry
     estimated scf accuracy    <       0.02336575 Ry

     iteration #  3     ecut=    90.00 Ry     beta= 0.50
     Davidson diagonalization with overlap
     ethr =  5.56E-05,  avg # of iterations =  2.0

     total cpu time spent up to now is      925.0 secs

     total energy              =   -1957.84325545 Ry
     estimated scf accuracy    <       0.00220351 Ry

     iteration #  4     ecut=    90.00 Ry     beta= 0.50
     Davidson diagonalization with overlap
     ethr =  5.25E-06,  avg # of iterations =  4.0

     total cpu time spent up to now is      927.5 secs

     total energy              =   -1957.84338693 Ry
     estimated scf accuracy    <       0.00052763 Ry

     iteration #  5     ecut=    90.00 Ry     beta= 0.50
     Davidson diagonalization with overlap
     ethr =  1.26E-06,  avg # of iterations =  3.8

     total cpu time spent up to now is      930.3 secs

     total energy              =   -1957.84350352 Ry
     estimated scf accuracy    <       0.00003548 Ry

     iteration #  6     ecut=    90.00 Ry     beta= 0.50
     Davidson diagonalization with overlap
     ethr =  8.45E-08,  avg # of iterations =  3.5

     total cpu time spent up to now is      933.3 secs

     total energy              =   -1957.84351354 Ry
     estimated scf accuracy    <       0.00000144 Ry

     iteration #  7     ecut=    90.00 Ry     beta= 0.50
     Davidson diagonalization with overlap
     ethr =  3.42E-09,  avg # of iterations =  4.5

     total cpu time spent up to now is      936.1 secs

     total energy              =   -1957.84351390 Ry
     estimated scf accuracy    <       0.00000020 Ry

     iteration #  8     ecut=    90.00 Ry     beta= 0.50
     Davidson diagonalization with overlap
     ethr =  4.83E-10,  avg # of iterations =  4.0

     total cpu time spent up to now is      939.2 secs

     total energy              =   -1957.84351396 Ry
     estimated scf accuracy    <       0.00000031 Ry

     iteration #  9     ecut=    90.00 Ry     beta= 0.50
     Davidson diagonalization with overlap
     ethr =  4.83E-10,  avg # of iterations =  3.0

     total cpu time spent up to now is      941.9 secs

     End of self-consistent calculation

          k = 0.0000 0.0000 0.0000 ( 36377 PWs)   bands (ev):

   -22.6215 -22.6215 -22.6215 -22.5657 -22.5657 -13.1111 -12.4407 -12.4407
   -12.4407  -7.5557  -3.7681  -3.7681  -3.7681  -2.4170  -2.4170  -1.7786
    -1.7786  -1.7786  -1.7544  -1.7544  -1.7544

     occupation numbers 
     1.0000   1.0000   1.0000   1.0000   1.0000   1.0000   1.0000   1.0000
     1.0000   1.0000   1.0000   1.0000   1.0000   1.0000   1.0000   1.0000
     1.0000   1.0000   1.0000   1.0000   1.0000

          k = 0.0000 0.0000-0.4634 ( 36522 PWs)   bands (ev):

   -22.6216 -22.6216 -22.6215 -22.5657 -22.5657 -13.0929 -12.4656 -12.4401
   -12.4401  -7.5369  -3.8119  -3.7915  -3.7915  -2.3155  -2.1518  -2.1330
    -1.8897  -1.8724  -1.8724  -1.6466  -1.6466

     occupation numbers 
     1.0000   1.0000   1.0000   1.0000   1.0000   1.0000   1.0000   1.0000
     1.0000   1.0000   1.0000   1.0000   1.0000   1.0000   1.0000   1.0000
     1.0000   1.0000   1.0000   1.0000   1.0000

          k = 0.0000-0.4634-0.4634 ( 36644 PWs)   bands (ev):

   -22.6216 -22.6216 -22.6216 -22.5657 -22.5657 -13.0774 -12.4604 -12.4604
   -12.4441  -7.5316  -3.8874  -3.7946  -3.7946  -2.1946  -2.1946  -2.1730
    -1.9518  -1.8916  -1.7235  -1.7235  -1.5461

     occupation numbers 
     1.0000   1.0000   1.0000   1.0000   1.0000   1.0000   1.0000   1.0000
     1.0000   1.0000   1.0000   1.0000   1.0000   1.0000   1.0000   1.0000
     1.0000   1.0000   1.0000   1.0000   1.0000

          k =-0.4634-0.4634-0.4634 ( 36552 PWs)   bands (ev):

   -22.6216 -22.6216 -22.6216 -22.5657 -22.5657 -13.0648 -12.4597 -12.4597
   -12.4597  -7.5404  -3.8566  -3.8566  -3.8566  -2.1935  -2.1935  -2.1935
    -1.8531  -1.8531  -1.5879  -1.5879  -1.5879

     occupation numbers 
     1.0000   1.0000   1.0000   1.0000   1.0000   1.0000   1.0000   1.0000
     1.0000   1.0000   1.0000   1.0000   1.0000   1.0000   1.0000   1.0000
     1.0000   1.0000   1.0000   1.0000   1.0000

     highest occupied level (ev):    -1.5461

!    total energy              =   -1957.84351400 Ry

     total all-electron energy =    -69286.461075 Ry
     estimated scf accuracy    <          6.3E-09 Ry

     The total energy is the sum of the following terms:
     one-electron contribution =    -189.87750639 Ry
     hartree contribution      =     110.00975466 Ry
     xc contribution           =    -110.97139390 Ry
     ewald contribution        =    -100.13120783 Ry
     one-center paw contrib.   =   -1666.87316054 Ry
      -> PAW hartree energy AE =     109.63360944 Ry
      -> PAW hartree energy PS =    -108.88924106 Ry
      -> PAW xc energy AE      =    -329.04364326 Ry
      -> PAW xc energy PS      =      47.34620110 Ry
      -> total E_H with PAW    =     110.75412305 Ry
      -> total E_XC with PAW   =    -392.66883606 Ry

     convergence has been achieved in   9 iterations

     Forces acting on atoms (cartesian axes, Ry/au):

     atom    1 type  1   force =     0.00000000    0.00000000    0.00000000
     atom    2 type  2   force =    -0.00005154    0.00005154    0.00005154
     atom    3 type  2   force =     0.00005154   -0.00005154    0.00005154
     atom    4 type  2   force =     0.00005154    0.00005154   -0.00005154
     atom    5 type  2   force =    -0.00005154   -0.00005154   -0.00005154
     The non-local contrib.  to forces
     atom    1 type  1   force =     0.00000000    0.00000000    0.00000000
     atom    2 type  2   force =    -0.09068667    0.09068667    0.09068667
     atom    3 type  2   force =     0.09068667   -0.09068667    0.09068667
     atom    4 type  2   force =     0.09068667    0.09068667   -0.09068667
     atom    5 type  2   force =    -0.09068667   -0.09068667   -0.09068667
     The ionic contribution  to forces
     atom    1 type  1   force =     0.00000000    0.00000000    0.00000000
     atom    2 type  2   force =     4.24091901   -4.24091901   -4.24091901
     atom    3 type  2   force =    -4.24091901    4.24091901   -4.24091901
     atom    4 type  2   force =    -4.24091901   -4.24091901    4.24091901
     atom    5 type  2   force =     4.24091901    4.24091901    4.24091901
     The local contribution  to forces
     atom    1 type  1   force =     0.00000000    0.00000000    0.00000000
     atom    2 type  2   force =    -4.16167681    4.16167681    4.16167681
     atom    3 type  2   force =     4.16167681   -4.16167681    4.16167681
     atom    4 type  2   force =     4.16167681    4.16167681   -4.16167681
     atom    5 type  2   force =    -4.16167681   -4.16167681   -4.16167681
     The core correction contribution to forces
     atom    1 type  1   force =     0.00000000    0.00000000    0.00000000
     atom    2 type  2   force =     0.01134628   -0.01134628   -0.01134628
     atom    3 type  2   force =    -0.01134628    0.01134628   -0.01134628
     atom    4 type  2   force =    -0.01134628   -0.01134628    0.01134628
     atom    5 type  2   force =     0.01134628    0.01134628    0.01134628
     The Hubbard contrib.    to forces
     atom    1 type  1   force =     0.00000000    0.00000000    0.00000000
     atom    2 type  2   force =     0.00000000    0.00000000    0.00000000
     atom    3 type  2   force =     0.00000000    0.00000000    0.00000000
     atom    4 type  2   force =     0.00000000    0.00000000    0.00000000
     atom    5 type  2   force =     0.00000000    0.00000000    0.00000000
     The SCF correction term to forces
     atom    1 type  1   force =    -0.00000000   -0.00000000    0.00000000
     atom    2 type  2   force =     0.00004665   -0.00004665   -0.00004665
     atom    3 type  2   force =    -0.00004665    0.00004665   -0.00004665
     atom    4 type  2   force =    -0.00004665   -0.00004665    0.00004665
     atom    5 type  2   force =     0.00004665    0.00004665    0.00004665

     Total force =     0.000179     Total SCF correction =     0.000162
     SCF correction compared to forces is large: reduce conv_thr to get better values


     Computing stress (Cartesian axis) and pressure

          total   stress  (Ry/bohr**3)                   (kbar)     P=       -0.01
  -0.00000006   0.00000000   0.00000000           -0.01        0.00        0.00
   0.00000000  -0.00000006   0.00000000            0.00       -0.01        0.00
   0.00000000   0.00000000  -0.00000006            0.00        0.00       -0.01

     kinetic stress (kbar)   3184.42      0.00      0.00
                                0.00   3184.42      0.00
                                0.00      0.00   3184.42

     local   stress (kbar)  -2959.31      0.00      0.00
                                0.00  -2959.31      0.00
                                0.00      0.00  -2959.31

     nonloc. stress (kbar)    633.23      0.00      0.00
                                0.00    633.23      0.00
                                0.00      0.00    633.23

     hartree stress (kbar)   2128.11      0.00      0.00
                                0.00   2128.11      0.00
                                0.00      0.00   2128.11

     exc-cor stress (kbar)   3263.33     -0.00     -0.00
                               -0.00   3263.33     -0.00
                               -0.00     -0.00   3263.33

     corecor stress (kbar)  -4312.77      0.00      0.00
                                0.00  -4312.77      0.00
                                0.00      0.00  -4312.77

     ewald   stress (kbar)  -1937.01     -0.00     -0.00
                               -0.00  -1937.01     -0.00
                               -0.00     -0.00  -1937.01

     hubbard stress (kbar)      0.00      0.00      0.00
                                0.00      0.00      0.00
                                0.00      0.00      0.00

     DFT-D   stress (kbar)      0.00      0.00      0.00
                                0.00      0.00      0.00
                                0.00      0.00      0.00

     XDM     stress (kbar)      0.00      0.00      0.00
                                0.00      0.00      0.00
                                0.00      0.00      0.00

     dft-nl  stress (kbar)      0.00      0.00      0.00
                                0.00      0.00      0.00
                                0.00      0.00      0.00

     TS-vdW  stress (kbar)      0.00      0.00      0.00
                                0.00      0.00      0.00
                                0.00      0.00      0.00



     Writing output data file ./out/SnI4un.save/

     init_run     :      8.95s CPU      9.24s WALL (       2 calls)
     electrons    :    654.75s CPU    663.64s WALL (      23 calls)
     update_pot   :     74.68s CPU     75.02s WALL (      21 calls)
     forces       :     52.67s CPU     52.88s WALL (      23 calls)
     stress       :    141.90s CPU    142.32s WALL (      23 calls)

     Called by init_run:
     wfcinit      :      1.21s CPU      1.26s WALL (       2 calls)
     wfcinit:atom :      0.01s CPU      0.02s WALL (       8 calls)
     wfcinit:wfcr :      1.12s CPU      1.16s WALL (       8 calls)
     potinit      :      2.33s CPU      2.39s WALL (       2 calls)
     hinit0       :      4.07s CPU      4.12s WALL (       2 calls)

     Called by electrons:
     c_bands      :    414.19s CPU    419.37s WALL (     334 calls)
     sum_band     :    115.59s CPU    116.67s WALL (     334 calls)
     v_of_rho     :     17.83s CPU     18.02s WALL (     350 calls)
     v_h          :      1.19s CPU      1.20s WALL (     350 calls)
     v_xc         :     18.86s CPU     19.04s WALL (     396 calls)
     newd         :     59.49s CPU     60.09s WALL (     350 calls)
     PAW_pot      :     53.88s CPU     54.08s WALL (     371 calls)
     mix_rho      :      4.01s CPU      4.06s WALL (     334 calls)

     Called by c_bands:
     init_us_2    :      6.47s CPU      6.72s WALL (    2948 calls)
     cegterg      :    397.11s CPU    399.85s WALL (    1336 calls)

     Called by sum_band:
     sum_band:wei :      0.00s CPU      0.00s WALL (     334 calls)
     sum_band:loo :     57.93s CPU     58.42s WALL (     334 calls)
     sum_band:buf :      0.47s CPU      0.50s WALL (    1336 calls)
     sum_band:ini :      2.95s CPU      2.99s WALL (    1336 calls)
     sum_band:cal :     15.51s CPU     15.56s WALL (    1420 calls)
     sum_band:bec :      0.13s CPU      0.13s WALL (    1420 calls)
     addusdens    :     53.01s CPU     53.53s WALL (     334 calls)
     addusd:skk   :      0.25s CPU      0.26s WALL (     668 calls)
     addusd:dgemm :     20.04s CPU     20.45s WALL (     668 calls)
     addusd:qvan2 :     26.20s CPU     26.27s WALL (     668 calls)

     Called by *egterg:
     cdiaghg      :      4.48s CPU      4.52s WALL (    5571 calls)
     cegterg:over :     21.94s CPU     22.04s WALL (    4347 calls)
     cegterg:upda :     10.45s CPU     10.50s WALL (    4347 calls)
     cegterg:last :     24.81s CPU     24.89s WALL (    2905 calls)
     h_psi        :    288.32s CPU    290.62s WALL (    5691 calls)
     s_psi        :     36.45s CPU     36.60s WALL (    5691 calls)
     g_psi        :      0.88s CPU      0.89s WALL (    4347 calls)

     Called by h_psi:
     h_psi:calbec :     43.18s CPU     43.36s WALL (    5691 calls)
     vloc_psi     :    207.79s CPU    209.78s WALL (    5691 calls)
     add_vuspsi   :     36.40s CPU     36.54s WALL (    5691 calls)

     General routines
     calbec       :     63.75s CPU     64.04s WALL (    7571 calls)
     fft          :     12.35s CPU     12.72s WALL (    4453 calls)
     ffts         :      0.74s CPU      0.75s WALL (     334 calls)
     fftw         :    231.11s CPU    233.33s WALL (  182056 calls)

     Parallel routines
     fft_scatt_xy :     17.35s CPU     17.52s WALL (  186843 calls)
     fft_scatt_yz :     43.78s CPU     44.49s WALL (  186843 calls)

     PAW routines
     PAW_pot      :     53.88s CPU     54.08s WALL (     371 calls)
     PAW_symme    :      0.36s CPU      0.36s WALL (     705 calls)

     PWSCF        :  15m42.09s CPU  15m53.05s WALL


   This run was terminated on:  14:21:19  14Jan2021            

=------------------------------------------------------------------------------=
   JOB DONE.
=------------------------------------------------------------------------------=
