
     Program PWSCF v.6.7MaX starts on 15Jan2021 at 11: 7: 8 

     This program is part of the open-source Quantum ESPRESSO suite
     for quantum simulation of materials; please cite
         "P. Giannozzi et al., J. Phys.:Condens. Matter 21 395502 (2009);
         "P. Giannozzi et al., J. Phys.:Condens. Matter 29 465901 (2017);
          URL http://www.quantum-espresso.org", 
     in publications or presentations arising from this work. More details at
     http://www.quantum-espresso.org/quote

     Parallel version (MPI), running on    32 processors

     MPI processes distributed on     1 nodes
     R & G space division:  proc/nbgrp/npool/nimage =      32
     Waiting for input...
     Reading input from standard input

     Current dimensions of program PWSCF are:
     Max number of different atomic species (ntypx) = 10
     Max number of k-points (npk) =  40000
     Max angular momentum in pseudopotentials (lmaxx) =  3
     file Sn.pbe-dn-kjpaw_psl.1.0.0.UPF: wavefunction(s)  5S 5P 4D renormalized
     file I.pbe-n-kjpaw_psl.1.0.0.UPF: wavefunction(s)  5S renormalized
     file Cs.pbe-spn-kjpaw_psl.1.0.0.UPF: wavefunction(s)  5S 6S renormalized

     Subspace diagonalization in iterative solution of the eigenvalue problem:
     a serial algorithm will be used

     Message from routine setup:
     using ibrav=0 with symmetry is DISCOURAGED, use correct ibrav instead

     Parallelization info
     --------------------
     sticks:   dense  smooth     PW     G-vecs:    dense   smooth      PW
     Min          92      92     25                 9510     9510    1359
     Max          94      94     26                 9521     9521    1367
     Sum        2963    2963    811               304449   304449   43627


     Title: 
     CsSnI3                                                                     


     bravais-lattice index     =            0
     lattice parameter (alat)  =       9.1317  a.u.
     unit-cell volume          =    6370.5385 (a.u.)^3
     number of atoms/cell      =           20
     number of atomic types    =            3
     number of electrons       =       176.00
     number of Kohn-Sham states=           89
     kinetic-energy cutoff     =      50.0000  Ry
     charge density cutoff     =     200.0000  Ry
     scf convergence threshold =      1.0E-06
     mixing beta               =       0.7000
     number of iterations used =            8  plain     mixing
     Exchange-correlation= SLA  PW   PBX  PBC
                           (   1   4   3   4   0   0   0)

     celldm(1)=   9.131705  celldm(2)=   0.000000  celldm(3)=   0.000000
     celldm(4)=   0.000000  celldm(5)=   0.000000  celldm(6)=   0.000000

     crystal axes: (cart. coord. in units of alat)
               a(1) = (   1.000000   0.000000   0.000000 )  
               a(2) = (   0.000000   2.227728   0.000000 )  
               a(3) = (   0.000000   0.000000   3.755420 )  

     reciprocal axes: (cart. coord. in units 2 pi/alat)
               b(1) = (  1.000000  0.000000  0.000000 )  
               b(2) = (  0.000000  0.448888  0.000000 )  
               b(3) = (  0.000000  0.000000  0.266282 )  


     PseudoPot. # 1 for Sn read from file:
     ../../../pseudo/Sn.pbe-dn-kjpaw_psl.1.0.0.UPF
     MD5 check sum: 67f11dec737d427557dc41ea34975807
     Pseudo is Projector augmented-wave + core cor, Zval = 14.0
     Generated using &quot;atomic&quot; code by A. Dal Corso  v.6.3
     Shape of augmentation charge: PSQ
     Using radial grid of 1243 points,  6 beta functions with: 
                l(1) =   0
                l(2) =   0
                l(3) =   1
                l(4) =   1
                l(5) =   2
                l(6) =   2
     Q(r) pseudized with 0 coefficients 


     PseudoPot. # 2 for I  read from file:
     ../../../pseudo/I.pbe-n-kjpaw_psl.1.0.0.UPF
     MD5 check sum: cd3d296c3308a581e1559a0c8a554cb5
     Pseudo is Projector augmented-wave + core cor, Zval =  7.0
     Generated using &quot;atomic&quot; code by A. Dal Corso  v.6.3
     Shape of augmentation charge: PSQ
     Using radial grid of 1247 points,  6 beta functions with: 
                l(1) =   0
                l(2) =   0
                l(3) =   1
                l(4) =   1
                l(5) =   2
                l(6) =   2
     Q(r) pseudized with 0 coefficients 


     PseudoPot. # 3 for Cs read from file:
     ../../../pseudo/Cs.pbe-spn-kjpaw_psl.1.0.0.UPF
     MD5 check sum: b82c75cc2e1f4ff73b6412cffeb9c584
     Pseudo is Projector augmented-wave + core cor, Zval =  9.0
     Generated using &quot;atomic&quot; code by A. Dal Corso  v.6.4.1
     Shape of augmentation charge: PSQ
     Using radial grid of 1251 points,  9 beta functions with: 
                l(1) =   0
                l(2) =   0
                l(3) =   0
                l(4) =   1
                l(5) =   1
                l(6) =   2
                l(7) =   2
                l(8) =   3
                l(9) =   3
     Q(r) pseudized with 0 coefficients 


     atomic species   valence    mass     pseudopotential
        Sn            14.00   118.70000     Sn( 1.00)
        I              7.00   126.90000     I ( 1.00)
        Cs             9.00   132.90000     Cs( 1.00)

      8 Sym. Ops., with inversion, found ( 6 have fractional translation)


                                    s                        frac. trans.

      isym =  1     identity                                     

 cryst.   s( 1) = (     1          0          0      )
                  (     0          1          0      )
                  (     0          0          1      )

 cart.    s( 1) = (  1.0000000  0.0000000  0.0000000 )
                  (  0.0000000  1.0000000  0.0000000 )
                  (  0.0000000  0.0000000  1.0000000 )


      isym =  2     180 deg rotation - cart. axis [0,0,1]        

 cryst.   s( 2) = (    -1          0          0      )    f =(  0.0000000 )
                  (     0         -1          0      )       (  0.5000000 )
                  (     0          0          1      )       (  0.5000000 )

 cart.    s( 2) = ( -1.0000000  0.0000000  0.0000000 )    f =(  0.0000000 )
                  (  0.0000000 -1.0000000  0.0000000 )       (  1.1138638 )
                  (  0.0000000  0.0000000  1.0000000 )       (  1.8777098 )


      isym =  3     180 deg rotation - cart. axis [0,1,0]        

 cryst.   s( 3) = (    -1          0          0      )    f =(  0.5000000 )
                  (     0          1          0      )       ( -0.5000000 )
                  (     0          0         -1      )       ( -0.5000000 )

 cart.    s( 3) = ( -1.0000000  0.0000000  0.0000000 )    f =(  0.5000000 )
                  (  0.0000000  1.0000000  0.0000000 )       ( -1.1138638 )
                  (  0.0000000  0.0000000 -1.0000000 )       ( -1.8777098 )


      isym =  4     180 deg rotation - cart. axis [1,0,0]        

 cryst.   s( 4) = (     1          0          0      )    f =( -0.5000000 )
                  (     0         -1          0      )       (  0.0000000 )
                  (     0          0         -1      )       (  0.0000000 )

 cart.    s( 4) = (  1.0000000  0.0000000  0.0000000 )    f =( -0.5000000 )
                  (  0.0000000 -1.0000000  0.0000000 )       (  0.0000000 )
                  (  0.0000000  0.0000000 -1.0000000 )       (  0.0000000 )


      isym =  5     inversion                                    

 cryst.   s( 5) = (    -1          0          0      )
                  (     0         -1          0      )
                  (     0          0         -1      )

 cart.    s( 5) = ( -1.0000000  0.0000000  0.0000000 )
                  (  0.0000000 -1.0000000  0.0000000 )
                  (  0.0000000  0.0000000 -1.0000000 )


      isym =  6     inv. 180 deg rotation - cart. axis [0,0,1]   

 cryst.   s( 6) = (     1          0          0      )    f =(  0.0000000 )
                  (     0          1          0      )       ( -0.5000000 )
                  (     0          0         -1      )       ( -0.5000000 )

 cart.    s( 6) = (  1.0000000  0.0000000  0.0000000 )    f =(  0.0000000 )
                  (  0.0000000  1.0000000  0.0000000 )       ( -1.1138638 )
                  (  0.0000000  0.0000000 -1.0000000 )       ( -1.8777098 )


      isym =  7     inv. 180 deg rotation - cart. axis [0,1,0]   

 cryst.   s( 7) = (     1          0          0      )    f =( -0.5000000 )
                  (     0         -1          0      )       (  0.5000000 )
                  (     0          0          1      )       (  0.5000000 )

 cart.    s( 7) = (  1.0000000  0.0000000  0.0000000 )    f =( -0.5000000 )
                  (  0.0000000 -1.0000000  0.0000000 )       (  1.1138638 )
                  (  0.0000000  0.0000000  1.0000000 )       (  1.8777098 )


      isym =  8     inv. 180 deg rotation - cart. axis [1,0,0]   

 cryst.   s( 8) = (    -1          0          0      )    f =(  0.5000000 )
                  (     0          1          0      )       (  0.0000000 )
                  (     0          0          1      )       (  0.0000000 )

 cart.    s( 8) = ( -1.0000000  0.0000000  0.0000000 )    f =(  0.5000000 )
                  (  0.0000000  1.0000000  0.0000000 )       (  0.0000000 )
                  (  0.0000000  0.0000000  1.0000000 )       (  0.0000000 )


   Cartesian axes

     site n.     atom                  positions (alat units)
         1           Cs  tau(   1) = (   0.2500000   0.1859640   2.5168147  )
         2           Cs  tau(   2) = (   0.7500000   2.0417636   1.2386050  )
         3           Cs  tau(   3) = (   0.2500000   1.2998278   3.1163149  )
         4           Cs  tau(   4) = (   0.7500000   0.9278998   0.6391048  )
         5           Sn  tau(   5) = (   0.2500000   0.7615710   1.6485466  )
         6           Sn  tau(   6) = (   0.7500000   1.4661567   2.1068731  )
         7           Sn  tau(   7) = (   0.2500000   1.8754348   0.2291632  )
         8           Sn  tau(   8) = (   0.7500000   0.3522928   3.5262565  )
         9           I   tau(   9) = (   0.7500000   0.0581437   0.4202578  )
        10           I   tau(  10) = (   0.2500000   2.1695839   3.3351619  )
        11           I   tau(  11) = (   0.7500000   1.1720075   1.4574521  )
        12           I   tau(  12) = (   0.2500000   1.0557201   2.2979676  )
        13           I   tau(  13) = (   0.7500000   0.6531118   2.9738192  )
        14           I   tau(  14) = (   0.2500000   1.5746158   0.7816005  )
        15           I   tau(  15) = (   0.7500000   1.7669756   2.6593103  )
        16           I   tau(  16) = (   0.2500000   0.4607520   1.0961094  )
        17           I   tau(  17) = (   0.7500000   0.3753632   1.8734812  )
        18           I   tau(  18) = (   0.2500000   1.8523644   1.8819384  )
        19           I   tau(  19) = (   0.7500000   1.4892270   0.0042286  )
        20           I   tau(  20) = (   0.2500000   0.7385006   3.7511911  )

   Crystallographic axes

     site n.     atom                  positions (cryst. coord.)
         1           Cs  tau(   1) = (  0.2500000  0.0834770  0.6701820  )
         2           Cs  tau(   2) = (  0.7500000  0.9165230  0.3298180  )
         3           Cs  tau(   3) = (  0.2500000  0.5834770  0.8298180  )
         4           Cs  tau(   4) = (  0.7500000  0.4165230  0.1701820  )
         5           Sn  tau(   5) = (  0.2500000  0.3418600  0.4389780  )
         6           Sn  tau(   6) = (  0.7500000  0.6581400  0.5610220  )
         7           Sn  tau(   7) = (  0.2500000  0.8418600  0.0610220  )
         8           Sn  tau(   8) = (  0.7500000  0.1581400  0.9389780  )
         9           I   tau(   9) = (  0.7500000  0.0261000  0.1119070  )
        10           I   tau(  10) = (  0.2500000  0.9739000  0.8880930  )
        11           I   tau(  11) = (  0.7500000  0.5261000  0.3880930  )
        12           I   tau(  12) = (  0.2500000  0.4739000  0.6119070  )
        13           I   tau(  13) = (  0.7500000  0.2931740  0.7918740  )
        14           I   tau(  14) = (  0.2500000  0.7068260  0.2081260  )
        15           I   tau(  15) = (  0.7500000  0.7931740  0.7081260  )
        16           I   tau(  16) = (  0.2500000  0.2068260  0.2918740  )
        17           I   tau(  17) = (  0.7500000  0.1684960  0.4988740  )
        18           I   tau(  18) = (  0.2500000  0.8315040  0.5011260  )
        19           I   tau(  19) = (  0.7500000  0.6684960  0.0011260  )
        20           I   tau(  20) = (  0.2500000  0.3315040  0.9988740  )

     number of k points=    64
                       cart. coord. in units 2pi/alat
        k(    1) = (   0.0000000   0.0000000   0.0000000), wk =   0.0058309
        k(    2) = (   0.0000000   0.0000000   0.0380403), wk =   0.0116618
        k(    3) = (   0.0000000   0.0000000   0.0760805), wk =   0.0116618
        k(    4) = (   0.0000000   0.0000000   0.1141208), wk =   0.0116618
        k(    5) = (   0.0000000   0.0641268   0.0000000), wk =   0.0116618
        k(    6) = (   0.0000000   0.0641268   0.0380403), wk =   0.0233236
        k(    7) = (   0.0000000   0.0641268   0.0760805), wk =   0.0233236
        k(    8) = (   0.0000000   0.0641268   0.1141208), wk =   0.0233236
        k(    9) = (   0.0000000   0.1282537   0.0000000), wk =   0.0116618
        k(   10) = (   0.0000000   0.1282537   0.0380403), wk =   0.0233236
        k(   11) = (   0.0000000   0.1282537   0.0760805), wk =   0.0233236
        k(   12) = (   0.0000000   0.1282537   0.1141208), wk =   0.0233236
        k(   13) = (   0.0000000   0.1923805   0.0000000), wk =   0.0116618
        k(   14) = (   0.0000000   0.1923805   0.0380403), wk =   0.0233236
        k(   15) = (   0.0000000   0.1923805   0.0760805), wk =   0.0233236
        k(   16) = (   0.0000000   0.1923805   0.1141208), wk =   0.0233236
        k(   17) = (   0.1428571   0.0000000   0.0000000), wk =   0.0116618
        k(   18) = (   0.1428571   0.0000000   0.0380403), wk =   0.0233236
        k(   19) = (   0.1428571   0.0000000   0.0760805), wk =   0.0233236
        k(   20) = (   0.1428571   0.0000000   0.1141208), wk =   0.0233236
        k(   21) = (   0.1428571   0.0641268   0.0000000), wk =   0.0233236
        k(   22) = (   0.1428571   0.0641268   0.0380403), wk =   0.0466472
        k(   23) = (   0.1428571   0.0641268   0.0760805), wk =   0.0466472
        k(   24) = (   0.1428571   0.0641268   0.1141208), wk =   0.0466472
        k(   25) = (   0.1428571   0.1282537   0.0000000), wk =   0.0233236
        k(   26) = (   0.1428571   0.1282537   0.0380403), wk =   0.0466472
        k(   27) = (   0.1428571   0.1282537   0.0760805), wk =   0.0466472
        k(   28) = (   0.1428571   0.1282537   0.1141208), wk =   0.0466472
        k(   29) = (   0.1428571   0.1923805   0.0000000), wk =   0.0233236
        k(   30) = (   0.1428571   0.1923805   0.0380403), wk =   0.0466472
        k(   31) = (   0.1428571   0.1923805   0.0760805), wk =   0.0466472
        k(   32) = (   0.1428571   0.1923805   0.1141208), wk =   0.0466472
        k(   33) = (   0.2857143   0.0000000   0.0000000), wk =   0.0116618
        k(   34) = (   0.2857143   0.0000000   0.0380403), wk =   0.0233236
        k(   35) = (   0.2857143   0.0000000   0.0760805), wk =   0.0233236
        k(   36) = (   0.2857143   0.0000000   0.1141208), wk =   0.0233236
        k(   37) = (   0.2857143   0.0641268   0.0000000), wk =   0.0233236
        k(   38) = (   0.2857143   0.0641268   0.0380403), wk =   0.0466472
        k(   39) = (   0.2857143   0.0641268   0.0760805), wk =   0.0466472
        k(   40) = (   0.2857143   0.0641268   0.1141208), wk =   0.0466472
        k(   41) = (   0.2857143   0.1282537   0.0000000), wk =   0.0233236
        k(   42) = (   0.2857143   0.1282537   0.0380403), wk =   0.0466472
        k(   43) = (   0.2857143   0.1282537   0.0760805), wk =   0.0466472
        k(   44) = (   0.2857143   0.1282537   0.1141208), wk =   0.0466472
        k(   45) = (   0.2857143   0.1923805   0.0000000), wk =   0.0233236
        k(   46) = (   0.2857143   0.1923805   0.0380403), wk =   0.0466472
        k(   47) = (   0.2857143   0.1923805   0.0760805), wk =   0.0466472
        k(   48) = (   0.2857143   0.1923805   0.1141208), wk =   0.0466472
        k(   49) = (   0.4285714   0.0000000   0.0000000), wk =   0.0116618
        k(   50) = (   0.4285714   0.0000000   0.0380403), wk =   0.0233236
        k(   51) = (   0.4285714   0.0000000   0.0760805), wk =   0.0233236
        k(   52) = (   0.4285714   0.0000000   0.1141208), wk =   0.0233236
        k(   53) = (   0.4285714   0.0641268   0.0000000), wk =   0.0233236
        k(   54) = (   0.4285714   0.0641268   0.0380403), wk =   0.0466472
        k(   55) = (   0.4285714   0.0641268   0.0760805), wk =   0.0466472
        k(   56) = (   0.4285714   0.0641268   0.1141208), wk =   0.0466472
        k(   57) = (   0.4285714   0.1282537   0.0000000), wk =   0.0233236
        k(   58) = (   0.4285714   0.1282537   0.0380403), wk =   0.0466472
        k(   59) = (   0.4285714   0.1282537   0.0760805), wk =   0.0466472
        k(   60) = (   0.4285714   0.1282537   0.1141208), wk =   0.0466472
        k(   61) = (   0.4285714   0.1923805   0.0000000), wk =   0.0233236
        k(   62) = (   0.4285714   0.1923805   0.0380403), wk =   0.0466472
        k(   63) = (   0.4285714   0.1923805   0.0760805), wk =   0.0466472
        k(   64) = (   0.4285714   0.1923805   0.1141208), wk =   0.0466472

                       cryst. coord.
        k(    1) = (   0.0000000   0.0000000   0.0000000), wk =   0.0058309
        k(    2) = (   0.0000000   0.0000000   0.1428571), wk =   0.0116618
        k(    3) = (   0.0000000   0.0000000   0.2857143), wk =   0.0116618
        k(    4) = (   0.0000000   0.0000000   0.4285714), wk =   0.0116618
        k(    5) = (   0.0000000   0.1428571   0.0000000), wk =   0.0116618
        k(    6) = (   0.0000000   0.1428571   0.1428571), wk =   0.0233236
        k(    7) = (   0.0000000   0.1428571   0.2857143), wk =   0.0233236
        k(    8) = (   0.0000000   0.1428571   0.4285714), wk =   0.0233236
        k(    9) = (   0.0000000   0.2857143   0.0000000), wk =   0.0116618
        k(   10) = (   0.0000000   0.2857143   0.1428571), wk =   0.0233236
        k(   11) = (   0.0000000   0.2857143   0.2857143), wk =   0.0233236
        k(   12) = (   0.0000000   0.2857143   0.4285714), wk =   0.0233236
        k(   13) = (   0.0000000   0.4285714   0.0000000), wk =   0.0116618
        k(   14) = (   0.0000000   0.4285714   0.1428571), wk =   0.0233236
        k(   15) = (   0.0000000   0.4285714   0.2857143), wk =   0.0233236
        k(   16) = (   0.0000000   0.4285714   0.4285714), wk =   0.0233236
        k(   17) = (   0.1428571   0.0000000   0.0000000), wk =   0.0116618
        k(   18) = (   0.1428571   0.0000000   0.1428571), wk =   0.0233236
        k(   19) = (   0.1428571   0.0000000   0.2857143), wk =   0.0233236
        k(   20) = (   0.1428571   0.0000000   0.4285714), wk =   0.0233236
        k(   21) = (   0.1428571   0.1428571   0.0000000), wk =   0.0233236
        k(   22) = (   0.1428571   0.1428571   0.1428571), wk =   0.0466472
        k(   23) = (   0.1428571   0.1428571   0.2857143), wk =   0.0466472
        k(   24) = (   0.1428571   0.1428571   0.4285714), wk =   0.0466472
        k(   25) = (   0.1428571   0.2857143   0.0000000), wk =   0.0233236
        k(   26) = (   0.1428571   0.2857143   0.1428571), wk =   0.0466472
        k(   27) = (   0.1428571   0.2857143   0.2857143), wk =   0.0466472
        k(   28) = (   0.1428571   0.2857143   0.4285714), wk =   0.0466472
        k(   29) = (   0.1428571   0.4285714   0.0000000), wk =   0.0233236
        k(   30) = (   0.1428571   0.4285714   0.1428571), wk =   0.0466472
        k(   31) = (   0.1428571   0.4285714   0.2857143), wk =   0.0466472
        k(   32) = (   0.1428571   0.4285714   0.4285714), wk =   0.0466472
        k(   33) = (   0.2857143   0.0000000   0.0000000), wk =   0.0116618
        k(   34) = (   0.2857143   0.0000000   0.1428571), wk =   0.0233236
        k(   35) = (   0.2857143   0.0000000   0.2857143), wk =   0.0233236
        k(   36) = (   0.2857143   0.0000000   0.4285714), wk =   0.0233236
        k(   37) = (   0.2857143   0.1428571   0.0000000), wk =   0.0233236
        k(   38) = (   0.2857143   0.1428571   0.1428571), wk =   0.0466472
        k(   39) = (   0.2857143   0.1428571   0.2857143), wk =   0.0466472
        k(   40) = (   0.2857143   0.1428571   0.4285714), wk =   0.0466472
        k(   41) = (   0.2857143   0.2857143   0.0000000), wk =   0.0233236
        k(   42) = (   0.2857143   0.2857143   0.1428571), wk =   0.0466472
        k(   43) = (   0.2857143   0.2857143   0.2857143), wk =   0.0466472
        k(   44) = (   0.2857143   0.2857143   0.4285714), wk =   0.0466472
        k(   45) = (   0.2857143   0.4285714   0.0000000), wk =   0.0233236
        k(   46) = (   0.2857143   0.4285714   0.1428571), wk =   0.0466472
        k(   47) = (   0.2857143   0.4285714   0.2857143), wk =   0.0466472
        k(   48) = (   0.2857143   0.4285714   0.4285714), wk =   0.0466472
        k(   49) = (   0.4285714   0.0000000   0.0000000), wk =   0.0116618
        k(   50) = (   0.4285714   0.0000000   0.1428571), wk =   0.0233236
        k(   51) = (   0.4285714   0.0000000   0.2857143), wk =   0.0233236
        k(   52) = (   0.4285714   0.0000000   0.4285714), wk =   0.0233236
        k(   53) = (   0.4285714   0.1428571   0.0000000), wk =   0.0233236
        k(   54) = (   0.4285714   0.1428571   0.1428571), wk =   0.0466472
        k(   55) = (   0.4285714   0.1428571   0.2857143), wk =   0.0466472
        k(   56) = (   0.4285714   0.1428571   0.4285714), wk =   0.0466472
        k(   57) = (   0.4285714   0.2857143   0.0000000), wk =   0.0233236
        k(   58) = (   0.4285714   0.2857143   0.1428571), wk =   0.0466472
        k(   59) = (   0.4285714   0.2857143   0.2857143), wk =   0.0466472
        k(   60) = (   0.4285714   0.2857143   0.4285714), wk =   0.0466472
        k(   61) = (   0.4285714   0.4285714   0.0000000), wk =   0.0233236
        k(   62) = (   0.4285714   0.4285714   0.1428571), wk =   0.0466472
        k(   63) = (   0.4285714   0.4285714   0.2857143), wk =   0.0466472
        k(   64) = (   0.4285714   0.4285714   0.4285714), wk =   0.0466472

     Dense  grid:   304449 G-vectors     FFT dimensions: (  48,  96, 160)

     Dynamical RAM for                 wfc:       1.61 MB

     Dynamical RAM for     wfc (w. buffer):     104.87 MB

     Dynamical RAM for           str. fact:       0.44 MB

     Dynamical RAM for           local pot:       0.00 MB

     Dynamical RAM for          nlocal pot:       7.61 MB

     Dynamical RAM for                qrad:      10.22 MB

     Dynamical RAM for          rho,v,vnew:       0.96 MB

     Dynamical RAM for               rhoin:       0.32 MB

     Dynamical RAM for            rho*nmix:       2.32 MB

     Dynamical RAM for           G-vectors:       0.62 MB

     Dynamical RAM for          h,s,v(r/c):       1.45 MB

     Dynamical RAM for          <psi|beta>:       0.57 MB

     Dynamical RAM for                 psi:       3.23 MB

     Dynamical RAM for                hpsi:       3.23 MB

     Dynamical RAM for                spsi:       3.23 MB

     Dynamical RAM for      wfcinit/wfcrot:       4.02 MB

     Dynamical RAM for           addusdens:      87.08 MB

     Dynamical RAM for          addusforce:      90.50 MB

     Dynamical RAM for         addusstress:      89.26 MB

     Estimated static dynamical RAM per process >     128.82 MB

     Estimated max dynamical RAM per process >     219.33 MB

     Estimated total dynamical RAM >       6.85 GB

     Check: negative core charge=   -0.000002

     Initial potential from superposition of free atoms

     starting charge  175.83511, renormalised to  176.00000
     Starting wfcs are  104 randomized atomic wfcs
     Checking if some PAW data can be deallocated... 
       PAW data deallocated on   24 nodes for type:  1
       PAW data deallocated on   16 nodes for type:  2
       PAW data deallocated on   24 nodes for type:  3

     total cpu time spent up to now is      113.2 secs

     Self-consistent Calculation

     iteration #  1     ecut=    50.00 Ry     beta= 0.70
     Davidson diagonalization with overlap
     ethr =  1.00E-02,  avg # of iterations =  2.0

     Threshold (ethr) on eigenvalues was too large:
     Diagonalizing with lowered threshold

     Davidson diagonalization with overlap
     ethr =  3.11E-04,  avg # of iterations =  4.0

     total cpu time spent up to now is      777.8 secs

     total energy              =   -7979.41497069 Ry
     estimated scf accuracy    <       0.44236492 Ry

     iteration #  2     ecut=    50.00 Ry     beta= 0.70
     Davidson diagonalization with overlap
     ethr =  2.51E-04,  avg # of iterations =  4.2

     total cpu time spent up to now is     1196.8 secs

     total energy              =   -7979.51191960 Ry
     estimated scf accuracy    <       0.54432751 Ry

     iteration #  3     ecut=    50.00 Ry     beta= 0.70
     Davidson diagonalization with overlap
     ethr =  2.51E-04,  avg # of iterations =  4.9

     total cpu time spent up to now is     1508.0 secs

     total energy              =   -7979.61200837 Ry
     estimated scf accuracy    <       0.01447530 Ry

     iteration #  4     ecut=    50.00 Ry     beta= 0.70
     Davidson diagonalization with overlap
     ethr =  8.22E-06,  avg # of iterations =  8.9

     total cpu time spent up to now is     2013.3 secs

     total energy              =   -7979.62631833 Ry
     estimated scf accuracy    <       0.00586138 Ry

     iteration #  5     ecut=    50.00 Ry     beta= 0.70
     Davidson diagonalization with overlap
     c_bands:  1 eigenvalues not converged
     c_bands:  1 eigenvalues not converged
     ethr =  3.33E-06,  avg # of iterations =  5.5

     total cpu time spent up to now is     2303.8 secs

     total energy              =   -7979.62668081 Ry
     estimated scf accuracy    <       0.00117136 Ry

     iteration #  6     ecut=    50.00 Ry     beta= 0.70
     Davidson diagonalization with overlap
     ethr =  6.66E-07,  avg # of iterations =  5.2

     total cpu time spent up to now is     2736.7 secs

     total energy              =   -7979.62718521 Ry
     estimated scf accuracy    <       0.00018128 Ry

     iteration #  7     ecut=    50.00 Ry     beta= 0.70
     Davidson diagonalization with overlap
     ethr =  1.03E-07,  avg # of iterations =  4.5

     total cpu time spent up to now is     3051.2 secs

     total energy              =   -7979.62723681 Ry
     estimated scf accuracy    <       0.00001906 Ry

     iteration #  8     ecut=    50.00 Ry     beta= 0.70
     Davidson diagonalization with overlap
     ethr =  1.08E-08,  avg # of iterations =  5.2

     total cpu time spent up to now is     3483.9 secs

     total energy              =   -7979.62723494 Ry
     estimated scf accuracy    <       0.00001933 Ry

     iteration #  9     ecut=    50.00 Ry     beta= 0.70
     Davidson diagonalization with overlap
     ethr =  1.08E-08,  avg # of iterations =  5.1

     total cpu time spent up to now is     3799.8 secs

     total energy              =   -7979.62724122 Ry
     estimated scf accuracy    <       0.00000547 Ry

     iteration # 10     ecut=    50.00 Ry     beta= 0.70
     Davidson diagonalization with overlap
     ethr =  3.11E-09,  avg # of iterations =  2.0

     total cpu time spent up to now is     4088.9 secs

     total energy              =   -7979.62724026 Ry
     estimated scf accuracy    <       0.00000279 Ry

     iteration # 11     ecut=    50.00 Ry     beta= 0.70
     Davidson diagonalization with overlap
     ethr =  1.59E-09,  avg # of iterations =  5.9

     total cpu time spent up to now is     4426.6 secs

     End of self-consistent calculation

          k = 0.0000 0.0000 0.0000 ( 37989 PWs)   bands (ev):

   -17.8638 -17.8638 -17.8636 -17.8636 -17.8604 -17.8604 -17.8601 -17.8600
   -17.8516 -17.8516 -17.8509 -17.8509 -17.8470 -17.8470 -17.8455 -17.8455
   -17.8401 -17.8401 -17.8387 -17.8387 -17.7824 -17.7822 -17.7815 -17.7813
    -8.8074  -8.7832  -8.6007  -8.5395  -8.4524  -8.4430  -8.4240  -8.4138
    -8.2863  -8.2622  -8.2457  -8.2020  -4.6117  -4.6093  -4.6077  -4.6015
    -4.5919  -4.5662  -4.5507  -4.5489  -4.5425  -4.5409  -4.5367  -4.5337
    -2.8859  -2.8610  -2.8228  -2.7421   0.1215   0.3225   0.7507   0.8838
     0.8982   0.9833   1.1108   1.1202   1.2107   1.2732   1.3212   1.3258
     1.3289   1.5511   1.6283   1.7298   1.7770   1.7921   1.8065   1.8130
     1.8182   1.8318   1.9757   2.0593   2.0648   2.1697   2.2023   2.2192
     2.2304   2.2324   2.3103   2.3127   2.3774   2.4734   2.6219   2.9217
     5.3010

     occupation numbers 
     1.0000   1.0000   1.0000   1.0000   1.0000   1.0000   1.0000   1.0000
     1.0000   1.0000   1.0000   1.0000   1.0000   1.0000   1.0000   1.0000
     1.0000   1.0000   1.0000   1.0000   1.0000   1.0000   1.0000   1.0000
     1.0000   1.0000   1.0000   1.0000   1.0000   1.0000   1.0000   1.0000
     1.0000   1.0000   1.0000   1.0000   1.0000   1.0000   1.0000   1.0000
     1.0000   1.0000   1.0000   1.0000   1.0000   1.0000   1.0000   1.0000
     1.0000   1.0000   1.0000   1.0000   1.0000   1.0000   1.0000   1.0000
     1.0000   1.0000   1.0000   1.0000   1.0000   1.0000   1.0000   1.0000
     1.0000   1.0000   1.0000   1.0000   1.0000   1.0000   1.0000   1.0000
     1.0000   1.0000   1.0000   1.0000   1.0000   1.0000   1.0000   1.0000
     1.0000   1.0000   1.0000   1.0000   1.0000   1.0000   1.0000   1.0000
     0.0000

          k = 0.0000 0.0000 0.0380 ( 38057 PWs)   bands (ev):

   -17.8638 -17.8638 -17.8636 -17.8636 -17.8604 -17.8604 -17.8601 -17.8601
   -17.8516 -17.8516 -17.8509 -17.8509 -17.8471 -17.8471 -17.8455 -17.8455
   -17.8401 -17.8401 -17.8387 -17.8387 -17.7824 -17.7822 -17.7815 -17.7813
    -8.8064  -8.7847  -8.5977  -8.5427  -8.4520  -8.4435  -8.4232  -8.4141
    -8.2858  -8.2659  -8.2410  -8.2035  -4.6134  -4.6109  -4.6073  -4.5971
    -4.5926  -4.5674  -4.5506  -4.5490  -4.5424  -4.5409  -4.5364  -4.5337
    -2.8853  -2.8642  -2.8169  -2.7455   0.1296   0.3100   0.7588   0.8844
     0.8974   0.9597   1.1159   1.1362   1.2322   1.2603   1.2758   1.3232
     1.3988   1.5426   1.6171   1.7016   1.7760   1.8055   1.8074   1.8131
     1.8184   1.8307   1.9759   2.0431   2.0654   2.1643   2.2031   2.2196
     2.2246   2.2295   2.3173   2.3460   2.3749   2.4724   2.6315   2.9066
     5.3035

     occupation numbers 
     1.0000   1.0000   1.0000   1.0000   1.0000   1.0000   1.0000   1.0000
     1.0000   1.0000   1.0000   1.0000   1.0000   1.0000   1.0000   1.0000
     1.0000   1.0000   1.0000   1.0000   1.0000   1.0000   1.0000   1.0000
     1.0000   1.0000   1.0000   1.0000   1.0000   1.0000   1.0000   1.0000
     1.0000   1.0000   1.0000   1.0000   1.0000   1.0000   1.0000   1.0000
     1.0000   1.0000   1.0000   1.0000   1.0000   1.0000   1.0000   1.0000
     1.0000   1.0000   1.0000   1.0000   1.0000   1.0000   1.0000   1.0000
     1.0000   1.0000   1.0000   1.0000   1.0000   1.0000   1.0000   1.0000
     1.0000   1.0000   1.0000   1.0000   1.0000   1.0000   1.0000   1.0000
     1.0000   1.0000   1.0000   1.0000   1.0000   1.0000   1.0000   1.0000
     1.0000   1.0000   1.0000   1.0000   1.0000   1.0000   1.0000   1.0000
     0.0000

          k = 0.0000 0.0000 0.0761 ( 38027 PWs)   bands (ev):

   -17.8638 -17.8638 -17.8636 -17.8636 -17.8604 -17.8604 -17.8601 -17.8601
   -17.8516 -17.8516 -17.8509 -17.8509 -17.8471 -17.8471 -17.8455 -17.8455
   -17.8401 -17.8401 -17.8387 -17.8387 -17.7824 -17.7822 -17.7815 -17.7813
    -8.8035  -8.7886  -8.5893  -8.5515  -8.4507  -8.4448  -8.4211  -8.4150
    -8.2841  -8.2719  -8.2322  -8.2077  -4.6154  -4.6145  -4.6043  -4.5949
    -4.5896  -4.5707  -4.5504  -4.5493  -4.5421  -4.5411  -4.5357  -4.5338
    -2.8835  -2.8703  -2.8031  -2.7552   0.1533   0.2770   0.7822   0.8863
     0.8953   0.9133   1.1156   1.1749   1.2224   1.2735   1.2830   1.3157
     1.4734   1.5206   1.5855   1.6537   1.7765   1.8098   1.8123   1.8134
     1.8191   1.8279   1.9764   2.0069   2.0816   2.1489   2.2056   2.2207
     2.2219   2.2230   2.3286   2.3676   2.4039   2.4690   2.6649   2.8633
     5.3127

     occupation numbers 
     1.0000   1.0000   1.0000   1.0000   1.0000   1.0000   1.0000   1.0000
     1.0000   1.0000   1.0000   1.0000   1.0000   1.0000   1.0000   1.0000
     1.0000   1.0000   1.0000   1.0000   1.0000   1.0000   1.0000   1.0000
     1.0000   1.0000   1.0000   1.0000   1.0000   1.0000   1.0000   1.0000
     1.0000   1.0000   1.0000   1.0000   1.0000   1.0000   1.0000   1.0000
     1.0000   1.0000   1.0000   1.0000   1.0000   1.0000   1.0000   1.0000
     1.0000   1.0000   1.0000   1.0000   1.0000   1.0000   1.0000   1.0000
     1.0000   1.0000   1.0000   1.0000   1.0000   1.0000   1.0000   1.0000
     1.0000   1.0000   1.0000   1.0000   1.0000   1.0000   1.0000   1.0000
     1.0000   1.0000   1.0000   1.0000   1.0000   1.0000   1.0000   1.0000
     1.0000   1.0000   1.0000   1.0000   1.0000   1.0000   1.0000   1.0000
     0.0000

          k = 0.0000 0.0000 0.1141 ( 38014 PWs)   bands (ev):

   -17.8638 -17.8638 -17.8636 -17.8636 -17.8604 -17.8604 -17.8601 -17.8601
   -17.8516 -17.8516 -17.8509 -17.8509 -17.8471 -17.8471 -17.8455 -17.8455
   -17.8401 -17.8401 -17.8387 -17.8387 -17.7823 -17.7823 -17.7814 -17.7813
    -8.7991  -8.7938  -8.5773  -8.5639  -8.4488  -8.4467  -8.4186  -8.4165
    -8.2812  -8.2772  -8.2228  -8.2144  -4.6165  -4.6163  -4.6010  -4.5977
    -4.5825  -4.5759  -4.5501  -4.5497  -4.5418  -4.5414  -4.5348  -4.5341
    -2.8805  -2.8760  -2.7863  -2.7695   0.1896   0.2334   0.8183   0.8636
     0.8891   0.8923   1.1283   1.1536   1.2608   1.2920   1.2935   1.3051
     1.5094   1.5279   1.5567   1.6045   1.7846   1.8005   1.8123   1.8134
     1.8208   1.8242   1.9783   1.9856   2.1038   2.1275   2.2099   2.2158
     2.2216   2.2219   2.3427   2.3564   2.4430   2.4613   2.7255   2.7984
     5.3249

     occupation numbers 
     1.0000   1.0000   1.0000   1.0000   1.0000   1.0000   1.0000   1.0000
     1.0000   1.0000   1.0000   1.0000   1.0000   1.0000   1.0000   1.0000
     1.0000   1.0000   1.0000   1.0000   1.0000   1.0000   1.0000   1.0000
     1.0000   1.0000   1.0000   1.0000   1.0000   1.0000   1.0000   1.0000
     1.0000   1.0000   1.0000   1.0000   1.0000   1.0000   1.0000   1.0000
     1.0000   1.0000   1.0000   1.0000   1.0000   1.0000   1.0000   1.0000
     1.0000   1.0000   1.0000   1.0000   1.0000   1.0000   1.0000   1.0000
     1.0000   1.0000   1.0000   1.0000   1.0000   1.0000   1.0000   1.0000
     1.0000   1.0000   1.0000   1.0000   1.0000   1.0000   1.0000   1.0000
     1.0000   1.0000   1.0000   1.0000   1.0000   1.0000   1.0000   1.0000
     1.0000   1.0000   1.0000   1.0000   1.0000   1.0000   1.0000   1.0000
     0.0000

          k = 0.0000 0.0641 0.0000 ( 38044 PWs)   bands (ev):

   -17.8638 -17.8638 -17.8636 -17.8636 -17.8604 -17.8604 -17.8601 -17.8601
   -17.8516 -17.8516 -17.8509 -17.8509 -17.8471 -17.8470 -17.8455 -17.8455
   -17.8401 -17.8401 -17.8387 -17.8387 -17.7824 -17.7821 -17.7816 -17.7813
    -8.8030  -8.7804  -8.6030  -8.5562  -8.4673  -8.4547  -8.4173  -8.3833
    -8.2798  -8.2633  -8.2467  -8.2045  -4.6140  -4.6135  -4.6004  -4.5998
    -4.5941  -4.5642  -4.5503  -4.5485  -4.5429  -4.5413  -4.5407  -4.5362
    -2.8920  -2.8664  -2.8096  -2.7398   0.1345   0.3211   0.7630   0.8925
     0.9057   0.9339   1.1198   1.1268   1.2419   1.2587   1.3019   1.3229
     1.3444   1.5636   1.5929   1.6899   1.7458   1.7698   1.7862   1.8405
     1.8597   1.8798   1.9676   2.0638   2.0709   2.1029   2.1856   2.2141
     2.2320   2.2348   2.3066   2.3408   2.3713   2.5759   2.5806   2.9461
     5.2450

     occupation numbers 
     1.0000   1.0000   1.0000   1.0000   1.0000   1.0000   1.0000   1.0000
     1.0000   1.0000   1.0000   1.0000   1.0000   1.0000   1.0000   1.0000
     1.0000   1.0000   1.0000   1.0000   1.0000   1.0000   1.0000   1.0000
     1.0000   1.0000   1.0000   1.0000   1.0000   1.0000   1.0000   1.0000
     1.0000   1.0000   1.0000   1.0000   1.0000   1.0000   1.0000   1.0000
     1.0000   1.0000   1.0000   1.0000   1.0000   1.0000   1.0000   1.0000
     1.0000   1.0000   1.0000   1.0000   1.0000   1.0000   1.0000   1.0000
     1.0000   1.0000   1.0000   1.0000   1.0000   1.0000   1.0000   1.0000
     1.0000   1.0000   1.0000   1.0000   1.0000   1.0000   1.0000   1.0000
     1.0000   1.0000   1.0000   1.0000   1.0000   1.0000   1.0000   1.0000
     1.0000   1.0000   1.0000   1.0000   1.0000   1.0000   1.0000   1.0000
     0.0000

          k = 0.0000 0.0641 0.0380 ( 38046 PWs)   bands (ev):

   -17.8638 -17.8638 -17.8636 -17.8636 -17.8604 -17.8604 -17.8601 -17.8601
   -17.8516 -17.8516 -17.8509 -17.8509 -17.8471 -17.8470 -17.8455 -17.8455
   -17.8401 -17.8401 -17.8387 -17.8387 -17.7824 -17.7821 -17.7815 -17.7813
    -8.8020  -8.7818  -8.6004  -8.5583  -8.4673  -8.4564  -8.4147  -8.3845
    -8.2797  -8.2660  -8.2425  -8.2059  -4.6156  -4.6118  -4.6052  -4.5953
    -4.5931  -4.5654  -4.5502  -4.5486  -4.5428  -4.5413  -4.5403  -4.5363
    -2.8911  -2.8686  -2.8052  -2.7429   0.1423   0.3098   0.7699   0.8931
     0.9050   0.9227   1.1188   1.1415   1.2336   1.2608   1.2955   1.2998
     1.3968   1.5552   1.5871   1.6856   1.7450   1.7704   1.7852   1.8314
     1.8609   1.8790   1.9679   2.0302   2.0753   2.1254   2.1902   2.2144
     2.2314   2.2324   2.3112   2.3543   2.3688   2.5410   2.6241   2.9316
     5.2492

     occupation numbers 
     1.0000   1.0000   1.0000   1.0000   1.0000   1.0000   1.0000   1.0000
     1.0000   1.0000   1.0000   1.0000   1.0000   1.0000   1.0000   1.0000
     1.0000   1.0000   1.0000   1.0000   1.0000   1.0000   1.0000   1.0000
     1.0000   1.0000   1.0000   1.0000   1.0000   1.0000   1.0000   1.0000
     1.0000   1.0000   1.0000   1.0000   1.0000   1.0000   1.0000   1.0000
     1.0000   1.0000   1.0000   1.0000   1.0000   1.0000   1.0000   1.0000
     1.0000   1.0000   1.0000   1.0000   1.0000   1.0000   1.0000   1.0000
     1.0000   1.0000   1.0000   1.0000   1.0000   1.0000   1.0000   1.0000
     1.0000   1.0000   1.0000   1.0000   1.0000   1.0000   1.0000   1.0000
     1.0000   1.0000   1.0000   1.0000   1.0000   1.0000   1.0000   1.0000
     1.0000   1.0000   1.0000   1.0000   1.0000   1.0000   1.0000   1.0000
     0.0000

          k = 0.0000 0.0641 0.0761 ( 38045 PWs)   bands (ev):

   -17.8638 -17.8638 -17.8636 -17.8636 -17.8604 -17.8604 -17.8601 -17.8601
   -17.8516 -17.8516 -17.8509 -17.8509 -17.8471 -17.8471 -17.8455 -17.8455
   -17.8401 -17.8401 -17.8387 -17.8387 -17.7823 -17.7822 -17.7815 -17.7813
    -8.7993  -8.7854  -8.5933  -8.5641  -8.4672  -8.4600  -8.4085  -8.3879
    -8.2790  -8.2704  -8.2341  -8.2101  -4.6167  -4.6125  -4.6060  -4.5971
    -4.5863  -4.5685  -4.5500  -4.5489  -4.5425  -4.5415  -4.5393  -4.5365
    -2.8886  -2.8738  -2.7941  -2.7517   0.1646   0.2797   0.7899   0.8941
     0.8948   0.9030   1.1214   1.1792   1.1988   1.2669   1.2938   1.2987
     1.4534   1.5431   1.5767   1.6701   1.7434   1.7723   1.7825   1.8068
     1.8642   1.8768   1.9685   1.9949   2.0875   2.1318   2.2036   2.2155
     2.2272   2.2290   2.3225   2.3615   2.3891   2.5066   2.6833   2.8899
     5.2595

     occupation numbers 
     1.0000   1.0000   1.0000   1.0000   1.0000   1.0000   1.0000   1.0000
     1.0000   1.0000   1.0000   1.0000   1.0000   1.0000   1.0000   1.0000
     1.0000   1.0000   1.0000   1.0000   1.0000   1.0000   1.0000   1.0000
     1.0000   1.0000   1.0000   1.0000   1.0000   1.0000   1.0000   1.0000
     1.0000   1.0000   1.0000   1.0000   1.0000   1.0000   1.0000   1.0000
     1.0000   1.0000   1.0000   1.0000   1.0000   1.0000   1.0000   1.0000
     1.0000   1.0000   1.0000   1.0000   1.0000   1.0000   1.0000   1.0000
     1.0000   1.0000   1.0000   1.0000   1.0000   1.0000   1.0000   1.0000
     1.0000   1.0000   1.0000   1.0000   1.0000   1.0000   1.0000   1.0000
     1.0000   1.0000   1.0000   1.0000   1.0000   1.0000   1.0000   1.0000
     1.0000   1.0000   1.0000   1.0000   1.0000   1.0000   1.0000   1.0000
     0.0000

          k = 0.0000 0.0641 0.1141 ( 38037 PWs)   bands (ev):

   -17.8638 -17.8638 -17.8636 -17.8636 -17.8604 -17.8604 -17.8601 -17.8601
   -17.8516 -17.8516 -17.8509 -17.8509 -17.8471 -17.8470 -17.8455 -17.8455
   -17.8401 -17.8401 -17.8387 -17.8387 -17.7823 -17.7822 -17.7814 -17.7814
    -8.7952  -8.7903  -8.5835  -8.5731  -8.4661  -8.4636  -8.4008  -8.3936
    -8.2772  -8.2743  -8.2250  -8.2167  -4.6166  -4.6150  -4.6033  -4.6001
    -4.5794  -4.5734  -4.5497  -4.5493  -4.5422  -4.5418  -4.5381  -4.5371
    -2.8846  -2.8795  -2.7796  -2.7646   0.1987   0.2396   0.8204   0.8573
     0.8973   0.9003   1.1348   1.1600   1.2343   1.2756   1.2814   1.2852
     1.4932   1.5276   1.5944   1.6374   1.7518   1.7753   1.7757   1.7789
     1.8686   1.8732   1.9705   1.9770   2.1041   2.1208   2.2161   2.2179
     2.2219   2.2242   2.3366   2.3503   2.4311   2.4707   2.7543   2.8273
     5.2693

     occupation numbers 
     1.0000   1.0000   1.0000   1.0000   1.0000   1.0000   1.0000   1.0000
     1.0000   1.0000   1.0000   1.0000   1.0000   1.0000   1.0000   1.0000
     1.0000   1.0000   1.0000   1.0000   1.0000   1.0000   1.0000   1.0000
     1.0000   1.0000   1.0000   1.0000   1.0000   1.0000   1.0000   1.0000
     1.0000   1.0000   1.0000   1.0000   1.0000   1.0000   1.0000   1.0000
     1.0000   1.0000   1.0000   1.0000   1.0000   1.0000   1.0000   1.0000
     1.0000   1.0000   1.0000   1.0000   1.0000   1.0000   1.0000   1.0000
     1.0000   1.0000   1.0000   1.0000   1.0000   1.0000   1.0000   1.0000
     1.0000   1.0000   1.0000   1.0000   1.0000   1.0000   1.0000   1.0000
     1.0000   1.0000   1.0000   1.0000   1.0000   1.0000   1.0000   1.0000
     1.0000   1.0000   1.0000   1.0000   1.0000   1.0000   1.0000   1.0000
     0.0000

          k = 0.0000 0.1283 0.0000 ( 38066 PWs)   bands (ev):

   -17.8638 -17.8638 -17.8636 -17.8636 -17.8604 -17.8604 -17.8601 -17.8601
   -17.8516 -17.8516 -17.8509 -17.8509 -17.8471 -17.8471 -17.8455 -17.8455
   -17.8401 -17.8401 -17.8387 -17.8387 -17.7822 -17.7820 -17.7817 -17.7814
    -8.7913  -8.7741  -8.6095  -8.5874  -8.4811  -8.4810  -8.3849  -8.3574
    -8.2650  -8.2648  -8.2489  -8.2120  -4.6170  -4.6163  -4.5975  -4.5975
    -4.5897  -4.5604  -4.5509  -4.5491  -4.5474  -4.5440  -4.5429  -4.5424
    -2.8991  -2.8787  -2.7833  -2.7375   0.1712   0.3095   0.7897   0.8604
     0.9150   0.9247   1.1273   1.1729   1.2243   1.2489   1.2640   1.3287
     1.3924   1.5021   1.5312   1.6859   1.7431   1.7629   1.7629   1.7854
     1.9131   1.9321   1.9505   2.0459   2.0598   2.0858   2.2033   2.2340
     2.2355   2.2507   2.2900   2.3533   2.3613   2.4857   2.7509   2.9764
     5.1741

     occupation numbers 
     1.0000   1.0000   1.0000   1.0000   1.0000   1.0000   1.0000   1.0000
     1.0000   1.0000   1.0000   1.0000   1.0000   1.0000   1.0000   1.0000
     1.0000   1.0000   1.0000   1.0000   1.0000   1.0000   1.0000   1.0000
     1.0000   1.0000   1.0000   1.0000   1.0000   1.0000   1.0000   1.0000
     1.0000   1.0000   1.0000   1.0000   1.0000   1.0000   1.0000   1.0000
     1.0000   1.0000   1.0000   1.0000   1.0000   1.0000   1.0000   1.0000
     1.0000   1.0000   1.0000   1.0000   1.0000   1.0000   1.0000   1.0000
     1.0000   1.0000   1.0000   1.0000   1.0000   1.0000   1.0000   1.0000
     1.0000   1.0000   1.0000   1.0000   1.0000   1.0000   1.0000   1.0000
     1.0000   1.0000   1.0000   1.0000   1.0000   1.0000   1.0000   1.0000
     1.0000   1.0000   1.0000   1.0000   1.0000   1.0000   1.0000   1.0000
     0.0000

          k = 0.0000 0.1283 0.0380 ( 38062 PWs)   bands (ev):

   -17.8638 -17.8638 -17.8636 -17.8636 -17.8604 -17.8604 -17.8601 -17.8601
   -17.8516 -17.8516 -17.8509 -17.8509 -17.8471 -17.8470 -17.8455 -17.8455
   -17.8401 -17.8401 -17.8387 -17.8387 -17.7822 -17.7820 -17.7817 -17.7814
    -8.7906  -8.7751  -8.6081  -8.5882  -8.4822  -8.4803  -8.3840  -8.3589
    -8.2682  -8.2620  -8.2464  -8.2134  -4.6174  -4.6152  -4.6008  -4.5984
    -4.5859  -4.5616  -4.5500  -4.5491  -4.5475  -4.5439  -4.5431  -4.5425
    -2.8981  -2.8798  -2.7810  -2.7398   0.1775   0.3021   0.7929   0.8576
     0.9155   0.9242   1.1334   1.1718   1.2256   1.2477   1.2611   1.3053
     1.4221   1.4985   1.5309   1.6937   1.7349   1.7440   1.7619   1.8002
     1.9138   1.9312   1.9509   2.0227   2.0734   2.0950   2.2040   2.2327
     2.2352   2.2493   2.2944   2.3508   2.3689   2.4818   2.7603   2.9645
     5.1770

     occupation numbers 
     1.0000   1.0000   1.0000   1.0000   1.0000   1.0000   1.0000   1.0000
     1.0000   1.0000   1.0000   1.0000   1.0000   1.0000   1.0000   1.0000
     1.0000   1.0000   1.0000   1.0000   1.0000   1.0000   1.0000   1.0000
     1.0000   1.0000   1.0000   1.0000   1.0000   1.0000   1.0000   1.0000
     1.0000   1.0000   1.0000   1.0000   1.0000   1.0000   1.0000   1.0000
     1.0000   1.0000   1.0000   1.0000   1.0000   1.0000   1.0000   1.0000
     1.0000   1.0000   1.0000   1.0000   1.0000   1.0000   1.0000   1.0000
     1.0000   1.0000   1.0000   1.0000   1.0000   1.0000   1.0000   1.0000
     1.0000   1.0000   1.0000   1.0000   1.0000   1.0000   1.0000   1.0000
     1.0000   1.0000   1.0000   1.0000   1.0000   1.0000   1.0000   1.0000
     1.0000   1.0000   1.0000   1.0000   1.0000   1.0000   1.0000   1.0000
     0.0000

          k = 0.0000 0.1283 0.0761 ( 38055 PWs)   bands (ev):

   -17.8638 -17.8638 -17.8636 -17.8636 -17.8604 -17.8604 -17.8601 -17.8601
   -17.8516 -17.8516 -17.8509 -17.8509 -17.8471 -17.8471 -17.8455 -17.8455
   -17.8401 -17.8401 -17.8387 -17.8387 -17.7822 -17.7821 -17.7816 -17.7815
    -8.7885  -8.7778  -8.6043  -8.5906  -8.4829  -8.4806  -8.3809  -8.3633
    -8.2691  -8.2623  -8.2397  -8.2173  -4.6172  -4.6138  -4.6047  -4.6005
    -4.5798  -4.5646  -4.5489  -4.5481  -4.5478  -4.5436  -4.5436  -4.5426
    -2.8954  -2.8828  -2.7746  -2.7461   0.1954   0.2816   0.8025   0.8487
     0.9167   0.9228   1.1501   1.1720   1.2291   1.2436   1.2444   1.2832
     1.4475   1.5052   1.5380   1.6879   1.7198   1.7466   1.7590   1.8024
     1.9161   1.9284   1.9536   1.9951   2.0850   2.1072   2.2076   2.2289
     2.2355   2.2459   2.3054   2.3436   2.3899   2.4691   2.7885   2.9313
     5.1843

     occupation numbers 
     1.0000   1.0000   1.0000   1.0000   1.0000   1.0000   1.0000   1.0000
     1.0000   1.0000   1.0000   1.0000   1.0000   1.0000   1.0000   1.0000
     1.0000   1.0000   1.0000   1.0000   1.0000   1.0000   1.0000   1.0000
     1.0000   1.0000   1.0000   1.0000   1.0000   1.0000   1.0000   1.0000
     1.0000   1.0000   1.0000   1.0000   1.0000   1.0000   1.0000   1.0000
     1.0000   1.0000   1.0000   1.0000   1.0000   1.0000   1.0000   1.0000
     1.0000   1.0000   1.0000   1.0000   1.0000   1.0000   1.0000   1.0000
     1.0000   1.0000   1.0000   1.0000   1.0000   1.0000   1.0000   1.0000
     1.0000   1.0000   1.0000   1.0000   1.0000   1.0000   1.0000   1.0000
     1.0000   1.0000   1.0000   1.0000   1.0000   1.0000   1.0000   1.0000
     1.0000   1.0000   1.0000   1.0000   1.0000   1.0000   1.0000   1.0000
     0.0000

          k = 0.0000 0.1283 0.1141 ( 38077 PWs)   bands (ev):

   -17.8638 -17.8638 -17.8636 -17.8636 -17.8604 -17.8604 -17.8601 -17.8601
   -17.8516 -17.8516 -17.8509 -17.8509 -17.8471 -17.8470 -17.8455 -17.8455
   -17.8401 -17.8401 -17.8387 -17.8387 -17.7822 -17.7821 -17.7816 -17.7815
    -8.7853  -8.7815  -8.5993  -8.5944  -8.4827  -8.4817  -8.3758  -8.3694
    -8.2675  -8.2647  -8.2313  -8.2235  -4.6159  -4.6142  -4.6055  -4.6033
    -4.5738  -4.5687  -4.5486  -4.5482  -4.5462  -4.5447  -4.5432  -4.5429
    -2.8914  -2.8869  -2.7654  -2.7553   0.2221   0.2529   0.8173   0.8342
     0.9186   0.9208   1.1674   1.1750   1.2341   1.2349   1.2396   1.2572
     1.4647   1.4889   1.5857   1.6394   1.7505   1.7513   1.7549   1.7833
     1.9198   1.9243   1.9607   1.9740   2.0972   2.1069   2.2150   2.2228
     2.2377   2.2416   2.3192   2.3326   2.4186   2.4471   2.8323   2.8837
     5.1925

     occupation numbers 
     1.0000   1.0000   1.0000   1.0000   1.0000   1.0000   1.0000   1.0000
     1.0000   1.0000   1.0000   1.0000   1.0000   1.0000   1.0000   1.0000
     1.0000   1.0000   1.0000   1.0000   1.0000   1.0000   1.0000   1.0000
     1.0000   1.0000   1.0000   1.0000   1.0000   1.0000   1.0000   1.0000
     1.0000   1.0000   1.0000   1.0000   1.0000   1.0000   1.0000   1.0000
     1.0000   1.0000   1.0000   1.0000   1.0000   1.0000   1.0000   1.0000
     1.0000   1.0000   1.0000   1.0000   1.0000   1.0000   1.0000   1.0000
     1.0000   1.0000   1.0000   1.0000   1.0000   1.0000   1.0000   1.0000
     1.0000   1.0000   1.0000   1.0000   1.0000   1.0000   1.0000   1.0000
     1.0000   1.0000   1.0000   1.0000   1.0000   1.0000   1.0000   1.0000
     1.0000   1.0000   1.0000   1.0000   1.0000   1.0000   1.0000   1.0000
     0.0000

          k = 0.0000 0.1924 0.0000 ( 38070 PWs)   bands (ev):

   -17.8638 -17.8638 -17.8636 -17.8636 -17.8604 -17.8604 -17.8601 -17.8601
   -17.8516 -17.8516 -17.8509 -17.8509 -17.8470 -17.8470 -17.8455 -17.8455
   -17.8401 -17.8401 -17.8387 -17.8387 -17.7821 -17.7819 -17.7818 -17.7816
    -8.7778  -8.7710  -8.6158  -8.6105  -8.4927  -8.4911  -8.3596  -8.3486
    -8.2638  -8.2595  -8.2405  -8.2244  -4.6183  -4.6182  -4.5982  -4.5972
    -4.5774  -4.5639  -4.5562  -4.5505  -4.5475  -4.5458  -4.5457  -4.5440
    -2.8989  -2.8911  -2.7587  -2.7427   0.2233   0.2755   0.8084   0.8211
     0.9386   0.9423   1.1571   1.1956   1.2031   1.2150   1.2571   1.3736
     1.3806   1.4344   1.5084   1.6143   1.7362   1.7446   1.7757   1.7761
     1.9531   1.9606   1.9743   2.0356   2.0561   2.0738   2.2230   2.2330
     2.2492   2.2683   2.2879   2.3246   2.3802   2.4141   2.8877   2.9637
     5.1361

     occupation numbers 
     1.0000   1.0000   1.0000   1.0000   1.0000   1.0000   1.0000   1.0000
     1.0000   1.0000   1.0000   1.0000   1.0000   1.0000   1.0000   1.0000
     1.0000   1.0000   1.0000   1.0000   1.0000   1.0000   1.0000   1.0000
     1.0000   1.0000   1.0000   1.0000   1.0000   1.0000   1.0000   1.0000
     1.0000   1.0000   1.0000   1.0000   1.0000   1.0000   1.0000   1.0000
     1.0000   1.0000   1.0000   1.0000   1.0000   1.0000   1.0000   1.0000
     1.0000   1.0000   1.0000   1.0000   1.0000   1.0000   1.0000   1.0000
     1.0000   1.0000   1.0000   1.0000   1.0000   1.0000   1.0000   1.0000
     1.0000   1.0000   1.0000   1.0000   1.0000   1.0000   1.0000   1.0000
     1.0000   1.0000   1.0000   1.0000   1.0000   1.0000   1.0000   1.0000
     1.0000   1.0000   1.0000   1.0000   1.0000   1.0000   1.0000   1.0000
     0.0000

          k = 0.0000 0.1924 0.0380 ( 38078 PWs)   bands (ev):

   -17.8638 -17.8638 -17.8636 -17.8636 -17.8604 -17.8604 -17.8601 -17.8601
   -17.8516 -17.8516 -17.8509 -17.8509 -17.8471 -17.8470 -17.8455 -17.8455
   -17.8401 -17.8401 -17.8387 -17.8387 -17.7821 -17.7819 -17.7818 -17.7816
    -8.7775  -8.7714  -8.6156  -8.6107  -8.4925  -8.4907  -8.3601  -8.3501
    -8.2632  -8.2566  -8.2415  -8.2257  -4.6181  -4.6175  -4.5992  -4.5988
    -4.5757  -4.5638  -4.5560  -4.5507  -4.5474  -4.5461  -4.5453  -4.5441
    -2.8983  -2.8913  -2.7582  -2.7438   0.2266   0.2738   0.8072   0.8193
     0.9388   0.9421   1.1627   1.1960   1.2027   1.2179   1.2552   1.3642
     1.3700   1.4381   1.5139   1.6090   1.7368   1.7444   1.7725   1.7943
     1.9527   1.9596   1.9741   2.0284   2.0600   2.0774   2.2209   2.2307
     2.2508   2.2718   2.2860   2.3222   2.3844   2.4153   2.8882   2.9573
     5.1365

     occupation numbers 
     1.0000   1.0000   1.0000   1.0000   1.0000   1.0000   1.0000   1.0000
     1.0000   1.0000   1.0000   1.0000   1.0000   1.0000   1.0000   1.0000
     1.0000   1.0000   1.0000   1.0000   1.0000   1.0000   1.0000   1.0000
     1.0000   1.0000   1.0000   1.0000   1.0000   1.0000   1.0000   1.0000
     1.0000   1.0000   1.0000   1.0000   1.0000   1.0000   1.0000   1.0000
     1.0000   1.0000   1.0000   1.0000   1.0000   1.0000   1.0000   1.0000
     1.0000   1.0000   1.0000   1.0000   1.0000   1.0000   1.0000   1.0000
     1.0000   1.0000   1.0000   1.0000   1.0000   1.0000   1.0000   1.0000
     1.0000   1.0000   1.0000   1.0000   1.0000   1.0000   1.0000   1.0000
     1.0000   1.0000   1.0000   1.0000   1.0000   1.0000   1.0000   1.0000
     1.0000   1.0000   1.0000   1.0000   1.0000   1.0000   1.0000   1.0000
     0.0000

          k = 0.0000 0.1924 0.0761 ( 38066 PWs)   bands (ev):

   -17.8638 -17.8638 -17.8636 -17.8636 -17.8604 -17.8604 -17.8601 -17.8601
   -17.8516 -17.8516 -17.8509 -17.8509 -17.8471 -17.8470 -17.8455 -17.8455
   -17.8401 -17.8401 -17.8387 -17.8387 -17.7820 -17.7819 -17.7817 -17.7816
    -8.7766  -8.7724  -8.6148  -8.6115  -8.4917  -8.4900  -8.3609  -8.3538
    -8.2600  -8.2504  -8.2442  -8.2293  -4.6172  -4.6163  -4.6022  -4.6016
    -4.5720  -4.5640  -4.5552  -4.5513  -4.5473  -4.5465  -4.5450  -4.5442
    -2.8968  -2.8919  -2.7565  -2.7465   0.2355   0.2685   0.8053   0.8146
     0.9393   0.9415   1.1779   1.1971   1.2017   1.2210   1.2547   1.3321
     1.3675   1.4283   1.5332   1.5963   1.7384   1.7437   1.7869   1.8134
     1.9521   1.9571   1.9745   2.0115   2.0696   2.0836   2.2166   2.2250
     2.2559   2.2795   2.2821   2.3155   2.3948   2.4168   2.8917   2.9404
     5.1383

     occupation numbers 
     1.0000   1.0000   1.0000   1.0000   1.0000   1.0000   1.0000   1.0000
     1.0000   1.0000   1.0000   1.0000   1.0000   1.0000   1.0000   1.0000
     1.0000   1.0000   1.0000   1.0000   1.0000   1.0000   1.0000   1.0000
     1.0000   1.0000   1.0000   1.0000   1.0000   1.0000   1.0000   1.0000
     1.0000   1.0000   1.0000   1.0000   1.0000   1.0000   1.0000   1.0000
     1.0000   1.0000   1.0000   1.0000   1.0000   1.0000   1.0000   1.0000
     1.0000   1.0000   1.0000   1.0000   1.0000   1.0000   1.0000   1.0000
     1.0000   1.0000   1.0000   1.0000   1.0000   1.0000   1.0000   1.0000
     1.0000   1.0000   1.0000   1.0000   1.0000   1.0000   1.0000   1.0000
     1.0000   1.0000   1.0000   1.0000   1.0000   1.0000   1.0000   1.0000
     1.0000   1.0000   1.0000   1.0000   1.0000   1.0000   1.0000   1.0000
     0.0000

          k = 0.0000 0.1924 0.1141 ( 38073 PWs)   bands (ev):

   -17.8638 -17.8638 -17.8636 -17.8636 -17.8604 -17.8604 -17.8601 -17.8601
   -17.8516 -17.8516 -17.8509 -17.8509 -17.8471 -17.8471 -17.8455 -17.8455
   -17.8401 -17.8401 -17.8387 -17.8387 -17.7820 -17.7820 -17.7817 -17.7817
    -8.7753  -8.7738  -8.6137  -8.6125  -8.4907  -8.4899  -8.3603  -8.3578
    -8.2550  -8.2499  -8.2417  -8.2348  -4.6159  -4.6153  -4.6045  -4.6040
    -4.5683  -4.5655  -4.5538  -4.5524  -4.5471  -4.5468  -4.5447  -4.5444
    -2.8948  -2.8931  -2.7538  -2.7502   0.2476   0.2594   0.8055   0.8091
     0.9400   0.9408   1.1972   1.1986   1.2003   1.2135   1.2679   1.2963
     1.3799   1.4041   1.5578   1.5794   1.7405   1.7424   1.8075   1.8193
     1.9525   1.9543   1.9793   1.9927   2.0801   2.0857   2.2150   2.2185
     2.2636   2.2724   2.2932   2.3054   2.4066   2.4146   2.9018   2.9194
     5.1403

     occupation numbers 
     1.0000   1.0000   1.0000   1.0000   1.0000   1.0000   1.0000   1.0000
     1.0000   1.0000   1.0000   1.0000   1.0000   1.0000   1.0000   1.0000
     1.0000   1.0000   1.0000   1.0000   1.0000   1.0000   1.0000   1.0000
     1.0000   1.0000   1.0000   1.0000   1.0000   1.0000   1.0000   1.0000
     1.0000   1.0000   1.0000   1.0000   1.0000   1.0000   1.0000   1.0000
     1.0000   1.0000   1.0000   1.0000   1.0000   1.0000   1.0000   1.0000
     1.0000   1.0000   1.0000   1.0000   1.0000   1.0000   1.0000   1.0000
     1.0000   1.0000   1.0000   1.0000   1.0000   1.0000   1.0000   1.0000
     1.0000   1.0000   1.0000   1.0000   1.0000   1.0000   1.0000   1.0000
     1.0000   1.0000   1.0000   1.0000   1.0000   1.0000   1.0000   1.0000
     1.0000   1.0000   1.0000   1.0000   1.0000   1.0000   1.0000   1.0000
     0.0000

          k = 0.1429 0.0000 0.0000 ( 37979 PWs)   bands (ev):

   -17.8635 -17.8635 -17.8634 -17.8634 -17.8610 -17.8610 -17.8607 -17.8607
   -17.8515 -17.8515 -17.8509 -17.8509 -17.8464 -17.8464 -17.8451 -17.8450
   -17.8401 -17.8401 -17.8389 -17.8389 -17.7802 -17.7800 -17.7794 -17.7792
    -8.7673  -8.7442  -8.5742  -8.5182  -8.4322  -8.4222  -8.4043  -8.3943
    -8.2785  -8.2621  -8.2430  -8.2130  -4.6096  -4.6084  -4.6044  -4.6033
    -4.5894  -4.5874  -4.5843  -4.5835  -4.5776  -4.5669  -4.5450  -4.5434
    -2.9469  -2.9340  -2.8654  -2.8082   0.1971   0.3779   0.6628   0.6858
     0.7565   0.8466   0.8593   1.0182   1.1150   1.1150   1.1445   1.1873
     1.3712   1.4430   1.4651   1.4761   1.6679   1.7622   1.7951   1.8317
     1.8929   1.9669   1.9844   1.9937   2.0633   2.0754   2.0970   2.1239
     2.1476   2.1873   2.3161   2.3267   2.6916   2.7034   2.7844   3.0321
     5.5835

     occupation numbers 
     1.0000   1.0000   1.0000   1.0000   1.0000   1.0000   1.0000   1.0000
     1.0000   1.0000   1.0000   1.0000   1.0000   1.0000   1.0000   1.0000
     1.0000   1.0000   1.0000   1.0000   1.0000   1.0000   1.0000   1.0000
     1.0000   1.0000   1.0000   1.0000   1.0000   1.0000   1.0000   1.0000
     1.0000   1.0000   1.0000   1.0000   1.0000   1.0000   1.0000   1.0000
     1.0000   1.0000   1.0000   1.0000   1.0000   1.0000   1.0000   1.0000
     1.0000   1.0000   1.0000   1.0000   1.0000   1.0000   1.0000   1.0000
     1.0000   1.0000   1.0000   1.0000   1.0000   1.0000   1.0000   1.0000
     1.0000   1.0000   1.0000   1.0000   1.0000   1.0000   1.0000   1.0000
     1.0000   1.0000   1.0000   1.0000   1.0000   1.0000   1.0000   1.0000
     1.0000   1.0000   1.0000   1.0000   1.0000   1.0000   1.0000   1.0000
     0.0000

          k = 0.1429 0.0000 0.0380 ( 37997 PWs)   bands (ev):

   -17.8635 -17.8635 -17.8634 -17.8634 -17.8610 -17.8610 -17.8607 -17.8607
   -17.8515 -17.8515 -17.8509 -17.8509 -17.8464 -17.8464 -17.8451 -17.8450
   -17.8402 -17.8401 -17.8389 -17.8389 -17.7802 -17.7800 -17.7794 -17.7792
    -8.7663  -8.7456  -8.5714  -8.5211  -8.4317  -8.4227  -8.4036  -8.3946
    -8.2780  -8.2638  -8.2405  -8.2141  -4.6099  -4.6093  -4.6038  -4.6022
    -4.5904  -4.5893  -4.5831  -4.5830  -4.5770  -4.5672  -4.5447  -4.5433
    -2.9465  -2.9352  -2.8621  -2.8107   0.2038   0.3647   0.6718   0.6904
     0.7547   0.8183   0.8907   1.0171   1.1142   1.1154   1.1415   1.1819
     1.3709   1.4095   1.4763   1.5115   1.6848   1.7561   1.7731   1.7962
     1.9295   1.9551   1.9811   1.9884   2.0654   2.0771   2.1080   2.1172
     2.1538   2.1967   2.3155   2.3257   2.6902   2.6978   2.7997   3.0204
     5.5896

     occupation numbers 
     1.0000   1.0000   1.0000   1.0000   1.0000   1.0000   1.0000   1.0000
     1.0000   1.0000   1.0000   1.0000   1.0000   1.0000   1.0000   1.0000
     1.0000   1.0000   1.0000   1.0000   1.0000   1.0000   1.0000   1.0000
     1.0000   1.0000   1.0000   1.0000   1.0000   1.0000   1.0000   1.0000
     1.0000   1.0000   1.0000   1.0000   1.0000   1.0000   1.0000   1.0000
     1.0000   1.0000   1.0000   1.0000   1.0000   1.0000   1.0000   1.0000
     1.0000   1.0000   1.0000   1.0000   1.0000   1.0000   1.0000   1.0000
     1.0000   1.0000   1.0000   1.0000   1.0000   1.0000   1.0000   1.0000
     1.0000   1.0000   1.0000   1.0000   1.0000   1.0000   1.0000   1.0000
     1.0000   1.0000   1.0000   1.0000   1.0000   1.0000   1.0000   1.0000
     1.0000   1.0000   1.0000   1.0000   1.0000   1.0000   1.0000   1.0000
     0.0000

          k = 0.1429 0.0000 0.0761 ( 38029 PWs)   bands (ev):

   -17.8635 -17.8635 -17.8634 -17.8634 -17.8610 -17.8610 -17.8607 -17.8607
   -17.8515 -17.8515 -17.8509 -17.8509 -17.8464 -17.8464 -17.8451 -17.8450
   -17.8402 -17.8401 -17.8389 -17.8389 -17.7802 -17.7801 -17.7794 -17.7792
    -8.7636  -8.7493  -8.5636  -8.5290  -8.4303  -8.4241  -8.4017  -8.3957
    -8.2764  -8.2672  -8.2350  -8.2173  -4.6105  -4.6105  -4.6020  -4.6001
    -4.5925  -4.5924  -4.5825  -4.5820  -4.5751  -4.5683  -4.5442  -4.5433
    -2.9455  -2.9380  -2.8532  -2.8180   0.2234   0.3320   0.6917   0.7027
     0.7501   0.7879   0.9292   1.0109   1.1127   1.1155   1.1369   1.1679
     1.3684   1.3824   1.4895   1.5705   1.6906   1.7208   1.7393   1.7958
     1.9346   1.9532   1.9630   1.9901   2.0690   2.0801   2.1084   2.1168
     2.1804   2.2130   2.3141   2.3223   2.6868   2.6887   2.8371   2.9876
     5.6054

     occupation numbers 
     1.0000   1.0000   1.0000   1.0000   1.0000   1.0000   1.0000   1.0000
     1.0000   1.0000   1.0000   1.0000   1.0000   1.0000   1.0000   1.0000
     1.0000   1.0000   1.0000   1.0000   1.0000   1.0000   1.0000   1.0000
     1.0000   1.0000   1.0000   1.0000   1.0000   1.0000   1.0000   1.0000
     1.0000   1.0000   1.0000   1.0000   1.0000   1.0000   1.0000   1.0000
     1.0000   1.0000   1.0000   1.0000   1.0000   1.0000   1.0000   1.0000
     1.0000   1.0000   1.0000   1.0000   1.0000   1.0000   1.0000   1.0000
     1.0000   1.0000   1.0000   1.0000   1.0000   1.0000   1.0000   1.0000
     1.0000   1.0000   1.0000   1.0000   1.0000   1.0000   1.0000   1.0000
     1.0000   1.0000   1.0000   1.0000   1.0000   1.0000   1.0000   1.0000
     1.0000   1.0000   1.0000   1.0000   1.0000   1.0000   1.0000   1.0000
     0.0000

          k = 0.1429 0.0000 0.1141 ( 38042 PWs)   bands (ev):

   -17.8635 -17.8635 -17.8634 -17.8634 -17.8610 -17.8610 -17.8607 -17.8607
   -17.8515 -17.8515 -17.8509 -17.8509 -17.8464 -17.8464 -17.8451 -17.8451
   -17.8401 -17.8401 -17.8389 -17.8389 -17.7802 -17.7801 -17.7793 -17.7793
    -8.7594  -8.7543  -8.5525  -8.5402  -8.4284  -8.4262  -8.3994  -8.3973
    -8.2740  -8.2708  -8.2285  -8.2223  -4.6111  -4.6110  -4.5995  -4.5982
    -4.5953  -4.5947  -4.5820  -4.5818  -4.5725  -4.5701  -4.5437  -4.5433
    -2.9437  -2.9411  -2.8412  -2.8287   0.2539   0.2920   0.7106   0.7157
     0.7471   0.7615   0.9657   0.9943   1.1122   1.1137   1.1395   1.1513
     1.3657   1.3689   1.5281   1.5830   1.6581   1.6998   1.7655   1.7891
     1.9213   1.9287   1.9792   1.9873   2.0735   2.0786   2.1084   2.1139
     2.2100   2.2209   2.3137   2.3171   2.6837   2.6837   2.8867   2.9400
     5.6239

     occupation numbers 
     1.0000   1.0000   1.0000   1.0000   1.0000   1.0000   1.0000   1.0000
     1.0000   1.0000   1.0000   1.0000   1.0000   1.0000   1.0000   1.0000
     1.0000   1.0000   1.0000   1.0000   1.0000   1.0000   1.0000   1.0000
     1.0000   1.0000   1.0000   1.0000   1.0000   1.0000   1.0000   1.0000
     1.0000   1.0000   1.0000   1.0000   1.0000   1.0000   1.0000   1.0000
     1.0000   1.0000   1.0000   1.0000   1.0000   1.0000   1.0000   1.0000
     1.0000   1.0000   1.0000   1.0000   1.0000   1.0000   1.0000   1.0000
     1.0000   1.0000   1.0000   1.0000   1.0000   1.0000   1.0000   1.0000
     1.0000   1.0000   1.0000   1.0000   1.0000   1.0000   1.0000   1.0000
     1.0000   1.0000   1.0000   1.0000   1.0000   1.0000   1.0000   1.0000
     1.0000   1.0000   1.0000   1.0000   1.0000   1.0000   1.0000   1.0000
     0.0000

          k = 0.1429 0.0641 0.0000 ( 38018 PWs)   bands (ev):

   -17.8635 -17.8635 -17.8634 -17.8634 -17.8610 -17.8610 -17.8607 -17.8607
   -17.8515 -17.8515 -17.8509 -17.8509 -17.8464 -17.8464 -17.8451 -17.8450
   -17.8402 -17.8401 -17.8389 -17.8389 -17.7802 -17.7800 -17.7794 -17.7792
    -8.7631  -8.7416  -8.5761  -8.5324  -8.4473  -8.4325  -8.3981  -8.3667
    -8.2734  -8.2627  -8.2439  -8.2147  -4.6108  -4.6085  -4.6048  -4.6025
    -4.5909  -4.5904  -4.5848  -4.5843  -4.5741  -4.5643  -4.5465  -4.5447
    -2.9475  -2.9351  -2.8594  -2.8084   0.2091   0.3671   0.6230   0.6700
     0.7591   0.8578   0.8802   0.9687   1.1087   1.1229   1.1714   1.2183
     1.3997   1.4543   1.4624   1.5400   1.6507   1.7464   1.7960   1.8290
     1.8936   1.9379   1.9861   2.0018   2.0131   2.0763   2.1050   2.1336
     2.1452   2.2122   2.3082   2.3257   2.6380   2.6932   2.8261   3.0141
     5.5844

     occupation numbers 
     1.0000   1.0000   1.0000   1.0000   1.0000   1.0000   1.0000   1.0000
     1.0000   1.0000   1.0000   1.0000   1.0000   1.0000   1.0000   1.0000
     1.0000   1.0000   1.0000   1.0000   1.0000   1.0000   1.0000   1.0000
     1.0000   1.0000   1.0000   1.0000   1.0000   1.0000   1.0000   1.0000
     1.0000   1.0000   1.0000   1.0000   1.0000   1.0000   1.0000   1.0000
     1.0000   1.0000   1.0000   1.0000   1.0000   1.0000   1.0000   1.0000
     1.0000   1.0000   1.0000   1.0000   1.0000   1.0000   1.0000   1.0000
     1.0000   1.0000   1.0000   1.0000   1.0000   1.0000   1.0000   1.0000
     1.0000   1.0000   1.0000   1.0000   1.0000   1.0000   1.0000   1.0000
     1.0000   1.0000   1.0000   1.0000   1.0000   1.0000   1.0000   1.0000
     1.0000   1.0000   1.0000   1.0000   1.0000   1.0000   1.0000   1.0000
     0.0000

          k = 0.1429 0.0641 0.0380 ( 38032 PWs)   bands (ev):

   -17.8635 -17.8635 -17.8634 -17.8634 -17.8610 -17.8610 -17.8607 -17.8607
   -17.8515 -17.8515 -17.8509 -17.8509 -17.8464 -17.8464 -17.8451 -17.8450
   -17.8402 -17.8401 -17.8389 -17.8389 -17.7802 -17.7800 -17.7794 -17.7792
    -8.7622  -8.7429  -8.5737  -8.5344  -8.4471  -8.4342  -8.3957  -8.3679
    -8.2732  -8.2637  -8.2417  -8.2158  -4.6110  -4.6090  -4.6047  -4.6013
    -4.5921  -4.5912  -4.5845  -4.5838  -4.5735  -4.5646  -4.5463  -4.5447
    -2.9471  -2.9361  -2.8565  -2.8108   0.2154   0.3568   0.6286   0.6736
     0.7555   0.8320   0.9060   0.9745   1.1070   1.1219   1.1715   1.2140
     1.3954   1.4365   1.4681   1.5618   1.6643   1.7320   1.7781   1.8230
     1.9113   1.9361   1.9722   1.9882   2.0388   2.0772   2.1097   2.1285
     2.1475   2.2179   2.3076   2.3250   2.6403   2.6904   2.8339   3.0038
     5.5884

     occupation numbers 
     1.0000   1.0000   1.0000   1.0000   1.0000   1.0000   1.0000   1.0000
     1.0000   1.0000   1.0000   1.0000   1.0000   1.0000   1.0000   1.0000
     1.0000   1.0000   1.0000   1.0000   1.0000   1.0000   1.0000   1.0000
     1.0000   1.0000   1.0000   1.0000   1.0000   1.0000   1.0000   1.0000
     1.0000   1.0000   1.0000   1.0000   1.0000   1.0000   1.0000   1.0000
     1.0000   1.0000   1.0000   1.0000   1.0000   1.0000   1.0000   1.0000
     1.0000   1.0000   1.0000   1.0000   1.0000   1.0000   1.0000   1.0000
     1.0000   1.0000   1.0000   1.0000   1.0000   1.0000   1.0000   1.0000
     1.0000   1.0000   1.0000   1.0000   1.0000   1.0000   1.0000   1.0000
     1.0000   1.0000   1.0000   1.0000   1.0000   1.0000   1.0000   1.0000
     1.0000   1.0000   1.0000   1.0000   1.0000   1.0000   1.0000   1.0000
     0.0000

          k = 0.1429 0.0641 0.0761 ( 38039 PWs)   bands (ev):

   -17.8635 -17.8635 -17.8634 -17.8634 -17.8610 -17.8610 -17.8607 -17.8607
   -17.8515 -17.8515 -17.8509 -17.8509 -17.8464 -17.8464 -17.8451 -17.8450
   -17.8402 -17.8401 -17.8389 -17.8389 -17.7802 -17.7800 -17.7794 -17.7793
    -8.7596  -8.7463  -8.5672  -8.5399  -8.4464  -8.4379  -8.3900  -8.3712
    -8.2725  -8.2660  -8.2364  -8.2190  -4.6114  -4.6101  -4.6034  -4.5993
    -4.5948  -4.5929  -4.5839  -4.5833  -4.5717  -4.5656  -4.5457  -4.5446
    -2.9459  -2.9385  -2.8489  -2.8174   0.2337   0.3302   0.6438   0.6808
     0.7484   0.7986   0.9403   0.9855   1.1038   1.1182   1.1727   1.2018
     1.3877   1.4133   1.4824   1.5886   1.6774   1.7212   1.7660   1.8075
     1.9045   1.9366   1.9564   1.9882   2.0603   2.0783   2.1171   2.1229
     2.1613   2.2237   2.3077   2.3225   2.6471   2.6824   2.8568   2.9752
     5.5988

     occupation numbers 
     1.0000   1.0000   1.0000   1.0000   1.0000   1.0000   1.0000   1.0000
     1.0000   1.0000   1.0000   1.0000   1.0000   1.0000   1.0000   1.0000
     1.0000   1.0000   1.0000   1.0000   1.0000   1.0000   1.0000   1.0000
     1.0000   1.0000   1.0000   1.0000   1.0000   1.0000   1.0000   1.0000
     1.0000   1.0000   1.0000   1.0000   1.0000   1.0000   1.0000   1.0000
     1.0000   1.0000   1.0000   1.0000   1.0000   1.0000   1.0000   1.0000
     1.0000   1.0000   1.0000   1.0000   1.0000   1.0000   1.0000   1.0000
     1.0000   1.0000   1.0000   1.0000   1.0000   1.0000   1.0000   1.0000
     1.0000   1.0000   1.0000   1.0000   1.0000   1.0000   1.0000   1.0000
     1.0000   1.0000   1.0000   1.0000   1.0000   1.0000   1.0000   1.0000
     1.0000   1.0000   1.0000   1.0000   1.0000   1.0000   1.0000   1.0000
     0.0000

          k = 0.1429 0.0641 0.1141 ( 38041 PWs)   bands (ev):

   -17.8635 -17.8635 -17.8634 -17.8634 -17.8610 -17.8610 -17.8607 -17.8607
   -17.8515 -17.8515 -17.8509 -17.8509 -17.8464 -17.8464 -17.8451 -17.8451
   -17.8401 -17.8401 -17.8389 -17.8389 -17.7801 -17.7801 -17.7793 -17.7793
    -8.7557  -8.7510  -8.5580  -8.5483  -8.4447  -8.4418  -8.3831  -8.3765
    -8.2709  -8.2686  -8.2300  -8.2239  -4.6115  -4.6110  -4.6010  -4.5981
    -4.5969  -4.5949  -4.5834  -4.5831  -4.5695  -4.5673  -4.5451  -4.5447
    -2.9440  -2.9414  -2.8383  -2.8271   0.2617   0.2958   0.6636   0.6793
     0.7501   0.7691   0.9707   0.9875   1.1044   1.1111   1.1772   1.1872
     1.3866   1.3955   1.5140   1.5592   1.7056   1.7414   1.7586   1.7840
     1.8957   1.9073   1.9741   1.9839   2.0712   2.0766   2.1186   2.1213
     2.1901   2.2148   2.3118   2.3179   2.6579   2.6706   2.8926   2.9351
     5.6116

     occupation numbers 
     1.0000   1.0000   1.0000   1.0000   1.0000   1.0000   1.0000   1.0000
     1.0000   1.0000   1.0000   1.0000   1.0000   1.0000   1.0000   1.0000
     1.0000   1.0000   1.0000   1.0000   1.0000   1.0000   1.0000   1.0000
     1.0000   1.0000   1.0000   1.0000   1.0000   1.0000   1.0000   1.0000
     1.0000   1.0000   1.0000   1.0000   1.0000   1.0000   1.0000   1.0000
     1.0000   1.0000   1.0000   1.0000   1.0000   1.0000   1.0000   1.0000
     1.0000   1.0000   1.0000   1.0000   1.0000   1.0000   1.0000   1.0000
     1.0000   1.0000   1.0000   1.0000   1.0000   1.0000   1.0000   1.0000
     1.0000   1.0000   1.0000   1.0000   1.0000   1.0000   1.0000   1.0000
     1.0000   1.0000   1.0000   1.0000   1.0000   1.0000   1.0000   1.0000
     1.0000   1.0000   1.0000   1.0000   1.0000   1.0000   1.0000   1.0000
     0.0000

          k = 0.1429 0.1283 0.0000 ( 38052 PWs)   bands (ev):

   -17.8635 -17.8635 -17.8634 -17.8634 -17.8610 -17.8610 -17.8607 -17.8607
   -17.8515 -17.8515 -17.8509 -17.8509 -17.8464 -17.8464 -17.8451 -17.8450
   -17.8402 -17.8401 -17.8389 -17.8389 -17.7801 -17.7799 -17.7796 -17.7793
    -8.7522  -8.7358  -8.5817  -8.5602  -8.4603  -8.4574  -8.3686  -8.3435
    -8.2633  -8.2616  -8.2461  -8.2201  -4.6128  -4.6102  -4.6041  -4.6017
    -4.5958  -4.5931  -4.5858  -4.5844  -4.5680  -4.5598  -4.5506  -4.5480
    -2.9477  -2.9382  -2.8450  -2.8106   0.2411   0.3427   0.5699   0.6321
     0.7442   0.8137   0.9223   0.9610   1.0915   1.1450   1.2229   1.2814
     1.4646   1.4867   1.4877   1.5804   1.6330   1.7310   1.7971   1.8006
     1.8975   1.9172   1.9355   1.9877   2.0063   2.0759   2.1251   2.1504
     2.1584   2.2191   2.2780   2.3056   2.5858   2.6659   2.8708   2.9715
     5.5962

     occupation numbers 
     1.0000   1.0000   1.0000   1.0000   1.0000   1.0000   1.0000   1.0000
     1.0000   1.0000   1.0000   1.0000   1.0000   1.0000   1.0000   1.0000
     1.0000   1.0000   1.0000   1.0000   1.0000   1.0000   1.0000   1.0000
     1.0000   1.0000   1.0000   1.0000   1.0000   1.0000   1.0000   1.0000
     1.0000   1.0000   1.0000   1.0000   1.0000   1.0000   1.0000   1.0000
     1.0000   1.0000   1.0000   1.0000   1.0000   1.0000   1.0000   1.0000
     1.0000   1.0000   1.0000   1.0000   1.0000   1.0000   1.0000   1.0000
     1.0000   1.0000   1.0000   1.0000   1.0000   1.0000   1.0000   1.0000
     1.0000   1.0000   1.0000   1.0000   1.0000   1.0000   1.0000   1.0000
     1.0000   1.0000   1.0000   1.0000   1.0000   1.0000   1.0000   1.0000
     1.0000   1.0000   1.0000   1.0000   1.0000   1.0000   1.0000   1.0000
     0.0000

          k = 0.1429 0.1283 0.0380 ( 38060 PWs)   bands (ev):

   -17.8635 -17.8635 -17.8634 -17.8634 -17.8610 -17.8610 -17.8607 -17.8607
   -17.8515 -17.8515 -17.8509 -17.8509 -17.8464 -17.8464 -17.8451 -17.8450
   -17.8402 -17.8401 -17.8389 -17.8389 -17.7801 -17.7799 -17.7795 -17.7793
    -8.7515  -8.7367  -8.5804  -8.5611  -8.4606  -8.4575  -8.3676  -8.3449
    -8.2648  -8.2598  -8.2448  -8.2212  -4.6128  -4.6100  -4.6052  -4.6005
    -4.5967  -4.5935  -4.5855  -4.5844  -4.5675  -4.5601  -4.5503  -4.5480
    -2.9473  -2.9387  -2.8433  -2.8123   0.2463   0.3384   0.5709   0.6309
     0.7407   0.8185   0.9169   0.9671   1.0876   1.1414   1.2278   1.2778
     1.4477   1.4871   1.5034   1.5819   1.6423   1.7224   1.7874   1.8188
     1.8897   1.9079   1.9385   1.9873   2.0188   2.0753   2.1275   2.1504
     2.1544   2.2193   2.2785   2.3047   2.5908   2.6635   2.8730   2.9643
     5.5976

     occupation numbers 
     1.0000   1.0000   1.0000   1.0000   1.0000   1.0000   1.0000   1.0000
     1.0000   1.0000   1.0000   1.0000   1.0000   1.0000   1.0000   1.0000
     1.0000   1.0000   1.0000   1.0000   1.0000   1.0000   1.0000   1.0000
     1.0000   1.0000   1.0000   1.0000   1.0000   1.0000   1.0000   1.0000
     1.0000   1.0000   1.0000   1.0000   1.0000   1.0000   1.0000   1.0000
     1.0000   1.0000   1.0000   1.0000   1.0000   1.0000   1.0000   1.0000
     1.0000   1.0000   1.0000   1.0000   1.0000   1.0000   1.0000   1.0000
     1.0000   1.0000   1.0000   1.0000   1.0000   1.0000   1.0000   1.0000
     1.0000   1.0000   1.0000   1.0000   1.0000   1.0000   1.0000   1.0000
     1.0000   1.0000   1.0000   1.0000   1.0000   1.0000   1.0000   1.0000
     1.0000   1.0000   1.0000   1.0000   1.0000   1.0000   1.0000   1.0000
     0.0000

          k = 0.1429 0.1283 0.0761 ( 38061 PWs)   bands (ev):

   -17.8635 -17.8635 -17.8634 -17.8634 -17.8610 -17.8610 -17.8607 -17.8607
   -17.8515 -17.8515 -17.8509 -17.8509 -17.8464 -17.8464 -17.8451 -17.8451
   -17.8402 -17.8401 -17.8389 -17.8389 -17.7801 -17.7799 -17.7795 -17.7794
    -8.7494  -8.7393  -8.5768  -8.5635  -8.4608  -8.4581  -8.3648  -8.3489
    -8.2650  -8.2593  -8.2406  -8.2242  -4.6126  -4.6100  -4.6058  -4.5997
    -4.5981  -4.5944  -4.5850  -4.5842  -4.5661  -4.5609  -4.5496  -4.5480
    -2.9460  -2.9401  -2.8385  -2.8171   0.2609   0.3256   0.5763   0.6232
     0.7424   0.8122   0.9236   0.9736   1.0823   1.1259   1.2386   1.2692
     1.4409   1.4864   1.5116   1.5743   1.6724   1.7191   1.7845   1.8325
     1.8591   1.8913   1.9529   1.9859   2.0415   2.0732   2.1340   2.1463
     2.1544   2.2119   2.2826   2.3019   2.6045   2.6557   2.8810   2.9451
     5.6016

     occupation numbers 
     1.0000   1.0000   1.0000   1.0000   1.0000   1.0000   1.0000   1.0000
     1.0000   1.0000   1.0000   1.0000   1.0000   1.0000   1.0000   1.0000
     1.0000   1.0000   1.0000   1.0000   1.0000   1.0000   1.0000   1.0000
     1.0000   1.0000   1.0000   1.0000   1.0000   1.0000   1.0000   1.0000
     1.0000   1.0000   1.0000   1.0000   1.0000   1.0000   1.0000   1.0000
     1.0000   1.0000   1.0000   1.0000   1.0000   1.0000   1.0000   1.0000
     1.0000   1.0000   1.0000   1.0000   1.0000   1.0000   1.0000   1.0000
     1.0000   1.0000   1.0000   1.0000   1.0000   1.0000   1.0000   1.0000
     1.0000   1.0000   1.0000   1.0000   1.0000   1.0000   1.0000   1.0000
     1.0000   1.0000   1.0000   1.0000   1.0000   1.0000   1.0000   1.0000
     1.0000   1.0000   1.0000   1.0000   1.0000   1.0000   1.0000   1.0000
     0.0000

          k = 0.1429 0.1283 0.1141 ( 38058 PWs)   bands (ev):

   -17.8635 -17.8635 -17.8634 -17.8634 -17.8610 -17.8610 -17.8607 -17.8607
   -17.8515 -17.8515 -17.8509 -17.8509 -17.8464 -17.8464 -17.8451 -17.8451
   -17.8402 -17.8401 -17.8389 -17.8389 -17.7800 -17.7800 -17.7795 -17.7794
    -8.7464  -8.7428  -8.5721  -8.5673  -8.4604  -8.4592  -8.3601  -8.3544
    -8.2634  -8.2610  -8.2347  -8.2289  -4.6120  -4.6110  -4.6044  -4.6019
    -4.5970  -4.5956  -4.5845  -4.5843  -4.5642  -4.5623  -4.5489  -4.5483
    -2.9441  -2.9420  -2.8316  -2.8240   0.2821   0.3054   0.5892   0.6071
     0.7593   0.7866   0.9488   0.9692   1.0851   1.1017   1.2498   1.2597
     1.4528   1.4725   1.5260   1.5505   1.7111   1.7262   1.7861   1.8133
     1.8514   1.8715   1.9695   1.9806   2.0596   2.0689   2.1392   2.1420
     2.1689   2.1924   2.2900   2.2970   2.6233   2.6418   2.8969   2.9200
     5.6073

     occupation numbers 
     1.0000   1.0000   1.0000   1.0000   1.0000   1.0000   1.0000   1.0000
     1.0000   1.0000   1.0000   1.0000   1.0000   1.0000   1.0000   1.0000
     1.0000   1.0000   1.0000   1.0000   1.0000   1.0000   1.0000   1.0000
     1.0000   1.0000   1.0000   1.0000   1.0000   1.0000   1.0000   1.0000
     1.0000   1.0000   1.0000   1.0000   1.0000   1.0000   1.0000   1.0000
     1.0000   1.0000   1.0000   1.0000   1.0000   1.0000   1.0000   1.0000
     1.0000   1.0000   1.0000   1.0000   1.0000   1.0000   1.0000   1.0000
     1.0000   1.0000   1.0000   1.0000   1.0000   1.0000   1.0000   1.0000
     1.0000   1.0000   1.0000   1.0000   1.0000   1.0000   1.0000   1.0000
     1.0000   1.0000   1.0000   1.0000   1.0000   1.0000   1.0000   1.0000
     1.0000   1.0000   1.0000   1.0000   1.0000   1.0000   1.0000   1.0000
     0.0000

          k = 0.1429 0.1924 0.0000 ( 38054 PWs)   bands (ev):

   -17.8635 -17.8635 -17.8634 -17.8634 -17.8610 -17.8610 -17.8607 -17.8607
   -17.8515 -17.8515 -17.8509 -17.8509 -17.8464 -17.8464 -17.8451 -17.8451
   -17.8402 -17.8401 -17.8389 -17.8389 -17.7799 -17.7797 -17.7797 -17.7795
    -8.7395  -8.7331  -8.5869  -8.5815  -8.4693  -8.4688  -8.3458  -8.3359
    -8.2612  -8.2569  -8.2412  -8.2293  -4.6137  -4.6127  -4.6018  -4.6015
    -4.5988  -4.5967  -4.5852  -4.5846  -4.5620  -4.5561  -4.5557  -4.5518
    -2.9458  -2.9422  -2.8292  -2.8171   0.2808   0.3144   0.5533   0.5835
     0.7346   0.7536   0.9574   0.9752   1.1109   1.1446   1.2791   1.3119
     1.4902   1.4935   1.5413   1.6042   1.6549   1.6777   1.7363   1.8009
     1.8929   1.8981   1.9836   1.9956   1.9985   2.0570   2.1568   2.1647
     2.1868   2.1983   2.2312   2.2527   2.5917   2.6280   2.8996   2.9291
     5.6117

     occupation numbers 
     1.0000   1.0000   1.0000   1.0000   1.0000   1.0000   1.0000   1.0000
     1.0000   1.0000   1.0000   1.0000   1.0000   1.0000   1.0000   1.0000
     1.0000   1.0000   1.0000   1.0000   1.0000   1.0000   1.0000   1.0000
     1.0000   1.0000   1.0000   1.0000   1.0000   1.0000   1.0000   1.0000
     1.0000   1.0000   1.0000   1.0000   1.0000   1.0000   1.0000   1.0000
     1.0000   1.0000   1.0000   1.0000   1.0000   1.0000   1.0000   1.0000
     1.0000   1.0000   1.0000   1.0000   1.0000   1.0000   1.0000   1.0000
     1.0000   1.0000   1.0000   1.0000   1.0000   1.0000   1.0000   1.0000
     1.0000   1.0000   1.0000   1.0000   1.0000   1.0000   1.0000   1.0000
     1.0000   1.0000   1.0000   1.0000   1.0000   1.0000   1.0000   1.0000
     1.0000   1.0000   1.0000   1.0000   1.0000   1.0000   1.0000   1.0000
     0.0000

          k = 0.1429 0.1924 0.0380 ( 38054 PWs)   bands (ev):

   -17.8635 -17.8635 -17.8634 -17.8634 -17.8610 -17.8610 -17.8607 -17.8607
   -17.8515 -17.8515 -17.8509 -17.8509 -17.8464 -17.8464 -17.8451 -17.8451
   -17.8401 -17.8401 -17.8389 -17.8389 -17.7799 -17.7798 -17.7797 -17.7795
    -8.7392  -8.7334  -8.5867  -8.5818  -8.4693  -8.4682  -8.3462  -8.3372
    -8.2604  -8.2548  -8.2419  -8.2303  -4.6135  -4.6124  -4.6036  -4.6014
    -4.5986  -4.5965  -4.5851  -4.5845  -4.5616  -4.5563  -4.5553  -4.5519
    -2.9455  -2.9422  -2.8288  -2.8179   0.2843   0.3153   0.5500   0.5783
     0.7385   0.7651   0.9511   0.9726   1.0992   1.1325   1.2837   1.3122
     1.4893   1.5179   1.5476   1.6082   1.6498   1.6763   1.7295   1.7941
     1.8925   1.9033   1.9842   1.9967   2.0026   2.0553   2.1569   2.1647
[...]

          k = 0.4286 0.1924 0.1141 ( 38023 PWs)   bands (ev):

   -17.8637 -17.8637 -17.8636 -17.8636 -17.8624 -17.8624 -17.8623 -17.8623
   -17.8512 -17.8512 -17.8511 -17.8511 -17.8436 -17.8436 -17.8433 -17.8433
   -17.8401 -17.8401 -17.8398 -17.8398 -17.7712 -17.7712 -17.7710 -17.7710
    -8.5259  -8.5257  -8.4733  -8.4732  -8.3436  -8.3434  -8.2937  -8.2935
    -8.2833  -8.2814  -8.2753  -8.2739  -4.7533  -4.7524  -4.7390  -4.7381
    -4.5984  -4.5980  -4.5952  -4.5948  -4.5707  -4.5695  -4.5644  -4.5635
    -3.1779  -3.1762  -3.1536  -3.1522   0.1987   0.2010   0.2424   0.2429
     0.4494   0.4502   0.4933   0.4976   0.7491   0.7529   0.9679   0.9767
     1.3363   1.3419   1.4646   1.4710   1.6688   1.6769   1.7266   1.7451
     1.7841   1.7941   1.8034   1.8124   1.9150   1.9227   1.9608   1.9791
     2.0872   2.1010   2.1442   2.1514   2.8211   2.8455   2.9057   2.9145
     6.0924

     occupation numbers 
     1.0000   1.0000   1.0000   1.0000   1.0000   1.0000   1.0000   1.0000
     1.0000   1.0000   1.0000   1.0000   1.0000   1.0000   1.0000   1.0000
     1.0000   1.0000   1.0000   1.0000   1.0000   1.0000   1.0000   1.0000
     1.0000   1.0000   1.0000   1.0000   1.0000   1.0000   1.0000   1.0000
     1.0000   1.0000   1.0000   1.0000   1.0000   1.0000   1.0000   1.0000
     1.0000   1.0000   1.0000   1.0000   1.0000   1.0000   1.0000   1.0000
     1.0000   1.0000   1.0000   1.0000   1.0000   1.0000   1.0000   1.0000
     1.0000   1.0000   1.0000   1.0000   1.0000   1.0000   1.0000   1.0000
     1.0000   1.0000   1.0000   1.0000   1.0000   1.0000   1.0000   1.0000
     1.0000   1.0000   1.0000   1.0000   1.0000   1.0000   1.0000   1.0000
     1.0000   1.0000   1.0000   1.0000   1.0000   1.0000   1.0000   1.0000
     0.0000

     highest occupied, lowest unoccupied level (ev):     3.0531    5.1361

!    total energy              =   -7979.62724096 Ry

     total all-electron energy =   -282510.781953 Ry
     estimated scf accuracy    <       0.00000039 Ry

     The total energy is the sum of the following terms:
     one-electron contribution =    -463.62750021 Ry
     hartree contribution      =     316.58098986 Ry
     xc contribution           =    -465.88948420 Ry
     ewald contribution        =    -633.56960439 Ry
     one-center paw contrib.   =   -6733.12164201 Ry
      -> PAW hartree energy AE =      25.63872927 Ry
      -> PAW hartree energy PS =     -25.52917973 Ry
      -> PAW xc energy AE      =    -383.53088815 Ry
      -> PAW xc energy PS      =      20.51556165 Ry
      -> total E_H with PAW    =     316.69053940 Ry
      -> total E_XC with PAW   =    -828.90481070 Ry

     convergence has been achieved in  11 iterations

     Forces acting on atoms (cartesian axes, Ry/au):

     atom    1 type  3   force =     0.00000000   -0.00063336    0.00035352
     atom    2 type  3   force =    -0.00000000    0.00063336   -0.00035352
     atom    3 type  3   force =     0.00000000   -0.00063336   -0.00035352
     atom    4 type  3   force =     0.00000000    0.00063336    0.00035352
     atom    5 type  1   force =     0.00000000   -0.00034637    0.00022642
     atom    6 type  1   force =    -0.00000000    0.00034637   -0.00022642
     atom    7 type  1   force =     0.00000000   -0.00034637   -0.00022642
     atom    8 type  1   force =     0.00000000    0.00034637    0.00022642
     atom    9 type  2   force =     0.00000000    0.00001780   -0.00026349
     atom   10 type  2   force =     0.00000000   -0.00001780    0.00026349
     atom   11 type  2   force =     0.00000000    0.00001780    0.00026349
     atom   12 type  2   force =     0.00000000   -0.00001780   -0.00026349
     atom   13 type  2   force =     0.00000000   -0.00018468   -0.00041455
     atom   14 type  2   force =     0.00000000    0.00018468    0.00041455
     atom   15 type  2   force =    -0.00000000   -0.00018468    0.00041455
     atom   16 type  2   force =     0.00000000    0.00018468   -0.00041455
     atom   17 type  2   force =     0.00000000   -0.00047385    0.00034914
     atom   18 type  2   force =    -0.00000000    0.00047385   -0.00034914
     atom   19 type  2   force =     0.00000000   -0.00047385   -0.00034914
     atom   20 type  2   force =    -0.00000000    0.00047385    0.00034914
     The non-local contrib.  to forces
     atom    1 type  3   force =     0.00000000    0.00219801   -0.00231403
     atom    2 type  3   force =     0.00000000   -0.00219801    0.00231403
     atom    3 type  3   force =     0.00000000    0.00219801    0.00231403
     atom    4 type  3   force =     0.00000000   -0.00219801   -0.00231403
     atom    5 type  1   force =     0.00000000   -0.08697216   -0.13185763
     atom    6 type  1   force =     0.00000000    0.08697216    0.13185763
     atom    7 type  1   force =     0.00000000   -0.08697216    0.13185763
     atom    8 type  1   force =    -0.00000000    0.08697216   -0.13185763
     atom    9 type  2   force =    -0.00000000   -0.04829671   -0.04726887
     atom   10 type  2   force =     0.00000000    0.04829671    0.04726887
     atom   11 type  2   force =    -0.00000000   -0.04829671    0.04726887
     atom   12 type  2   force =     0.00000000    0.04829671   -0.04726887
     atom   13 type  2   force =    -0.00000000   -0.03284376    0.05565210
     atom   14 type  2   force =     0.00000000    0.03284376   -0.05565210
     atom   15 type  2   force =     0.00000000   -0.03284376   -0.05565210
     atom   16 type  2   force =     0.00000000    0.03284376    0.05565210
     atom   17 type  2   force =     0.00000000    0.05540788   -0.01652434
     atom   18 type  2   force =    -0.00000000   -0.05540788    0.01652434
     atom   19 type  2   force =     0.00000000    0.05540788    0.01652434
     atom   20 type  2   force =     0.00000000   -0.05540788   -0.01652434
     The ionic contribution  to forces
     atom    1 type  3   force =    -0.00000000    0.02273773    0.42856976
     atom    2 type  3   force =    -0.00000000   -0.02273773   -0.42856976
     atom    3 type  3   force =    -0.00000000    0.02273773   -0.42856976
     atom    4 type  3   force =     0.00000000   -0.02273773    0.42856976
     atom    5 type  1   force =     0.00000000   -2.44382135   -1.60292983
     atom    6 type  1   force =     0.00000000    2.44382135    1.60292983
     atom    7 type  1   force =    -0.00000000   -2.44382135    1.60292983
     atom    8 type  1   force =     0.00000000    2.44382135   -1.60292983
     atom    9 type  2   force =     0.00000000    3.00608891    5.13288893
     atom   10 type  2   force =     0.00000000   -3.00608891   -5.13288893
     atom   11 type  2   force =    -0.00000000    3.00608891   -5.13288893
     atom   12 type  2   force =    -0.00000000   -3.00608891    5.13288893
     atom   13 type  2   force =    -0.00000000    2.02422849   -3.75281499
     atom   14 type  2   force =     0.00000000   -2.02422849    3.75281499
     atom   15 type  2   force =    -0.00000000    2.02422849    3.75281499
     atom   16 type  2   force =     0.00000000   -2.02422849   -3.75281499
     atom   17 type  2   force =     0.00000000   -4.20564473    2.10270404
     atom   18 type  2   force =    -0.00000000    4.20564473   -2.10270404
     atom   19 type  2   force =     0.00000000   -4.20564473   -2.10270404
     atom   20 type  2   force =    -0.00000000    4.20564473    2.10270404
     The local contribution  to forces
     atom    1 type  3   force =     0.00000000   -0.02550885   -0.42636854
     atom    2 type  3   force =    -0.00000000    0.02550885    0.42636854
     atom    3 type  3   force =     0.00000000   -0.02550885    0.42636854
     atom    4 type  3   force =    -0.00000000    0.02550885   -0.42636854
     atom    5 type  1   force =    -0.00000000    2.52904433    1.73506331
     atom    6 type  1   force =    -0.00000000   -2.52904433   -1.73506331
     atom    7 type  1   force =    -0.00000000    2.52904433   -1.73506331
     atom    8 type  1   force =    -0.00000000   -2.52904433    1.73506331
     atom    9 type  2   force =     0.00000000   -2.96413964   -5.09237617
     atom   10 type  2   force =    -0.00000000    2.96413964    5.09237617
     atom   11 type  2   force =     0.00000000   -2.96413964    5.09237617
     atom   12 type  2   force =    -0.00000000    2.96413964   -5.09237617
     atom   13 type  2   force =     0.00000000   -1.99582408    3.70430050
     atom   14 type  2   force =    -0.00000000    1.99582408   -3.70430050
     atom   15 type  2   force =     0.00000000   -1.99582408   -3.70430050
     atom   16 type  2   force =    -0.00000000    1.99582408    3.70430050
     atom   17 type  2   force =    -0.00000000    4.15705219   -2.08830236
     atom   18 type  2   force =    -0.00000000   -4.15705219    2.08830236
     atom   19 type  2   force =     0.00000000    4.15705219    2.08830236
     atom   20 type  2   force =     0.00000000   -4.15705219   -2.08830236
     The core correction contribution to forces
     atom    1 type  3   force =    -0.00000000   -0.00017867    0.00018377
     atom    2 type  3   force =     0.00000000    0.00017867   -0.00018377
     atom    3 type  3   force =    -0.00000000   -0.00017867   -0.00018377
     atom    4 type  3   force =     0.00000000    0.00017867    0.00018377
     atom    5 type  1   force =     0.00000000    0.00017563    0.00007162
     atom    6 type  1   force =    -0.00000000   -0.00017563   -0.00007162
     atom    7 type  1   force =     0.00000000    0.00017563   -0.00007162
     atom    8 type  1   force =    -0.00000000   -0.00017563    0.00007162
     atom    9 type  2   force =     0.00000000    0.00642424    0.00651155
     atom   10 type  2   force =    -0.00000000   -0.00642424   -0.00651155
     atom   11 type  2   force =     0.00000000    0.00642424   -0.00651155
     atom   12 type  2   force =     0.00000000   -0.00642424    0.00651155
     atom   13 type  2   force =    -0.00000000    0.00433675   -0.00742262
     atom   14 type  2   force =    -0.00000000   -0.00433675    0.00742262
     atom   15 type  2   force =     0.00000000    0.00433675    0.00742262
     atom   16 type  2   force =    -0.00000000   -0.00433675   -0.00742262
     atom   17 type  2   force =    -0.00000000   -0.00760475    0.00247450
     atom   18 type  2   force =     0.00000000    0.00760475   -0.00247450
     atom   19 type  2   force =    -0.00000000   -0.00760475   -0.00247450
     atom   20 type  2   force =     0.00000000    0.00760475    0.00247450
     The Hubbard contrib.    to forces
     atom    1 type  3   force =     0.00000000    0.00000000    0.00000000
     atom    2 type  3   force =     0.00000000    0.00000000    0.00000000
     atom    3 type  3   force =     0.00000000    0.00000000    0.00000000
     atom    4 type  3   force =     0.00000000    0.00000000    0.00000000
     atom    5 type  1   force =     0.00000000    0.00000000    0.00000000
     atom    6 type  1   force =     0.00000000    0.00000000    0.00000000
     atom    7 type  1   force =     0.00000000    0.00000000    0.00000000
     atom    8 type  1   force =     0.00000000    0.00000000    0.00000000
     atom    9 type  2   force =     0.00000000    0.00000000    0.00000000
     atom   10 type  2   force =     0.00000000    0.00000000    0.00000000
     atom   11 type  2   force =     0.00000000    0.00000000    0.00000000
     atom   12 type  2   force =     0.00000000    0.00000000    0.00000000
     atom   13 type  2   force =     0.00000000    0.00000000    0.00000000
     atom   14 type  2   force =     0.00000000    0.00000000    0.00000000
     atom   15 type  2   force =     0.00000000    0.00000000    0.00000000
     atom   16 type  2   force =     0.00000000    0.00000000    0.00000000
     atom   17 type  2   force =     0.00000000    0.00000000    0.00000000
     atom   18 type  2   force =     0.00000000    0.00000000    0.00000000
     atom   19 type  2   force =     0.00000000    0.00000000    0.00000000
     atom   20 type  2   force =     0.00000000    0.00000000    0.00000000
     The SCF correction term to forces
     atom    1 type  3   force =     0.00000000    0.00011841    0.00028256
     atom    2 type  3   force =    -0.00000000   -0.00011841   -0.00028256
     atom    3 type  3   force =     0.00000000    0.00011841   -0.00028256
     atom    4 type  3   force =    -0.00000000   -0.00011841    0.00028256
     atom    5 type  1   force =    -0.00000000    0.00122718   -0.00012104
     atom    6 type  1   force =    -0.00000000   -0.00122718    0.00012104
     atom    7 type  1   force =    -0.00000000    0.00122718    0.00012104
     atom    8 type  1   force =     0.00000000   -0.00122718   -0.00012104
     atom    9 type  2   force =     0.00000000   -0.00005901   -0.00001893
     atom   10 type  2   force =    -0.00000000    0.00005901    0.00001893
     atom   11 type  2   force =     0.00000000   -0.00005901    0.00001893
     atom   12 type  2   force =    -0.00000000    0.00005901   -0.00001893
     atom   13 type  2   force =     0.00000000   -0.00008208   -0.00012954
     atom   14 type  2   force =    -0.00000000    0.00008208    0.00012954
     atom   15 type  2   force =     0.00000000   -0.00008208    0.00012954
     atom   16 type  2   force =    -0.00000000    0.00008208   -0.00012954
     atom   17 type  2   force =     0.00000000    0.00031556   -0.00000270
     atom   18 type  2   force =     0.00000000   -0.00031556    0.00000270
     atom   19 type  2   force =    -0.00000000    0.00031556    0.00000270
     atom   20 type  2   force =     0.00000000   -0.00031556   -0.00000270

     Total force =     0.002297     Total SCF correction =     0.002639
     SCF correction compared to forces is large: reduce conv_thr to get better values


     Computing stress (Cartesian axis) and pressure

          total   stress  (Ry/bohr**3)                   (kbar)     P=       -0.29
  -0.00000203   0.00000000   0.00000000           -0.30        0.00        0.00
   0.00000000  -0.00000161   0.00000000            0.00       -0.24        0.00
   0.00000000   0.00000000  -0.00000235            0.00        0.00       -0.35

     kinetic stress (kbar)   5524.18      0.00      0.00
                                0.00   5535.37      0.00
                                0.00      0.00   5529.32

     local   stress (kbar)  -4517.01      0.00     -0.00
                                0.00  -1884.80      0.00
                               -0.00      0.00   -991.34

     nonloc. stress (kbar)   1139.88      0.00      0.00
                                0.00   1138.29      0.00
                                0.00      0.00   1140.93

     hartree stress (kbar)   3402.51      0.00      0.00
                                0.00   2188.75     -0.00
                                0.00     -0.00   1719.06

     exc-cor stress (kbar)   5446.86     -0.00     -0.00
                               -0.00   5446.51      0.00
                               -0.00      0.00   5446.94

     corecor stress (kbar)  -7211.92      0.00     -0.00
                                0.00  -7212.20     -0.00
                               -0.00     -0.00  -7212.18

     ewald   stress (kbar)  -3784.80      0.00     -0.00
                                0.00  -5212.16      0.00
                               -0.00      0.00  -5633.09

     hubbard stress (kbar)      0.00      0.00      0.00
                                0.00      0.00      0.00
                                0.00      0.00      0.00

     DFT-D   stress (kbar)      0.00      0.00      0.00
                                0.00      0.00      0.00
                                0.00      0.00      0.00

     XDM     stress (kbar)      0.00      0.00      0.00
                                0.00      0.00      0.00
                                0.00      0.00      0.00

     dft-nl  stress (kbar)      0.00      0.00      0.00
                                0.00      0.00      0.00
                                0.00      0.00      0.00

     TS-vdW  stress (kbar)      0.00      0.00      0.00
                                0.00      0.00      0.00
                                0.00      0.00      0.00



     Writing output data file ./out/CsSnI3.save/

     init_run     :    104.75s CPU    107.24s WALL (       1 calls)
     electrons    :   4290.50s CPU   4313.60s WALL (       1 calls)
     forces       :     86.53s CPU     86.74s WALL (       1 calls)
     stress       :    123.69s CPU    123.95s WALL (       1 calls)

     Called by init_run:
     wfcinit      :    100.08s CPU    101.52s WALL (       1 calls)
     wfcinit:atom :      0.17s CPU      0.23s WALL (      64 calls)
     wfcinit:wfcr :     98.12s CPU     99.06s WALL (      64 calls)
     potinit      :      1.57s CPU      2.02s WALL (       1 calls)
     hinit0       :      1.61s CPU      1.74s WALL (       1 calls)

     Called by electrons:
     c_bands      :   3902.23s CPU   3918.35s WALL (      12 calls)
     sum_band     :    371.72s CPU    374.39s WALL (      12 calls)
     v_of_rho     :      0.80s CPU      0.94s WALL (      12 calls)
     v_h          :      0.18s CPU      0.18s WALL (      12 calls)
     v_xc         :      0.70s CPU      0.82s WALL (      14 calls)
     newd         :      8.71s CPU      9.28s WALL (      12 calls)
     PAW_pot      :      8.23s CPU      8.38s WALL (      12 calls)
     mix_rho      :      0.27s CPU      3.31s WALL (      12 calls)

     Called by c_bands:
     init_us_2    :     16.43s CPU     16.59s WALL (    1728 calls)
     cegterg      :   3851.49s CPU   3865.81s WALL (     768 calls)

     Called by sum_band:
     sum_band:wei :      0.00s CPU      0.02s WALL (      12 calls)
     sum_band:loo :    363.98s CPU    365.87s WALL (      12 calls)
     sum_band:buf :      1.62s CPU      1.80s WALL (     768 calls)
     sum_band:ini :      7.27s CPU      7.31s WALL (     768 calls)
     sum_band:cal :    263.05s CPU    263.59s WALL (     768 calls)
     sum_band:bec :      1.86s CPU      1.88s WALL (     768 calls)
     addusdens    :      6.56s CPU      7.16s WALL (      12 calls)
     addusd:skk   :      0.02s CPU      0.02s WALL (      36 calls)
     addusd:dgemm :      2.71s CPU      3.26s WALL (      36 calls)
     addusd:qvan2 :      3.49s CPU      3.52s WALL (      36 calls)

     Called by *egterg:
     cdiaghg      :    146.45s CPU    147.17s WALL (    4376 calls)
     cegterg:over :    249.57s CPU    250.30s WALL (    3672 calls)
     cegterg:upda :    127.01s CPU    127.42s WALL (    3672 calls)
     cegterg:last :    483.58s CPU    484.63s WALL (    1914 calls)
     h_psi        :   2052.28s CPU   2062.48s WALL (    4504 calls)
     s_psi        :    738.74s CPU    740.23s WALL (    4504 calls)
     g_psi        :      1.50s CPU      1.52s WALL (    3672 calls)

     Called by h_psi:
     h_psi:calbec :    798.16s CPU    800.11s WALL (    4504 calls)
     vloc_psi     :    497.61s CPU    504.10s WALL (    4504 calls)
     add_vuspsi   :    752.68s CPU    754.27s WALL (    4504 calls)

     General routines
     calbec       :   1163.75s CPU   1166.19s WALL (    5592 calls)
     fft          :      1.31s CPU      1.34s WALL (     158 calls)
     ffts         :      0.03s CPU      0.03s WALL (      12 calls)
     fftw         :    537.33s CPU    544.40s WALL (  478040 calls)

     Parallel routines
     fft_scatt_xy :     42.62s CPU     43.12s WALL (  478210 calls)
     fft_scatt_yz :    157.16s CPU    159.60s WALL (  478210 calls)

     PAW routines
     PAW_pot      :      8.23s CPU      8.38s WALL (      12 calls)
     PAW_symme    :      0.25s CPU      0.27s WALL (      24 calls)

     PWSCF        :      1h17m CPU      1h17m WALL


   This run was terminated on:  12:24:51  15Jan2021            

=------------------------------------------------------------------------------=
   JOB DONE.
=------------------------------------------------------------------------------=
