
     Program PWSCF v.6.0 (svn rev. 13079) starts on 31Jan2021 at 17:20:49 

     This program is part of the open-source Quantum ESPRESSO suite
     for quantum simulation of materials; please cite
         "P. Giannozzi et al., J. Phys.:Condens. Matter 21 395502 (2009);
          URL http://www.quantum-espresso.org", 
     in publications or presentations arising from this work. More details at
     http://www.quantum-espresso.org/quote

     Parallel version (MPI & OpenMP), running on      96 processor cores
     Number of MPI processes:                48
     Threads/MPI process:                     2
     R & G space division:  proc/nbgrp/npool/nimage =      48
     Waiting for input...
     Reading input from standard input

     Current dimensions of program PWSCF are:
     Max number of different atomic species (ntypx) = 10
     Max number of k-points (npk) =  40000
     Max angular momentum in pseudopotentials (lmaxx) =  3
               file Cs.rel-pbesol-spn-rrkjus_psl.1.0.0.UPF: wavefunction(s)  5S 6S renormalized
               file Sn.rel-pbesol-dn-rrkjus_psl.1.0.0.UPF: wavefunction(s)  5S 4D 4D renormalized
               file I.rel-pbesol-n-rrkjus_psl.1.0.0.UPF: wavefunction(s)  5S renormalized

     Subspace diagonalization in iterative solution of the eigenvalue problem:
     a serial algorithm will be used


     Parallelization info
     --------------------
     sticks:   dense  smooth     PW     G-vecs:    dense   smooth      PW
     Min         160     128     33                15246    10914    1473
     Max         161     130     34                15253    10919    1480
     Sum        7701    6167   1629               731927   523933   70905


     Title: 
     CsSnI3                                                                     


     bravais-lattice index     =            8
     lattice parameter (alat)  =      16.5033  a.u.
     unit-cell volume          =    6621.2472 (a.u.)^3
     number of atoms/cell      =           20
     number of atomic types    =            3
     number of electrons       =       176.00
     number of Kohn-Sham states=          176
     kinetic-energy cutoff     =      70.0000  Ry
     charge density cutoff     =     350.0000  Ry
     convergence threshold     =      1.0E-06
     mixing beta               =       0.3500
     number of iterations used =            8  plain     mixing
     Exchange-correlation      = PBESOL ( 1  4 10  8 0 0)
     Non magnetic calculation with spin-orbit


     celldm(1)=  16.503301  celldm(2)=   1.015921  celldm(3)=   1.449998
     celldm(4)=   0.000000  celldm(5)=   0.000000  celldm(6)=   0.000000

     crystal axes: (cart. coord. in units of alat)
               a(1) = (   1.000000   0.000000   0.000000 )  
               a(2) = (   0.000000   1.015921   0.000000 )  
               a(3) = (   0.000000   0.000000   1.449998 )  

     reciprocal axes: (cart. coord. in units 2 pi/alat)
               b(1) = (  1.000000  0.000000  0.000000 )  
               b(2) = (  0.000000  0.984329  0.000000 )  
               b(3) = (  0.000000  0.000000  0.689656 )  


     PseudoPot. # 1 for Cs read from file:
     /scratch/cmalosso/degironcoli/pseudo/pseudo-usp/Cs.rel-pbesol-spn-rrkjus_psl.1.0.0.UPF
     MD5 check sum: 846889b67fb1b19751b5b37931589d70
     Pseudo is Ultrasoft + core correction, Zval =  9.0
     Generated using "atomic" code by A. Dal Corso  v.6.4.1
     Using radial grid of 1251 points, 15 beta functions with: 
                l(1) =   0
                l(2) =   0
                l(3) =   0
                l(4) =   1
                l(5) =   1
                l(6) =   1
                l(7) =   1
                l(8) =   2
                l(9) =   2
               l(10) =   2
               l(11) =   2
               l(12) =   3
               l(13) =   3
               l(14) =   3
               l(15) =   3
     Q(r) pseudized with 0 coefficients 


     PseudoPot. # 2 for Sn read from file:
     /scratch/cmalosso/degironcoli/pseudo/pseudo-usp/Sn.rel-pbesol-dn-rrkjus_psl.1.0.0.UPF
     MD5 check sum: c1cf6ea56b96a3656bdf0d1db379e093
     Pseudo is Ultrasoft + core correction, Zval = 14.0
     Generated using "atomic" code by A. Dal Corso  v.6.3
     Using radial grid of 1243 points, 10 beta functions with: 
                l(1) =   0
                l(2) =   0
                l(3) =   1
                l(4) =   1
                l(5) =   1
                l(6) =   1
                l(7) =   2
                l(8) =   2
                l(9) =   2
               l(10) =   2
     Q(r) pseudized with 0 coefficients 


     PseudoPot. # 3 for  I read from file:
     /scratch/cmalosso/degironcoli/pseudo/pseudo-usp/I.rel-pbesol-n-rrkjus_psl.1.0.0.UPF
     MD5 check sum: 0f96c6bfb1b448f280658f96eb466b08
     Pseudo is Ultrasoft + core correction, Zval =  7.0
     Generated using "atomic" code by A. Dal Corso  v.6.3
     Using radial grid of 1247 points, 10 beta functions with: 
                l(1) =   0
                l(2) =   0
                l(3) =   1
                l(4) =   1
                l(5) =   1
                l(6) =   1
                l(7) =   2
                l(8) =   2
                l(9) =   2
               l(10) =   2
     Q(r) pseudized with 0 coefficients 


     atomic species   valence    mass     pseudopotential
        Cs             9.00   132.90000     Cs( 1.00)
        Sn            14.00   118.70000     Sn( 1.00)
        I              7.00   126.90000      I( 1.00)

      8 Sym. Ops., with inversion, found ( 6 have fractional translation)


                                    s                        frac. trans.

      isym =  1     identity                                     

 cryst.   s( 1) = (     1          0          0      )
                  (     0          1          0      )
                  (     0          0          1      )

 cart.    s( 1) = (  1.0000000  0.0000000  0.0000000 )
                  (  0.0000000  1.0000000  0.0000000 )
                  (  0.0000000  0.0000000  1.0000000 )


      isym =  2     180 deg rotation - cart. axis [0,0,1]        

 cryst.   s( 2) = (    -1          0          0      )    f =(  0.0000000 )
                  (     0         -1          0      )       (  0.0000000 )
                  (     0          0          1      )       ( -0.5000000 )

 cart.    s( 2) = ( -1.0000000  0.0000000  0.0000000 )    f =(  0.0000000 )
                  (  0.0000000 -1.0000000  0.0000000 )       (  0.0000000 )
                  (  0.0000000  0.0000000  1.0000000 )       ( -0.7249991 )


      isym =  3     180 deg rotation - cart. axis [0,1,0]        

 cryst.   s( 3) = (    -1          0          0      )    f =(  0.5000000 )
                  (     0          1          0      )       ( -0.5000000 )
                  (     0          0         -1      )       (  0.0000000 )

 cart.    s( 3) = ( -1.0000000  0.0000000  0.0000000 )    f =(  0.5000000 )
                  (  0.0000000  1.0000000  0.0000000 )       ( -0.5079604 )
                  (  0.0000000  0.0000000 -1.0000000 )       (  0.0000000 )


      isym =  4     180 deg rotation - cart. axis [1,0,0]        

 cryst.   s( 4) = (     1          0          0      )    f =( -0.5000000 )
                  (     0         -1          0      )       (  0.5000000 )
                  (     0          0         -1      )       ( -0.5000000 )

 cart.    s( 4) = (  1.0000000  0.0000000  0.0000000 )    f =( -0.5000000 )
                  (  0.0000000 -1.0000000  0.0000000 )       (  0.5079604 )
                  (  0.0000000  0.0000000 -1.0000000 )       ( -0.7249991 )


      isym =  5     inversion                                    

 cryst.   s( 5) = (    -1          0          0      )
                  (     0         -1          0      )
                  (     0          0         -1      )

 cart.    s( 5) = ( -1.0000000  0.0000000  0.0000000 )
                  (  0.0000000 -1.0000000  0.0000000 )
                  (  0.0000000  0.0000000 -1.0000000 )


      isym =  6     inv. 180 deg rotation - cart. axis [0,0,1]   

 cryst.   s( 6) = (     1          0          0      )    f =(  0.0000000 )
                  (     0          1          0      )       (  0.0000000 )
                  (     0          0         -1      )       ( -0.5000000 )

 cart.    s( 6) = (  1.0000000  0.0000000  0.0000000 )    f =(  0.0000000 )
                  (  0.0000000  1.0000000  0.0000000 )       (  0.0000000 )
                  (  0.0000000  0.0000000 -1.0000000 )       ( -0.7249991 )


      isym =  7     inv. 180 deg rotation - cart. axis [0,1,0]   

 cryst.   s( 7) = (     1          0          0      )    f =( -0.5000000 )
                  (     0         -1          0      )       (  0.5000000 )
                  (     0          0          1      )       (  0.0000000 )

 cart.    s( 7) = (  1.0000000  0.0000000  0.0000000 )    f =( -0.5000000 )
                  (  0.0000000 -1.0000000  0.0000000 )       (  0.5079604 )
                  (  0.0000000  0.0000000  1.0000000 )       (  0.0000000 )


      isym =  8     inv. 180 deg rotation - cart. axis [1,0,0]   

 cryst.   s( 8) = (    -1          0          0      )    f =(  0.5000000 )
                  (     0          1          0      )       ( -0.5000000 )
                  (     0          0          1      )       ( -0.5000000 )

 cart.    s( 8) = ( -1.0000000  0.0000000  0.0000000 )    f =(  0.5000000 )
                  (  0.0000000  1.0000000  0.0000000 )       ( -0.5079604 )
                  (  0.0000000  0.0000000  1.0000000 )       ( -0.7249991 )


     double point group D_2h (mmm) 
     there are 10 classes and  2 irreducible representations
     the character table:

       E     -E     C2    C2'  C2''  i     -i     s_v   s_v' s_v''
                   -C2   -C2'  -C2''             -s_v  -s_v' -s_v'
G_5+   2.00 -2.00  0.00  0.00  0.00  2.00 -2.00  0.00  0.00  0.00
G_5-   2.00 -2.00  0.00  0.00  0.00 -2.00  2.00  0.00  0.00  0.00

     the symmetry operations in each class and the name of the first element:

     E             1
          identity                                               
     -E           -1
          identity E                                             
      C2  -C2      2   -2
          180 deg rotation - cart. axis [0,0,1]                  
      C2' -C2'     3   -3
          180 deg rotation - cart. axis [0,1,0]                  
     C2'' -C2''    4   -4
          180 deg rotation - cart. axis [1,0,0]                  
     i             5
          inversion                                              
     -i           -5
          inversion E                                            
      s_v -s_v     6   -6
          inv. 180 deg rotation - cart. axis [0,0,1]             
      s_v'-s_v'    7   -7
          inv. 180 deg rotation - cart. axis [0,1,0]             
     s_v''-s_v'    8   -8
          inv. 180 deg rotation - cart. axis [1,0,0]             

   Cartesian axes

     site n.     atom                  positions (alat units)
         1           Cs  tau(   1) = (   0.0046830   0.0237045   1.0874986  )
         2           Cs  tau(   2) = (   0.5046830   0.4842559   1.0874986  )
         3           Cs  tau(   3) = (   0.9953170   0.9922163   0.3624995  )
         4           Cs  tau(   4) = (   0.4953170   0.5316649   0.3624995  )
         5           Sn  tau(   5) = (   0.5000000   0.0000000   0.0000000  )
         6           Sn  tau(   6) = (   0.0000000   0.5079604   0.7249991  )
         7           Sn  tau(   7) = (   0.0000000   0.5079604   0.0000000  )
         8           Sn  tau(   8) = (   0.5000000   0.0000000   0.7249991  )
         9           I   tau(   9) = (   0.7030980   0.7148750   1.4390304  )
        10           I   tau(  10) = (   0.2969020   0.3010458   0.7140313  )
        11           I   tau(  11) = (   0.7030980   0.7148750   0.7359669  )
        12           I   tau(  12) = (   0.2969020   0.3010458   0.0109678  )
        13           I   tau(  13) = (   0.5026480   0.9956207   0.3624995  )
        14           I   tau(  14) = (   0.2030980   0.8090062   0.7359669  )
        15           I   tau(  15) = (   0.9973520   0.4876603   1.0874986  )
        16           I   tau(  16) = (   0.7969020   0.2069146   0.7140313  )
        17           I   tau(  17) = (   0.7969020   0.2069146   0.0109678  )
        18           I   tau(  18) = (   0.4973520   0.0203001   1.0874986  )
        19           I   tau(  19) = (   0.0026480   0.5282605   0.3624995  )
        20           I   tau(  20) = (   0.2030980   0.8090062   1.4390304  )

   Crystallographic axes

     site n.     atom                  positions (cryst. coord.)
         1           Cs  tau(   1) = (  0.0046830  0.0233330  0.7500000  )
         2           Cs  tau(   2) = (  0.5046830  0.4766670  0.7500000  )
         3           Cs  tau(   3) = (  0.9953170  0.9766670  0.2500000  )
         4           Cs  tau(   4) = (  0.4953170  0.5233330  0.2500000  )
         5           Sn  tau(   5) = (  0.5000000  0.0000000  0.0000000  )
         6           Sn  tau(   6) = (  0.0000000  0.5000000  0.5000000  )
         7           Sn  tau(   7) = (  0.0000000  0.5000000  0.0000000  )
         8           Sn  tau(   8) = (  0.5000000  0.0000000  0.5000000  )
         9           I   tau(   9) = (  0.7030980  0.7036720  0.9924360  )
        10           I   tau(  10) = (  0.2969020  0.2963280  0.4924360  )
        11           I   tau(  11) = (  0.7030980  0.7036720  0.5075640  )
        12           I   tau(  12) = (  0.2969020  0.2963280  0.0075640  )
        13           I   tau(  13) = (  0.5026480  0.9800180  0.2500000  )
        14           I   tau(  14) = (  0.2030980  0.7963280  0.5075640  )
        15           I   tau(  15) = (  0.9973520  0.4800180  0.7500000  )
        16           I   tau(  16) = (  0.7969020  0.2036720  0.4924360  )
        17           I   tau(  17) = (  0.7969020  0.2036720  0.0075640  )
        18           I   tau(  18) = (  0.4973520  0.0199820  0.7500000  )
        19           I   tau(  19) = (  0.0026480  0.5199820  0.2500000  )
        20           I   tau(  20) = (  0.2030980  0.7963280  0.9924360  )

     number of k points=     8
                       cart. coord. in units 2pi/alat
        k(    1) = (   0.1250000   0.1230411   0.0862070), wk =   0.1250000
        k(    2) = (   0.1250000   0.1230411   0.2586210), wk =   0.1250000
        k(    3) = (   0.1250000   0.3691233   0.0862070), wk =   0.1250000
        k(    4) = (   0.1250000   0.3691233   0.2586210), wk =   0.1250000
        k(    5) = (   0.3750000   0.1230411   0.0862070), wk =   0.1250000
        k(    6) = (   0.3750000   0.1230411   0.2586210), wk =   0.1250000
        k(    7) = (   0.3750000   0.3691233   0.0862070), wk =   0.1250000
        k(    8) = (   0.3750000   0.3691233   0.2586210), wk =   0.1250000

                       cryst. coord.
        k(    1) = (   0.1250000   0.1250000   0.1250000), wk =   0.1250000
        k(    2) = (   0.1250000   0.1250000   0.3750000), wk =   0.1250000
        k(    3) = (   0.1250000   0.3750000   0.1250000), wk =   0.1250000
        k(    4) = (   0.1250000   0.3750000   0.3750000), wk =   0.1250000
        k(    5) = (   0.3750000   0.1250000   0.1250000), wk =   0.1250000
        k(    6) = (   0.3750000   0.1250000   0.3750000), wk =   0.1250000
        k(    7) = (   0.3750000   0.3750000   0.1250000), wk =   0.1250000
        k(    8) = (   0.3750000   0.3750000   0.3750000), wk =   0.1250000

     Dense  grid:   731927 G-vectors     FFT dimensions: ( 100, 100, 144)

     Smooth grid:   523933 G-vectors     FFT dimensions: (  90,  90, 128)

     Estimated max dynamical RAM per process >     186.51Mb

     Estimated total allocated dynamical RAM >    8952.26Mb

     Initial potential from superposition of free atoms

     starting charge  175.84164, renormalised to  176.00000
     Starting wfc are  208 randomized atomic wfcs

     total cpu time spent up to now is       49.8 secs

     per-process dynamical memory:   301.9 Mb

     Self-consistent Calculation

     iteration #  1     ecut=    70.00 Ry     beta=0.35
     Davidson diagonalization with overlap
     ethr =  1.00E-02,  avg # of iterations =  1.2

     Threshold (ethr) on eigenvalues was too large:
     Diagonalizing with lowered threshold

     Davidson diagonalization with overlap
     ethr =  2.55E-04,  avg # of iterations =  3.0

     total cpu time spent up to now is      136.4 secs

     total energy              =   -1268.10181579 Ry
     Harris-Foulkes estimate   =   -1268.25316075 Ry
     estimated scf accuracy    <       0.34071407 Ry

     iteration #  2     ecut=    70.00 Ry     beta=0.35
     Davidson diagonalization with overlap
     ethr =  1.94E-04,  avg # of iterations =  2.1

     total cpu time spent up to now is      176.6 secs

     total energy              =   -1268.13877273 Ry
     Harris-Foulkes estimate   =   -1268.14544678 Ry
     estimated scf accuracy    <       0.03119545 Ry

     iteration #  3     ecut=    70.00 Ry     beta=0.35
     Davidson diagonalization with overlap
     ethr =  1.77E-05,  avg # of iterations =  3.8

     total cpu time spent up to now is      218.4 secs

     total energy              =   -1268.14436748 Ry
     Harris-Foulkes estimate   =   -1268.14349742 Ry
     estimated scf accuracy    <       0.00534588 Ry

     iteration #  4     ecut=    70.00 Ry     beta=0.35
     Davidson diagonalization with overlap
     ethr =  3.04E-06,  avg # of iterations =  4.0

     total cpu time spent up to now is      264.8 secs

     total energy              =   -1268.14557473 Ry
     Harris-Foulkes estimate   =   -1268.14547804 Ry
     estimated scf accuracy    <       0.00048164 Ry

     iteration #  5     ecut=    70.00 Ry     beta=0.35
     Davidson diagonalization with overlap
     ethr =  2.74E-07,  avg # of iterations =  2.6

     total cpu time spent up to now is      306.8 secs

     total energy              =   -1268.14568288 Ry
     Harris-Foulkes estimate   =   -1268.14566567 Ry
     estimated scf accuracy    <       0.00006118 Ry

     iteration #  6     ecut=    70.00 Ry     beta=0.35
     Davidson diagonalization with overlap
     ethr =  3.48E-08,  avg # of iterations =  3.5

     total cpu time spent up to now is      355.9 secs

     total energy              =   -1268.14570246 Ry
     Harris-Foulkes estimate   =   -1268.14569822 Ry
     estimated scf accuracy    <       0.00000440 Ry

     iteration #  7     ecut=    70.00 Ry     beta=0.35
     Davidson diagonalization with overlap
     ethr =  2.50E-09,  avg # of iterations =  3.2

     total cpu time spent up to now is      405.5 secs

     End of self-consistent calculation

          k = 0.1250 0.1230 0.0862 ( 65467 PWs)   bands (ev):

   -18.8108 -18.8108 -18.8107 -18.8107 -18.8105 -18.8105 -18.8104 -18.8104
   -18.8093 -18.8093 -18.8092 -18.8092 -18.8089 -18.8089 -18.8088 -18.8088
   -18.2053 -18.2053 -18.2049 -18.2049 -18.2045 -18.2045 -18.2041 -18.2041
   -17.7729 -17.7729 -17.7727 -17.7727 -17.7724 -17.7724 -17.7722 -17.7722
   -17.7721 -17.7721 -17.7717 -17.7717 -17.7711 -17.7711 -17.7711 -17.7711
   -17.7636 -17.7636 -17.7635 -17.7635 -17.7634 -17.7634 -17.7634 -17.7634
    -9.2292  -9.2292  -9.0781  -9.0781  -8.9446  -8.9446  -8.8569  -8.8569
    -8.8408  -8.8408  -8.8265  -8.8265  -8.8201  -8.8201  -8.8080  -8.8080
    -8.7669  -8.7669  -8.6737  -8.6737  -8.6660  -8.6660  -8.6542  -8.6542
    -6.1525  -6.1525  -6.1446  -6.1446  -6.1435  -6.1435  -6.1376  -6.1376
    -4.5464  -4.5464  -4.5291  -4.5291  -4.5243  -4.5243  -4.5202  -4.5202
    -4.5150  -4.5150  -4.5107  -4.5107  -4.5032  -4.5032  -4.4987  -4.4987
    -4.3450  -4.3450  -3.8147  -3.8147  -3.3731  -3.3731  -2.7434  -2.7434
    -0.7299  -0.7299  -0.6421  -0.6421  -0.6065  -0.6065  -0.4697  -0.4697
    -0.3704  -0.3704  -0.3281  -0.3281   0.3005   0.3005   0.3646   0.3646
     0.3824   0.3824   0.6197   0.6197   0.7717   0.7717   0.9061   0.9061
     0.9731   0.9731   1.0056   1.0056   1.0555   1.0555   1.1748   1.1748
     1.1957   1.1957   1.3037   1.3037   1.3487   1.3487   1.4023   1.4023
     1.4380   1.4380   1.4668   1.4668   1.5218   1.5218   1.5722   1.5722
     1.6913   1.6913   1.7170   1.7170   1.8718   1.8718   1.9123   1.9123
     1.9529   1.9529   2.0554   2.0554   2.0695   2.0695   2.1402   2.1402
     2.2540   2.2540   2.4371   2.4371   2.7181   2.7181   3.1386   3.1386

     occupation numbers 
     1.0000   1.0000   1.0000   1.0000   1.0000   1.0000   1.0000   1.0000
     1.0000   1.0000   1.0000   1.0000   1.0000   1.0000   1.0000   1.0000
     1.0000   1.0000   1.0000   1.0000   1.0000   1.0000   1.0000   1.0000
     1.0000   1.0000   1.0000   1.0000   1.0000   1.0000   1.0000   1.0000
     1.0000   1.0000   1.0000   1.0000   1.0000   1.0000   1.0000   1.0000
     1.0000   1.0000   1.0000   1.0000   1.0000   1.0000   1.0000   1.0000
     1.0000   1.0000   1.0000   1.0000   1.0000   1.0000   1.0000   1.0000
     1.0000   1.0000   1.0000   1.0000   1.0000   1.0000   1.0000   1.0000
     1.0000   1.0000   1.0000   1.0000   1.0000   1.0000   1.0000   1.0000
     1.0000   1.0000   1.0000   1.0000   1.0000   1.0000   1.0000   1.0000
     1.0000   1.0000   1.0000   1.0000   1.0000   1.0000   1.0000   1.0000
     1.0000   1.0000   1.0000   1.0000   1.0000   1.0000   1.0000   1.0000
     1.0000   1.0000   1.0000   1.0000   1.0000   1.0000   1.0000   1.0000
     1.0000   1.0000   1.0000   1.0000   1.0000   1.0000   1.0000   1.0000
     1.0000   1.0000   1.0000   1.0000   1.0000   1.0000   1.0000   1.0000
     1.0000   1.0000   1.0000   1.0000   1.0000   1.0000   1.0000   1.0000
     1.0000   1.0000   1.0000   1.0000   1.0000   1.0000   1.0000   1.0000
     1.0000   1.0000   1.0000   1.0000   1.0000   1.0000   1.0000   1.0000
     1.0000   1.0000   1.0000   1.0000   1.0000   1.0000   1.0000   1.0000
     1.0000   1.0000   1.0000   1.0000   1.0000   1.0000   1.0000   1.0000
     1.0000   1.0000   1.0000   1.0000   1.0000   1.0000   1.0000   1.0000
     1.0000   1.0000   1.0000   1.0000   1.0000   1.0000   1.0000   1.0000

          k = 0.1250 0.1230 0.2586 ( 65497 PWs)   bands (ev):

   -18.8107 -18.8107 -18.8107 -18.8107 -18.8105 -18.8105 -18.8104 -18.8104
   -18.8093 -18.8093 -18.8092 -18.8092 -18.8089 -18.8089 -18.8088 -18.8088
   -18.2052 -18.2052 -18.2051 -18.2051 -18.2044 -18.2044 -18.2042 -18.2042
   -17.7727 -17.7727 -17.7726 -17.7726 -17.7725 -17.7725 -17.7724 -17.7724
   -17.7720 -17.7720 -17.7718 -17.7718 -17.7711 -17.7711 -17.7711 -17.7711
   -17.7636 -17.7636 -17.7635 -17.7635 -17.7634 -17.7634 -17.7634 -17.7634
    -9.1960  -9.1960  -9.1375  -9.1375  -8.9252  -8.9252  -8.8923  -8.8923
    -8.8260  -8.8260  -8.8232  -8.8232  -8.7880  -8.7880  -8.7763  -8.7763
    -8.7690  -8.7690  -8.7071  -8.7071  -8.6642  -8.6642  -8.6608  -8.6608
    -6.1501  -6.1501  -6.1467  -6.1467  -6.1418  -6.1418  -6.1393  -6.1393
    -4.5399  -4.5399  -4.5315  -4.5315  -4.5211  -4.5211  -4.5195  -4.5195
    -4.5140  -4.5140  -4.5103  -4.5103  -4.5077  -4.5077  -4.5031  -4.5031
    -4.2106  -4.2106  -3.9945  -3.9945  -3.2318  -3.2318  -2.9826  -2.9826
    -0.6745  -0.6745  -0.6425  -0.6425  -0.4595  -0.4595  -0.3838  -0.3838
    -0.1120  -0.1120  -0.0650  -0.0650   0.2669   0.2669   0.3255   0.3255
     0.3599   0.3599   0.4267   0.4267   0.7574   0.7574   0.9059   0.9059
     0.9443   0.9443   0.9832   0.9832   1.0057   1.0057   1.0357   1.0357
     1.2141   1.2141   1.2344   1.2344   1.3011   1.3011   1.3263   1.3263
     1.3954   1.3954   1.4367   1.4367   1.4880   1.4880   1.5335   1.5335
     1.7405   1.7405   1.7982   1.7982   1.8667   1.8667   1.8988   1.8988
     1.9400   1.9400   1.9891   1.9891   2.0603   2.0603   2.1369   2.1369
     2.1783   2.1783   2.2755   2.2755   2.7436   2.7436   2.8420   2.8420

     occupation numbers 
     1.0000   1.0000   1.0000   1.0000   1.0000   1.0000   1.0000   1.0000
     1.0000   1.0000   1.0000   1.0000   1.0000   1.0000   1.0000   1.0000
     1.0000   1.0000   1.0000   1.0000   1.0000   1.0000   1.0000   1.0000
     1.0000   1.0000   1.0000   1.0000   1.0000   1.0000   1.0000   1.0000
     1.0000   1.0000   1.0000   1.0000   1.0000   1.0000   1.0000   1.0000
     1.0000   1.0000   1.0000   1.0000   1.0000   1.0000   1.0000   1.0000
     1.0000   1.0000   1.0000   1.0000   1.0000   1.0000   1.0000   1.0000
     1.0000   1.0000   1.0000   1.0000   1.0000   1.0000   1.0000   1.0000
     1.0000   1.0000   1.0000   1.0000   1.0000   1.0000   1.0000   1.0000
     1.0000   1.0000   1.0000   1.0000   1.0000   1.0000   1.0000   1.0000
     1.0000   1.0000   1.0000   1.0000   1.0000   1.0000   1.0000   1.0000
     1.0000   1.0000   1.0000   1.0000   1.0000   1.0000   1.0000   1.0000
     1.0000   1.0000   1.0000   1.0000   1.0000   1.0000   1.0000   1.0000
     1.0000   1.0000   1.0000   1.0000   1.0000   1.0000   1.0000   1.0000
     1.0000   1.0000   1.0000   1.0000   1.0000   1.0000   1.0000   1.0000
     1.0000   1.0000   1.0000   1.0000   1.0000   1.0000   1.0000   1.0000
     1.0000   1.0000   1.0000   1.0000   1.0000   1.0000   1.0000   1.0000
     1.0000   1.0000   1.0000   1.0000   1.0000   1.0000   1.0000   1.0000
     1.0000   1.0000   1.0000   1.0000   1.0000   1.0000   1.0000   1.0000
     1.0000   1.0000   1.0000   1.0000   1.0000   1.0000   1.0000   1.0000
     1.0000   1.0000   1.0000   1.0000   1.0000   1.0000   1.0000   1.0000
     1.0000   1.0000   1.0000   1.0000   1.0000   1.0000   1.0000   1.0000

          k = 0.1250 0.3691 0.0862 ( 65469 PWs)   bands (ev):

   -18.8107 -18.8107 -18.8106 -18.8106 -18.8105 -18.8105 -18.8104 -18.8104
   -18.8092 -18.8092 -18.8091 -18.8091 -18.8090 -18.8090 -18.8089 -18.8089
   -18.2052 -18.2052 -18.2050 -18.2050 -18.2045 -18.2045 -18.2043 -18.2043
   -17.7728 -17.7728 -17.7727 -17.7727 -17.7723 -17.7723 -17.7721 -17.7721
   -17.7718 -17.7718 -17.7716 -17.7716 -17.7714 -17.7714 -17.7713 -17.7713
   -17.7635 -17.7635 -17.7635 -17.7635 -17.7635 -17.7635 -17.7634 -17.7634
    -9.1648  -9.1648  -9.0553  -9.0553  -9.0147  -9.0147  -8.9197  -8.9197
    -8.8372  -8.8372  -8.8349  -8.8349  -8.7867  -8.7867  -8.7694  -8.7694
    -8.7234  -8.7234  -8.7095  -8.7095  -8.7056  -8.7056  -8.6682  -8.6682
    -6.1472  -6.1472  -6.1441  -6.1441  -6.1411  -6.1411  -6.1384  -6.1384
    -4.5352  -4.5352  -4.5278  -4.5278  -4.5194  -4.5194  -4.5161  -4.5161
    -4.5139  -4.5139  -4.5064  -4.5064  -4.5036  -4.5036  -4.5010  -4.5010
    -4.0972  -4.0972  -3.7044  -3.7044  -3.5599  -3.5599  -3.1364  -3.1364
    -0.6419  -0.6419  -0.5472  -0.5472  -0.4037  -0.4037  -0.3509  -0.3509
     0.0573   0.0573   0.0813   0.0813   0.1595   0.1595   0.1934   0.1934
     0.3428   0.3428   0.5597   0.5597   0.5883   0.5883   0.8015   0.8015
     0.9256   0.9256   0.9671   0.9671   0.9899   0.9899   1.0330   1.0330
     1.2108   1.2108   1.2315   1.2315   1.2900   1.2900   1.3321   1.3321
     1.3922   1.3922   1.4223   1.4223   1.4446   1.4446   1.4627   1.4627
     1.7249   1.7249   1.7886   1.7886   1.8286   1.8286   1.8815   1.8815
     1.9597   1.9597   1.9882   1.9882   2.0282   2.0282   2.1180   2.1180
     2.1404   2.1404   2.2785   2.2785   2.4794   2.4794   2.7139   2.7139

     occupation numbers 
     1.0000   1.0000   1.0000   1.0000   1.0000   1.0000   1.0000   1.0000
     1.0000   1.0000   1.0000   1.0000   1.0000   1.0000   1.0000   1.0000
     1.0000   1.0000   1.0000   1.0000   1.0000   1.0000   1.0000   1.0000
     1.0000   1.0000   1.0000   1.0000   1.0000   1.0000   1.0000   1.0000
     1.0000   1.0000   1.0000   1.0000   1.0000   1.0000   1.0000   1.0000
     1.0000   1.0000   1.0000   1.0000   1.0000   1.0000   1.0000   1.0000
     1.0000   1.0000   1.0000   1.0000   1.0000   1.0000   1.0000   1.0000
     1.0000   1.0000   1.0000   1.0000   1.0000   1.0000   1.0000   1.0000
     1.0000   1.0000   1.0000   1.0000   1.0000   1.0000   1.0000   1.0000
     1.0000   1.0000   1.0000   1.0000   1.0000   1.0000   1.0000   1.0000
     1.0000   1.0000   1.0000   1.0000   1.0000   1.0000   1.0000   1.0000
     1.0000   1.0000   1.0000   1.0000   1.0000   1.0000   1.0000   1.0000
     1.0000   1.0000   1.0000   1.0000   1.0000   1.0000   1.0000   1.0000
     1.0000   1.0000   1.0000   1.0000   1.0000   1.0000   1.0000   1.0000
     1.0000   1.0000   1.0000   1.0000   1.0000   1.0000   1.0000   1.0000
     1.0000   1.0000   1.0000   1.0000   1.0000   1.0000   1.0000   1.0000
     1.0000   1.0000   1.0000   1.0000   1.0000   1.0000   1.0000   1.0000
     1.0000   1.0000   1.0000   1.0000   1.0000   1.0000   1.0000   1.0000
     1.0000   1.0000   1.0000   1.0000   1.0000   1.0000   1.0000   1.0000
     1.0000   1.0000   1.0000   1.0000   1.0000   1.0000   1.0000   1.0000
     1.0000   1.0000   1.0000   1.0000   1.0000   1.0000   1.0000   1.0000
     1.0000   1.0000   1.0000   1.0000   1.0000   1.0000   1.0000   1.0000

          k = 0.1250 0.3691 0.2586 ( 65460 PWs)   bands (ev):

   -18.8107 -18.8107 -18.8106 -18.8106 -18.8105 -18.8105 -18.8105 -18.8105
   -18.8091 -18.8091 -18.8091 -18.8091 -18.8090 -18.8090 -18.8089 -18.8089
   -18.2051 -18.2051 -18.2050 -18.2050 -18.2045 -18.2045 -18.2044 -18.2044
   -17.7726 -17.7726 -17.7725 -17.7725 -17.7724 -17.7724 -17.7723 -17.7723
   -17.7718 -17.7718 -17.7717 -17.7717 -17.7714 -17.7714 -17.7713 -17.7713
   -17.7635 -17.7635 -17.7635 -17.7635 -17.7635 -17.7635 -17.7634 -17.7634
    -9.1327  -9.1327  -9.0757  -9.0757  -9.0272  -9.0272  -8.9773  -8.9773
    -8.7999  -8.7999  -8.7907  -8.7907  -8.7775  -8.7775  -8.7539  -8.7539
    -8.7350  -8.7350  -8.7239  -8.7239  -8.7055  -8.7055  -8.6901  -8.6901
    -6.1464  -6.1464  -6.1450  -6.1450  -6.1401  -6.1401  -6.1390  -6.1390
    -4.5320  -4.5320  -4.5285  -4.5285  -4.5184  -4.5184  -4.5157  -4.5157
    -4.5110  -4.5110  -4.5099  -4.5099  -4.5052  -4.5052  -4.5027  -4.5027
    -3.9637  -3.9637  -3.7456  -3.7456  -3.5696  -3.5696  -3.3412  -3.3412
    -0.4553  -0.4553  -0.3922  -0.3922  -0.2206  -0.2206  -0.1990  -0.1990
     0.0141   0.0141   0.0721   0.0721   0.1207   0.1207   0.2735   0.2735
     0.2888   0.2888   0.4983   0.4983   0.5758   0.5758   0.6892   0.6892
     0.9294   0.9294   0.9463   0.9463   0.9887   0.9887   1.0369   1.0369
     1.1641   1.1641   1.1903   1.1903   1.2204   1.2204   1.2764   1.2764
     1.2903   1.2903   1.3292   1.3292   1.4126   1.4126   1.4374   1.4374
     1.7703   1.7703   1.8063   1.8063   1.8513   1.8513   1.9056   1.9056
     1.9385   1.9385   2.0147   2.0147   2.0399   2.0399   2.0772   2.0772
     2.1566   2.1566   2.2501   2.2501   2.2953   2.2953   2.3931   2.3931

     occupation numbers 
     1.0000   1.0000   1.0000   1.0000   1.0000   1.0000   1.0000   1.0000
     1.0000   1.0000   1.0000   1.0000   1.0000   1.0000   1.0000   1.0000
     1.0000   1.0000   1.0000   1.0000   1.0000   1.0000   1.0000   1.0000
     1.0000   1.0000   1.0000   1.0000   1.0000   1.0000   1.0000   1.0000
     1.0000   1.0000   1.0000   1.0000   1.0000   1.0000   1.0000   1.0000
     1.0000   1.0000   1.0000   1.0000   1.0000   1.0000   1.0000   1.0000
     1.0000   1.0000   1.0000   1.0000   1.0000   1.0000   1.0000   1.0000
     1.0000   1.0000   1.0000   1.0000   1.0000   1.0000   1.0000   1.0000
     1.0000   1.0000   1.0000   1.0000   1.0000   1.0000   1.0000   1.0000
     1.0000   1.0000   1.0000   1.0000   1.0000   1.0000   1.0000   1.0000
     1.0000   1.0000   1.0000   1.0000   1.0000   1.0000   1.0000   1.0000
     1.0000   1.0000   1.0000   1.0000   1.0000   1.0000   1.0000   1.0000
     1.0000   1.0000   1.0000   1.0000   1.0000   1.0000   1.0000   1.0000
     1.0000   1.0000   1.0000   1.0000   1.0000   1.0000   1.0000   1.0000
     1.0000   1.0000   1.0000   1.0000   1.0000   1.0000   1.0000   1.0000
     1.0000   1.0000   1.0000   1.0000   1.0000   1.0000   1.0000   1.0000
     1.0000   1.0000   1.0000   1.0000   1.0000   1.0000   1.0000   1.0000
     1.0000   1.0000   1.0000   1.0000   1.0000   1.0000   1.0000   1.0000
     1.0000   1.0000   1.0000   1.0000   1.0000   1.0000   1.0000   1.0000
     1.0000   1.0000   1.0000   1.0000   1.0000   1.0000   1.0000   1.0000
     1.0000   1.0000   1.0000   1.0000   1.0000   1.0000   1.0000   1.0000
     1.0000   1.0000   1.0000   1.0000   1.0000   1.0000   1.0000   1.0000

          k = 0.3750 0.1230 0.0862 ( 65491 PWs)   bands (ev):

   -18.8107 -18.8107 -18.8106 -18.8106 -18.8105 -18.8105 -18.8104 -18.8104
   -18.8092 -18.8092 -18.8091 -18.8091 -18.8090 -18.8090 -18.8089 -18.8089
   -18.2051 -18.2051 -18.2048 -18.2048 -18.2047 -18.2047 -18.2044 -18.2044
   -17.7728 -17.7728 -17.7727 -17.7727 -17.7723 -17.7723 -17.7721 -17.7721
   -17.7718 -17.7718 -17.7716 -17.7716 -17.7714 -17.7714 -17.7713 -17.7713
   -17.7635 -17.7635 -17.7635 -17.7635 -17.7635 -17.7635 -17.7634 -17.7634
    -9.1623  -9.1623  -9.0502  -9.0502  -9.0109  -9.0109  -8.9111  -8.9111
    -8.8387  -8.8387  -8.8326  -8.8326  -8.7941  -8.7941  -8.7809  -8.7809
    -8.7274  -8.7274  -8.7146  -8.7146  -8.7034  -8.7034  -8.6685  -8.6685
    -6.1454  -6.1454  -6.1423  -6.1423  -6.1414  -6.1414  -6.1389  -6.1389
    -4.5316  -4.5316  -4.5234  -4.5234  -4.5195  -4.5195  -4.5177  -4.5177
    -4.5130  -4.5130  -4.5056  -4.5056  -4.5026  -4.5026  -4.5009  -4.5009
    -4.0956  -4.0956  -3.7022  -3.7022  -3.5576  -3.5576  -3.1329  -3.1329
    -0.6418  -0.6418  -0.5478  -0.5478  -0.4127  -0.4127  -0.3579  -0.3579
     0.0604   0.0604   0.0932   0.0932   0.1577   0.1577   0.1986   0.1986
     0.3407   0.3407   0.5651   0.5651   0.5959   0.5959   0.8146   0.8146
     0.9304   0.9304   0.9707   0.9707   0.9885   0.9885   1.0422   1.0422
     1.2029   1.2029   1.2301   1.2301   1.2992   1.2992   1.3189   1.3189
     1.3903   1.3903   1.4175   1.4175   1.4509   1.4509   1.4636   1.4636
     1.7230   1.7230   1.7877   1.7877   1.8109   1.8109   1.8792   1.8792
     1.9430   1.9430   1.9844   1.9844   2.0082   2.0082   2.0856   2.0856
     2.1321   2.1321   2.2553   2.2553   2.4660   2.4660   2.7004   2.7004

     occupation numbers 
     1.0000   1.0000   1.0000   1.0000   1.0000   1.0000   1.0000   1.0000
     1.0000   1.0000   1.0000   1.0000   1.0000   1.0000   1.0000   1.0000
     1.0000   1.0000   1.0000   1.0000   1.0000   1.0000   1.0000   1.0000
     1.0000   1.0000   1.0000   1.0000   1.0000   1.0000   1.0000   1.0000
     1.0000   1.0000   1.0000   1.0000   1.0000   1.0000   1.0000   1.0000
     1.0000   1.0000   1.0000   1.0000   1.0000   1.0000   1.0000   1.0000
     1.0000   1.0000   1.0000   1.0000   1.0000   1.0000   1.0000   1.0000
     1.0000   1.0000   1.0000   1.0000   1.0000   1.0000   1.0000   1.0000
     1.0000   1.0000   1.0000   1.0000   1.0000   1.0000   1.0000   1.0000
     1.0000   1.0000   1.0000   1.0000   1.0000   1.0000   1.0000   1.0000
     1.0000   1.0000   1.0000   1.0000   1.0000   1.0000   1.0000   1.0000
     1.0000   1.0000   1.0000   1.0000   1.0000   1.0000   1.0000   1.0000
     1.0000   1.0000   1.0000   1.0000   1.0000   1.0000   1.0000   1.0000
     1.0000   1.0000   1.0000   1.0000   1.0000   1.0000   1.0000   1.0000
     1.0000   1.0000   1.0000   1.0000   1.0000   1.0000   1.0000   1.0000
     1.0000   1.0000   1.0000   1.0000   1.0000   1.0000   1.0000   1.0000
     1.0000   1.0000   1.0000   1.0000   1.0000   1.0000   1.0000   1.0000
     1.0000   1.0000   1.0000   1.0000   1.0000   1.0000   1.0000   1.0000
     1.0000   1.0000   1.0000   1.0000   1.0000   1.0000   1.0000   1.0000
     1.0000   1.0000   1.0000   1.0000   1.0000   1.0000   1.0000   1.0000
     1.0000   1.0000   1.0000   1.0000   1.0000   1.0000   1.0000   1.0000
     1.0000   1.0000   1.0000   1.0000   1.0000   1.0000   1.0000   1.0000

          k = 0.3750 0.1230 0.2586 ( 65512 PWs)   bands (ev):

   -18.8107 -18.8107 -18.8106 -18.8106 -18.8105 -18.8105 -18.8105 -18.8105
   -18.8091 -18.8091 -18.8091 -18.8091 -18.8090 -18.8090 -18.8090 -18.8090
   -18.2050 -18.2050 -18.2048 -18.2048 -18.2046 -18.2046 -18.2045 -18.2045
   -17.7726 -17.7726 -17.7725 -17.7725 -17.7724 -17.7724 -17.7723 -17.7723
   -17.7718 -17.7718 -17.7717 -17.7717 -17.7714 -17.7714 -17.7713 -17.7713
   -17.7635 -17.7635 -17.7635 -17.7635 -17.7635 -17.7635 -17.7634 -17.7634
    -9.1301  -9.1301  -9.0725  -9.0725  -9.0220  -9.0220  -8.9713  -8.9713
    -8.8022  -8.8022  -8.7971  -8.7971  -8.7776  -8.7776  -8.7596  -8.7596
    -8.7374  -8.7374  -8.7228  -8.7228  -8.7099  -8.7099  -8.6923  -8.6923
    -6.1445  -6.1445  -6.1432  -6.1432  -6.1406  -6.1406  -6.1395  -6.1395
    -4.5282  -4.5282  -4.5249  -4.5249  -4.5180  -4.5180  -4.5160  -4.5160
    -4.5111  -4.5111  -4.5085  -4.5085  -4.5046  -4.5046  -4.5030  -4.5030
    -3.9620  -3.9620  -3.7437  -3.7437  -3.5672  -3.5672  -3.3383  -3.3383
    -0.4593  -0.4593  -0.3979  -0.3979  -0.2236  -0.2236  -0.1972  -0.1972
     0.0228   0.0228   0.0709   0.0709   0.1219   0.1219   0.2730   0.2730
     0.2951   0.2951   0.5060   0.5060   0.5789   0.5789   0.6980   0.6980
     0.9339   0.9339   0.9450   0.9450   0.9902   0.9902   1.0414   1.0414
     1.1635   1.1635   1.1954   1.1954   1.2152   1.2152   1.2760   1.2760
     1.2904   1.2904   1.3194   1.3194   1.4179   1.4179   1.4395   1.4395
     1.7675   1.7675   1.7993   1.7993   1.8413   1.8413   1.8814   1.8814
     1.9447   1.9447   2.0116   2.0116   2.0294   2.0294   2.0691   2.0691
     2.1315   2.1315   2.2295   2.2295   2.2691   2.2691   2.3732   2.3732

     occupation numbers 
     1.0000   1.0000   1.0000   1.0000   1.0000   1.0000   1.0000   1.0000
     1.0000   1.0000   1.0000   1.0000   1.0000   1.0000   1.0000   1.0000
     1.0000   1.0000   1.0000   1.0000   1.0000   1.0000   1.0000   1.0000
     1.0000   1.0000   1.0000   1.0000   1.0000   1.0000   1.0000   1.0000
     1.0000   1.0000   1.0000   1.0000   1.0000   1.0000   1.0000   1.0000
     1.0000   1.0000   1.0000   1.0000   1.0000   1.0000   1.0000   1.0000
     1.0000   1.0000   1.0000   1.0000   1.0000   1.0000   1.0000   1.0000
     1.0000   1.0000   1.0000   1.0000   1.0000   1.0000   1.0000   1.0000
     1.0000   1.0000   1.0000   1.0000   1.0000   1.0000   1.0000   1.0000
     1.0000   1.0000   1.0000   1.0000   1.0000   1.0000   1.0000   1.0000
     1.0000   1.0000   1.0000   1.0000   1.0000   1.0000   1.0000   1.0000
     1.0000   1.0000   1.0000   1.0000   1.0000   1.0000   1.0000   1.0000
     1.0000   1.0000   1.0000   1.0000   1.0000   1.0000   1.0000   1.0000
     1.0000   1.0000   1.0000   1.0000   1.0000   1.0000   1.0000   1.0000
     1.0000   1.0000   1.0000   1.0000   1.0000   1.0000   1.0000   1.0000
     1.0000   1.0000   1.0000   1.0000   1.0000   1.0000   1.0000   1.0000
     1.0000   1.0000   1.0000   1.0000   1.0000   1.0000   1.0000   1.0000
     1.0000   1.0000   1.0000   1.0000   1.0000   1.0000   1.0000   1.0000
     1.0000   1.0000   1.0000   1.0000   1.0000   1.0000   1.0000   1.0000
     1.0000   1.0000   1.0000   1.0000   1.0000   1.0000   1.0000   1.0000
     1.0000   1.0000   1.0000   1.0000   1.0000   1.0000   1.0000   1.0000
     1.0000   1.0000   1.0000   1.0000   1.0000   1.0000   1.0000   1.0000

          k = 0.3750 0.3691 0.0862 ( 65496 PWs)   bands (ev):

   -18.8107 -18.8107 -18.8107 -18.8107 -18.8105 -18.8105 -18.8105 -18.8105
   -18.8091 -18.8091 -18.8091 -18.8091 -18.8090 -18.8090 -18.8090 -18.8090
   -18.2050 -18.2050 -18.2049 -18.2049 -18.2045 -18.2045 -18.2044 -18.2044
   -17.7729 -17.7729 -17.7728 -17.7728 -17.7723 -17.7723 -17.7723 -17.7723
   -17.7716 -17.7716 -17.7715 -17.7715 -17.7714 -17.7714 -17.7713 -17.7713
   -17.7635 -17.7635 -17.7635 -17.7635 -17.7635 -17.7635 -17.7634 -17.7634
    -9.1160  -9.1160  -9.0620  -9.0620  -8.9555  -8.9555  -8.8933  -8.8933
    -8.8418  -8.8418  -8.8380  -8.8380  -8.8298  -8.8298  -8.8113  -8.8113
    -8.7926  -8.7926  -8.7646  -8.7646  -8.6635  -8.6635  -8.6505  -8.6505
    -6.1419  -6.1419  -6.1409  -6.1409  -6.1395  -6.1395  -6.1381  -6.1381
    -4.5232  -4.5232  -4.5198  -4.5198  -4.5166  -4.5166  -4.5149  -4.5149
    -4.5074  -4.5074  -4.5039  -4.5039  -4.5022  -4.5022  -4.5004  -4.5004
    -3.9569  -3.9569  -3.7894  -3.7894  -3.4016  -3.4016  -3.2178  -3.2178
    -0.6850  -0.6850  -0.6039  -0.6039  -0.5078  -0.5078  -0.4654  -0.4654
    -0.3122  -0.3122  -0.2569  -0.2569   0.2915   0.2915   0.3124   0.3124
     0.5064   0.5064   0.6128   0.6128   0.7679   0.7679   0.8607   0.8607
     0.9359   0.9359   0.9637   0.9637   1.0837   1.0837   1.1228   1.1228
     1.2011   1.2011   1.2527   1.2527   1.2921   1.2921   1.3103   1.3103
     1.3962   1.3962   1.4703   1.4703   1.4966   1.4966   1.5236   1.5236
     1.6866   1.6866   1.7433   1.7433   1.7759   1.7759   1.8043   1.8043
     1.8545   1.8545   1.9144   1.9144   2.0723   2.0723   2.0905   2.0905
     2.1497   2.1497   2.3159   2.3159   2.6320   2.6320   2.8531   2.8531

     occupation numbers 
     1.0000   1.0000   1.0000   1.0000   1.0000   1.0000   1.0000   1.0000
     1.0000   1.0000   1.0000   1.0000   1.0000   1.0000   1.0000   1.0000
     1.0000   1.0000   1.0000   1.0000   1.0000   1.0000   1.0000   1.0000
     1.0000   1.0000   1.0000   1.0000   1.0000   1.0000   1.0000   1.0000
     1.0000   1.0000   1.0000   1.0000   1.0000   1.0000   1.0000   1.0000
     1.0000   1.0000   1.0000   1.0000   1.0000   1.0000   1.0000   1.0000
     1.0000   1.0000   1.0000   1.0000   1.0000   1.0000   1.0000   1.0000
     1.0000   1.0000   1.0000   1.0000   1.0000   1.0000   1.0000   1.0000
     1.0000   1.0000   1.0000   1.0000   1.0000   1.0000   1.0000   1.0000
     1.0000   1.0000   1.0000   1.0000   1.0000   1.0000   1.0000   1.0000
     1.0000   1.0000   1.0000   1.0000   1.0000   1.0000   1.0000   1.0000
     1.0000   1.0000   1.0000   1.0000   1.0000   1.0000   1.0000   1.0000
     1.0000   1.0000   1.0000   1.0000   1.0000   1.0000   1.0000   1.0000
     1.0000   1.0000   1.0000   1.0000   1.0000   1.0000   1.0000   1.0000
     1.0000   1.0000   1.0000   1.0000   1.0000   1.0000   1.0000   1.0000
     1.0000   1.0000   1.0000   1.0000   1.0000   1.0000   1.0000   1.0000
     1.0000   1.0000   1.0000   1.0000   1.0000   1.0000   1.0000   1.0000
     1.0000   1.0000   1.0000   1.0000   1.0000   1.0000   1.0000   1.0000
     1.0000   1.0000   1.0000   1.0000   1.0000   1.0000   1.0000   1.0000
     1.0000   1.0000   1.0000   1.0000   1.0000   1.0000   1.0000   1.0000
     1.0000   1.0000   1.0000   1.0000   1.0000   1.0000   1.0000   1.0000
     1.0000   1.0000   1.0000   1.0000   1.0000   1.0000   1.0000   1.0000

          k = 0.3750 0.3691 0.2586 ( 65501 PWs)   bands (ev):

   -18.8106 -18.8106 -18.8106 -18.8106 -18.8106 -18.8106 -18.8105 -18.8105
   -18.8091 -18.8091 -18.8091 -18.8091 -18.8090 -18.8090 -18.8090 -18.8090
   -18.2049 -18.2049 -18.2048 -18.2048 -18.2046 -18.2046 -18.2045 -18.2045
   -17.7727 -17.7727 -17.7726 -17.7726 -17.7725 -17.7725 -17.7724 -17.7724
   -17.7716 -17.7716 -17.7715 -17.7715 -17.7714 -17.7714 -17.7714 -17.7714
   -17.7635 -17.7635 -17.7635 -17.7635 -17.7635 -17.7635 -17.7635 -17.7635
    -9.0830  -9.0830  -9.0297  -9.0297  -9.0230  -9.0230  -8.9696  -8.9696
    -8.8364  -8.8364  -8.8341  -8.8341  -8.8078  -8.8078  -8.7977  -8.7977
    -8.7409  -8.7409  -8.7275  -8.7275  -8.6899  -8.6899  -8.6791  -8.6791
    -6.1417  -6.1417  -6.1412  -6.1412  -6.1391  -6.1391  -6.1385  -6.1385
    -4.5208  -4.5208  -4.5184  -4.5184  -4.5146  -4.5146  -4.5126  -4.5126
    -4.5085  -4.5085  -4.5066  -4.5066  -4.5056  -4.5056  -4.5031  -4.5031
    -3.8204  -3.8204  -3.6521  -3.6521  -3.5958  -3.5958  -3.4219  -3.4219
    -0.5844  -0.5844  -0.5239  -0.5239  -0.4001  -0.4001  -0.3112  -0.3112
    -0.1618  -0.1618  -0.0799  -0.0799   0.2248   0.2248   0.2761   0.2761
     0.5206   0.5206   0.5802   0.5802   0.6237   0.6237   0.6780   0.6780
     0.9194   0.9194   0.9557   0.9557   0.9686   0.9686   1.0324   1.0324
     1.2056   1.2056   1.2632   1.2632   1.2737   1.2737   1.2938   1.2938
     1.3430   1.3430   1.4088   1.4088   1.4567   1.4567   1.4920   1.4920
     1.7254   1.7254   1.7510   1.7510   1.8222   1.8222   1.8337   1.8337
     1.9152   1.9152   1.9810   1.9810   2.0264   2.0264   2.0557   2.0557
     2.1723   2.1723   2.3191   2.3191   2.3721   2.3721   2.5309   2.5309

     occupation numbers 
     1.0000   1.0000   1.0000   1.0000   1.0000   1.0000   1.0000   1.0000
     1.0000   1.0000   1.0000   1.0000   1.0000   1.0000   1.0000   1.0000
     1.0000   1.0000   1.0000   1.0000   1.0000   1.0000   1.0000   1.0000
     1.0000   1.0000   1.0000   1.0000   1.0000   1.0000   1.0000   1.0000
     1.0000   1.0000   1.0000   1.0000   1.0000   1.0000   1.0000   1.0000
     1.0000   1.0000   1.0000   1.0000   1.0000   1.0000   1.0000   1.0000
     1.0000   1.0000   1.0000   1.0000   1.0000   1.0000   1.0000   1.0000
     1.0000   1.0000   1.0000   1.0000   1.0000   1.0000   1.0000   1.0000
     1.0000   1.0000   1.0000   1.0000   1.0000   1.0000   1.0000   1.0000
     1.0000   1.0000   1.0000   1.0000   1.0000   1.0000   1.0000   1.0000
     1.0000   1.0000   1.0000   1.0000   1.0000   1.0000   1.0000   1.0000
     1.0000   1.0000   1.0000   1.0000   1.0000   1.0000   1.0000   1.0000
     1.0000   1.0000   1.0000   1.0000   1.0000   1.0000   1.0000   1.0000
     1.0000   1.0000   1.0000   1.0000   1.0000   1.0000   1.0000   1.0000
     1.0000   1.0000   1.0000   1.0000   1.0000   1.0000   1.0000   1.0000
     1.0000   1.0000   1.0000   1.0000   1.0000   1.0000   1.0000   1.0000
     1.0000   1.0000   1.0000   1.0000   1.0000   1.0000   1.0000   1.0000
     1.0000   1.0000   1.0000   1.0000   1.0000   1.0000   1.0000   1.0000
     1.0000   1.0000   1.0000   1.0000   1.0000   1.0000   1.0000   1.0000
     1.0000   1.0000   1.0000   1.0000   1.0000   1.0000   1.0000   1.0000
     1.0000   1.0000   1.0000   1.0000   1.0000   1.0000   1.0000   1.0000
     1.0000   1.0000   1.0000   1.0000   1.0000   1.0000   1.0000   1.0000

     highest occupied level (ev):     3.1386

!    total energy              =   -1268.14570436 Ry
     Harris-Foulkes estimate   =   -1268.14570365 Ry
     estimated scf accuracy    <       0.00000052 Ry

     The total energy is the sum of the following terms:

     one-electron contribution =    -489.57713643 Ry
     hartree contribution      =     314.87548429 Ry
     xc contribution           =    -462.81186242 Ry
     ewald contribution        =    -630.63218980 Ry

     convergence has been achieved in   7 iterations

     Forces acting on atoms (Ry/au):

     atom    1 type  1   force =     0.00023327   -0.00012479   -0.00000000
     atom    2 type  1   force =     0.00023327    0.00012479    0.00000000
     atom    3 type  1   force =    -0.00023327    0.00012479    0.00000000
     atom    4 type  1   force =    -0.00023327   -0.00012479   -0.00000000
     atom    5 type  2   force =     0.00000000    0.00000000    0.00000000
     atom    6 type  2   force =     0.00000000    0.00000000   -0.00000000
     atom    7 type  2   force =     0.00000000   -0.00000000   -0.00000000
     atom    8 type  2   force =     0.00000000    0.00000000    0.00000000
     atom    9 type  3   force =    -0.00001195    0.00068254    0.00030087
     atom   10 type  3   force =     0.00001195   -0.00068254    0.00030087
     atom   11 type  3   force =    -0.00001195    0.00068254   -0.00030087
     atom   12 type  3   force =     0.00001195   -0.00068254   -0.00030087
     atom   13 type  3   force =    -0.00046044   -0.00004403    0.00000000
     atom   14 type  3   force =    -0.00001195   -0.00068254   -0.00030087
     atom   15 type  3   force =     0.00046044   -0.00004403    0.00000000
     atom   16 type  3   force =     0.00001195    0.00068254    0.00030087
     atom   17 type  3   force =     0.00001195    0.00068254   -0.00030087
     atom   18 type  3   force =     0.00046044    0.00004403    0.00000000
     atom   19 type  3   force =    -0.00046044    0.00004403    0.00000000
     atom   20 type  3   force =    -0.00001195   -0.00068254    0.00030087
     The non-local contrib.  to forces
     atom    1 type  1   force =    -0.00092610   -0.00480496    0.00000000
     atom    2 type  1   force =    -0.00092610    0.00480496    0.00000000
     atom    3 type  1   force =     0.00092610    0.00480496    0.00000000
     atom    4 type  1   force =     0.00092610   -0.00480496    0.00000000
     atom    5 type  2   force =     0.00000000    0.00000000    0.00000000
     atom    6 type  2   force =     0.00000000   -0.00000000    0.00000000
     atom    7 type  2   force =    -0.00000000   -0.00000000    0.00000000
     atom    8 type  2   force =    -0.00000000   -0.00000000    0.00000000
     atom    9 type  3   force =     0.00813728    0.00762096    0.00462835
     atom   10 type  3   force =    -0.00813728   -0.00762096    0.00462835
     atom   11 type  3   force =     0.00813728    0.00762096   -0.00462835
     atom   12 type  3   force =    -0.00813728   -0.00762096   -0.00462835
     atom   13 type  3   force =    -0.00143749   -0.00335599    0.00000000
     atom   14 type  3   force =     0.00813728   -0.00762096   -0.00462835
     atom   15 type  3   force =     0.00143749   -0.00335599    0.00000000
     atom   16 type  3   force =    -0.00813728    0.00762096    0.00462835
     atom   17 type  3   force =    -0.00813728    0.00762096   -0.00462835
     atom   18 type  3   force =     0.00143749    0.00335599    0.00000000
     atom   19 type  3   force =    -0.00143749    0.00335599    0.00000000
     atom   20 type  3   force =     0.00813728   -0.00762096    0.00462835
     The ionic contribution  to forces
     atom    1 type  1   force =    -0.15384217   -0.81101301   -0.00000000
     atom    2 type  1   force =    -0.15384217    0.81101301    0.00000000
     atom    3 type  1   force =     0.15384217    0.81101301    0.00000000
     atom    4 type  1   force =     0.15384217   -0.81101301    0.00000000
     atom    5 type  2   force =     0.00000000   -0.00000000   -0.00000000
     atom    6 type  2   force =    -0.00000000   -0.00000000    0.00000000
     atom    7 type  2   force =    -0.00000000    0.00000000   -0.00000000
     atom    8 type  2   force =    -0.00000000   -0.00000000    0.00000000
     atom    9 type  3   force =    -0.70474196   -0.63043970   -0.48733617
     atom   10 type  3   force =     0.70474196    0.63043970   -0.48733617
     atom   11 type  3   force =    -0.70474196   -0.63043970    0.48733617
     atom   12 type  3   force =     0.70474196    0.63043970    0.48733617
     atom   13 type  3   force =    -0.06288103    0.21897472    0.00000000
     atom   14 type  3   force =    -0.70474196    0.63043970    0.48733617
     atom   15 type  3   force =     0.06288103    0.21897472   -0.00000000
     atom   16 type  3   force =     0.70474196   -0.63043970   -0.48733617
     atom   17 type  3   force =     0.70474196   -0.63043970    0.48733617
     atom   18 type  3   force =     0.06288103   -0.21897472   -0.00000000
     atom   19 type  3   force =    -0.06288103   -0.21897472    0.00000000
     atom   20 type  3   force =    -0.70474196    0.63043970   -0.48733617
     The local contribution  to forces
     atom    1 type  1   force =     0.15500872    0.81561023   -0.00000000
     atom    2 type  1   force =     0.15500872   -0.81561023   -0.00000000
     atom    3 type  1   force =    -0.15500872   -0.81561023   -0.00000000
     atom    4 type  1   force =    -0.15500872    0.81561023   -0.00000000
     atom    5 type  2   force =    -0.00000000   -0.00000000   -0.00000000
     atom    6 type  2   force =    -0.00000000   -0.00000000   -0.00000000
     atom    7 type  2   force =    -0.00000000   -0.00000000   -0.00000000
     atom    8 type  2   force =    -0.00000000   -0.00000000   -0.00000000
     atom    9 type  3   force =     0.69763429    0.62456546    0.48343239
     atom   10 type  3   force =    -0.69763429   -0.62456546    0.48343239
     atom   11 type  3   force =     0.69763429    0.62456546   -0.48343239
     atom   12 type  3   force =    -0.69763429   -0.62456546   -0.48343239
     atom   13 type  3   force =     0.06365263   -0.21568355    0.00000000
     atom   14 type  3   force =     0.69763429   -0.62456546   -0.48343239
     atom   15 type  3   force =    -0.06365263   -0.21568355    0.00000000
     atom   16 type  3   force =    -0.69763429    0.62456546    0.48343239
     atom   17 type  3   force =    -0.69763429    0.62456546   -0.48343239
     atom   18 type  3   force =    -0.06365263    0.21568355    0.00000000
     atom   19 type  3   force =     0.06365263    0.21568355   -0.00000000
     atom   20 type  3   force =     0.69763429   -0.62456546    0.48343239
     The core correction contribution to forces
     atom    1 type  1   force =     0.00000384    0.00010298    0.00000000
     atom    2 type  1   force =     0.00000384   -0.00010298   -0.00000000
     atom    3 type  1   force =    -0.00000384   -0.00010298   -0.00000000
     atom    4 type  1   force =    -0.00000384    0.00010298   -0.00000000
     atom    5 type  2   force =    -0.00000000    0.00000000   -0.00000000
     atom    6 type  2   force =    -0.00000000    0.00000000   -0.00000000
     atom    7 type  2   force =    -0.00000000   -0.00000000   -0.00000000
     atom    8 type  2   force =     0.00000000   -0.00000000   -0.00000000
     atom    9 type  3   force =    -0.00102326   -0.00105235   -0.00046320
     atom   10 type  3   force =     0.00102326    0.00105235   -0.00046320
     atom   11 type  3   force =    -0.00102326   -0.00105235    0.00046320
     atom   12 type  3   force =     0.00102326    0.00105235    0.00046320
     atom   13 type  3   force =     0.00020771    0.00008847    0.00000000
     atom   14 type  3   force =    -0.00102326    0.00105235    0.00046320
     atom   15 type  3   force =    -0.00020771    0.00008847    0.00000000
     atom   16 type  3   force =     0.00102326   -0.00105235   -0.00046320
     atom   17 type  3   force =     0.00102326   -0.00105235    0.00046320
     atom   18 type  3   force =    -0.00020771   -0.00008847    0.00000000
     atom   19 type  3   force =     0.00020771   -0.00008847   -0.00000000
     atom   20 type  3   force =    -0.00102326    0.00105235   -0.00046320
     The Hubbard contrib.    to forces
     atom    1 type  1   force =     0.00000000    0.00000000    0.00000000
     atom    2 type  1   force =     0.00000000    0.00000000    0.00000000
     atom    3 type  1   force =     0.00000000    0.00000000    0.00000000
     atom    4 type  1   force =     0.00000000    0.00000000    0.00000000
     atom    5 type  2   force =     0.00000000    0.00000000    0.00000000
     atom    6 type  2   force =     0.00000000    0.00000000    0.00000000
     atom    7 type  2   force =     0.00000000    0.00000000    0.00000000
     atom    8 type  2   force =     0.00000000    0.00000000    0.00000000
     atom    9 type  3   force =     0.00000000    0.00000000    0.00000000
     atom   10 type  3   force =     0.00000000    0.00000000    0.00000000
     atom   11 type  3   force =     0.00000000    0.00000000    0.00000000
     atom   12 type  3   force =     0.00000000    0.00000000    0.00000000
     atom   13 type  3   force =     0.00000000    0.00000000    0.00000000
     atom   14 type  3   force =     0.00000000    0.00000000    0.00000000
     atom   15 type  3   force =     0.00000000    0.00000000    0.00000000
     atom   16 type  3   force =     0.00000000    0.00000000    0.00000000
     atom   17 type  3   force =     0.00000000    0.00000000    0.00000000
     atom   18 type  3   force =     0.00000000    0.00000000    0.00000000
     atom   19 type  3   force =     0.00000000    0.00000000    0.00000000
     atom   20 type  3   force =     0.00000000    0.00000000    0.00000000
     The SCF correction term to forces
     atom    1 type  1   force =    -0.00001103   -0.00002003   -0.00000000
     atom    2 type  1   force =    -0.00001103    0.00002003    0.00000000
     atom    3 type  1   force =     0.00001103    0.00002003    0.00000000
     atom    4 type  1   force =     0.00001103   -0.00002003    0.00000000
     atom    5 type  2   force =     0.00000000   -0.00000000   -0.00000000
     atom    6 type  2   force =     0.00000000    0.00000000   -0.00000000
     atom    7 type  2   force =     0.00000000   -0.00000000   -0.00000000
     atom    8 type  2   force =     0.00000000   -0.00000000   -0.00000000
     atom    9 type  3   force =    -0.00001830   -0.00001184    0.00003950
     atom   10 type  3   force =     0.00001830    0.00001184    0.00003950
     atom   11 type  3   force =    -0.00001830   -0.00001184   -0.00003950
     atom   12 type  3   force =     0.00001830    0.00001184   -0.00003950
     atom   13 type  3   force =    -0.00000225   -0.00006768   -0.00000000
     atom   14 type  3   force =    -0.00001830    0.00001184   -0.00003950
     atom   15 type  3   force =     0.00000225   -0.00006768   -0.00000000
     atom   16 type  3   force =     0.00001830   -0.00001184    0.00003950
     atom   17 type  3   force =     0.00001830   -0.00001184   -0.00003950
     atom   18 type  3   force =     0.00000225    0.00006768   -0.00000000
     atom   19 type  3   force =    -0.00000225    0.00006768    0.00000000
     atom   20 type  3   force =    -0.00001830    0.00001184    0.00003950

     Total force =     0.002364     Total SCF correction =     0.000192


     entering subroutine stress ...

     Message from routine stres:
     noncollinear stress + GGA not implemented

     Writing output data file CsSnI3.save

     init_run     :     34.51s CPU     32.62s WALL (       1 calls)
     electrons    :    589.06s CPU    357.34s WALL (       1 calls)
     forces       :     56.44s CPU     51.60s WALL (       1 calls)

     Called by init_run:
     wfcinit      :     21.72s CPU     14.84s WALL (       1 calls)
     wfcinit:atom :      0.07s CPU      0.10s WALL (       8 calls)
     wfcinit:wfcr :     21.03s CPU     13.46s WALL (       8 calls)
     potinit      :      1.60s CPU      3.21s WALL (       1 calls)

     Called by electrons:
     c_bands      :    456.19s CPU    267.25s WALL (       8 calls)
     sum_band     :     96.60s CPU     60.31s WALL (       8 calls)
     v_of_rho     :      1.36s CPU      2.15s WALL (       8 calls)
     v_h          :      0.09s CPU      0.06s WALL (       8 calls)
     v_xc         :      1.46s CPU      1.90s WALL (       9 calls)
     newd         :     38.90s CPU     27.41s WALL (       8 calls)
     mix_rho      :      0.63s CPU      0.95s WALL (       8 calls)

     Called by c_bands:
     init_us_2    :      2.23s CPU      1.84s WALL (     144 calls)
     cegterg      :    440.45s CPU    251.47s WALL (      64 calls)

     Called by sum_band:
     sum_band:bec :      8.51s CPU      5.54s WALL (      64 calls)
     addusdens    :     28.04s CPU     21.05s WALL (       8 calls)

     Called by *egterg:
     h_psi        :    296.69s CPU    158.79s WALL (     260 calls)
     s_psi        :     52.30s CPU     34.12s WALL (     260 calls)
     g_psi        :      0.94s CPU      0.67s WALL (     188 calls)
     cdiaghg      :     28.95s CPU     18.19s WALL (     244 calls)
     cegterg:over :     34.68s CPU     21.42s WALL (     188 calls)
     cegterg:upda :     18.77s CPU      9.96s WALL (     188 calls)
     cegterg:last :      8.75s CPU      4.60s WALL (      64 calls)

     Called by h_psi:
     h_psi:pot    :    294.21s CPU    156.73s WALL (     260 calls)
     h_psi:calbec :     47.39s CPU     25.62s WALL (     260 calls)
     vloc_psi     :    199.63s CPU    103.13s WALL (     260 calls)
     add_vuspsi   :     47.18s CPU     27.86s WALL (     260 calls)

     General routines
     calbec       :     71.22s CPU     39.07s WALL (     356 calls)
     fft          :      3.39s CPU      2.79s WALL (     253 calls)
     ffts         :      0.51s CPU      0.38s WALL (      64 calls)
     fftw         :    211.02s CPU    109.43s WALL (  150700 calls)
     interpolate  :      1.00s CPU      0.69s WALL (      64 calls)

     Parallel routines
     fft_scatter  :    143.52s CPU     76.11s WALL (  151017 calls)

     PWSCF        : 11m33.19s CPU     8m44.70s WALL


   This run was terminated on:  17:29:34  31Jan2021            

=------------------------------------------------------------------------------=
   JOB DONE.
=------------------------------------------------------------------------------=
