
     Program PWSCF v.6.3 starts on 17Feb2021 at 21:17:59 

     This program is part of the open-source Quantum ESPRESSO suite
     for quantum simulation of materials; please cite
         "P. Giannozzi et al., J. Phys.:Condens. Matter 21 395502 (2009);
         "P. Giannozzi et al., J. Phys.:Condens. Matter 29 465901 (2017);
          URL http://www.quantum-espresso.org", 
     in publications or presentations arising from this work. More details at
     http://www.quantum-espresso.org/quote

     Parallel version (MPI & OpenMP), running on      32 processor cores
     Number of MPI processes:                32
     Threads/MPI process:                     1

     MPI processes distributed on     1 nodes
     R & G space division:  proc/nbgrp/npool/nimage =      32
     Waiting for input...
     Reading input from standard input

     Current dimensions of program PWSCF are:
     Max number of different atomic species (ntypx) = 10
     Max number of k-points (npk) =  40000
     Max angular momentum in pseudopotentials (lmaxx) =  3
               file Sn.rel-pbe-dn-rrkjus_psl.1.0.0.UPF: wavefunction(s)  5S 4D 4D renormalized
               file Cs.rel-pbe-spn-rrkjus_psl.1.0.0.UPF: wavefunction(s)  5S 6S renormalized

     Subspace diagonalization in iterative solution of the eigenvalue problem:
     one sub-group per band group will be used
     scalapack distributed-memory algorithm (size of sub-group:  4*  4 procs)

     Found symmetry operation: I + ( -0.5000 -0.5000  0.0000)
     This is a supercell, fractional translations are disabled
 
     Parallelization info
     --------------------
     sticks:   dense  smooth     PW     G-vecs:    dense   smooth      PW
     Min         216     216     57                19706    19706    2649
     Max         217     217     59                19713    19713    2653
     Sum        6939    6939   1827               630691   630691   84807
 

     Title: 
     perovskite                                                                 


     bravais-lattice index     =            0
     lattice parameter (alat)  =      16.7540  a.u.
     unit-cell volume          =    6523.0600 (a.u.)^3
     number of atoms/cell      =           20
     number of atomic types    =            3
     number of electrons       =       176.00
     number of Kohn-Sham states=          176
     kinetic-energy cutoff     =      80.0000  Ry
     charge density cutoff     =     320.0000  Ry
     convergence threshold     =      1.0E-07
     mixing beta               =       0.6000
     number of iterations used =            8  plain     mixing
     Exchange-correlation      = PBE ( 1  4  3  4 0 0)
     nstep                     =           50

     Non magnetic calculation with spin-orbit


     celldm(1)=  16.754000  celldm(2)=   0.000000  celldm(3)=   0.000000
     celldm(4)=   0.000000  celldm(5)=   0.000000  celldm(6)=   0.000000

     crystal axes: (cart. coord. in units of alat)
               a(1) = (   1.000000   0.000000   0.000000 )  
               a(2) = (   0.000000   0.970156   0.000000 )  
               a(3) = (   0.000000   0.000000   1.429730 )  

     reciprocal axes: (cart. coord. in units 2 pi/alat)
               b(1) = (  1.000000  0.000000  0.000000 )  
               b(2) = (  0.000000  1.030762  0.000000 )  
               b(3) = (  0.000000  0.000000  0.699433 )  


     PseudoPot. # 1 for Sn read from file:
     ./Sn.rel-pbe-dn-rrkjus_psl.1.0.0.UPF
     MD5 check sum: e9415cc9ba1036dfb73502962f03961a
     Pseudo is Ultrasoft + core correction, Zval = 14.0
     Generated using "atomic" code by A. Dal Corso v.6.3
     Using radial grid of 1243 points, 10 beta functions with: 
                l(1) =   0
                l(2) =   0
                l(3) =   1
                l(4) =   1
                l(5) =   1
                l(6) =   1
                l(7) =   2
                l(8) =   2
                l(9) =   2
               l(10) =   2
     Q(r) pseudized with 0 coefficients 


     PseudoPot. # 2 for I  read from file:
     ./I.rel-pbe-n-rrkjus_psl.0.2.2.UPF
     MD5 check sum: b9024a078df971004264c9bcc9ff756e
     Pseudo is Ultrasoft + core correction, Zval =  7.0
     Generated using "atomic" code by A. Dal Corso v.5.0.2 svn rev. 9415
     Using radial grid of 1247 points,  6 beta functions with: 
                l(1) =   0
                l(2) =   0
                l(3) =   1
                l(4) =   1
                l(5) =   1
                l(6) =   1
     Q(r) pseudized with 0 coefficients 


     PseudoPot. # 3 for Cs read from file:
     ./Cs.rel-pbe-spn-rrkjus_psl.1.0.0.UPF
     MD5 check sum: 92f45d5fced885c1284380ec35df8368
     Pseudo is Ultrasoft + core correction, Zval =  9.0
     Generated using "atomic" code by A. Dal Corso v.6.4.1
     Using radial grid of 1251 points, 15 beta functions with: 
                l(1) =   0
                l(2) =   0
                l(3) =   0
                l(4) =   1
                l(5) =   1
                l(6) =   1
                l(7) =   1
                l(8) =   2
                l(9) =   2
               l(10) =   2
               l(11) =   2
               l(12) =   3
               l(13) =   3
               l(14) =   3
               l(15) =   3
     Q(r) pseudized with 0 coefficients 


     atomic species   valence    mass     pseudopotential
        Sn            14.00   118.70000     Sn( 1.00)
        I              7.00   126.90000     I ( 1.00)
        Cs             9.00   132.90000     Cs( 1.00)

      2 Sym. Ops. (no inversion) found


                                    s                        frac. trans.

      isym =  1     identity                                     

 cryst.   s( 1) = (     1          0          0      )
                  (     0          1          0      )
                  (     0          0          1      )

 cart.    s( 1) = (  1.0000000  0.0000000  0.0000000 )
                  (  0.0000000  1.0000000  0.0000000 )
                  (  0.0000000  0.0000000  1.0000000 )


      isym =  2     inv. 180 deg rotation - cart. axis [0,1,0]   

 cryst.   s( 2) = (     1          0          0      )
                  (     0         -1          0      )
                  (     0          0          1      )

 cart.    s( 2) = (  1.0000000  0.0000000  0.0000000 )
                  (  0.0000000 -1.0000000  0.0000000 )
                  (  0.0000000  0.0000000  1.0000000 )


   Cartesian axes

     site n.     atom                  positions (alat units)
         1           Cs  tau(   1) = (   0.1074760   0.1486629   0.9456064  )
         2           Cs  tau(   2) = (   0.6074760   0.6337411   0.9456064  )
         3           Cs  tau(   3) = (   0.1074760   0.8214935   0.9456064  )
         4           Cs  tau(   4) = (   0.6074760   0.3364153   0.9456064  )
         5           Sn  tau(   5) = (   0.1427900   0.4850782   0.4919359  )
         6           Sn  tau(   6) = (   0.6427900   0.0000000   0.4919359  )
         7           Sn  tau(   7) = (   0.0676230   0.4850782   0.6547092  )
         8           Sn  tau(   8) = (   0.5676230   0.0000000   0.6547092  )
         9           I   tau(   9) = (   0.8671940   0.6771682   0.9616137  )
        10           I   tau(  10) = (   0.3671940   0.1920900   0.9616137  )
        11           I   tau(  11) = (   0.8671940   0.2929882   0.9616137  )
        12           I   tau(  12) = (   0.3671940   0.7780664   0.9616137  )
        13           I   tau(  13) = (   0.0139060   0.3585572   1.0162008  )
        14           I   tau(  14) = (   0.5139060   0.8436354   1.0162008  )
        15           I   tau(  15) = (   0.0139060   0.6115992   1.0162008  )
        16           I   tau(  16) = (   0.5139060   0.1265210   1.0162008  )
        17           I   tau(  17) = (   0.3737320   0.5938676   1.3197925  )
        18           I   tau(  18) = (   0.8737320   0.1087895   1.3197925  )
        19           I   tau(  19) = (   0.3737320   0.3762887   1.3197925  )
        20           I   tau(  20) = (   0.8737320   0.8613669   1.3197925  )

   Crystallographic axes

     site n.     atom                  positions (cryst. coord.)
         1           Cs  tau(   1) = (  0.1074760  0.1532360  0.6613880  )
         2           Cs  tau(   2) = (  0.6074760  0.6532360  0.6613880  )
         3           Cs  tau(   3) = (  0.1074760  0.8467640  0.6613880  )
         4           Cs  tau(   4) = (  0.6074760  0.3467640  0.6613880  )
         5           Sn  tau(   5) = (  0.1427900  0.5000000  0.3440760  )
         6           Sn  tau(   6) = (  0.6427900  0.0000000  0.3440760  )
         7           Sn  tau(   7) = (  0.0676230  0.5000000  0.4579250  )
         8           Sn  tau(   8) = (  0.5676230  0.0000000  0.4579250  )
         9           I   tau(   9) = (  0.8671940  0.6979990  0.6725840  )
        10           I   tau(  10) = (  0.3671940  0.1979990  0.6725840  )
        11           I   tau(  11) = (  0.8671940  0.3020010  0.6725840  )
        12           I   tau(  12) = (  0.3671940  0.8020010  0.6725840  )
        13           I   tau(  13) = (  0.0139060  0.3695870  0.7107640  )
        14           I   tau(  14) = (  0.5139060  0.8695870  0.7107640  )
        15           I   tau(  15) = (  0.0139060  0.6304130  0.7107640  )
        16           I   tau(  16) = (  0.5139060  0.1304130  0.7107640  )
        17           I   tau(  17) = (  0.3737320  0.6121360  0.9231060  )
        18           I   tau(  18) = (  0.8737320  0.1121360  0.9231060  )
        19           I   tau(  19) = (  0.3737320  0.3878640  0.9231060  )
        20           I   tau(  20) = (  0.8737320  0.8878640  0.9231060  )

     number of k points=     8
                       cart. coord. in units 2pi/alat
        k(    1) = (   0.0000000   0.0000000   0.0000000), wk =   0.0555556
        k(    2) = (   0.0000000   0.0000000  -0.3497163), wk =   0.0555556
        k(    3) = (   0.0000000   0.3435872   0.0000000), wk =   0.1111111
        k(    4) = (   0.0000000   0.3435872  -0.3497163), wk =   0.1111111
        k(    5) = (   0.3333333   0.0000000   0.0000000), wk =   0.1111111
        k(    6) = (   0.3333333   0.0000000  -0.3497163), wk =   0.1111111
        k(    7) = (   0.3333333   0.3435872   0.0000000), wk =   0.2222222
        k(    8) = (   0.3333333   0.3435872  -0.3497163), wk =   0.2222222

                       cryst. coord.
        k(    1) = (   0.0000000   0.0000000   0.0000000), wk =   0.0555556
        k(    2) = (   0.0000000   0.0000000  -0.5000000), wk =   0.0555556
        k(    3) = (   0.0000000   0.3333333   0.0000000), wk =   0.1111111
        k(    4) = (   0.0000000   0.3333333  -0.5000000), wk =   0.1111111
        k(    5) = (   0.3333333   0.0000000   0.0000000), wk =   0.1111111
        k(    6) = (   0.3333333   0.0000000  -0.5000000), wk =   0.1111111
        k(    7) = (   0.3333333   0.3333333   0.0000000), wk =   0.2222222
        k(    8) = (   0.3333333   0.3333333  -0.5000000), wk =   0.2222222

     Dense  grid:   630691 G-vectors     FFT dimensions: (  96,  96, 144)

     Dynamical RAM for                 wfc:      13.23 MB

     Dynamical RAM for     wfc (w. buffer):     119.06 MB

     Dynamical RAM for           str. fact:       0.90 MB

     Dynamical RAM for           local pot:       0.00 MB

     Dynamical RAM for          nlocal pot:      20.90 MB

     Dynamical RAM for                qrad:     183.55 MB

     Dynamical RAM for          rho,v,vnew:       7.83 MB

     Dynamical RAM for               rhoin:       2.61 MB

     Dynamical RAM for            rho*nmix:      19.25 MB

     Dynamical RAM for           G-vectors:       1.28 MB

     Dynamical RAM for          h,s,v(r/c):       1.42 MB

     Dynamical RAM for          <psi|beta>:       2.99 MB

     Dynamical RAM for                 psi:      52.92 MB

     Dynamical RAM for                hpsi:      52.92 MB

     Dynamical RAM for                spsi:      52.92 MB

     Dynamical RAM for      wfcinit/wfcrot:      24.44 MB

     Dynamical RAM for           addusdens:     618.01 MB

     Dynamical RAM for          addusforce:     632.92 MB

     Dynamical RAM for         addusstress:     623.42 MB

     Estimated static dynamical RAM per process >     359.39 MB

     Estimated max dynamical RAM per process >     992.31 MB

     Estimated total dynamical RAM >      31.01 GB

     Initial potential from superposition of free atoms

     starting charge  175.83607, renormalised to  176.00000
     Starting wfcs are  208 randomized atomic wfcs

     total cpu time spent up to now is       20.9 secs

     Self-consistent Calculation

     iteration #  1     ecut=    80.00 Ry     beta= 0.60
     Davidson diagonalization with overlap
     ethr =  1.00E-02,  avg # of iterations =  7.2

     negative rho (up, down):  1.309E+00 0.000E+00

     total cpu time spent up to now is       67.2 secs

     total energy              =   -1545.89759721 Ry
     Harris-Foulkes estimate   =   -1548.73313362 Ry
     estimated scf accuracy    <       5.63891350 Ry

     iteration #  2     ecut=    80.00 Ry     beta= 0.60
     Davidson diagonalization with overlap
     ethr =  3.20E-03,  avg # of iterations = 10.0

     total cpu time spent up to now is      118.3 secs

     total energy              =   -1381.67631813 Ry
     Harris-Foulkes estimate   =   -4617.22071097 Ry
     estimated scf accuracy    < 8049066.06923855 Ry

     iteration #  3     ecut=    80.00 Ry     beta= 0.60
     Davidson diagonalization with overlap
     ethr =  3.20E-03,  avg # of iterations = 18.0

     total cpu time spent up to now is      161.4 secs

     total energy              =   -1545.66216433 Ry
     Harris-Foulkes estimate   =   -1550.15438794 Ry
     estimated scf accuracy    <      21.07508364 Ry

     iteration #  4     ecut=    80.00 Ry     beta= 0.60
     Davidson diagonalization with overlap
     ethr =  3.20E-03,  avg # of iterations =  7.1

     total cpu time spent up to now is      198.9 secs

     total energy              =   -1548.37777972 Ry
     Harris-Foulkes estimate   =   -1548.61081296 Ry
     estimated scf accuracy    <       0.88917682 Ry

     iteration #  5     ecut=    80.00 Ry     beta= 0.60
     Davidson diagonalization with overlap
     ethr =  5.05E-04,  avg # of iterations =  7.1

     total cpu time spent up to now is      242.5 secs

     total energy              =   -1411.96150450 Ry
     Harris-Foulkes estimate   =   -1658.01321708 Ry
     estimated scf accuracy    < 6906549.10395344 Ry

     iteration #  6     ecut=    80.00 Ry     beta= 0.60
     Davidson diagonalization with overlap
     c_bands:  2 eigenvalues not converged
     c_bands:  1 eigenvalues not converged
     c_bands:  4 eigenvalues not converged
     c_bands:  5 eigenvalues not converged
     c_bands:  1 eigenvalues not converged
     c_bands:  2 eigenvalues not converged
     c_bands:  2 eigenvalues not converged
     c_bands:  3 eigenvalues not converged
     ethr =  5.05E-04,  avg # of iterations = 20.0

     total cpu time spent up to now is      289.2 secs

     total energy              =   -1548.47360609 Ry
     Harris-Foulkes estimate   =   -1548.51794505 Ry
     estimated scf accuracy    <       0.21631183 Ry

     iteration #  7     ecut=    80.00 Ry     beta= 0.60
     Davidson diagonalization with overlap
     ethr =  1.23E-04,  avg # of iterations =  8.8

     total cpu time spent up to now is      342.9 secs

     total energy              =   -1508.07545079 Ry
     Harris-Foulkes estimate   =   -1552.63432973 Ry
     estimated scf accuracy    < 2026439.48344633 Ry

     iteration #  8     ecut=    80.00 Ry     beta= 0.60
     Davidson diagonalization with overlap
     ethr =  1.23E-04,  avg # of iterations = 11.5

     total cpu time spent up to now is      388.3 secs

     total energy              =   -1548.48898618 Ry
     Harris-Foulkes estimate   =   -1548.51381750 Ry
     estimated scf accuracy    <       0.54025634 Ry

     iteration #  9     ecut=    80.00 Ry     beta= 0.60
     Davidson diagonalization with overlap
     ethr =  1.23E-04,  avg # of iterations =  3.2

     total cpu time spent up to now is      420.4 secs

     total energy              =   -1548.38782150 Ry
     Harris-Foulkes estimate   =   -1548.54636767 Ry
     estimated scf accuracy    <      25.52211797 Ry

     iteration # 10     ecut=    80.00 Ry     beta= 0.60
     Davidson diagonalization with overlap
     ethr =  1.23E-04,  avg # of iterations =  5.2

     total cpu time spent up to now is      457.1 secs

     total energy              =   -1548.49450927 Ry
     Harris-Foulkes estimate   =   -1548.50559942 Ry
     estimated scf accuracy    <       0.48400932 Ry

     iteration # 11     ecut=    80.00 Ry     beta= 0.60
     Davidson diagonalization with overlap
     ethr =  1.23E-04,  avg # of iterations =  2.0

     total cpu time spent up to now is      484.3 secs

     total energy              =   -1548.48086239 Ry
     Harris-Foulkes estimate   =   -1548.50355643 Ry
     estimated scf accuracy    <       0.19211836 Ry

     iteration # 12     ecut=    80.00 Ry     beta= 0.60
     Davidson diagonalization with overlap
     ethr =  1.09E-04,  avg # of iterations =  9.0

     total cpu time spent up to now is      536.1 secs

     total energy              =   -1431.70444966 Ry
     Harris-Foulkes estimate   =   -1668.53923091 Ry
     estimated scf accuracy    < 6796138.80355931 Ry

     iteration # 13     ecut=    80.00 Ry     beta= 0.60
     Davidson diagonalization with overlap
     c_bands:  1 eigenvalues not converged
     ethr =  1.09E-04,  avg # of iterations = 16.2

     total cpu time spent up to now is      583.0 secs

     total energy              =   -1548.49565142 Ry
     Harris-Foulkes estimate   =   -1548.50901259 Ry
     estimated scf accuracy    <       0.31156831 Ry

     iteration # 14     ecut=    80.00 Ry     beta= 0.60
     Davidson diagonalization with overlap
     ethr =  1.09E-04,  avg # of iterations =  4.0

     negative rho (up, down):  4.326E-03 0.000E+00

     total cpu time spent up to now is      616.5 secs

     total energy              =   -1548.32369460 Ry
     Harris-Foulkes estimate   =   -1548.53818438 Ry
     estimated scf accuracy    <      34.61865839 Ry

     iteration # 15     ecut=    80.00 Ry     beta= 0.60
     Davidson diagonalization with overlap
     ethr =  1.09E-04,  avg # of iterations = 17.0

     total cpu time spent up to now is      671.8 secs

     total energy              =   -1405.22003304 Ry
     Harris-Foulkes estimate   =   -1770.99235396 Ry
     estimated scf accuracy    < 6870682.24315186 Ry

     iteration # 16     ecut=    80.00 Ry     beta= 0.60
     Davidson diagonalization with overlap
     ethr =  1.09E-04,  avg # of iterations = 14.4

     total cpu time spent up to now is      716.8 secs

     total energy              =   -1548.49565239 Ry
     Harris-Foulkes estimate   =   -1548.50057276 Ry
     estimated scf accuracy    <       0.12344378 Ry

     iteration # 17     ecut=    80.00 Ry     beta= 0.60
     Davidson diagonalization with overlap
     ethr =  7.01E-05,  avg # of iterations =  7.5

     total cpu time spent up to now is      765.2 secs

     total energy              =   -1492.90464395 Ry
     Harris-Foulkes estimate   =   -1564.70311653 Ry
     estimated scf accuracy    < 2839024.77485552 Ry

     iteration # 18     ecut=    80.00 Ry     beta= 0.60
     Davidson diagonalization with overlap
     c_bands:  2 eigenvalues not converged
     c_bands:  4 eigenvalues not converged
     c_bands:  2 eigenvalues not converged
     c_bands:  2 eigenvalues not converged
     c_bands:  2 eigenvalues not converged
     c_bands:  2 eigenvalues not converged
     c_bands:  3 eigenvalues not converged
     c_bands:  4 eigenvalues not converged
     ethr =  7.01E-05,  avg # of iterations = 20.0

     total cpu time spent up to now is      810.7 secs

     total energy              =   -1548.49254454 Ry
     Harris-Foulkes estimate   =   -1548.49871164 Ry
     estimated scf accuracy    <       0.14052443 Ry

     iteration # 19     ecut=    80.00 Ry     beta= 0.60
     Davidson diagonalization with overlap
     ethr =  7.01E-05,  avg # of iterations =  7.5

     total cpu time spent up to now is      863.5 secs

     total energy              =   -1511.00034894 Ry
     Harris-Foulkes estimate   =   -1550.74523862 Ry
     estimated scf accuracy    < 1714092.47131818 Ry

     iteration # 20     ecut=    80.00 Ry     beta= 0.60
     Davidson diagonalization with overlap
     ethr =  7.01E-05,  avg # of iterations = 12.8

     total cpu time spent up to now is      906.8 secs

     total energy              =   -1548.49805283 Ry
     Harris-Foulkes estimate   =   -1548.50289143 Ry
     estimated scf accuracy    <       0.26271413 Ry

     iteration # 21     ecut=    80.00 Ry     beta= 0.60
     Davidson diagonalization with overlap
     ethr =  7.01E-05,  avg # of iterations =  1.5

     total cpu time spent up to now is      932.8 secs

     total energy              =   -1548.49882188 Ry
     Harris-Foulkes estimate   =   -1548.50025642 Ry
     estimated scf accuracy    <       0.14215808 Ry

     iteration # 22     ecut=    80.00 Ry     beta= 0.60
     Davidson diagonalization with overlap
     ethr =  7.01E-05,  avg # of iterations =  1.0

     total cpu time spent up to now is      958.6 secs

     total energy              =   -1548.49942475 Ry
     Harris-Foulkes estimate   =   -1548.49942236 Ry
     estimated scf accuracy    <       0.13969375 Ry

     iteration # 23     ecut=    80.00 Ry     beta= 0.60
     Davidson diagonalization with overlap
     ethr =  7.01E-05,  avg # of iterations =  1.0

     total cpu time spent up to now is      984.2 secs

     total energy              =   -1548.49738807 Ry
     Harris-Foulkes estimate   =   -1548.49969121 Ry
     estimated scf accuracy    <       0.14432808 Ry

     iteration # 24     ecut=    80.00 Ry     beta= 0.60
     Davidson diagonalization with overlap
     ethr =  7.01E-05,  avg # of iterations =  6.4

     negative rho (up, down):  4.063E-03 0.000E+00

     total cpu time spent up to now is     1016.0 secs

     total energy              =   -1548.44755514 Ry
     Harris-Foulkes estimate   =   -1548.50869789 Ry
     estimated scf accuracy    <       1.32856447 Ry

     iteration # 25     ecut=    80.00 Ry     beta= 0.60
     Davidson diagonalization with overlap
     ethr =  7.01E-05,  avg # of iterations =  9.0

     total cpu time spent up to now is     1061.7 secs

     total energy              =   -1388.42598860 Ry
     Harris-Foulkes estimate   =   -1887.81517277 Ry
     estimated scf accuracy    < 7730708.90658313 Ry

     iteration # 26     ecut=    80.00 Ry     beta= 0.60
     Davidson diagonalization with overlap
     ethr =  7.01E-05,  avg # of iterations = 15.1

     total cpu time spent up to now is     1109.6 secs

     total energy              =   -1548.49701426 Ry
     Harris-Foulkes estimate   =   -1548.50508809 Ry
     estimated scf accuracy    <       0.18352110 Ry

     iteration # 27     ecut=    80.00 Ry     beta= 0.60
     Davidson diagonalization with overlap
     ethr =  7.01E-05,  avg # of iterations =  8.0

     total cpu time spent up to now is     1160.1 secs

     total energy              =   -1499.75783412 Ry
     Harris-Foulkes estimate   =   -1555.68019401 Ry
     estimated scf accuracy    < 2377890.69877359 Ry

     iteration # 28     ecut=    80.00 Ry     beta= 0.60
     Davidson diagonalization with overlap
     ethr =  7.01E-05,  avg # of iterations = 16.4

     total cpu time spent up to now is     1203.7 secs

     total energy              =   -1548.49460777 Ry
     Harris-Foulkes estimate   =   -1548.50648804 Ry
     estimated scf accuracy    <       0.16644072 Ry

     iteration # 29     ecut=    80.00 Ry     beta= 0.60
     Davidson diagonalization with overlap
     ethr =  7.01E-05,  avg # of iterations =  7.4

     total cpu time spent up to now is     1247.1 secs

     total energy              =   -1492.20712208 Ry
     Harris-Foulkes estimate   =   -1577.37028390 Ry
     estimated scf accuracy    < 3160682.62507140 Ry

     iteration # 30     ecut=    80.00 Ry     beta= 0.60
     Davidson diagonalization with overlap
     c_bands:  3 eigenvalues not converged
     c_bands:  3 eigenvalues not converged
     c_bands:  2 eigenvalues not converged
     c_bands:  4 eigenvalues not converged
     ethr =  7.01E-05,  avg # of iterations = 19.1

     total cpu time spent up to now is     1292.7 secs

     total energy              =   -1548.49866595 Ry
     Harris-Foulkes estimate   =   -1548.49978477 Ry
     estimated scf accuracy    <       0.14379858 Ry

     iteration # 31     ecut=    80.00 Ry     beta= 0.60
     Davidson diagonalization with overlap
     ethr =  7.01E-05,  avg # of iterations =  2.1

     total cpu time spent up to now is     1319.1 secs

     total energy              =   -1548.49929781 Ry
     Harris-Foulkes estimate   =   -1548.49947673 Ry
     estimated scf accuracy    <       0.12504924 Ry

     iteration # 32     ecut=    80.00 Ry     beta= 0.60
     Davidson diagonalization with overlap
     ethr =  7.01E-05,  avg # of iterations =  2.1

     total cpu time spent up to now is     1346.1 secs

     total energy              =   -1548.49291221 Ry
     Harris-Foulkes estimate   =   -1548.50372701 Ry
     estimated scf accuracy    <       0.98245158 Ry

     iteration # 33     ecut=    80.00 Ry     beta= 0.60
     Davidson diagonalization with overlap
     ethr =  7.01E-05,  avg # of iterations =  5.6

     total cpu time spent up to now is     1376.0 secs

     total energy              =   -1548.49847144 Ry
     Harris-Foulkes estimate   =   -1548.50011199 Ry
     estimated scf accuracy    <       0.17498308 Ry

     iteration # 34     ecut=    80.00 Ry     beta= 0.60
     Davidson diagonalization with overlap
     ethr =  7.01E-05,  avg # of iterations =  1.9

     negative rho (up, down):  9.492E-03 0.000E+00

     total cpu time spent up to now is     1402.3 secs

     total energy              =   -1548.44841220 Ry
     Harris-Foulkes estimate   =   -1548.50126868 Ry
     estimated scf accuracy    <       0.29643009 Ry

     iteration # 35     ecut=    80.00 Ry     beta= 0.60
     Davidson diagonalization with overlap
     ethr =  7.01E-05,  avg # of iterations =  9.4

     total cpu time spent up to now is     1448.0 secs

     total energy              =   -1386.17193286 Ry
     Harris-Foulkes estimate   =   -1945.07861989 Ry
     estimated scf accuracy    < 7792599.42119411 Ry

     iteration # 36     ecut=    80.00 Ry     beta= 0.60
     Davidson diagonalization with overlap
     ethr =  7.01E-05,  avg # of iterations = 16.4

     total cpu time spent up to now is     1497.5 secs

     total energy              =   -1548.49667235 Ry
     Harris-Foulkes estimate   =   -1548.50540087 Ry
     estimated scf accuracy    <       0.29244485 Ry

     iteration # 37     ecut=    80.00 Ry     beta= 0.60
     Davidson diagonalization with overlap
     ethr =  7.01E-05,  avg # of iterations =  4.2

     total cpu time spent up to now is     1528.1 secs

     total energy              =   -1548.47908739 Ry
     Harris-Foulkes estimate   =   -1548.51026372 Ry
     estimated scf accuracy    <       2.95786914 Ry

     iteration # 38     ecut=    80.00 Ry     beta= 0.60
     Davidson diagonalization with overlap
     ethr =  7.01E-05,  avg # of iterations =  3.0

     total cpu time spent up to now is     1558.9 secs

     total energy              =   -1548.49894278 Ry
     Harris-Foulkes estimate   =   -1548.49990218 Ry
     estimated scf accuracy    <       0.14457312 Ry

     iteration # 39     ecut=    80.00 Ry     beta= 0.60
     Davidson diagonalization with overlap
     ethr =  7.01E-05,  avg # of iterations =  4.8

     total cpu time spent up to now is     1594.6 secs

     total energy              =   -1548.21924945 Ry
     Harris-Foulkes estimate   =   -1548.55350606 Ry
     estimated scf accuracy    <     185.90193010 Ry

     iteration # 40     ecut=    80.00 Ry     beta= 0.60
     Davidson diagonalization with overlap
     ethr =  7.01E-05,  avg # of iterations =  4.2

     total cpu time spent up to now is     1631.5 secs

     total energy              =   -1548.49946131 Ry
     Harris-Foulkes estimate   =   -1548.50043632 Ry
     estimated scf accuracy    <       0.13341631 Ry

     iteration # 41     ecut=    80.00 Ry     beta= 0.60
     Davidson diagonalization with overlap
     ethr =  7.01E-05,  avg # of iterations =  2.0

     total cpu time spent up to now is     1657.9 secs

     total energy              =   -1548.49985525 Ry
     Harris-Foulkes estimate   =   -1548.50056372 Ry
     estimated scf accuracy    <       0.12567642 Ry

     iteration # 42     ecut=    80.00 Ry     beta= 0.60
     Davidson diagonalization with overlap
     ethr =  7.01E-05,  avg # of iterations =  1.0

     total cpu time spent up to now is     1683.6 secs

     total energy              =   -1548.50002694 Ry
     Harris-Foulkes estimate   =   -1548.50020739 Ry
     estimated scf accuracy    <       0.11744096 Ry

     iteration # 43     ecut=    80.00 Ry     beta= 0.60
     Davidson diagonalization with overlap
     ethr =  6.67E-05,  avg # of iterations =  1.0

     total cpu time spent up to now is     1709.3 secs

     total energy              =   -1548.50017721 Ry
     Harris-Foulkes estimate   =   -1548.50026843 Ry
     estimated scf accuracy    <       0.11923861 Ry

     iteration # 44     ecut=    80.00 Ry     beta= 0.60
     Davidson diagonalization with overlap
     ethr =  6.67E-05,  avg # of iterations =  1.0

     negative rho (up, down):  7.232E-03 0.000E+00

     total cpu time spent up to now is     1735.0 secs

     total energy              =   -1548.45720373 Ry
     Harris-Foulkes estimate   =   -1548.50037714 Ry
     estimated scf accuracy    <       0.12175209 Ry

     iteration # 45     ecut=    80.00 Ry     beta= 0.60
     Davidson diagonalization with overlap
     ethr =  6.67E-05,  avg # of iterations = 10.0

     total cpu time spent up to now is     1781.4 secs

     total energy              =   -1388.09449969 Ry
     Harris-Foulkes estimate   =   -1892.12882746 Ry
     estimated scf accuracy    < 7714344.09813405 Ry

     iteration # 46     ecut=    80.00 Ry     beta= 0.60
     Davidson diagonalization with overlap
     ethr =  6.67E-05,  avg # of iterations = 13.4

     total cpu time spent up to now is     1828.2 secs

     total energy              =   -1548.49939961 Ry
     Harris-Foulkes estimate   =   -1548.50101750 Ry
     estimated scf accuracy    <       0.17479720 Ry

     iteration # 47     ecut=    80.00 Ry     beta= 0.60
     Davidson diagonalization with overlap
     ethr =  6.67E-05,  avg # of iterations =  1.0

     total cpu time spent up to now is     1853.9 secs

     total energy              =   -1548.49903762 Ry
     Harris-Foulkes estimate   =   -1548.50043896 Ry
     estimated scf accuracy    <       0.12977766 Ry

     iteration # 48     ecut=    80.00 Ry     beta= 0.60
     Davidson diagonalization with overlap
     ethr =  6.67E-05,  avg # of iterations =  4.4

     total cpu time spent up to now is     1882.0 secs

     total energy              =   -1548.49913963 Ry
     Harris-Foulkes estimate   =   -1548.50065408 Ry
     estimated scf accuracy    <       0.12700953 Ry

     iteration # 49     ecut=    80.00 Ry     beta= 0.60
     Davidson diagonalization with overlap
     ethr =  6.67E-05,  avg # of iterations =  1.0

     total cpu time spent up to now is     1907.7 secs

     total energy              =   -1548.49937186 Ry
     Harris-Foulkes estimate   =   -1548.49994725 Ry
     estimated scf accuracy    <       0.14776071 Ry

     iteration # 50     ecut=    80.00 Ry     beta= 0.60
     Davidson diagonalization with overlap
     ethr =  6.67E-05,  avg # of iterations =  1.0

     total cpu time spent up to now is     1933.4 secs

     total energy              =   -1548.49983098 Ry
     Harris-Foulkes estimate   =   -1548.49978511 Ry
     estimated scf accuracy    <       0.11704096 Ry

     iteration # 51     ecut=    80.00 Ry     beta= 0.60
     Davidson diagonalization with overlap
     ethr =  6.65E-05,  avg # of iterations =  1.0

     total cpu time spent up to now is     1959.1 secs

     total energy              =   -1548.49982643 Ry
     Harris-Foulkes estimate   =   -1548.49992056 Ry
     estimated scf accuracy    <       0.11641320 Ry

     iteration # 52     ecut=    80.00 Ry     beta= 0.60
     Davidson diagonalization with overlap
     ethr =  6.61E-05,  avg # of iterations =  1.0

     total cpu time spent up to now is     1984.8 secs

     total energy              =   -1548.49975098 Ry
     Harris-Foulkes estimate   =   -1548.49993626 Ry
     estimated scf accuracy    <       0.11787320 Ry

     iteration # 53     ecut=    80.00 Ry     beta= 0.60
     Davidson diagonalization with overlap
     ethr =  6.61E-05,  avg # of iterations =  1.9

     total cpu time spent up to now is     2011.1 secs

     total energy              =   -1548.49737677 Ry
     Harris-Foulkes estimate   =   -1548.50220855 Ry
     estimated scf accuracy    <       0.35119790 Ry

     iteration # 54     ecut=    80.00 Ry     beta= 0.60
     Davidson diagonalization with overlap
     ethr =  6.61E-05,  avg # of iterations =  1.5

     negative rho (up, down):  1.666E-03 0.000E+00

     total cpu time spent up to now is     2037.2 secs

     total energy              =   -1548.45876665 Ry
     Harris-Foulkes estimate   =   -1548.49939899 Ry
     estimated scf accuracy    <       0.14343628 Ry

     iteration # 55     ecut=    80.00 Ry     beta= 0.60
     Davidson diagonalization with overlap
     ethr =  6.61E-05,  avg # of iterations =  9.2

     total cpu time spent up to now is     2081.9 secs

     total energy              =   -1385.59462795 Ry
     Harris-Foulkes estimate   =   -1860.38288761 Ry
     estimated scf accuracy    < 7684943.53326640 Ry

     iteration # 56     ecut=    80.00 Ry     beta= 0.60
     Davidson diagonalization with overlap
     ethr =  6.61E-05,  avg # of iterations = 15.6

     total cpu time spent up to now is     2130.8 secs

     total energy              =   -1548.49980055 Ry
     Harris-Foulkes estimate   =   -1548.50230340 Ry
     estimated scf accuracy    <       0.25870650 Ry

     iteration # 57     ecut=    80.00 Ry     beta= 0.60
     Davidson diagonalization with overlap
     ethr =  6.61E-05,  avg # of iterations =  1.5

     total cpu time spent up to now is     2156.8 secs

     total energy              =   -1548.49939897 Ry
     Harris-Foulkes estimate   =   -1548.50182563 Ry
     estimated scf accuracy    <       0.14760427 Ry

     iteration # 58     ecut=    80.00 Ry     beta= 0.60
     Davidson diagonalization with overlap
     ethr =  6.61E-05,  avg # of iterations =  1.0

     total cpu time spent up to now is     2182.6 secs

     total energy              =   -1548.49996062 Ry
     Harris-Foulkes estimate   =   -1548.49998568 Ry
     estimated scf accuracy    <       0.12469793 Ry

     iteration # 59     ecut=    80.00 Ry     beta= 0.60
     Davidson diagonalization with overlap
     ethr =  6.61E-05,  avg # of iterations =  1.0

     total cpu time spent up to now is     2208.2 secs

     total energy              =   -1548.49915765 Ry
     Harris-Foulkes estimate   =   -1548.50041175 Ry
     estimated scf accuracy    <       0.14107654 Ry

     iteration # 60     ecut=    80.00 Ry     beta= 0.60
     Davidson diagonalization with overlap
     ethr =  6.61E-05,  avg # of iterations =  1.0

     total cpu time spent up to now is     2233.9 secs

     total energy              =   -1548.50013227 Ry
     Harris-Foulkes estimate   =   -1548.49949718 Ry
     estimated scf accuracy    <       0.11503985 Ry

     iteration # 61     ecut=    80.00 Ry     beta= 0.60
     Davidson diagonalization with overlap
     ethr =  6.54E-05,  avg # of iterations =  1.0

     total cpu time spent up to now is     2259.6 secs

     total energy              =   -1548.49723997 Ry
     Harris-Foulkes estimate   =   -1548.50022941 Ry
     estimated scf accuracy    <       0.11921237 Ry

     iteration # 62     ecut=    80.00 Ry     beta= 0.60
     Davidson diagonalization with overlap
     c_bands:  2 eigenvalues not converged
     c_bands:  2 eigenvalues not converged
     ethr =  6.54E-05,  avg # of iterations = 12.8

     total cpu time spent up to now is     2294.8 secs

     total energy              =   -1548.49844791 Ry
     Harris-Foulkes estimate   =   -1548.50846904 Ry
     estimated scf accuracy    <       0.18165027 Ry

     iteration # 63     ecut=    80.00 Ry     beta= 0.60
     Davidson diagonalization with overlap
     ethr =  6.54E-05,  avg # of iterations =  5.9

     total cpu time spent up to now is     2324.1 secs

     total energy              =   -1548.50147073 Ry
     Harris-Foulkes estimate   =   -1548.50071195 Ry
     estimated scf accuracy    <       0.13035422 Ry

     iteration # 64     ecut=    80.00 Ry     beta= 0.60
     Davidson diagonalization with overlap
     ethr =  6.54E-05,  avg # of iterations =  1.0

     negative rho (up, down):  4.087E-05 0.000E+00

     total cpu time spent up to now is     2349.8 secs

     total energy              =   -1548.46599737 Ry
     Harris-Foulkes estimate   =   -1548.50173620 Ry
     estimated scf accuracy    <       0.13223764 Ry

     iteration # 65     ecut=    80.00 Ry     beta= 0.60
     Davidson diagonalization with overlap
     ethr =  6.54E-05,  avg # of iterations =  9.0

     total cpu time spent up to now is     2395.0 secs

     total energy              =   -1392.64291751 Ry
     Harris-Foulkes estimate   =   -1801.39513868 Ry
     estimated scf accuracy    < 7596267.86228010 Ry

     iteration # 66     ecut=    80.00 Ry     beta= 0.60
     Davidson diagonalization with overlap
     ethr =  6.54E-05,  avg # of iterations = 10.8

     total cpu time spent up to now is     2447.4 secs

     total energy              =   -1546.11620659 Ry
     Harris-Foulkes estimate   =   -1548.66352282 Ry
     estimated scf accuracy    <    6947.79921014 Ry

     iteration # 67     ecut=    80.00 Ry     beta= 0.60
     Davidson diagonalization with overlap
     ethr =  6.54E-05,  avg # of iterations =  6.0

     total cpu time spent up to now is     2491.2 secs

     total energy              =   -1548.50298650 Ry
     Harris-Foulkes estimate   =   -1548.50329449 Ry
     estimated scf accuracy    <       0.13610716 Ry

     iteration # 68     ecut=    80.00 Ry     beta= 0.60
     Davidson diagonalization with overlap
     ethr =  6.54E-05,  avg # of iterations =  2.0

     total cpu time spent up to now is     2518.1 secs

     total energy              =   -1548.49901217 Ry
     Harris-Foulkes estimate   =   -1548.50610273 Ry
     estimated scf accuracy    <       0.40269014 Ry

     iteration # 69     ecut=    80.00 Ry     beta= 0.60
     Davidson diagonalization with overlap
     ethr =  6.54E-05,  avg # of iterations =  2.0

     total cpu time spent up to now is     2545.0 secs

     total energy              =   -1548.49944426 Ry
     Harris-Foulkes estimate   =   -1548.50261028 Ry
     estimated scf accuracy    <       0.21732028 Ry

     iteration # 70     ecut=    80.00 Ry     beta= 0.60
     Davidson diagonalization with overlap
     ethr =  6.54E-05,  avg # of iterations =  1.0

     total cpu time spent up to now is     2570.7 secs

     total energy              =   -1548.48891393 Ry
     Harris-Foulkes estimate   =   -1548.50033116 Ry
     estimated scf accuracy    <       0.12981491 Ry

     iteration # 71     ecut=    80.00 Ry     beta= 0.60
     Davidson diagonalization with overlap
     ethr =  6.54E-05,  avg # of iterations =  9.6

     total cpu time spent up to now is     2605.4 secs

     total energy              =   -1548.48617890 Ry
     Harris-Foulkes estimate   =   -1548.51991732 Ry
     estimated scf accuracy    <       0.38192250 Ry

     iteration # 72     ecut=    80.00 Ry     beta= 0.60
     Davidson diagonalization with overlap
     ethr =  6.54E-05,  avg # of iterations =  8.8

     total cpu time spent up to now is     2641.1 secs

     total energy              =   -1548.48595880 Ry
     Harris-Foulkes estimate   =   -1548.51795447 Ry
     estimated scf accuracy    <       0.88782300 Ry

     iteration # 73     ecut=    80.00 Ry     beta= 0.60
     Davidson diagonalization with overlap
     c_bands:  2 eigenvalues not converged
     ethr =  6.54E-05,  avg # of iterations = 10.5

     total cpu time spent up to now is     2677.6 secs

     total energy              =   -1548.49826357 Ry
     Harris-Foulkes estimate   =   -1548.50298038 Ry
     estimated scf accuracy    <       0.32190389 Ry

     iteration # 74     ecut=    80.00 Ry     beta= 0.60
     Davidson diagonalization with overlap
     ethr =  6.54E-05,  avg # of iterations =  2.0

     negative rho (up, down):  6.683E-03 0.000E+00

     total cpu time spent up to now is     2704.2 secs

     total energy              =   -1548.45171977 Ry
     Harris-Foulkes estimate   =   -1548.50169671 Ry
     estimated scf accuracy    <       0.17690621 Ry

     iteration # 75     ecut=    80.00 Ry     beta= 0.60
     Davidson diagonalization with overlap
     ethr =  6.54E-05,  avg # of iterations = 10.0

     total cpu time spent up to now is     2750.0 secs

     total energy              =   -1384.73410683 Ry
     Harris-Foulkes estimate   =   -1902.28862445 Ry
     estimated scf accuracy    < 7733862.27503470 Ry

     iteration # 76     ecut=    80.00 Ry     beta= 0.60
     Davidson diagonalization with overlap
     ethr =  6.54E-05,  avg # of iterations = 15.8

     total cpu time spent up to now is     2797.7 secs

     total energy              =   -1548.50041952 Ry
     Harris-Foulkes estimate   =   -1548.50097059 Ry
     estimated scf accuracy    <       0.13373632 Ry

     iteration # 77     ecut=    80.00 Ry     beta= 0.60
     Davidson diagonalization with overlap
     ethr =  6.54E-05,  avg # of iterations =  1.0

     total cpu time spent up to now is     2823.4 secs

     total energy              =   -1548.50049170 Ry
     Harris-Foulkes estimate   =   -1548.50072002 Ry
     estimated scf accuracy    <       0.12137197 Ry

     iteration # 78     ecut=    80.00 Ry     beta= 0.60
     Davidson diagonalization with overlap
     ethr =  6.54E-05,  avg # of iterations =  1.0

     total cpu time spent up to now is     2849.2 secs

     total energy              =   -1548.50075829 Ry
     Harris-Foulkes estimate   =   -1548.50060092 Ry
     estimated scf accuracy    <       0.12590291 Ry

     iteration # 79     ecut=    80.00 Ry     beta= 0.60
     Davidson diagonalization with overlap
     ethr =  6.54E-05,  avg # of iterations =  1.0

     total cpu time spent up to now is     2874.9 secs

     total energy              =   -1548.49861906 Ry
     Harris-Foulkes estimate   =   -1548.50156977 Ry
     estimated scf accuracy    <       0.14766687 Ry

     iteration # 80     ecut=    80.00 Ry     beta= 0.60
     Davidson diagonalization with overlap
     ethr =  6.54E-05,  avg # of iterations =  3.8

     total cpu time spent up to now is     2902.6 secs

     total energy              =   -1548.49799487 Ry
     Harris-Foulkes estimate   =   -1548.50139067 Ry
     estimated scf accuracy    <       0.16989823 Ry

     iteration # 81     ecut=    80.00 Ry     beta= 0.60
     Davidson diagonalization with overlap
     ethr =  6.54E-05,  avg # of iterations =  7.5

     total cpu time spent up to now is     2933.4 secs

     total energy              =   -1548.49922571 Ry
     Harris-Foulkes estimate   =   -1548.50234950 Ry
     estimated scf accuracy    <       0.11870177 Ry

     iteration # 82     ecut=    80.00 Ry     beta= 0.60
     Davidson diagonalization with overlap
     ethr =  6.54E-05,  avg # of iterations =  1.2

     total cpu time spent up to now is     2959.3 secs

     total energy              =   -1548.49883526 Ry
     Harris-Foulkes estimate   =   -1548.50004914 Ry
     estimated scf accuracy    <       0.12625332 Ry

     iteration # 83     ecut=    80.00 Ry     beta= 0.60
     Davidson diagonalization with overlap
     ethr =  6.54E-05,  avg # of iterations =  1.2

     total cpu time spent up to now is     2985.2 secs

     total energy              =   -1548.49849605 Ry
     Harris-Foulkes estimate   =   -1548.50001480 Ry
     estimated scf accuracy    <       0.17465550 Ry

     iteration # 84     ecut=    80.00 Ry     beta= 0.60
     Davidson diagonalization with overlap
     ethr =  6.54E-05,  avg # of iterations =  1.0

     negative rho (up, down):  3.633E-03 0.000E+00

     total cpu time spent up to now is     3011.0 secs

     total energy              =   -1548.45796124 Ry
     Harris-Foulkes estimate   =   -1548.49933611 Ry
     estimated scf accuracy    <       0.11688934 Ry

     iteration # 85     ecut=    80.00 Ry     beta= 0.60
     Davidson diagonalization with overlap
     ethr =  6.54E-05,  avg # of iterations =  9.1

     total cpu time spent up to now is     3055.1 secs

     total energy              =   -1383.80737862 Ry
     Harris-Foulkes estimate   =   -1903.65204716 Ry
     estimated scf accuracy    < 7745780.14783127 Ry

     iteration # 86     ecut=    80.00 Ry     beta= 0.60
     Davidson diagonalization with overlap
     c_bands:  1 eigenvalues not converged
     ethr =  6.54E-05,  avg # of iterations = 18.0

     total cpu time spent up to now is     3105.8 secs

     total energy              =   -1548.49893670 Ry
     Harris-Foulkes estimate   =   -1548.50216377 Ry
     estimated scf accuracy    <       0.27069140 Ry

     iteration # 87     ecut=    80.00 Ry     beta= 0.60
     Davidson diagonalization with overlap
     ethr =  6.54E-05,  avg # of iterations =  1.2

     total cpu time spent up to now is     3131.7 secs

     total energy              =   -1548.50008714 Ry
     Harris-Foulkes estimate   =   -1548.50042638 Ry
     estimated scf accuracy    <       0.12371437 Ry

     iteration # 88     ecut=    80.00 Ry     beta= 0.60
     Davidson diagonalization with overlap
     ethr =  6.54E-05,  avg # of iterations =  2.0

     total cpu time spent up to now is     3159.0 secs

     total energy              =   -1548.49472381 Ry
     Harris-Foulkes estimate   =   -1548.50572739 Ry
     estimated scf accuracy    <       0.85899133 Ry

     iteration # 89     ecut=    80.00 Ry     beta= 0.60
     Davidson diagonalization with overlap
     ethr =  6.54E-05,  avg # of iterations =  2.6

     total cpu time spent up to now is     3188.5 secs

     total energy              =   -1548.49320484 Ry
     Harris-Foulkes estimate   =   -1548.50572572 Ry
     estimated scf accuracy    <       0.74466019 Ry

     iteration # 90     ecut=    80.00 Ry     beta= 0.60
     Davidson diagonalization with overlap
     ethr =  6.54E-05,  avg # of iterations =  2.6

     total cpu time spent up to now is     3216.5 secs

     total energy              =   -1548.49899914 Ry
     Harris-Foulkes estimate   =   -1548.49950396 Ry
     estimated scf accuracy    <       0.12282102 Ry

     iteration # 91     ecut=    80.00 Ry     beta= 0.60
     Davidson diagonalization with overlap
     ethr =  6.54E-05,  avg # of iterations =  1.0

     total cpu time spent up to now is     3242.2 secs

     total energy              =   -1548.49956568 Ry
     Harris-Foulkes estimate   =   -1548.49965066 Ry
     estimated scf accuracy    <       0.10953538 Ry

     iteration # 92     ecut=    80.00 Ry     beta= 0.60
     Davidson diagonalization with overlap
     ethr =  6.22E-05,  avg # of iterations =  1.0

     total cpu time spent up to now is     3268.0 secs

     total energy              =   -1548.49989976 Ry
     Harris-Foulkes estimate   =   -1548.49991677 Ry
     estimated scf accuracy    <       0.10600617 Ry

     iteration # 93     ecut=    80.00 Ry     beta= 0.60
     Davidson diagonalization with overlap
     ethr =  6.02E-05,  avg # of iterations =  1.0

     total cpu time spent up to now is     3293.7 secs

     total energy              =   -1548.49985521 Ry
     Harris-Foulkes estimate   =   -1548.50010246 Ry
     estimated scf accuracy    <       0.10284147 Ry

     iteration # 94     ecut=    80.00 Ry     beta= 0.60
     Davidson diagonalization with overlap
     ethr =  5.84E-05,  avg # of iterations =  1.0

     negative rho (up, down):  2.821E-04 0.000E+00

     total cpu time spent up to now is     3319.4 secs

     total energy              =   -1548.47088111 Ry
     Harris-Foulkes estimate   =   -1548.50045203 Ry
     estimated scf accuracy    <       0.12656147 Ry

     iteration # 95     ecut=    80.00 Ry     beta= 0.60
     Davidson diagonalization with overlap
     ethr =  5.84E-05,  avg # of iterations =  9.0

     total cpu time spent up to now is     3365.3 secs

     total energy              =   -1390.20788827 Ry
     Harris-Foulkes estimate   =   -1776.84971760 Ry
     estimated scf accuracy    < 7515856.77101571 Ry

     iteration # 96     ecut=    80.00 Ry     beta= 0.60
     Davidson diagonalization with overlap
     ethr =  5.84E-05,  avg # of iterations = 15.2

     total cpu time spent up to now is     3413.6 secs

     total energy              =   -1548.49858749 Ry
     Harris-Foulkes estimate   =   -1548.50122922 Ry
     estimated scf accuracy    <       0.13330488 Ry

     iteration # 97     ecut=    80.00 Ry     beta= 0.60
     Davidson diagonalization with overlap
     ethr =  5.84E-05,  avg # of iterations =  1.8

     total cpu time spent up to now is     3439.9 secs

     total energy              =   -1548.49910763 Ry
     Harris-Foulkes estimate   =   -1548.49970919 Ry
     estimated scf accuracy    <       0.12591692 Ry

     iteration # 98     ecut=    80.00 Ry     beta= 0.60
     Davidson diagonalization with overlap
     ethr =  5.84E-05,  avg # of iterations =  1.0

     total cpu time spent up to now is     3465.7 secs

     total energy              =   -1548.49896892 Ry
     Harris-Foulkes estimate   =   -1548.49963552 Ry
     estimated scf accuracy    <       0.13985375 Ry

     iteration # 99     ecut=    80.00 Ry     beta= 0.60
     Davidson diagonalization with overlap
     ethr =  5.84E-05,  avg # of iterations =  3.6

     total cpu time spent up to now is     3493.5 secs

     total energy              =   -1548.49993103 Ry
     Harris-Foulkes estimate   =   -1548.50100246 Ry
     estimated scf accuracy    <       0.13476490 Ry

     iteration #100     ecut=    80.00 Ry     beta= 0.60
     Davidson diagonalization with overlap
     ethr =  5.84E-05,  avg # of iterations =  1.0

     total cpu time spent up to now is     3521.5 secs

     total energy              =   -1548.49964928 Ry
     Harris-Foulkes estimate   =   -1548.50030683 Ry
     estimated scf accuracy    <       0.11980666 Ry

     End of self-consistent calculation

     convergence NOT achieved after 100 iterations: stopping

     Writing output data file CsSnI3.save/
 
     init_run     :     13.04s CPU     13.99s WALL (       1 calls)
     electrons    :   3406.22s CPU   3501.31s WALL (       1 calls)

     Called by init_run:
     wfcinit      :      8.28s CPU      8.70s WALL (       1 calls)
     wfcinit:atom :      0.09s CPU      0.10s WALL (       8 calls)
     wfcinit:wfcr :      7.72s CPU      7.90s WALL (       8 calls)
     potinit      :      0.64s CPU      0.70s WALL (       1 calls)
     hinit0       :      1.77s CPU      1.94s WALL (       1 calls)

     Called by electrons:
     c_bands      :   2717.30s CPU   2762.54s WALL (     100 calls)
     sum_band     :    484.33s CPU    512.80s WALL (     100 calls)
     v_of_rho     :      3.10s CPU      3.39s WALL (     101 calls)
     v_h          :      0.23s CPU      0.24s WALL (     101 calls)
     v_xc         :      2.87s CPU      3.15s WALL (     101 calls)
     newd         :    199.02s CPU    218.91s WALL (     101 calls)
     mix_rho      :      3.90s CPU      4.39s WALL (     100 calls)

     Called by c_bands:
     init_us_2    :     14.04s CPU     14.17s WALL (    1608 calls)
     cegterg      :   2327.75s CPU   2371.46s WALL (     800 calls)

     Called by sum_band:
     sum_band:bec :     33.27s CPU     33.46s WALL (     800 calls)
     addusdens    :    133.10s CPU    157.13s WALL (     100 calls)

     Called by *egterg:
     h_psi        :   1292.12s CPU   1310.76s WALL (    5726 calls)
     s_psi        :    215.38s CPU    216.25s WALL (    5726 calls)
     g_psi        :      6.14s CPU      6.19s WALL (    4918 calls)
     cdiaghg      :    292.28s CPU    306.95s WALL (    5718 calls)
     cegterg:over :    188.26s CPU    189.34s WALL (    4918 calls)
     cegterg:upda :    215.57s CPU    220.44s WALL (    4918 calls)
     cegterg:last :     71.05s CPU     71.72s WALL (     841 calls)
     cdiaghg:chol :     24.42s CPU     26.34s WALL (    5718 calls)
     cdiaghg:inve :     18.05s CPU     18.85s WALL (    5718 calls)
     cdiaghg:para :     24.42s CPU     28.78s WALL (   11436 calls)

     Called by h_psi:
     h_psi:pot    :   1280.42s CPU   1297.97s WALL (    5726 calls)
     h_psi:calbec :    158.51s CPU    161.46s WALL (    5726 calls)
     vloc_psi     :    915.34s CPU    928.92s WALL (    5726 calls)
     add_vuspsi   :    206.55s CPU    207.54s WALL (    5726 calls)

     General routines
     calbec       :    215.67s CPU    219.79s WALL (    6526 calls)
     fft          :      2.26s CPU      2.33s WALL (    1419 calls)
     ffts         :      0.56s CPU      0.57s WALL (     400 calls)
     fftw         :    974.36s CPU    985.27s WALL ( 1750812 calls)
     davcio       :      0.00s CPU      1.01s WALL (      26 calls)
 
     Parallel routines
     fft_scatt_xy :    176.77s CPU    179.46s WALL ( 1752631 calls)
     fft_scatt_yz :    426.70s CPU    432.81s WALL ( 1752631 calls)
 
     PWSCF        : 57m 6.34s CPU    58m43.74s WALL

 
   This run was terminated on:  22:16:42  17Feb2021            

=------------------------------------------------------------------------------=
   JOB DONE.
=------------------------------------------------------------------------------=
