
     Program PWSCF v.6.4.1 starts on 24Jan2021 at 17:56:53 

     This program is part of the open-source Quantum ESPRESSO suite
     for quantum simulation of materials; please cite
         "P. Giannozzi et al., J. Phys.:Condens. Matter 21 395502 (2009);
         "P. Giannozzi et al., J. Phys.:Condens. Matter 29 465901 (2017);
          URL http://www.quantum-espresso.org", 
     in publications or presentations arising from this work. More details at
     http://www.quantum-espresso.org/quote

     Parallel version (MPI & OpenMP), running on      48 processor cores
     Number of MPI processes:                24
     Threads/MPI process:                     2

     MPI processes distributed on     1 nodes
     R & G space division:  proc/nbgrp/npool/nimage =      24
     Waiting for input...
     Reading input from standard input

     Current dimensions of program PWSCF are:
     Max number of different atomic species (ntypx) = 10
     Max number of k-points (npk) =  40000
     Max angular momentum in pseudopotentials (lmaxx) =  3
               file Cs.rel-pbesol-spn-kjpaw_psl.1.0.0.UPF: wavefunction(s)  5S 6S renormalized
               file I.rel-pbesol-n-kjpaw_psl.1.0.0.UPF: wavefunction(s)  5S renormalized

     Subspace diagonalization in iterative solution of the eigenvalue problem:
     one sub-group per band group will be used
     scalapack distributed-memory algorithm (size of sub-group:  3*  3 procs)

     Found symmetry operation: I + (  0.0000 -0.5000 -0.5000)
     This is a supercell, fractional translations are disabled
 
     Parallelization info
     --------------------
     sticks:   dense  smooth     PW     G-vecs:    dense   smooth      PW
     Min         123      82     23                 5059     2762     409
     Max         124      84     24                 5064     2763     414
     Sum        2965    1993    553               121481    66299    9843
 

     Title: 
     CsIsalt                                                                    


     bravais-lattice index     =            1
     lattice parameter (alat)  =       8.8160  a.u.
     unit-cell volume          =     685.1896 (a.u.)^3
     number of atoms/cell      =            8
     number of atomic types    =            2
     number of electrons       =        64.00
     number of Kohn-Sham states=           64
     kinetic-energy cutoff     =      80.0000  Ry
     charge density cutoff     =     480.0000  Ry
     convergence threshold     =      1.0E-06
     mixing beta               =       0.5000
     number of iterations used =            8  plain     mixing
     Exchange-correlation      = SLA PW PSX PSC ( 1  4 10  8 0 0)
     Non magnetic calculation with spin-orbit


     celldm(1)=   8.815973  celldm(2)=   0.000000  celldm(3)=   0.000000
     celldm(4)=   0.000000  celldm(5)=   0.000000  celldm(6)=   0.000000

     crystal axes: (cart. coord. in units of alat)
               a(1) = (   1.000000   0.000000   0.000000 )  
               a(2) = (   0.000000   1.000000   0.000000 )  
               a(3) = (   0.000000   0.000000   1.000000 )  

     reciprocal axes: (cart. coord. in units 2 pi/alat)
               b(1) = (  1.000000  0.000000  0.000000 )  
               b(2) = (  0.000000  1.000000  0.000000 )  
               b(3) = (  0.000000  0.000000  1.000000 )  


     PseudoPot. # 1 for Cs read from file:
     /marconi_scratch/userexternal/cmalosso/degironcoli/pseudo/Cs.rel-pbesol-spn-kjpaw_psl.1.0.0.UPF
     MD5 check sum: 2adfb289dd462649b099d7edbec69378
     Pseudo is Projector augmented-wave + core cor, Zval =  9.0
     Generated using "atomic" code by A. Dal Corso v.6.4.1
     Shape of augmentation charge: PSQ
     Using radial grid of 1251 points, 15 beta functions with: 
                l(1) =   0
                l(2) =   0
                l(3) =   0
                l(4) =   1
                l(5) =   1
                l(6) =   1
                l(7) =   1
                l(8) =   2
                l(9) =   2
               l(10) =   2
               l(11) =   2
               l(12) =   3
               l(13) =   3
               l(14) =   3
               l(15) =   3
     Q(r) pseudized with 0 coefficients 


     PseudoPot. # 2 for I  read from file:
     /marconi_scratch/userexternal/cmalosso/degironcoli/pseudo/I.rel-pbesol-n-kjpaw_psl.1.0.0.UPF
     MD5 check sum: 4478c427bd443f303eca1937a163b991
     Pseudo is Projector augmented-wave + core cor, Zval =  7.0
     Generated using "atomic" code by A. Dal Corso v.6.3
     Shape of augmentation charge: PSQ
     Using radial grid of 1247 points, 10 beta functions with: 
                l(1) =   0
                l(2) =   0
                l(3) =   1
                l(4) =   1
                l(5) =   1
                l(6) =   1
                l(7) =   2
                l(8) =   2
                l(9) =   2
               l(10) =   2
     Q(r) pseudized with 0 coefficients 


     atomic species   valence    mass     pseudopotential
        Cs             9.00   132.90000     Cs( 1.00)
        I              7.00   126.90000     I ( 1.00)

     48 Sym. Ops., with inversion, found


                                    s                        frac. trans.

      isym =  1     identity                                     

 cryst.   s( 1) = (     1          0          0      )
                  (     0          1          0      )
                  (     0          0          1      )

 cart.    s( 1) = (  1.0000000  0.0000000  0.0000000 )
                  (  0.0000000  1.0000000  0.0000000 )
                  (  0.0000000  0.0000000  1.0000000 )


      isym =  2     180 deg rotation - cart. axis [0,0,1]        

 cryst.   s( 2) = (    -1          0          0      )
                  (     0         -1          0      )
                  (     0          0          1      )

 cart.    s( 2) = ( -1.0000000  0.0000000  0.0000000 )
                  (  0.0000000 -1.0000000  0.0000000 )
                  (  0.0000000  0.0000000  1.0000000 )


      isym =  3     180 deg rotation - cart. axis [0,1,0]        

 cryst.   s( 3) = (    -1          0          0      )
                  (     0          1          0      )
                  (     0          0         -1      )

 cart.    s( 3) = ( -1.0000000  0.0000000  0.0000000 )
                  (  0.0000000  1.0000000  0.0000000 )
                  (  0.0000000  0.0000000 -1.0000000 )


      isym =  4     180 deg rotation - cart. axis [1,0,0]        

 cryst.   s( 4) = (     1          0          0      )
                  (     0         -1          0      )
                  (     0          0         -1      )

 cart.    s( 4) = (  1.0000000  0.0000000  0.0000000 )
                  (  0.0000000 -1.0000000  0.0000000 )
                  (  0.0000000  0.0000000 -1.0000000 )


      isym =  5     180 deg rotation - cart. axis [1,1,0]        

 cryst.   s( 5) = (     0          1          0      )
                  (     1          0          0      )
                  (     0          0         -1      )

 cart.    s( 5) = (  0.0000000  1.0000000  0.0000000 )
                  (  1.0000000  0.0000000  0.0000000 )
                  (  0.0000000  0.0000000 -1.0000000 )


      isym =  6     180 deg rotation - cart. axis [1,-1,0]       

 cryst.   s( 6) = (     0         -1          0      )
                  (    -1          0          0      )
                  (     0          0         -1      )

 cart.    s( 6) = (  0.0000000 -1.0000000  0.0000000 )
                  ( -1.0000000  0.0000000  0.0000000 )
                  (  0.0000000  0.0000000 -1.0000000 )


      isym =  7      90 deg rotation - cart. axis [0,0,-1]       

 cryst.   s( 7) = (     0         -1          0      )
                  (     1          0          0      )
                  (     0          0          1      )

 cart.    s( 7) = (  0.0000000  1.0000000  0.0000000 )
                  ( -1.0000000  0.0000000  0.0000000 )
                  (  0.0000000  0.0000000  1.0000000 )


      isym =  8      90 deg rotation - cart. axis [0,0,1]        

 cryst.   s( 8) = (     0          1          0      )
                  (    -1          0          0      )
                  (     0          0          1      )

 cart.    s( 8) = (  0.0000000 -1.0000000  0.0000000 )
                  (  1.0000000  0.0000000  0.0000000 )
                  (  0.0000000  0.0000000  1.0000000 )


      isym =  9     180 deg rotation - cart. axis [1,0,1]        

 cryst.   s( 9) = (     0          0          1      )
                  (     0         -1          0      )
                  (     1          0          0      )

 cart.    s( 9) = (  0.0000000  0.0000000  1.0000000 )
                  (  0.0000000 -1.0000000  0.0000000 )
                  (  1.0000000  0.0000000  0.0000000 )


      isym = 10     180 deg rotation - cart. axis [-1,0,1]       

 cryst.   s(10) = (     0          0         -1      )
                  (     0         -1          0      )
                  (    -1          0          0      )

 cart.    s(10) = (  0.0000000  0.0000000 -1.0000000 )
                  (  0.0000000 -1.0000000  0.0000000 )
                  ( -1.0000000  0.0000000  0.0000000 )


      isym = 11      90 deg rotation - cart. axis [0,1,0]        

 cryst.   s(11) = (     0          0         -1      )
                  (     0          1          0      )
                  (     1          0          0      )

 cart.    s(11) = (  0.0000000  0.0000000  1.0000000 )
                  (  0.0000000  1.0000000  0.0000000 )
                  ( -1.0000000  0.0000000  0.0000000 )


      isym = 12      90 deg rotation - cart. axis [0,-1,0]       

 cryst.   s(12) = (     0          0          1      )
                  (     0          1          0      )
                  (    -1          0          0      )

 cart.    s(12) = (  0.0000000  0.0000000 -1.0000000 )
                  (  0.0000000  1.0000000  0.0000000 )
                  (  1.0000000  0.0000000  0.0000000 )


      isym = 13     180 deg rotation - cart. axis [0,1,1]        

 cryst.   s(13) = (    -1          0          0      )
                  (     0          0          1      )
                  (     0          1          0      )

 cart.    s(13) = ( -1.0000000  0.0000000  0.0000000 )
                  (  0.0000000  0.0000000  1.0000000 )
                  (  0.0000000  1.0000000  0.0000000 )


      isym = 14     180 deg rotation - cart. axis [0,1,-1]       

 cryst.   s(14) = (    -1          0          0      )
                  (     0          0         -1      )
                  (     0         -1          0      )

 cart.    s(14) = ( -1.0000000  0.0000000  0.0000000 )
                  (  0.0000000  0.0000000 -1.0000000 )
                  (  0.0000000 -1.0000000  0.0000000 )


      isym = 15      90 deg rotation - cart. axis [-1,0,0]       

 cryst.   s(15) = (     1          0          0      )
                  (     0          0         -1      )
                  (     0          1          0      )

 cart.    s(15) = (  1.0000000  0.0000000  0.0000000 )
                  (  0.0000000  0.0000000  1.0000000 )
                  (  0.0000000 -1.0000000  0.0000000 )


      isym = 16      90 deg rotation - cart. axis [1,0,0]        

 cryst.   s(16) = (     1          0          0      )
                  (     0          0          1      )
                  (     0         -1          0      )

 cart.    s(16) = (  1.0000000  0.0000000  0.0000000 )
                  (  0.0000000  0.0000000 -1.0000000 )
                  (  0.0000000  1.0000000  0.0000000 )


      isym = 17     120 deg rotation - cart. axis [-1,-1,-1]     

 cryst.   s(17) = (     0          0          1      )
                  (     1          0          0      )
                  (     0          1          0      )

 cart.    s(17) = (  0.0000000  1.0000000  0.0000000 )
                  (  0.0000000  0.0000000  1.0000000 )
                  (  1.0000000  0.0000000  0.0000000 )


      isym = 18     120 deg rotation - cart. axis [-1,1,1]       

 cryst.   s(18) = (     0          0         -1      )
                  (    -1          0          0      )
                  (     0          1          0      )

 cart.    s(18) = (  0.0000000 -1.0000000  0.0000000 )
                  (  0.0000000  0.0000000  1.0000000 )
                  ( -1.0000000  0.0000000  0.0000000 )


      isym = 19     120 deg rotation - cart. axis [1,1,-1]       

 cryst.   s(19) = (     0          0         -1      )
                  (     1          0          0      )
                  (     0         -1          0      )

 cart.    s(19) = (  0.0000000  1.0000000  0.0000000 )
                  (  0.0000000  0.0000000 -1.0000000 )
                  ( -1.0000000  0.0000000  0.0000000 )


      isym = 20     120 deg rotation - cart. axis [1,-1,1]       

 cryst.   s(20) = (     0          0          1      )
                  (    -1          0          0      )
                  (     0         -1          0      )

 cart.    s(20) = (  0.0000000 -1.0000000  0.0000000 )
                  (  0.0000000  0.0000000 -1.0000000 )
                  (  1.0000000  0.0000000  0.0000000 )


      isym = 21     120 deg rotation - cart. axis [1,1,1]        

 cryst.   s(21) = (     0          1          0      )
                  (     0          0          1      )
                  (     1          0          0      )

 cart.    s(21) = (  0.0000000  0.0000000  1.0000000 )
                  (  1.0000000  0.0000000  0.0000000 )
                  (  0.0000000  1.0000000  0.0000000 )


      isym = 22     120 deg rotation - cart. axis [-1,1,-1]      

 cryst.   s(22) = (     0         -1          0      )
                  (     0          0         -1      )
                  (     1          0          0      )

 cart.    s(22) = (  0.0000000  0.0000000  1.0000000 )
                  ( -1.0000000  0.0000000  0.0000000 )
                  (  0.0000000 -1.0000000  0.0000000 )


      isym = 23     120 deg rotation - cart. axis [1,-1,-1]      

 cryst.   s(23) = (     0         -1          0      )
                  (     0          0          1      )
                  (    -1          0          0      )

 cart.    s(23) = (  0.0000000  0.0000000 -1.0000000 )
                  ( -1.0000000  0.0000000  0.0000000 )
                  (  0.0000000  1.0000000  0.0000000 )


      isym = 24     120 deg rotation - cart. axis [-1,-1,1]      

 cryst.   s(24) = (     0          1          0      )
                  (     0          0         -1      )
                  (    -1          0          0      )

 cart.    s(24) = (  0.0000000  0.0000000 -1.0000000 )
                  (  1.0000000  0.0000000  0.0000000 )
                  (  0.0000000 -1.0000000  0.0000000 )


      isym = 25     inversion                                    

 cryst.   s(25) = (    -1          0          0      )
                  (     0         -1          0      )
                  (     0          0         -1      )

 cart.    s(25) = ( -1.0000000  0.0000000  0.0000000 )
                  (  0.0000000 -1.0000000  0.0000000 )
                  (  0.0000000  0.0000000 -1.0000000 )


      isym = 26     inv. 180 deg rotation - cart. axis [0,0,1]   

 cryst.   s(26) = (     1          0          0      )
                  (     0          1          0      )
                  (     0          0         -1      )

 cart.    s(26) = (  1.0000000  0.0000000  0.0000000 )
                  (  0.0000000  1.0000000  0.0000000 )
                  (  0.0000000  0.0000000 -1.0000000 )


      isym = 27     inv. 180 deg rotation - cart. axis [0,1,0]   

 cryst.   s(27) = (     1          0          0      )
                  (     0         -1          0      )
                  (     0          0          1      )

 cart.    s(27) = (  1.0000000  0.0000000  0.0000000 )
                  (  0.0000000 -1.0000000  0.0000000 )
                  (  0.0000000  0.0000000  1.0000000 )


      isym = 28     inv. 180 deg rotation - cart. axis [1,0,0]   

 cryst.   s(28) = (    -1          0          0      )
                  (     0          1          0      )
                  (     0          0          1      )

 cart.    s(28) = ( -1.0000000  0.0000000  0.0000000 )
                  (  0.0000000  1.0000000  0.0000000 )
                  (  0.0000000  0.0000000  1.0000000 )


      isym = 29     inv. 180 deg rotation - cart. axis [1,1,0]   

 cryst.   s(29) = (     0         -1          0      )
                  (    -1          0          0      )
                  (     0          0          1      )

 cart.    s(29) = (  0.0000000 -1.0000000  0.0000000 )
                  ( -1.0000000  0.0000000  0.0000000 )
                  (  0.0000000  0.0000000  1.0000000 )


      isym = 30     inv. 180 deg rotation - cart. axis [1,-1,0]  

 cryst.   s(30) = (     0          1          0      )
                  (     1          0          0      )
                  (     0          0          1      )

 cart.    s(30) = (  0.0000000  1.0000000  0.0000000 )
                  (  1.0000000  0.0000000  0.0000000 )
                  (  0.0000000  0.0000000  1.0000000 )


      isym = 31     inv.  90 deg rotation - cart. axis [0,0,-1]  

 cryst.   s(31) = (     0          1          0      )
                  (    -1          0          0      )
                  (     0          0         -1      )

 cart.    s(31) = (  0.0000000 -1.0000000  0.0000000 )
                  (  1.0000000  0.0000000  0.0000000 )
                  (  0.0000000  0.0000000 -1.0000000 )


      isym = 32     inv.  90 deg rotation - cart. axis [0,0,1]   

 cryst.   s(32) = (     0         -1          0      )
                  (     1          0          0      )
                  (     0          0         -1      )

 cart.    s(32) = (  0.0000000  1.0000000  0.0000000 )
                  ( -1.0000000  0.0000000  0.0000000 )
                  (  0.0000000  0.0000000 -1.0000000 )


      isym = 33     inv. 180 deg rotation - cart. axis [1,0,1]   

 cryst.   s(33) = (     0          0         -1      )
                  (     0          1          0      )
                  (    -1          0          0      )

 cart.    s(33) = (  0.0000000  0.0000000 -1.0000000 )
                  (  0.0000000  1.0000000  0.0000000 )
                  ( -1.0000000  0.0000000  0.0000000 )


      isym = 34     inv. 180 deg rotation - cart. axis [-1,0,1]  

 cryst.   s(34) = (     0          0          1      )
                  (     0          1          0      )
                  (     1          0          0      )

 cart.    s(34) = (  0.0000000  0.0000000  1.0000000 )
                  (  0.0000000  1.0000000  0.0000000 )
                  (  1.0000000  0.0000000  0.0000000 )


      isym = 35     inv.  90 deg rotation - cart. axis [0,1,0]   

 cryst.   s(35) = (     0          0          1      )
                  (     0         -1          0      )
                  (    -1          0          0      )

 cart.    s(35) = (  0.0000000  0.0000000 -1.0000000 )
                  (  0.0000000 -1.0000000  0.0000000 )
                  (  1.0000000  0.0000000  0.0000000 )


      isym = 36     inv.  90 deg rotation - cart. axis [0,-1,0]  

 cryst.   s(36) = (     0          0         -1      )
                  (     0         -1          0      )
                  (     1          0          0      )

 cart.    s(36) = (  0.0000000  0.0000000  1.0000000 )
                  (  0.0000000 -1.0000000  0.0000000 )
                  ( -1.0000000  0.0000000  0.0000000 )


      isym = 37     inv. 180 deg rotation - cart. axis [0,1,1]   

 cryst.   s(37) = (     1          0          0      )
                  (     0          0         -1      )
                  (     0         -1          0      )

 cart.    s(37) = (  1.0000000  0.0000000  0.0000000 )
                  (  0.0000000  0.0000000 -1.0000000 )
                  (  0.0000000 -1.0000000  0.0000000 )


      isym = 38     inv. 180 deg rotation - cart. axis [0,1,-1]  

 cryst.   s(38) = (     1          0          0      )
                  (     0          0          1      )
                  (     0          1          0      )

 cart.    s(38) = (  1.0000000  0.0000000  0.0000000 )
                  (  0.0000000  0.0000000  1.0000000 )
                  (  0.0000000  1.0000000  0.0000000 )


      isym = 39     inv.  90 deg rotation - cart. axis [-1,0,0]  

 cryst.   s(39) = (    -1          0          0      )
                  (     0          0          1      )
                  (     0         -1          0      )

 cart.    s(39) = ( -1.0000000  0.0000000  0.0000000 )
                  (  0.0000000  0.0000000 -1.0000000 )
                  (  0.0000000  1.0000000  0.0000000 )


      isym = 40     inv.  90 deg rotation - cart. axis [1,0,0]   

 cryst.   s(40) = (    -1          0          0      )
                  (     0          0         -1      )
                  (     0          1          0      )

 cart.    s(40) = ( -1.0000000  0.0000000  0.0000000 )
                  (  0.0000000  0.0000000  1.0000000 )
                  (  0.0000000 -1.0000000  0.0000000 )


      isym = 41     inv. 120 deg rotation - cart. axis [-1,-1,-1]

 cryst.   s(41) = (     0          0         -1      )
                  (    -1          0          0      )
                  (     0         -1          0      )

 cart.    s(41) = (  0.0000000 -1.0000000  0.0000000 )
                  (  0.0000000  0.0000000 -1.0000000 )
                  ( -1.0000000  0.0000000  0.0000000 )


      isym = 42     inv. 120 deg rotation - cart. axis [-1,1,1]  

 cryst.   s(42) = (     0          0          1      )
                  (     1          0          0      )
                  (     0         -1          0      )

 cart.    s(42) = (  0.0000000  1.0000000  0.0000000 )
                  (  0.0000000  0.0000000 -1.0000000 )
                  (  1.0000000  0.0000000  0.0000000 )


      isym = 43     inv. 120 deg rotation - cart. axis [1,1,-1]  

 cryst.   s(43) = (     0          0          1      )
                  (    -1          0          0      )
                  (     0          1          0      )

 cart.    s(43) = (  0.0000000 -1.0000000  0.0000000 )
                  (  0.0000000  0.0000000  1.0000000 )
                  (  1.0000000  0.0000000  0.0000000 )


      isym = 44     inv. 120 deg rotation - cart. axis [1,-1,1]  

 cryst.   s(44) = (     0          0         -1      )
                  (     1          0          0      )
                  (     0          1          0      )

 cart.    s(44) = (  0.0000000  1.0000000  0.0000000 )
                  (  0.0000000  0.0000000  1.0000000 )
                  ( -1.0000000  0.0000000  0.0000000 )


      isym = 45     inv. 120 deg rotation - cart. axis [1,1,1]   

 cryst.   s(45) = (     0         -1          0      )
                  (     0          0         -1      )
                  (    -1          0          0      )

 cart.    s(45) = (  0.0000000  0.0000000 -1.0000000 )
                  ( -1.0000000  0.0000000  0.0000000 )
                  (  0.0000000 -1.0000000  0.0000000 )


      isym = 46     inv. 120 deg rotation - cart. axis [-1,1,-1] 

 cryst.   s(46) = (     0          1          0      )
                  (     0          0          1      )
                  (    -1          0          0      )

 cart.    s(46) = (  0.0000000  0.0000000 -1.0000000 )
                  (  1.0000000  0.0000000  0.0000000 )
                  (  0.0000000  1.0000000  0.0000000 )


      isym = 47     inv. 120 deg rotation - cart. axis [1,-1,-1] 

 cryst.   s(47) = (     0          1          0      )
                  (     0          0         -1      )
                  (     1          0          0      )

 cart.    s(47) = (  0.0000000  0.0000000  1.0000000 )
                  (  1.0000000  0.0000000  0.0000000 )
                  (  0.0000000 -1.0000000  0.0000000 )


      isym = 48     inv. 120 deg rotation - cart. axis [-1,-1,1] 

 cryst.   s(48) = (     0         -1          0      )
                  (     0          0          1      )
                  (     1          0          0      )

 cart.    s(48) = (  0.0000000  0.0000000  1.0000000 )
                  ( -1.0000000  0.0000000  0.0000000 )
                  (  0.0000000  1.0000000  0.0000000 )


     double point group O_h (m-3m) 
     there are 16 classes and  6 irreducible representations
     the character table:

       E     -E    8C3   -8C3   3C2  6C4   -6C4   6C2' i     -i    8S6   -8S6 
                               -3C2              -6C2'                        
G_6+   2.00 -2.00  1.00 -1.00  0.00  1.41 -1.41  0.00  2.00 -2.00  1.00 -1.00
G_7+   2.00 -2.00  1.00 -1.00  0.00 -1.41  1.41  0.00  2.00 -2.00  1.00 -1.00
G_8+   4.00 -4.00 -1.00  1.00  0.00  0.00  0.00  0.00  4.00 -4.00 -1.00  1.00
G_6-   2.00 -2.00  1.00 -1.00  0.00  1.41 -1.41  0.00 -2.00  2.00 -1.00  1.00
G_7-   2.00 -2.00  1.00 -1.00  0.00 -1.41  1.41  0.00 -2.00  2.00 -1.00  1.00
G_8-   4.00 -4.00 -1.00  1.00  0.00  0.00  0.00  0.00 -4.00  4.00  1.00 -1.00

        3s_h 6S4   -6S4   6s_d
       -3s_h             -6s_d
G_6+   0.00  1.41 -1.41  0.00
G_7+   0.00 -1.41  1.41  0.00
G_8+   0.00  0.00  0.00  0.00
G_6-   0.00 -1.41  1.41  0.00
G_7-   0.00  1.41 -1.41  0.00
G_8-   0.00  0.00  0.00  0.00

     the symmetry operations in each class and the name of the first element:

     E             1
          identity                                               
     -E           -1
          identity E                                             
     8C3          17   19   20   18   24   21   22   23
          120 deg rotation - cart. axis [-1,-1,-1]               
     -8C3        -17  -19  -20  -18  -24  -21  -22  -23
          120 deg rotation - cart. axis [-1,-1,-1] E             
      3C2 -3C2     2   -2    4   -4    3   -3
          180 deg rotation - cart. axis [0,0,1]                  
     6C4           7    8   15   16   12   11
           90 deg rotation - cart. axis [0,0,-1]                 
     -6C4         -7   -8  -15  -16  -12  -11
           90 deg rotation - cart. axis [0,0,-1] E               
      6C2'-6C2'    5   -5   -6    6   14  -13  -14   13   10   -9  -10    9
          180 deg rotation - cart. axis [1,1,0]                  
     i            25
          inversion                                              
     -i          -25
          inversion E                                            
     8S6          41   43   44   42   48   45   46   47
          inv. 120 deg rotation - cart. axis [-1,-1,-1]          
     -8S6        -41  -43  -44  -42  -48  -45  -46  -47
          inv. 120 deg rotation - cart. axis [-1,-1,-1] E        
      3s_h-3s_h   26  -26   28  -28   27  -27
          inv. 180 deg rotation - cart. axis [0,0,1]             
     6S4          31   32   39   40   36   35
          inv.  90 deg rotation - cart. axis [0,0,-1]            
     -6S4        -31  -32  -39  -40  -36  -35
          inv.  90 deg rotation - cart. axis [0,0,-1] E          
      6s_d-6s_d   29  -29  -30   30   38  -37  -38   37   34  -33  -34   33
          inv. 180 deg rotation - cart. axis [1,1,0]             

   Cartesian axes

     site n.     atom                  positions (alat units)
         1           Cs  tau(   1) = (   0.0000000   0.0000000   0.0000000  )
         2           Cs  tau(   2) = (   0.0000000   0.5000000   0.5000000  )
         3           Cs  tau(   3) = (   0.5000000   0.0000000   0.5000000  )
         4           Cs  tau(   4) = (   0.5000000   0.5000000   0.0000000  )
         5           I   tau(   5) = (   0.5000000   0.0000000   0.0000000  )
         6           I   tau(   6) = (   0.5000000   0.5000000   0.5000000  )
         7           I   tau(   7) = (   0.0000000   0.0000000   0.5000000  )
         8           I   tau(   8) = (   0.0000000   0.5000000   0.0000000  )

   Crystallographic axes

     site n.     atom                  positions (cryst. coord.)
         1           Cs  tau(   1) = (  0.0000000  0.0000000  0.0000000  )
         2           Cs  tau(   2) = (  0.0000000  0.5000000  0.5000000  )
         3           Cs  tau(   3) = (  0.5000000  0.0000000  0.5000000  )
         4           Cs  tau(   4) = (  0.5000000  0.5000000  0.0000000  )
         5           I   tau(   5) = (  0.5000000  0.0000000  0.0000000  )
         6           I   tau(   6) = (  0.5000000  0.5000000  0.5000000  )
         7           I   tau(   7) = (  0.0000000  0.0000000  0.5000000  )
         8           I   tau(   8) = (  0.0000000  0.5000000  0.0000000  )

     number of k points=    35
                       cart. coord. in units 2pi/alat
        k(    1) = (   0.0500000   0.0500000   0.0500000), wk =   0.0080000
        k(    2) = (   0.0500000   0.0500000   0.1500000), wk =   0.0240000
        k(    3) = (   0.0500000   0.0500000   0.2500000), wk =   0.0240000
        k(    4) = (   0.0500000   0.0500000   0.3500000), wk =   0.0240000
        k(    5) = (   0.0500000   0.0500000   0.4500000), wk =   0.0240000
        k(    6) = (   0.0500000   0.1500000   0.1500000), wk =   0.0240000
        k(    7) = (   0.0500000   0.1500000   0.2500000), wk =   0.0480000
        k(    8) = (   0.0500000   0.1500000   0.3500000), wk =   0.0480000
        k(    9) = (   0.0500000   0.1500000   0.4500000), wk =   0.0480000
        k(   10) = (   0.0500000   0.2500000   0.2500000), wk =   0.0240000
        k(   11) = (   0.0500000   0.2500000   0.3500000), wk =   0.0480000
        k(   12) = (   0.0500000   0.2500000   0.4500000), wk =   0.0480000
        k(   13) = (   0.0500000   0.3500000   0.3500000), wk =   0.0240000
        k(   14) = (   0.0500000   0.3500000   0.4500000), wk =   0.0480000
        k(   15) = (   0.0500000   0.4500000   0.4500000), wk =   0.0240000
        k(   16) = (   0.1500000   0.1500000   0.1500000), wk =   0.0080000
        k(   17) = (   0.1500000   0.1500000   0.2500000), wk =   0.0240000
        k(   18) = (   0.1500000   0.1500000   0.3500000), wk =   0.0240000
        k(   19) = (   0.1500000   0.1500000   0.4500000), wk =   0.0240000
        k(   20) = (   0.1500000   0.2500000   0.2500000), wk =   0.0240000
        k(   21) = (   0.1500000   0.2500000   0.3500000), wk =   0.0480000
        k(   22) = (   0.1500000   0.2500000   0.4500000), wk =   0.0480000
        k(   23) = (   0.1500000   0.3500000   0.3500000), wk =   0.0240000
        k(   24) = (   0.1500000   0.3500000   0.4500000), wk =   0.0480000
        k(   25) = (   0.1500000   0.4500000   0.4500000), wk =   0.0240000
        k(   26) = (   0.2500000   0.2500000   0.2500000), wk =   0.0080000
        k(   27) = (   0.2500000   0.2500000   0.3500000), wk =   0.0240000
        k(   28) = (   0.2500000   0.2500000   0.4500000), wk =   0.0240000
        k(   29) = (   0.2500000   0.3500000   0.3500000), wk =   0.0240000
        k(   30) = (   0.2500000   0.3500000   0.4500000), wk =   0.0480000
        k(   31) = (   0.2500000   0.4500000   0.4500000), wk =   0.0240000
        k(   32) = (   0.3500000   0.3500000   0.3500000), wk =   0.0080000
        k(   33) = (   0.3500000   0.3500000   0.4500000), wk =   0.0240000
        k(   34) = (   0.3500000   0.4500000   0.4500000), wk =   0.0240000
        k(   35) = (   0.4500000   0.4500000   0.4500000), wk =   0.0080000

                       cryst. coord.
        k(    1) = (   0.0500000   0.0500000   0.0500000), wk =   0.0080000
        k(    2) = (   0.0500000   0.0500000   0.1500000), wk =   0.0240000
        k(    3) = (   0.0500000   0.0500000   0.2500000), wk =   0.0240000
        k(    4) = (   0.0500000   0.0500000   0.3500000), wk =   0.0240000
        k(    5) = (   0.0500000   0.0500000   0.4500000), wk =   0.0240000
        k(    6) = (   0.0500000   0.1500000   0.1500000), wk =   0.0240000
        k(    7) = (   0.0500000   0.1500000   0.2500000), wk =   0.0480000
        k(    8) = (   0.0500000   0.1500000   0.3500000), wk =   0.0480000
        k(    9) = (   0.0500000   0.1500000   0.4500000), wk =   0.0480000
        k(   10) = (   0.0500000   0.2500000   0.2500000), wk =   0.0240000
        k(   11) = (   0.0500000   0.2500000   0.3500000), wk =   0.0480000
        k(   12) = (   0.0500000   0.2500000   0.4500000), wk =   0.0480000
        k(   13) = (   0.0500000   0.3500000   0.3500000), wk =   0.0240000
        k(   14) = (   0.0500000   0.3500000   0.4500000), wk =   0.0480000
        k(   15) = (   0.0500000   0.4500000   0.4500000), wk =   0.0240000
        k(   16) = (   0.1500000   0.1500000   0.1500000), wk =   0.0080000
        k(   17) = (   0.1500000   0.1500000   0.2500000), wk =   0.0240000
        k(   18) = (   0.1500000   0.1500000   0.3500000), wk =   0.0240000
        k(   19) = (   0.1500000   0.1500000   0.4500000), wk =   0.0240000
        k(   20) = (   0.1500000   0.2500000   0.2500000), wk =   0.0240000
        k(   21) = (   0.1500000   0.2500000   0.3500000), wk =   0.0480000
        k(   22) = (   0.1500000   0.2500000   0.4500000), wk =   0.0480000
        k(   23) = (   0.1500000   0.3500000   0.3500000), wk =   0.0240000
        k(   24) = (   0.1500000   0.3500000   0.4500000), wk =   0.0480000
        k(   25) = (   0.1500000   0.4500000   0.4500000), wk =   0.0240000
        k(   26) = (   0.2500000   0.2500000   0.2500000), wk =   0.0080000
        k(   27) = (   0.2500000   0.2500000   0.3500000), wk =   0.0240000
        k(   28) = (   0.2500000   0.2500000   0.4500000), wk =   0.0240000
        k(   29) = (   0.2500000   0.3500000   0.3500000), wk =   0.0240000
        k(   30) = (   0.2500000   0.3500000   0.4500000), wk =   0.0480000
        k(   31) = (   0.2500000   0.4500000   0.4500000), wk =   0.0240000
        k(   32) = (   0.3500000   0.3500000   0.3500000), wk =   0.0080000
        k(   33) = (   0.3500000   0.3500000   0.4500000), wk =   0.0240000
        k(   34) = (   0.3500000   0.4500000   0.4500000), wk =   0.0240000
        k(   35) = (   0.4500000   0.4500000   0.4500000), wk =   0.0080000

     Dense  grid:   121481 G-vectors     FFT dimensions: (  64,  64,  64)

     Smooth grid:    66299 G-vectors     FFT dimensions: (  54,  54,  54)

     Dynamical RAM for                 wfc:       0.67 MB

     Dynamical RAM for     wfc (w. buffer):      24.19 MB

     Dynamical RAM for           str. fact:       0.15 MB

     Dynamical RAM for           local pot:       0.00 MB

     Dynamical RAM for          nlocal pot:       2.04 MB

     Dynamical RAM for                qrad:      39.45 MB

     Dynamical RAM for          rho,v,vnew:       2.05 MB

     Dynamical RAM for               rhoin:       0.68 MB

     Dynamical RAM for            rho*nmix:       4.94 MB

     Dynamical RAM for           G-vectors:       0.31 MB

     Dynamical RAM for          h,s,v(r/c):       0.33 MB

     Dynamical RAM for          <psi|beta>:       0.76 MB

     Dynamical RAM for                 psi:       2.69 MB

     Dynamical RAM for                hpsi:       2.69 MB

     Dynamical RAM for                spsi:       2.69 MB

     Dynamical RAM for      wfcinit/wfcrot:       1.25 MB

     Dynamical RAM for           addusdens:     158.08 MB

     Dynamical RAM for          addusforce:     159.88 MB

     Dynamical RAM for         addusstress:     160.09 MB

     Estimated static dynamical RAM per process >      74.80 MB

     Estimated max dynamical RAM per process >     234.89 MB

     Estimated total dynamical RAM >       5.51 GB

     Initial potential from superposition of free atoms

     starting charge   63.84620, renormalised to   64.00000
     Starting wfcs are   72 randomized atomic wfcs
     Checking if some PAW data can be deallocated... 
       PAW data deallocated on   12 nodes for type:  1
       PAW data deallocated on   12 nodes for type:  2

     total cpu time spent up to now is       26.0 secs

     Self-consistent Calculation

     iteration #  1     ecut=    80.00 Ry     beta= 0.50
     Davidson diagonalization with overlap
     ethr =  1.00E-02,  avg # of iterations =  6.2

     Threshold (ethr) on eigenvalues was too large:
     Diagonalizing with lowered threshold

     Davidson diagonalization with overlap
     c_bands:  1 eigenvalues not converged
     c_bands:  1 eigenvalues not converged
     c_bands:  1 eigenvalues not converged
     ethr =  1.55E-04,  avg # of iterations =  9.7

     total cpu time spent up to now is      240.5 secs

     total energy              =   -3131.14701377 Ry
     Harris-Foulkes estimate   =   -3131.18891150 Ry
     estimated scf accuracy    <       0.12258786 Ry

     iteration #  2     ecut=    80.00 Ry     beta= 0.50
     Davidson diagonalization with overlap
     ethr =  1.92E-04,  avg # of iterations =  1.8

     total cpu time spent up to now is      294.1 secs

     total energy              =   -3131.14930675 Ry
     Harris-Foulkes estimate   =   -3131.15375201 Ry
     estimated scf accuracy    <       0.02068775 Ry

     iteration #  3     ecut=    80.00 Ry     beta= 0.50
     Davidson diagonalization with overlap
     c_bands:  2 eigenvalues not converged
     ethr =  3.23E-05,  avg # of iterations =  5.7

     total cpu time spent up to now is      392.9 secs

     total energy              =   -3131.15890245 Ry
     Harris-Foulkes estimate   =   -3131.16204519 Ry
     estimated scf accuracy    <       0.00521291 Ry

     iteration #  4     ecut=    80.00 Ry     beta= 0.50
     Davidson diagonalization with overlap
     c_bands:  1 eigenvalues not converged
     c_bands:  2 eigenvalues not converged
     ethr =  8.15E-06,  avg # of iterations =  4.4

     total cpu time spent up to now is      469.9 secs

     total energy              =   -3131.16034835 Ry
     Harris-Foulkes estimate   =   -3131.16023351 Ry
     estimated scf accuracy    <       0.00079235 Ry

     iteration #  5     ecut=    80.00 Ry     beta= 0.50
     Davidson diagonalization with overlap
     c_bands:  2 eigenvalues not converged
     ethr =  1.24E-06,  avg # of iterations =  7.3

     total cpu time spent up to now is      573.8 secs

     total energy              =   -3131.16279714 Ry
     Harris-Foulkes estimate   =   -3131.16285733 Ry
     estimated scf accuracy    <       0.00021312 Ry

     iteration #  6     ecut=    80.00 Ry     beta= 0.50
     Davidson diagonalization with overlap
     ethr =  3.33E-07,  avg # of iterations =  4.1

     total cpu time spent up to now is      644.2 secs

     total energy              =   -3131.16276291 Ry
     Harris-Foulkes estimate   =   -3131.16282217 Ry
     estimated scf accuracy    <       0.00007296 Ry

     iteration #  7     ecut=    80.00 Ry     beta= 0.50
     Davidson diagonalization with overlap
     ethr =  1.14E-07,  avg # of iterations =  4.8

     total cpu time spent up to now is      741.1 secs

     total energy              =   -3131.16280660 Ry
     Harris-Foulkes estimate   =   -3131.16281549 Ry
     estimated scf accuracy    <       0.00002953 Ry

     iteration #  8     ecut=    80.00 Ry     beta= 0.50
     Davidson diagonalization with overlap
     c_bands:  1 eigenvalues not converged
     ethr =  4.61E-08,  avg # of iterations =  6.3

     total cpu time spent up to now is      826.2 secs

     total energy              =   -3131.16280542 Ry
     Harris-Foulkes estimate   =   -3131.16281164 Ry
     estimated scf accuracy    <       0.00001331 Ry

     iteration #  9     ecut=    80.00 Ry     beta= 0.50
     Davidson diagonalization with overlap
     ethr =  2.08E-08,  avg # of iterations =  3.5

     total cpu time spent up to now is      893.6 secs

     total energy              =   -3131.16280349 Ry
     Harris-Foulkes estimate   =   -3131.16280656 Ry
     estimated scf accuracy    <       0.00000418 Ry

     iteration # 10     ecut=    80.00 Ry     beta= 0.50
     Davidson diagonalization with overlap
     ethr =  6.53E-09,  avg # of iterations =  4.7

     total cpu time spent up to now is      995.5 secs

     total energy              =   -3131.16280514 Ry
     Harris-Foulkes estimate   =   -3131.16280792 Ry
     estimated scf accuracy    <       0.00000532 Ry

     iteration # 11     ecut=    80.00 Ry     beta= 0.50
     Davidson diagonalization with overlap
     c_bands:  1 eigenvalues not converged
     c_bands:  2 eigenvalues not converged
     ethr =  6.53E-09,  avg # of iterations =  5.0

     total cpu time spent up to now is     1080.7 secs

     End of self-consistent calculation

          k = 0.0500 0.0500 0.0500 (  8289 PWs)   bands (ev):

    -1.8911  -1.8911   2.5828   2.5828   2.5828   2.5828   2.5828   2.5828
     8.8103   8.8103   8.8103   8.8103   8.8103   8.8103  10.7898  10.7898
    10.7898  10.7898  10.7898  10.7898  12.3362  12.3362  12.3362  12.3362
    12.3363  12.3363  13.2989  13.2989  13.2989  13.2989  13.2989  13.2989
    14.6200  14.6200  16.1184  16.1184  16.6277  16.6277  18.9709  18.9709
    22.3223  22.3223  22.3223  22.3223  22.3223  22.3223  25.1616  25.1616
    26.5081  26.5081  26.5464  26.5464  26.8532  26.8532  26.8917  26.8917
    27.0425  27.0425  29.5675  29.5675  29.5676  29.5676  29.5676  29.5676

     occupation numbers 
     1.0000   1.0000   1.0000   1.0000   1.0000   1.0000   1.0000   1.0000
     1.0000   1.0000   1.0000   1.0000   1.0000   1.0000   1.0000   1.0000
     1.0000   1.0000   1.0000   1.0000   1.0000   1.0000   1.0000   1.0000
     1.0000   1.0000   1.0000   1.0000   1.0000   1.0000   1.0000   1.0000
     1.0000   1.0000   1.0000   1.0000   1.0000   1.0000   1.0000   1.0000
     1.0000   1.0000   1.0000   1.0000   1.0000   1.0000   1.0000   1.0000
     1.0000   1.0000   1.0000   1.0000   1.0000   1.0000   1.0000   1.0000
     1.0000   1.0000   1.0000   1.0000   1.0000   1.0000   1.0000   1.0000

          k = 0.0500 0.0500 0.1500 (  8289 PWs)   bands (ev):

    -1.7601  -1.7601   2.1408   2.1408   2.6460   2.6460   2.6460   2.6460
     8.8767   8.8767   8.8767   8.8767   9.2001   9.2001   9.8887   9.8887
     9.8887   9.8887  11.2247  11.2247  12.3011  12.3011  12.3011  12.3011
    12.4906  12.4906  13.4447  13.4447  14.0529  14.0529  14.3812  14.3812
    14.3812  14.3812  15.5892  15.5892  16.4594  16.4594  20.0060  20.0060
    22.4367  22.4367  22.8356  22.8356  22.8356  22.8356  24.2216  24.2216
    25.8889  25.8889  26.1813  26.1813  26.7158  26.7158  27.3657  27.3657
    27.5734  27.5734  28.4497  28.4497  28.4497  28.4497  29.2251  29.2251

     occupation numbers 
     1.0000   1.0000   1.0000   1.0000   1.0000   1.0000   1.0000   1.0000
     1.0000   1.0000   1.0000   1.0000   1.0000   1.0000   1.0000   1.0000
     1.0000   1.0000   1.0000   1.0000   1.0000   1.0000   1.0000   1.0000
     1.0000   1.0000   1.0000   1.0000   1.0000   1.0000   1.0000   1.0000
     1.0000   1.0000   1.0000   1.0000   1.0000   1.0000   1.0000   1.0000
     1.0000   1.0000   1.0000   1.0000   1.0000   1.0000   1.0000   1.0000
     1.0000   1.0000   1.0000   1.0000   1.0000   1.0000   1.0000   1.0000
     1.0000   1.0000   1.0000   1.0000   1.0000   1.0000   1.0000   1.0000

          k = 0.0500 0.0500 0.2500 (  8291 PWs)   bands (ev):

    -1.4994  -1.4994   1.4593   1.4593   2.7561   2.7561   2.7562   2.7562
     8.6721   8.6721   8.6721   8.6721   9.4441   9.4441   9.4441   9.4441
     9.7195   9.7195  11.8577  11.8577  11.8577  11.8577  12.0496  12.0496
    12.8630  12.8630  13.2091  13.2091  13.7621  13.7621  15.0365  15.0365
    15.9869  15.9869  15.9869  15.9869  16.0280  16.0280  21.1652  21.1652
    22.6648  22.6648  22.6672  22.6672  23.7726  23.7726  23.7726  23.7726
    25.3658  25.3658  26.0143  26.0143  26.5111  26.5111  26.5111  26.5111
    26.8927  26.8927  28.2905  28.2905  28.5040  28.5040  28.6548  28.6548

     occupation numbers 
     1.0000   1.0000   1.0000   1.0000   1.0000   1.0000   1.0000   1.0000
     1.0000   1.0000   1.0000   1.0000   1.0000   1.0000   1.0000   1.0000
     1.0000   1.0000   1.0000   1.0000   1.0000   1.0000   1.0000   1.0000
     1.0000   1.0000   1.0000   1.0000   1.0000   1.0000   1.0000   1.0000
     1.0000   1.0000   1.0000   1.0000   1.0000   1.0000   1.0000   1.0000
     1.0000   1.0000   1.0000   1.0000   1.0000   1.0000   1.0000   1.0000
     1.0000   1.0000   1.0000   1.0000   1.0000   1.0000   1.0000   1.0000
     1.0000   1.0000   1.0000   1.0000   1.0000   1.0000   1.0000   1.0000

          k = 0.0500 0.0500 0.3500 (  8282 PWs)   bands (ev):

    -1.1117  -1.1117   0.7179   0.7179   2.8784   2.8784   2.8784   2.8784
     8.1169   8.1169   8.1169   8.1169   9.6926   9.6926   9.6926   9.6926
    10.2616  10.2616  11.2924  11.2924  11.2924  11.2924  12.3441  12.3441
    12.7902  12.7902  13.6205  13.6205  14.4577  14.4577  14.4629  14.4629
    15.4734  15.4734  17.7737  17.7737  17.7737  17.7737  19.8340  19.8340
    23.0052  23.0052  23.6741  23.6741  24.3842  24.3842  24.3842  24.3842
    24.6661  24.6661  25.0472  25.0472  25.0472  25.0472  26.3052  26.3052
    27.2819  27.2819  27.9843  27.9843  29.0723  29.0723  29.4816  29.4816

     occupation numbers 
     1.0000   1.0000   1.0000   1.0000   1.0000   1.0000   1.0000   1.0000
     1.0000   1.0000   1.0000   1.0000   1.0000   1.0000   1.0000   1.0000
     1.0000   1.0000   1.0000   1.0000   1.0000   1.0000   1.0000   1.0000
     1.0000   1.0000   1.0000   1.0000   1.0000   1.0000   1.0000   1.0000
     1.0000   1.0000   1.0000   1.0000   1.0000   1.0000   1.0000   1.0000
     1.0000   1.0000   1.0000   1.0000   1.0000   1.0000   1.0000   1.0000
     1.0000   1.0000   1.0000   1.0000   1.0000   1.0000   1.0000   1.0000
     1.0000   1.0000   1.0000   1.0000   1.0000   1.0000   1.0000   1.0000

          k = 0.0500 0.0500 0.4500 (  8281 PWs)   bands (ev):

    -0.6031  -0.6031   0.0146   0.0146   2.9615   2.9615   2.9615   2.9615
     7.7782   7.7782   7.7782   7.7782  10.1116  10.1116  10.1117  10.1117
    10.7314  10.7314  10.7314  10.7314  10.8619  10.8619  11.5537  11.5537
    13.3343  13.3343  13.8865  13.8865  14.2939  14.2939  14.8830  14.8830
    15.9314  15.9314  17.8185  17.8185  19.5168  19.5168  19.5168  19.5168
    22.4775  22.4775  22.4775  22.4775  23.4552  23.4552  24.0076  24.0076
    25.5854  25.5854  26.5060  26.5060  26.5060  26.5060  26.7912  26.7912
    27.2552  27.2552  27.7373  27.7373  27.8267  27.8267  28.1406  28.1406

     occupation numbers 
     1.0000   1.0000   1.0000   1.0000   1.0000   1.0000   1.0000   1.0000
     1.0000   1.0000   1.0000   1.0000   1.0000   1.0000   1.0000   1.0000
     1.0000   1.0000   1.0000   1.0000   1.0000   1.0000   1.0000   1.0000
     1.0000   1.0000   1.0000   1.0000   1.0000   1.0000   1.0000   1.0000
     1.0000   1.0000   1.0000   1.0000   1.0000   1.0000   1.0000   1.0000
     1.0000   1.0000   1.0000   1.0000   1.0000   1.0000   1.0000   1.0000
     1.0000   1.0000   1.0000   1.0000   1.0000   1.0000   1.0000   1.0000
     1.0000   1.0000   1.0000   1.0000   1.0000   1.0000   1.0000   1.0000

          k = 0.0500 0.1500 0.1500 (  8291 PWs)   bands (ev):

    -1.6297  -1.6297   2.2208   2.2208   2.2208   2.2208   2.6951   2.6951
     8.7392   8.7392   8.9694   8.9694   8.9694   8.9694   9.3931   9.3931
    10.6100  10.6100  10.6100  10.6100  12.4400  12.4400  12.4400  12.4400
    12.8340  12.8340  13.3124  13.3124  14.5338  14.5338  14.5338  14.5338
    14.6866  14.6866  15.3950  15.3950  16.6414  16.6414  20.4983  20.4983
    22.9481  22.9481  22.9481  22.9481  23.3648  23.3648  23.9313  23.9313
    25.0367  25.0367  25.9922  25.9922  27.0021  27.0021  27.0930  27.0930
    27.9322  27.9322  28.0231  28.0231  28.0458  28.0458  28.0458  28.0458

     occupation numbers 
     1.0000   1.0000   1.0000   1.0000   1.0000   1.0000   1.0000   1.0000
     1.0000   1.0000   1.0000   1.0000   1.0000   1.0000   1.0000   1.0000
     1.0000   1.0000   1.0000   1.0000   1.0000   1.0000   1.0000   1.0000
     1.0000   1.0000   1.0000   1.0000   1.0000   1.0000   1.0000   1.0000
     1.0000   1.0000   1.0000   1.0000   1.0000   1.0000   1.0000   1.0000
     1.0000   1.0000   1.0000   1.0000   1.0000   1.0000   1.0000   1.0000
     1.0000   1.0000   1.0000   1.0000   1.0000   1.0000   1.0000   1.0000
     1.0000   1.0000   1.0000   1.0000   1.0000   1.0000   1.0000   1.0000

          k = 0.0500 0.1500 0.2500 (  8298 PWs)   bands (ev):

    -1.3702  -1.3702   1.5570   1.5570   2.3678   2.3678   2.7725   2.7725
     8.1314   8.1314   8.4188   8.4188   9.2081   9.2081   9.4620   9.4620
    10.4791  10.4791  11.7545  11.7545  11.9987  11.9987  12.4033  12.4033
    12.7240  12.7240  12.7454  12.7454  14.8562  14.8562  14.9823  14.9823
    15.8522  15.8522  16.1269  16.1269  16.5092  16.5092  21.3506  21.3506
    22.5673  22.5673  23.1719  23.1719  23.8808  23.8808  24.3140  24.3140
    24.8075  24.8075  25.6861  25.6861  26.0774  26.0774  26.4798  26.4798
    26.8572  26.8572  27.4117  27.4117  27.9497  27.9497  28.8794  28.8794

     occupation numbers 
     1.0000   1.0000   1.0000   1.0000   1.0000   1.0000   1.0000   1.0000
     1.0000   1.0000   1.0000   1.0000   1.0000   1.0000   1.0000   1.0000
     1.0000   1.0000   1.0000   1.0000   1.0000   1.0000   1.0000   1.0000
     1.0000   1.0000   1.0000   1.0000   1.0000   1.0000   1.0000   1.0000
     1.0000   1.0000   1.0000   1.0000   1.0000   1.0000   1.0000   1.0000
     1.0000   1.0000   1.0000   1.0000   1.0000   1.0000   1.0000   1.0000
     1.0000   1.0000   1.0000   1.0000   1.0000   1.0000   1.0000   1.0000
     1.0000   1.0000   1.0000   1.0000   1.0000   1.0000   1.0000   1.0000

          k = 0.0500 0.1500 0.3500 (  8292 PWs)   bands (ev):

    -0.9847  -0.9847   0.8282   0.8282   2.5524   2.5524   2.8353   2.8353
     7.5870   7.5870   7.8240   7.8240   9.5909   9.5909   9.7924   9.7924
    10.6834  10.6834  11.4573  11.4573  11.5325  11.5325  12.2425  12.2425
    12.7777  12.7777  13.4856  13.4856  14.4564  14.4564  15.4223  15.4223
    16.0663  16.0663  17.4991  17.4991  17.8964  17.8964  20.0543  20.0543
    23.3291  23.3291  23.5035  23.5035  23.9652  23.9652  24.3970  24.3970
    25.0108  25.0108  25.1427  25.1427  25.2282  25.2282  25.6447  25.6447
    26.7028  26.7028  27.1175  27.1175  28.7483  28.7483  29.1343  29.1343

     occupation numbers 
     1.0000   1.0000   1.0000   1.0000   1.0000   1.0000   1.0000   1.0000
     1.0000   1.0000   1.0000   1.0000   1.0000   1.0000   1.0000   1.0000
     1.0000   1.0000   1.0000   1.0000   1.0000   1.0000   1.0000   1.0000
     1.0000   1.0000   1.0000   1.0000   1.0000   1.0000   1.0000   1.0000
     1.0000   1.0000   1.0000   1.0000   1.0000   1.0000   1.0000   1.0000
     1.0000   1.0000   1.0000   1.0000   1.0000   1.0000   1.0000   1.0000
     1.0000   1.0000   1.0000   1.0000   1.0000   1.0000   1.0000   1.0000
     1.0000   1.0000   1.0000   1.0000   1.0000   1.0000   1.0000   1.0000

          k = 0.0500 0.1500 0.4500 (  8271 PWs)   bands (ev):

    -0.4794  -0.4794   0.1330   0.1330   2.7255   2.7255   2.8290   2.8290
     7.3334   7.3334   7.4244   7.4244  10.1105  10.1105  10.2388  10.2388
    10.7167  10.7167  10.7609  10.7609  11.2489  11.2489  11.6990  11.6990
    13.3524  13.3524  13.8977  13.8977  14.6102  14.6102  15.4429  15.4429
    16.4665  16.4665  18.1145  18.1145  19.2334  19.2334  19.5706  19.5706
    22.1274  22.1274  22.4814  22.4814  23.9342  23.9342  24.4027  24.4027
    25.0502  25.0502  25.7612  25.7612  25.9874  25.9874  26.5987  26.5987
    27.0810  27.0810  27.2797  27.2797  27.6221  27.6221  28.2194  28.2194

     occupation numbers 
     1.0000   1.0000   1.0000   1.0000   1.0000   1.0000   1.0000   1.0000
     1.0000   1.0000   1.0000   1.0000   1.0000   1.0000   1.0000   1.0000
     1.0000   1.0000   1.0000   1.0000   1.0000   1.0000   1.0000   1.0000
     1.0000   1.0000   1.0000   1.0000   1.0000   1.0000   1.0000   1.0000
     1.0000   1.0000   1.0000   1.0000   1.0000   1.0000   1.0000   1.0000
     1.0000   1.0000   1.0000   1.0000   1.0000   1.0000   1.0000   1.0000
     1.0000   1.0000   1.0000   1.0000   1.0000   1.0000   1.0000   1.0000
     1.0000   1.0000   1.0000   1.0000   1.0000   1.0000   1.0000   1.0000

          k = 0.0500 0.2500 0.2500 (  8291 PWs)   bands (ev):

    -1.1134  -1.1134   1.7438   1.7438   1.7438   1.7438   2.7754   2.7754
     7.4946   7.4946   8.4647   8.4647   8.4647   8.4647   9.6782   9.6782
    11.4669  11.4669  11.7490  11.7490  11.7490  11.7490  12.3541  12.3541
    12.3541  12.3541  13.4961  13.4961  14.5955  14.5955  16.0529  16.0529
    16.4123  16.4123  16.4124  16.4124  16.9381  16.9381  21.8856  21.8856
    22.2002  22.2002  23.3029  23.3029  24.0926  24.0926  24.0926  24.0926
    25.2434  25.2434  25.4221  25.4221  25.4221  25.4221  25.9087  25.9087
    25.9893  25.9893  27.4794  27.4794  27.5293  27.5293  28.4760  28.4760

     occupation numbers 
     1.0000   1.0000   1.0000   1.0000   1.0000   1.0000   1.0000   1.0000
     1.0000   1.0000   1.0000   1.0000   1.0000   1.0000   1.0000   1.0000
     1.0000   1.0000   1.0000   1.0000   1.0000   1.0000   1.0000   1.0000
     1.0000   1.0000   1.0000   1.0000   1.0000   1.0000   1.0000   1.0000
     1.0000   1.0000   1.0000   1.0000   1.0000   1.0000   1.0000   1.0000
     1.0000   1.0000   1.0000   1.0000   1.0000   1.0000   1.0000   1.0000
     1.0000   1.0000   1.0000   1.0000   1.0000   1.0000   1.0000   1.0000
     1.0000   1.0000   1.0000   1.0000   1.0000   1.0000   1.0000   1.0000

          k = 0.0500 0.2500 0.3500 (  8298 PWs)   bands (ev):

    -0.7325  -0.7325   1.0435   1.0435   1.9995   1.9995   2.7127   2.7127
     7.0769   7.0769   7.7627   7.7627   8.7449   8.7449  10.0309  10.0309
    10.5921  10.5921  11.5466  11.5466  12.2634  12.2634  12.4808  12.4808
    13.4878  13.4878  13.5428  13.5428  14.0681  14.0681  16.8612  16.8612
    16.8671  16.8671  17.1734  17.1734  18.1384  18.1384  20.5174  20.5174
    22.9320  22.9320  23.2836  23.2836  23.3315  23.3315  24.3748  24.3748
    24.4015  24.4015  24.7467  24.7467  25.3391  25.3391  25.7832  25.7832
    26.4876  26.4876  27.4662  27.4662  28.4268  28.4268  28.4827  28.4827

     occupation numbers 
     1.0000   1.0000   1.0000   1.0000   1.0000   1.0000   1.0000   1.0000
     1.0000   1.0000   1.0000   1.0000   1.0000   1.0000   1.0000   1.0000
     1.0000   1.0000   1.0000   1.0000   1.0000   1.0000   1.0000   1.0000
     1.0000   1.0000   1.0000   1.0000   1.0000   1.0000   1.0000   1.0000
     1.0000   1.0000   1.0000   1.0000   1.0000   1.0000   1.0000   1.0000
     1.0000   1.0000   1.0000   1.0000   1.0000   1.0000   1.0000   1.0000
     1.0000   1.0000   1.0000   1.0000   1.0000   1.0000   1.0000   1.0000
     1.0000   1.0000   1.0000   1.0000   1.0000   1.0000   1.0000   1.0000

          k = 0.0500 0.2500 0.4500 (  8274 PWs)   bands (ev):

    -0.2346  -0.2346   0.3664   0.3664   2.2859   2.2859   2.5440   2.5440
     6.9913   6.9913   7.2413   7.2413   9.2098   9.2098   9.8319   9.8319
    10.4885  10.4885  11.0184  11.0184  12.6134  12.6134  12.9720  12.9720
    13.0737  13.0737  13.5073  13.5073  15.0577  15.0577  16.2411  16.2411
    17.5860  17.5860  18.7891  18.7891  18.7991  18.7991  19.6279  19.6279
    21.6747  21.6747  22.5472  22.5472  23.4716  23.4716  24.0219  24.0219
    24.6273  24.6273  24.8273  24.8273  25.4254  25.4254  26.6023  26.6023
    26.7644  26.7644  27.6314  27.6314  27.8654  27.8654  28.4043  28.4043

     occupation numbers 
     1.0000   1.0000   1.0000   1.0000   1.0000   1.0000   1.0000   1.0000
     1.0000   1.0000   1.0000   1.0000   1.0000   1.0000   1.0000   1.0000
     1.0000   1.0000   1.0000   1.0000   1.0000   1.0000   1.0000   1.0000
     1.0000   1.0000   1.0000   1.0000   1.0000   1.0000   1.0000   1.0000
     1.0000   1.0000   1.0000   1.0000   1.0000   1.0000   1.0000   1.0000
     1.0000   1.0000   1.0000   1.0000   1.0000   1.0000   1.0000   1.0000
     1.0000   1.0000   1.0000   1.0000   1.0000   1.0000   1.0000   1.0000
     1.0000   1.0000   1.0000   1.0000   1.0000   1.0000   1.0000   1.0000

          k = 0.0500 0.3500 0.3500 (  8277 PWs)   bands (ev):

    -0.3594  -0.3594   1.3507   1.3507   1.3507   1.3507   2.4708   2.4708
     6.8457   6.8457   7.9640   7.9640   7.9640   7.9640   9.7212   9.7212
    10.3906  10.3906  11.9598  11.9598  11.9599  11.9599  13.5315  13.5315
    13.8212  13.8212  13.8212  13.8212  14.4262  14.4262  17.2259  17.2259
    17.3097  17.3097  18.4967  18.4967  18.4967  18.4967  20.8837  20.8837
    21.5970  21.5970  22.6725  22.6725  22.6725  22.6725  23.1098  23.1098
    23.9458  23.9458  25.6109  25.6109  25.6109  25.6109  26.3308  26.3308
    26.5155  26.5155  27.7875  27.7875  27.7875  27.7875  28.1062  28.1062

     occupation numbers 
     1.0000   1.0000   1.0000   1.0000   1.0000   1.0000   1.0000   1.0000
     1.0000   1.0000   1.0000   1.0000   1.0000   1.0000   1.0000   1.0000
     1.0000   1.0000   1.0000   1.0000   1.0000   1.0000   1.0000   1.0000
     1.0000   1.0000   1.0000   1.0000   1.0000   1.0000   1.0000   1.0000
     1.0000   1.0000   1.0000   1.0000   1.0000   1.0000   1.0000   1.0000
     1.0000   1.0000   1.0000   1.0000   1.0000   1.0000   1.0000   1.0000
     1.0000   1.0000   1.0000   1.0000   1.0000   1.0000   1.0000   1.0000
     1.0000   1.0000   1.0000   1.0000   1.0000   1.0000   1.0000   1.0000

          k = 0.0500 0.3500 0.4500 (  8275 PWs)   bands (ev):

     0.1258   0.1258   0.7064   0.7064   1.7247   1.7247   2.1204   2.1204
     6.9486   6.9486   7.3434   7.3434   8.3805   8.3805   8.9749   8.9749
    10.8522  10.8522  11.3896  11.3896  12.4286  12.4286  12.9640  12.9640
    14.1940  14.1940  14.5228  14.5228  15.4457  15.4457  16.7541  16.7541
    18.4167  18.4167  18.9960  18.9960  19.5981  19.5981  19.7945  19.7945
    21.3794  21.3794  21.6916  21.6916  22.1042  22.1042  22.5897  22.5897
    24.1353  24.1353  25.6003  25.6003  26.2588  26.2588  26.3737  26.3737
    26.5108  26.5108  26.7311  26.7311  27.3815  27.3815  28.3420  28.3420

     occupation numbers 
     1.0000   1.0000   1.0000   1.0000   1.0000   1.0000   1.0000   1.0000
     1.0000   1.0000   1.0000   1.0000   1.0000   1.0000   1.0000   1.0000
     1.0000   1.0000   1.0000   1.0000   1.0000   1.0000   1.0000   1.0000
     1.0000   1.0000   1.0000   1.0000   1.0000   1.0000   1.0000   1.0000
     1.0000   1.0000   1.0000   1.0000   1.0000   1.0000   1.0000   1.0000
     1.0000   1.0000   1.0000   1.0000   1.0000   1.0000   1.0000   1.0000
     1.0000   1.0000   1.0000   1.0000   1.0000   1.0000   1.0000   1.0000
     1.0000   1.0000   1.0000   1.0000   1.0000   1.0000   1.0000   1.0000

          k = 0.0500 0.4500 0.4500 (  8275 PWs)   bands (ev):

     0.5901   0.5901   1.1365   1.1365   1.1365   1.1365   1.6257   1.6257
     7.2017   7.2017   7.6958   7.6958   7.6958   7.6958   8.2515   8.2515
    11.3153  11.3153  11.8539  11.8539  11.8539  11.8539  12.3913  12.3913
    15.5662  15.5662  15.7277  15.7277  15.7277  15.7277  16.7056  16.7056
    18.5863  18.5863  19.5502  19.5502  19.5502  19.5502  19.9533  19.9533
    21.0373  21.0373  21.2797  21.2797  21.2798  21.2798  22.2167  22.2167
    24.2301  24.2301  25.2952  25.2952  25.2952  25.2952  25.4175  25.4175
    27.1696  27.1696  27.3376  27.3376  27.3376  27.3376  28.3363  28.3363

     occupation numbers 
     1.0000   1.0000   1.0000   1.0000   1.0000   1.0000   1.0000   1.0000
     1.0000   1.0000   1.0000   1.0000   1.0000   1.0000   1.0000   1.0000
     1.0000   1.0000   1.0000   1.0000   1.0000   1.0000   1.0000   1.0000
     1.0000   1.0000   1.0000   1.0000   1.0000   1.0000   1.0000   1.0000
     1.0000   1.0000   1.0000   1.0000   1.0000   1.0000   1.0000   1.0000
     1.0000   1.0000   1.0000   1.0000   1.0000   1.0000   1.0000   1.0000
     1.0000   1.0000   1.0000   1.0000   1.0000   1.0000   1.0000   1.0000
     1.0000   1.0000   1.0000   1.0000   1.0000   1.0000   1.0000   1.0000

          k = 0.1500 0.1500 0.1500 (  8277 PWs)   bands (ev):

    -1.5000  -1.5000   2.2902   2.2902   2.2902   2.2902   2.2902   2.2902
     8.5437   8.5437   8.5438   8.5438   8.5438   8.5438  10.3827  10.3827
    10.3827  10.3827  10.3827  10.3827  12.5682  12.5682  12.9666  12.9666
    12.9666  12.9666  12.9666  12.9666  14.8430  14.8430  14.8430  14.8430
    14.8430  14.8430  15.5632  15.5632  16.6621  16.6621  20.7365  20.7365
    23.4733  23.4733  23.4733  23.4733  23.4733  23.4733  23.7450  23.7450
    24.7836  24.7836  25.4357  25.4357  26.9671  26.9671  27.5755  27.5755
    27.6399  27.6399  27.6490  27.6490  27.6490  27.6490  27.6490  27.6490

     occupation numbers 
     1.0000   1.0000   1.0000   1.0000   1.0000   1.0000   1.0000   1.0000
     1.0000   1.0000   1.0000   1.0000   1.0000   1.0000   1.0000   1.0000
     1.0000   1.0000   1.0000   1.0000   1.0000   1.0000   1.0000   1.0000
     1.0000   1.0000   1.0000   1.0000   1.0000   1.0000   1.0000   1.0000
     1.0000   1.0000   1.0000   1.0000   1.0000   1.0000   1.0000   1.0000
     1.0000   1.0000   1.0000   1.0000   1.0000   1.0000   1.0000   1.0000
     1.0000   1.0000   1.0000   1.0000   1.0000   1.0000   1.0000   1.0000
     1.0000   1.0000   1.0000   1.0000   1.0000   1.0000   1.0000   1.0000

          k = 0.1500 0.1500 0.2500 (  8289 PWs)   bands (ev):

    -1.2419  -1.2419   1.6481   1.6481   2.4125   2.4125   2.4125   2.4125
     7.8858   7.8858   7.8859   7.8859   8.6360   8.6360  10.4580  10.4580
    10.4580  10.4580  11.6655  11.6655  11.6713  11.6713  12.8621  12.8621
    12.8621  12.8621  13.2400  13.2400  15.1732  15.1732  15.3447  15.3447
    15.9967  15.9967  15.9967  15.9967  16.5752  16.5752  21.3537  21.3537
    22.5029  22.5029  23.6864  23.6864  24.4083  24.4083  24.4083  24.4083
    24.5049  24.5049  25.4506  25.4506  26.0770  26.0770  26.0770  26.0770
    26.6566  26.6566  27.0546  27.0546  28.2742  28.2742  28.4265  28.4265

     occupation numbers 
     1.0000   1.0000   1.0000   1.0000   1.0000   1.0000   1.0000   1.0000
     1.0000   1.0000   1.0000   1.0000   1.0000   1.0000   1.0000   1.0000
     1.0000   1.0000   1.0000   1.0000   1.0000   1.0000   1.0000   1.0000
     1.0000   1.0000   1.0000   1.0000   1.0000   1.0000   1.0000   1.0000
     1.0000   1.0000   1.0000   1.0000   1.0000   1.0000   1.0000   1.0000
     1.0000   1.0000   1.0000   1.0000   1.0000   1.0000   1.0000   1.0000
     1.0000   1.0000   1.0000   1.0000   1.0000   1.0000   1.0000   1.0000
     1.0000   1.0000   1.0000   1.0000   1.0000   1.0000   1.0000   1.0000

          k = 0.1500 0.1500 0.3500 (  8284 PWs)   bands (ev):

    -0.8587  -0.8587   0.9346   0.9346   2.5500   2.5500   2.5500   2.5500
     7.3049   7.3049   7.3049   7.3049   8.9439   8.9439  10.7357  10.7357
    10.7357  10.7357  10.8058  10.8058  12.3996  12.3996  12.3996  12.3996
    12.9860  12.9860  13.7350  13.7350  14.8917  14.8917  15.7437  15.7437
    16.1847  16.1847  17.6265  17.6265  17.6265  17.6265  20.2113  20.2113
    22.9109  22.9109  23.9903  23.9903  23.9903  23.9903  23.9915  23.9915
    24.7566  24.7566  25.5416  25.5416  25.7198  25.7198  25.7198  25.7198
    26.3390  26.3390  26.3903  26.3903  27.5341  27.5341  29.1779  29.1779

     occupation numbers 
     1.0000   1.0000   1.0000   1.0000   1.0000   1.0000   1.0000   1.0000
     1.0000   1.0000   1.0000   1.0000   1.0000   1.0000   1.0000   1.0000
     1.0000   1.0000   1.0000   1.0000   1.0000   1.0000   1.0000   1.0000
     1.0000   1.0000   1.0000   1.0000   1.0000   1.0000   1.0000   1.0000
     1.0000   1.0000   1.0000   1.0000   1.0000   1.0000   1.0000   1.0000
     1.0000   1.0000   1.0000   1.0000   1.0000   1.0000   1.0000   1.0000
     1.0000   1.0000   1.0000   1.0000   1.0000   1.0000   1.0000   1.0000
     1.0000   1.0000   1.0000   1.0000   1.0000   1.0000   1.0000   1.0000

          k = 0.1500 0.1500 0.4500 (  8277 PWs)   bands (ev):

    -0.3574  -0.3574   0.2490   0.2490   2.6450   2.6450   2.6450   2.6450
     6.9719   6.9719   6.9719   6.9719   9.4230   9.4230  10.0497  10.0497
    11.0800  11.0800  11.0800  11.0800  11.9329  11.9329  11.9329  11.9329
    13.7969  13.7969  14.3602  14.3602  14.6792  14.6792  15.5524  15.5524
    16.7455  16.7455  18.3175  18.3175  19.3113  19.3113  19.3113  19.3113
    22.1165  22.1165  22.1165  22.1165  24.1976  24.1976  24.3329  24.3329
    25.2478  25.2478  25.3879  25.3879  25.7557  25.7557  26.4262  26.4262
    26.7209  26.7209  27.1236  27.1236  27.1236  27.1236  27.6195  27.6195

     occupation numbers 
     1.0000   1.0000   1.0000   1.0000   1.0000   1.0000   1.0000   1.0000
     1.0000   1.0000   1.0000   1.0000   1.0000   1.0000   1.0000   1.0000
     1.0000   1.0000   1.0000   1.0000   1.0000   1.0000   1.0000   1.0000
     1.0000   1.0000   1.0000   1.0000   1.0000   1.0000   1.0000   1.0000
     1.0000   1.0000   1.0000   1.0000   1.0000   1.0000   1.0000   1.0000
     1.0000   1.0000   1.0000   1.0000   1.0000   1.0000   1.0000   1.0000
     1.0000   1.0000   1.0000   1.0000   1.0000   1.0000   1.0000   1.0000
     1.0000   1.0000   1.0000   1.0000   1.0000   1.0000   1.0000   1.0000

          k = 0.1500 0.2500 0.2500 (  8292 PWs)   bands (ev):

    -0.9868  -0.9868   1.8194   1.8194   1.8194   1.8194   2.4765   2.4765
     7.2333   7.2333   7.8822   7.8822   7.8822   7.8822  10.6321  10.6321
    10.7650  10.7650  11.7904  11.7904  11.7904  11.7904  13.1592  13.1592
    13.1592  13.1592  13.6237  13.6237  15.2324  15.2324  16.2005  16.2005
    16.2936  16.2936  16.2936  16.2936  16.8195  16.8195  21.6036  21.6036
    22.2189  22.2189  23.3028  23.3028  24.5692  24.5692  24.5692  24.5692
    25.2599  25.2599  25.3855  25.3855  25.4751  25.4751  25.4751  25.4751
    25.6693  25.6693  27.3275  27.3275  27.8457  27.8457  28.0047  28.0047

     occupation numbers 
     1.0000   1.0000   1.0000   1.0000   1.0000   1.0000   1.0000   1.0000
     1.0000   1.0000   1.0000   1.0000   1.0000   1.0000   1.0000   1.0000
     1.0000   1.0000   1.0000   1.0000   1.0000   1.0000   1.0000   1.0000
     1.0000   1.0000   1.0000   1.0000   1.0000   1.0000   1.0000   1.0000
     1.0000   1.0000   1.0000   1.0000   1.0000   1.0000   1.0000   1.0000
     1.0000   1.0000   1.0000   1.0000   1.0000   1.0000   1.0000   1.0000
     1.0000   1.0000   1.0000   1.0000   1.0000   1.0000   1.0000   1.0000
     1.0000   1.0000   1.0000   1.0000   1.0000   1.0000   1.0000   1.0000

          k = 0.1500 0.2500 0.3500 (  8284 PWs)   bands (ev):

    -0.6089  -0.6089   1.1406   1.1406   2.0447   2.0447   2.5080   2.5080
     6.7466   6.7466   7.2053   7.2053   8.1240   8.1240   9.9112   9.9112
    10.9544  10.9544  11.9631  11.9631  12.8227  12.8227  13.0354  13.0354
    13.6235  13.6235  13.8199  13.8199  14.7926  14.7926  16.7494  16.7494
    16.7744  16.7744  17.3083  17.3083  17.8802  17.8802  20.5678  20.5678
    22.4791  22.4791  23.2481  23.2481  23.3667  23.3667  24.0174  24.0174
    24.5354  24.5354  25.0625  25.0625  25.6926  25.6926  25.8508  25.8508
    26.4063  26.4063  27.0030  27.0030  27.3537  27.3537  27.9050  27.9050

     occupation numbers 
     1.0000   1.0000   1.0000   1.0000   1.0000   1.0000   1.0000   1.0000
     1.0000   1.0000   1.0000   1.0000   1.0000   1.0000   1.0000   1.0000
     1.0000   1.0000   1.0000   1.0000   1.0000   1.0000   1.0000   1.0000
     1.0000   1.0000   1.0000   1.0000   1.0000   1.0000   1.0000   1.0000
     1.0000   1.0000   1.0000   1.0000   1.0000   1.0000   1.0000   1.0000
     1.0000   1.0000   1.0000   1.0000   1.0000   1.0000   1.0000   1.0000
     1.0000   1.0000   1.0000   1.0000   1.0000   1.0000   1.0000   1.0000
     1.0000   1.0000   1.0000   1.0000   1.0000   1.0000   1.0000   1.0000

          k = 0.1500 0.2500 0.4500 (  8276 PWs)   bands (ev):

    -0.1160  -0.1160   0.4769   0.4769   2.2762   2.2762   2.4467   2.4467
     6.5668   6.5668   6.7358   6.7358   8.5636   8.5636   9.1675   9.1675
    11.3742  11.3742  11.8075  11.8075  12.8465  12.8465  13.2320  13.2320
    13.7114  13.7114  14.2605  14.2605  15.0938  15.0938  16.1744  16.1744
    17.5502  17.5502  18.8358  18.8358  18.8921  18.8921  19.4328  19.4328
    21.6142  21.6142  22.1766  22.1766  23.3642  23.3642  23.9797  23.9797
    24.0521  24.0521  25.0083  25.0083  26.0022  26.0022  26.3335  26.3335
    26.7573  26.7573  27.0339  27.0339  27.1970  27.1970  27.2999  27.2999

     occupation numbers 
     1.0000   1.0000   1.0000   1.0000   1.0000   1.0000   1.0000   1.0000
     1.0000   1.0000   1.0000   1.0000   1.0000   1.0000   1.0000   1.0000
     1.0000   1.0000   1.0000   1.0000   1.0000   1.0000   1.0000   1.0000
     1.0000   1.0000   1.0000   1.0000   1.0000   1.0000   1.0000   1.0000
     1.0000   1.0000   1.0000   1.0000   1.0000   1.0000   1.0000   1.0000
     1.0000   1.0000   1.0000   1.0000   1.0000   1.0000   1.0000   1.0000
     1.0000   1.0000   1.0000   1.0000   1.0000   1.0000   1.0000   1.0000
     1.0000   1.0000   1.0000   1.0000   1.0000   1.0000   1.0000   1.0000

          k = 0.1500 0.3500 0.3500 (  8279 PWs)   bands (ev):

    -0.2401  -0.2401   1.4301   1.4301   1.4301   1.4301   2.3689   2.3689
     6.4285   6.4285   7.3707   7.3707   7.3707   7.3707   9.0656   9.0656
    11.3002  11.3002  12.7393  12.7393  12.7393  12.7393  13.9993  13.9993
    13.9993  13.9993  14.3370  14.3370  14.5488  14.5488  17.1383  17.1383
    17.4483  17.4483  18.2635  18.2635  18.2635  18.2635  20.8259  20.8259
    21.6782  21.6782  22.5157  22.5157  22.7074  22.7074  22.7074  22.7074
    23.6074  23.6074  25.8365  25.8365  25.8366  25.8366  25.8793  25.8793
    26.0310  26.0310  27.4280  27.4280  27.4280  27.4280  27.9926  27.9926

     occupation numbers 
     1.0000   1.0000   1.0000   1.0000   1.0000   1.0000   1.0000   1.0000
     1.0000   1.0000   1.0000   1.0000   1.0000   1.0000   1.0000   1.0000
     1.0000   1.0000   1.0000   1.0000   1.0000   1.0000   1.0000   1.0000
     1.0000   1.0000   1.0000   1.0000   1.0000   1.0000   1.0000   1.0000
     1.0000   1.0000   1.0000   1.0000   1.0000   1.0000   1.0000   1.0000
     1.0000   1.0000   1.0000   1.0000   1.0000   1.0000   1.0000   1.0000
     1.0000   1.0000   1.0000   1.0000   1.0000   1.0000   1.0000   1.0000
     1.0000   1.0000   1.0000   1.0000   1.0000   1.0000   1.0000   1.0000

          k = 0.1500 0.3500 0.4500 (  8264 PWs)   bands (ev):

     0.2379   0.2379   0.8065   0.8065   1.7712   1.7712   2.1084   2.1084
     6.4489   6.4489   6.7868   6.7868   7.7621   7.7621   8.3377   8.3377
    11.7441  11.7441  12.2487  12.2487  13.2602  13.2602  13.7962  13.7962
    14.3371  14.3371  14.6508  14.6508  15.5310  15.5310  16.7500  16.7500
    18.5373  18.5373  18.8152  18.8152  19.5220  19.5220  19.7040  19.7040
    21.2240  21.2240  21.7138  21.7138  22.1291  22.1291  22.2436  22.2436
    23.4500  23.4500  24.8842  24.8842  25.7869  25.7869  26.0597  26.0597
    26.4909  26.4909  26.8782  26.8782  27.6906  27.6906  27.7557  27.7557

     occupation numbers 
     1.0000   1.0000   1.0000   1.0000   1.0000   1.0000   1.0000   1.0000
     1.0000   1.0000   1.0000   1.0000   1.0000   1.0000   1.0000   1.0000
     1.0000   1.0000   1.0000   1.0000   1.0000   1.0000   1.0000   1.0000
     1.0000   1.0000   1.0000   1.0000   1.0000   1.0000   1.0000   1.0000
     1.0000   1.0000   1.0000   1.0000   1.0000   1.0000   1.0000   1.0000
     1.0000   1.0000   1.0000   1.0000   1.0000   1.0000   1.0000   1.0000
     1.0000   1.0000   1.0000   1.0000   1.0000   1.0000   1.0000   1.0000
     1.0000   1.0000   1.0000   1.0000   1.0000   1.0000   1.0000   1.0000

          k = 0.1500 0.4500 0.4500 (  8264 PWs)   bands (ev):

     0.6910   0.6910   1.2176   1.2176   1.2176   1.2176   1.6726   1.6726
     6.6461   6.6461   7.1041   7.1041   7.1042   7.1042   7.6357   7.6357
    12.2015  12.2015  12.7232  12.7232  12.7232  12.7232  13.2521  13.2521
    15.6749  15.6749  15.8294  15.8294  15.8294  15.8294  16.7593  16.7593
    18.7140  18.7140  19.5920  19.5920  19.5921  19.5921  20.0472  20.0472
    20.8300  20.8300  21.0555  21.0555  21.0556  21.0556  21.9144  21.9144
    23.4975  23.4975  24.5357  24.5357  24.5357  24.5357  24.6543  24.6543
    27.0051  27.0051  27.5666  27.5666  27.5667  27.5667  28.2143  28.2143

     occupation numbers 
     1.0000   1.0000   1.0000   1.0000   1.0000   1.0000   1.0000   1.0000
     1.0000   1.0000   1.0000   1.0000   1.0000   1.0000   1.0000   1.0000
     1.0000   1.0000   1.0000   1.0000   1.0000   1.0000   1.0000   1.0000
     1.0000   1.0000   1.0000   1.0000   1.0000   1.0000   1.0000   1.0000
     1.0000   1.0000   1.0000   1.0000   1.0000   1.0000   1.0000   1.0000
     1.0000   1.0000   1.0000   1.0000   1.0000   1.0000   1.0000   1.0000
     1.0000   1.0000   1.0000   1.0000   1.0000   1.0000   1.0000   1.0000
     1.0000   1.0000   1.0000   1.0000   1.0000   1.0000   1.0000   1.0000

          k = 0.2500 0.2500 0.2500 (  8279 PWs)   bands (ev):

    -0.7356  -0.7356   1.9536   1.9536   1.9536   1.9536   1.9536   1.9536
     7.1562   7.1562   7.1563   7.1563   7.1563   7.1563   9.8852   9.8852
    11.9903  11.9903  11.9903  11.9903  11.9903  11.9903  13.8816  13.8816
    13.8816  13.8816  13.8816  13.8816  15.6441  15.6441  16.5047  16.5047
    16.5047  16.5047  16.5047  16.5047  16.7768  16.7768  21.4587  21.4587
    22.1081  22.1081  22.9663  22.9663  24.3929  24.3929  24.9478  24.9478
    24.9478  24.9478  24.9478  24.9478  25.4425  25.4425  25.4425  25.4425
    25.4426  25.4426  27.1108  27.1108  27.1108  27.1108  27.1108  27.1108

     occupation numbers 
     1.0000   1.0000   1.0000   1.0000   1.0000   1.0000   1.0000   1.0000
     1.0000   1.0000   1.0000   1.0000   1.0000   1.0000   1.0000   1.0000
     1.0000   1.0000   1.0000   1.0000   1.0000   1.0000   1.0000   1.0000
     1.0000   1.0000   1.0000   1.0000   1.0000   1.0000   1.0000   1.0000
     1.0000   1.0000   1.0000   1.0000   1.0000   1.0000   1.0000   1.0000
     1.0000   1.0000   1.0000   1.0000   1.0000   1.0000   1.0000   1.0000
     1.0000   1.0000   1.0000   1.0000   1.0000   1.0000   1.0000   1.0000
     1.0000   1.0000   1.0000   1.0000   1.0000   1.0000   1.0000   1.0000

          k = 0.2500 0.2500 0.3500 (  8281 PWs)   bands (ev):

    -0.3644  -0.3644   1.3249   1.3249   2.1069   2.1069   2.1069   2.1069
     6.5497   6.5497   6.5497   6.5497   7.3381   7.3381   9.0461   9.0461
    12.2888  12.2888  12.2889  12.2889  13.4412  13.4412  13.9112  13.9112
    13.9112  13.9112  14.3140  14.3140  15.4311  15.4311  16.7442  16.7442
    16.9988  16.9988  17.5801  17.5801  17.5801  17.5801  20.7280  20.7280
    21.9743  21.9743  22.8863  22.8863  23.4176  23.4176  23.4177  23.4177
    24.3311  24.3311  24.5456  24.5456  25.1272  25.1272  25.9929  25.9929
    25.9929  25.9929  26.7179  26.7179  27.5853  27.5853  27.5853  27.5853

     occupation numbers 
     1.0000   1.0000   1.0000   1.0000   1.0000   1.0000   1.0000   1.0000
     1.0000   1.0000   1.0000   1.0000   1.0000   1.0000   1.0000   1.0000
     1.0000   1.0000   1.0000   1.0000   1.0000   1.0000   1.0000   1.0000
     1.0000   1.0000   1.0000   1.0000   1.0000   1.0000   1.0000   1.0000
     1.0000   1.0000   1.0000   1.0000   1.0000   1.0000   1.0000   1.0000
     1.0000   1.0000   1.0000   1.0000   1.0000   1.0000   1.0000   1.0000
     1.0000   1.0000   1.0000   1.0000   1.0000   1.0000   1.0000   1.0000
     1.0000   1.0000   1.0000   1.0000   1.0000   1.0000   1.0000   1.0000

          k = 0.2500 0.2500 0.4500 (  8264 PWs)   bands (ev):

     0.1174   0.1174   0.6919   0.6919   2.2145   2.2145   2.2145   2.2145
     6.2033   6.2033   6.2033   6.2033   7.7392   7.7392   8.3190   8.3190
    12.5834  12.5834  12.5834  12.5834  13.6374  13.6374  13.6374  13.6374
    14.4187  14.4187  14.9704  14.9704  15.2389  15.2389  16.2439  16.2439
    17.7908  17.7908  19.0665  19.0665  19.0816  19.0816  19.0816  19.0816
    21.6334  21.6334  21.6335  21.6335  22.9550  22.9550  23.3148  23.3148
    23.7042  23.7042  24.2791  24.2791  25.1782  25.1782  26.2024  26.2024
    26.3436  26.3436  26.3437  26.3437  26.9677  26.9677  27.3864  27.3864

     occupation numbers 
     1.0000   1.0000   1.0000   1.0000   1.0000   1.0000   1.0000   1.0000
     1.0000   1.0000   1.0000   1.0000   1.0000   1.0000   1.0000   1.0000
     1.0000   1.0000   1.0000   1.0000   1.0000   1.0000   1.0000   1.0000
     1.0000   1.0000   1.0000   1.0000   1.0000   1.0000   1.0000   1.0000
     1.0000   1.0000   1.0000   1.0000   1.0000   1.0000   1.0000   1.0000
     1.0000   1.0000   1.0000   1.0000   1.0000   1.0000   1.0000   1.0000
     1.0000   1.0000   1.0000   1.0000   1.0000   1.0000   1.0000   1.0000
     1.0000   1.0000   1.0000   1.0000   1.0000   1.0000   1.0000   1.0000

          k = 0.2500 0.3500 0.3500 (  8258 PWs)   bands (ev):

    -0.0051  -0.0051   1.5719   1.5719   1.5719   1.5719   2.1272   2.1272
     6.0760   6.0760   6.6338   6.6338   6.6338   6.6338   8.2218   8.2218
    12.6466  12.6466  13.6131  13.6131  13.6131  13.6131  14.4967  14.4967
    14.4967  14.4967  14.7947  14.7947  15.3449  15.3449  16.9999  16.9999
    17.7284  17.7284  18.0016  18.0016  18.0016  18.0016  20.7784  20.7784
    21.7394  21.7394  21.8993  21.8993  22.7675  22.7675  22.7675  22.7675
    23.0640  23.0640  24.4798  24.4798  24.9762  24.9762  25.1286  25.1286
    25.1286  25.1286  27.0545  27.0545  27.0545  27.0545  27.8184  27.8184

     occupation numbers 
     1.0000   1.0000   1.0000   1.0000   1.0000   1.0000   1.0000   1.0000
     1.0000   1.0000   1.0000   1.0000   1.0000   1.0000   1.0000   1.0000
     1.0000   1.0000   1.0000   1.0000   1.0000   1.0000   1.0000   1.0000
     1.0000   1.0000   1.0000   1.0000   1.0000   1.0000   1.0000   1.0000
     1.0000   1.0000   1.0000   1.0000   1.0000   1.0000   1.0000   1.0000
     1.0000   1.0000   1.0000   1.0000   1.0000   1.0000   1.0000   1.0000
     1.0000   1.0000   1.0000   1.0000   1.0000   1.0000   1.0000   1.0000
     1.0000   1.0000   1.0000   1.0000   1.0000   1.0000   1.0000   1.0000

          k = 0.2500 0.3500 0.4500 (  8264 PWs)   bands (ev):

     0.4566   0.4566   0.9970   0.9970   1.8342   1.8342   2.0397   2.0397
     5.9251   5.9251   6.1312   6.1312   6.9731   6.9731   7.5165   7.5165
    13.0556  13.0556  13.4449  13.4449  14.3790  14.3790  14.6709  14.6709
    14.9088  14.9088  14.9172  14.9172  15.6896  15.6896  16.7332  16.7332
    18.6323  18.6323  18.7716  18.7716  19.3199  19.3199  19.6394  19.6394
    21.1314  21.1314  21.7095  21.7095  21.7489  21.7489  22.1788  22.1788
    22.6421  22.6421  23.9209  23.9209  24.8487  24.8487  24.9848  24.9848
    25.0703  25.0703  25.8241  25.8241  26.9752  26.9752  27.3127  27.3127

     occupation numbers 
     1.0000   1.0000   1.0000   1.0000   1.0000   1.0000   1.0000   1.0000
     1.0000   1.0000   1.0000   1.0000   1.0000   1.0000   1.0000   1.0000
     1.0000   1.0000   1.0000   1.0000   1.0000   1.0000   1.0000   1.0000
     1.0000   1.0000   1.0000   1.0000   1.0000   1.0000   1.0000   1.0000
     1.0000   1.0000   1.0000   1.0000   1.0000   1.0000   1.0000   1.0000
     1.0000   1.0000   1.0000   1.0000   1.0000   1.0000   1.0000   1.0000
     1.0000   1.0000   1.0000   1.0000   1.0000   1.0000   1.0000   1.0000
     1.0000   1.0000   1.0000   1.0000   1.0000   1.0000   1.0000   1.0000

          k = 0.2500 0.4500 0.4500 (  8268 PWs)   bands (ev):

     0.8833   0.8833   1.3628   1.3628   1.3628   1.3628   1.7361   1.7361
     5.9908   5.9908   6.3654   6.3654   6.3654   6.3654   6.8469   6.8469
    13.5124  13.5124  13.9818  13.9818  13.9818  13.9818  14.4806  14.4806
    15.8902  15.8902  16.0290  16.0290  16.0290  16.0290  16.8522  16.8522
    18.9619  18.9619  19.6022  19.6022  19.6022  19.6022  20.1356  20.1356
    20.6181  20.6181  20.8187  20.8187  20.8187  20.8187  21.4349  21.4349
    22.6226  22.6226  23.6055  23.6055  23.6055  23.6055  23.7015  23.7015
    25.3682  25.3682  26.0295  26.0295  26.0295  26.0295  26.5656  26.5656

     occupation numbers 
     1.0000   1.0000   1.0000   1.0000   1.0000   1.0000   1.0000   1.0000
     1.0000   1.0000   1.0000   1.0000   1.0000   1.0000   1.0000   1.0000
     1.0000   1.0000   1.0000   1.0000   1.0000   1.0000   1.0000   1.0000
     1.0000   1.0000   1.0000   1.0000   1.0000   1.0000   1.0000   1.0000
     1.0000   1.0000   1.0000   1.0000   1.0000   1.0000   1.0000   1.0000
     1.0000   1.0000   1.0000   1.0000   1.0000   1.0000   1.0000   1.0000
     1.0000   1.0000   1.0000   1.0000   1.0000   1.0000   1.0000   1.0000
     1.0000   1.0000   1.0000   1.0000   1.0000   1.0000   1.0000   1.0000

          k = 0.3500 0.3500 0.3500 (  8270 PWs)   bands (ev):

     0.3367   0.3367   1.7353   1.7353   1.7353   1.7353   1.7353   1.7353
     6.0161   6.0161   6.0161   6.0161   6.0161   6.0161   7.4198   7.4198
    14.1064  14.1064  14.1064  14.1064  14.1064  14.1064  15.1938  15.1938
    15.1939  15.1939  15.1939  15.1939  15.8761  15.8761  16.9988  16.9988
    18.1633  18.1633  18.1634  18.1634  18.1634  18.1634  20.6612  20.6612
    21.4986  21.4986  21.5817  21.5817  22.4595  22.4595  22.4595  22.4595
    22.4595  22.4595  23.5263  23.5263  23.9889  23.9889  23.9889  23.9889
    23.9889  23.9889  26.1733  26.1733  26.1733  26.1733  26.1733  26.1733

     occupation numbers 
     1.0000   1.0000   1.0000   1.0000   1.0000   1.0000   1.0000   1.0000
     1.0000   1.0000   1.0000   1.0000   1.0000   1.0000   1.0000   1.0000
     1.0000   1.0000   1.0000   1.0000   1.0000   1.0000   1.0000   1.0000
     1.0000   1.0000   1.0000   1.0000   1.0000   1.0000   1.0000   1.0000
     1.0000   1.0000   1.0000   1.0000   1.0000   1.0000   1.0000   1.0000
     1.0000   1.0000   1.0000   1.0000   1.0000   1.0000   1.0000   1.0000
     1.0000   1.0000   1.0000   1.0000   1.0000   1.0000   1.0000   1.0000
     1.0000   1.0000   1.0000   1.0000   1.0000   1.0000   1.0000   1.0000

          k = 0.3500 0.3500 0.4500 (  8262 PWs)   bands (ev):

     0.7678   0.7678   1.2541   1.2541   1.8513   1.8513   1.8513   1.8513
     5.6611   5.6611   5.6612   5.6612   6.2600   6.2600   6.7475   6.7475
    14.3909  14.3909  14.3909  14.3909  15.1717  15.1717  15.4107  15.4107
    15.4107  15.4107  15.6785  15.6785  15.9854  15.9854  16.8454  16.8454
    18.8081  18.8081  19.1054  19.1054  19.1054  19.1054  19.7772  19.7772
    21.1648  21.1648  21.1649  21.1649  21.4652  21.4652  21.8963  21.8963
    21.9749  21.9749  22.9332  22.9332  23.7945  23.7945  23.7945  23.7945
    23.8064  23.8064  24.7379  24.7379  25.6615  25.6615  25.6615  25.6615

     occupation numbers 
     1.0000   1.0000   1.0000   1.0000   1.0000   1.0000   1.0000   1.0000
     1.0000   1.0000   1.0000   1.0000   1.0000   1.0000   1.0000   1.0000
     1.0000   1.0000   1.0000   1.0000   1.0000   1.0000   1.0000   1.0000
     1.0000   1.0000   1.0000   1.0000   1.0000   1.0000   1.0000   1.0000
     1.0000   1.0000   1.0000   1.0000   1.0000   1.0000   1.0000   1.0000
     1.0000   1.0000   1.0000   1.0000   1.0000   1.0000   1.0000   1.0000
     1.0000   1.0000   1.0000   1.0000   1.0000   1.0000   1.0000   1.0000
     1.0000   1.0000   1.0000   1.0000   1.0000   1.0000   1.0000   1.0000

          k = 0.3500 0.4500 0.4500 (  8264 PWs)   bands (ev):

     1.1434   1.1434   1.5309   1.5309   1.5309   1.5309   1.7526   1.7526
     5.5214   5.5214   5.7435   5.7435   5.7435   5.7435   6.1316   6.1316
    14.8985  14.8985  15.2126  15.2126  15.2126  15.2126  15.6345  15.6345
    16.2338  16.2338  16.3539  16.3539  16.3539  16.3539  17.0025  17.0025
    19.3044  19.3044  19.5368  19.5368  19.5368  19.5368  20.0042  20.0042
    20.6674  20.6674  20.7555  20.7555  20.7555  20.7555  20.9319  20.9319
    21.8764  21.8764  22.6408  22.6408  22.6409  22.6409  22.7525  22.7525
    23.7660  23.7660  24.4452  24.4452  24.4452  24.4452  24.8224  24.8224

     occupation numbers 
     1.0000   1.0000   1.0000   1.0000   1.0000   1.0000   1.0000   1.0000
     1.0000   1.0000   1.0000   1.0000   1.0000   1.0000   1.0000   1.0000
     1.0000   1.0000   1.0000   1.0000   1.0000   1.0000   1.0000   1.0000
     1.0000   1.0000   1.0000   1.0000   1.0000   1.0000   1.0000   1.0000
     1.0000   1.0000   1.0000   1.0000   1.0000   1.0000   1.0000   1.0000
     1.0000   1.0000   1.0000   1.0000   1.0000   1.0000   1.0000   1.0000
     1.0000   1.0000   1.0000   1.0000   1.0000   1.0000   1.0000   1.0000
     1.0000   1.0000   1.0000   1.0000   1.0000   1.0000   1.0000   1.0000

          k = 0.4500 0.4500 0.4500 (  8258 PWs)   bands (ev):

     1.4245   1.4245   1.6508   1.6508   1.6508   1.6508   1.6508   1.6508
     5.3847   5.3847   5.3847   5.3847   5.3847   5.3847   5.6113   5.6113
    15.8583  15.8583  15.8583  15.8583  15.8583  15.8583  16.1096  16.1096
    16.8424  16.8424  16.8424  16.8424  16.8424  16.8424  17.2343  17.2343
    19.6462  19.6462  19.6462  19.6462  19.6462  19.6462  19.8255  19.8255
    20.5802  20.5802  20.5802  20.5802  20.5802  20.5802  20.6123  20.6123
    21.5490  21.5490  21.9121  21.9121  21.9121  21.9121  21.9121  21.9121
    23.0178  23.0178  23.5067  23.5067  23.5067  23.5067  23.5067  23.5067

     occupation numbers 
     1.0000   1.0000   1.0000   1.0000   1.0000   1.0000   1.0000   1.0000
     1.0000   1.0000   1.0000   1.0000   1.0000   1.0000   1.0000   1.0000
     1.0000   1.0000   1.0000   1.0000   1.0000   1.0000   1.0000   1.0000
     1.0000   1.0000   1.0000   1.0000   1.0000   1.0000   1.0000   1.0000
     1.0000   1.0000   1.0000   1.0000   1.0000   1.0000   1.0000   1.0000
     1.0000   1.0000   1.0000   1.0000   1.0000   1.0000   1.0000   1.0000
     1.0000   1.0000   1.0000   1.0000   1.0000   1.0000   1.0000   1.0000
     1.0000   1.0000   1.0000   1.0000   1.0000   1.0000   1.0000   1.0000

     highest occupied level (ev):    29.5676

!    total energy              =   -3131.16280573 Ry
     Harris-Foulkes estimate   =   -3131.16280595 Ry
     estimated scf accuracy    <       0.00000023 Ry

     total all-electron energy =   -119218.218933 Ry

     The total energy is the sum of the following terms:

     one-electron contribution =     153.67266484 Ry
     hartree contribution      =       5.40233641 Ry
     xc contribution           =    -157.39960117 Ry
     ewald contribution        =    -332.73169529 Ry
     one-center paw contrib.   =   -2800.10651051 Ry
      -> PAW hartree energy AE =      42.87697209 Ry
      -> PAW hartree energy PS =     -42.76423850 Ry
      -> PAW xc energy AE      =    -381.08151150 Ry
      -> PAW xc energy PS      =      22.83690116 Ry
      -> total E_H with PAW    =       5.51507000 Ry
      -> total E_XC with PAW   =    -515.64421151 Ry

     convergence has been achieved in  11 iterations

     Forces acting on atoms (cartesian axes, Ry/au):

     atom    1 type  1   force =     0.00000000    0.00000000    0.00000000
     atom    2 type  1   force =     0.00000000    0.00000000    0.00000000
     atom    3 type  1   force =     0.00000000    0.00000000    0.00000000
     atom    4 type  1   force =     0.00000000    0.00000000    0.00000000
     atom    5 type  2   force =     0.00000000    0.00000000    0.00000000
     atom    6 type  2   force =     0.00000000   -0.00000000    0.00000000
     atom    7 type  2   force =     0.00000000    0.00000000    0.00000000
     atom    8 type  2   force =     0.00000000    0.00000000    0.00000000
     The non-local contrib.  to forces
     atom    1 type  1   force =     0.00000000    0.00000000    0.00000000
     atom    2 type  1   force =     0.00000000    0.00000000    0.00000000
     atom    3 type  1   force =     0.00000000    0.00000000    0.00000000
     atom    4 type  1   force =     0.00000000    0.00000000    0.00000000
     atom    5 type  2   force =     0.00000000    0.00000000    0.00000000
     atom    6 type  2   force =     0.00000000    0.00000000    0.00000000
     atom    7 type  2   force =     0.00000000    0.00000000    0.00000000
     atom    8 type  2   force =     0.00000000    0.00000000    0.00000000
     The ionic contribution  to forces
     atom    1 type  1   force =    -0.00000000   -0.00000000   -0.00000000
     atom    2 type  1   force =    -0.00000000    0.00000000    0.00000000
     atom    3 type  1   force =     0.00000000   -0.00000000    0.00000000
     atom    4 type  1   force =     0.00000000    0.00000000   -0.00000000
     atom    5 type  2   force =     0.00000000   -0.00000000   -0.00000000
     atom    6 type  2   force =     0.00000000    0.00000000    0.00000000
     atom    7 type  2   force =    -0.00000000   -0.00000000    0.00000000
     atom    8 type  2   force =    -0.00000000    0.00000000   -0.00000000
     The local contribution  to forces
     atom    1 type  1   force =    -0.00000000   -0.00000000   -0.00000000
     atom    2 type  1   force =    -0.00000000    0.00000000    0.00000000
     atom    3 type  1   force =     0.00000000   -0.00000000    0.00000000
     atom    4 type  1   force =     0.00000000    0.00000000   -0.00000000
     atom    5 type  2   force =     0.00000000   -0.00000000   -0.00000000
     atom    6 type  2   force =     0.00000000    0.00000000    0.00000000
     atom    7 type  2   force =    -0.00000000   -0.00000000    0.00000000
     atom    8 type  2   force =    -0.00000000    0.00000000   -0.00000000
     The core correction contribution to forces
     atom    1 type  1   force =    -0.00000000   -0.00000000   -0.00000000
     atom    2 type  1   force =    -0.00000000   -0.00000000   -0.00000000
     atom    3 type  1   force =    -0.00000000   -0.00000000   -0.00000000
     atom    4 type  1   force =    -0.00000000   -0.00000000    0.00000000
     atom    5 type  2   force =    -0.00000000   -0.00000000   -0.00000000
     atom    6 type  2   force =    -0.00000000   -0.00000000   -0.00000000
     atom    7 type  2   force =    -0.00000000   -0.00000000   -0.00000000
     atom    8 type  2   force =    -0.00000000    0.00000000    0.00000000
     The Hubbard contrib.    to forces
     atom    1 type  1   force =     0.00000000    0.00000000    0.00000000
     atom    2 type  1   force =     0.00000000    0.00000000    0.00000000
     atom    3 type  1   force =     0.00000000    0.00000000    0.00000000
     atom    4 type  1   force =     0.00000000    0.00000000    0.00000000
     atom    5 type  2   force =     0.00000000    0.00000000    0.00000000
     atom    6 type  2   force =     0.00000000    0.00000000    0.00000000
     atom    7 type  2   force =     0.00000000    0.00000000    0.00000000
     atom    8 type  2   force =     0.00000000    0.00000000    0.00000000
     The SCF correction term to forces
     atom    1 type  1   force =    -0.00000000    0.00000000    0.00000000
     atom    2 type  1   force =    -0.00000000   -0.00000000    0.00000000
     atom    3 type  1   force =     0.00000000    0.00000000    0.00000000
     atom    4 type  1   force =     0.00000000   -0.00000000    0.00000000
     atom    5 type  2   force =     0.00000000   -0.00000000    0.00000000
     atom    6 type  2   force =    -0.00000000   -0.00000000    0.00000000
     atom    7 type  2   force =    -0.00000000   -0.00000000    0.00000000
     atom    8 type  2   force =     0.00000000    0.00000000    0.00000000

     Total force =     0.000000     Total SCF correction =     0.000000


     Computing stress (Cartesian axis) and pressure

     Message from routine stres:
     noncollinear stress + GGA not implemented

     Writing output data file CsIsalt.save/
 
     init_run     :     12.46s CPU     18.63s WALL (       1 calls)
     electrons    :    683.49s CPU   1054.92s WALL (       1 calls)
     forces       :     16.83s CPU     24.29s WALL (       1 calls)

     Called by init_run:
     wfcinit      :      9.30s CPU     14.54s WALL (       1 calls)
     wfcinit:atom :      0.01s CPU      0.02s WALL (      35 calls)
     wfcinit:wfcr :      9.14s CPU     14.31s WALL (      35 calls)
     potinit      :      0.83s CPU      1.14s WALL (       1 calls)
     hinit0       :      0.87s CPU      1.24s WALL (       1 calls)

     Called by electrons:
     c_bands      :    565.54s CPU    877.84s WALL (      12 calls)
     sum_band     :     92.93s CPU    146.11s WALL (      12 calls)
     v_of_rho     :      0.25s CPU      0.38s WALL (      12 calls)
     v_h          :      0.01s CPU      0.01s WALL (      12 calls)
     v_xc         :      0.25s CPU      0.37s WALL (      13 calls)
     newd         :     15.25s CPU     17.57s WALL (      12 calls)
     PAW_pot      :      8.67s CPU     10.96s WALL (      12 calls)
     mix_rho      :      0.66s CPU      1.00s WALL (      12 calls)

     Called by c_bands:
     init_us_2    :      1.50s CPU      2.42s WALL (     910 calls)
     cegterg      :    533.47s CPU    837.32s WALL (     420 calls)

     Called by sum_band:
     sum_band:bec :     20.54s CPU     30.62s WALL (     420 calls)
     addusdens    :      5.13s CPU      6.63s WALL (      12 calls)

     Called by *egterg:
     h_psi        :    244.33s CPU    380.93s WALL (    2677 calls)
     s_psi        :     22.12s CPU     30.10s WALL (    2677 calls)
     g_psi        :      0.34s CPU      0.36s WALL (    2222 calls)
     cdiaghg      :    113.79s CPU    179.91s WALL (    2607 calls)
     cegterg:over :     67.00s CPU    105.51s WALL (    2222 calls)
     cegterg:upda :     45.03s CPU     72.55s WALL (    2222 calls)
     cegterg:last :     12.49s CPU     19.77s WALL (     541 calls)
     cdiaghg:chol :      6.88s CPU      9.67s WALL (    2607 calls)
     cdiaghg:inve :      3.72s CPU      5.94s WALL (    2607 calls)
     cdiaghg:para :     24.85s CPU     39.19s WALL (    5214 calls)

     Called by h_psi:
     h_psi:pot    :    243.59s CPU    380.10s WALL (    2677 calls)
     h_psi:calbec :      9.36s CPU     12.24s WALL (    2677 calls)
     vloc_psi     :    213.31s CPU    339.39s WALL (    2677 calls)
     add_vuspsi   :     20.90s CPU     28.45s WALL (    2677 calls)

     General routines
     calbec       :     16.16s CPU     22.21s WALL (    3237 calls)
     fft          :      1.69s CPU      2.80s WALL (     265 calls)
     ffts         :      1.30s CPU      2.11s WALL (      96 calls)
     fftw         :    268.45s CPU    432.72s WALL (  406788 calls)
     interpolate  :      1.35s CPU      2.32s WALL (      48 calls)
 
     Parallel routines
     fft_scatt_xy :     10.11s CPU     13.97s WALL (  407149 calls)
     fft_scatt_yz :    213.83s CPU    363.93s WALL (  407149 calls)

     PAW routines
     PAW_pot      :      8.67s CPU     10.96s WALL (      12 calls)
     PAW_symme    :      0.37s CPU      0.48s WALL (      24 calls)
 
     PWSCF        :  12m 3.34s CPU  18m32.37s WALL

 
   This run was terminated on:  18:15:26  24Jan2021            

=------------------------------------------------------------------------------=
   JOB DONE.
=------------------------------------------------------------------------------=
