
     Program PWSCF v.6.6 starts on 14Jan2021 at 12:31: 6 

     This program is part of the open-source Quantum ESPRESSO suite
     for quantum simulation of materials; please cite
         "P. Giannozzi et al., J. Phys.:Condens. Matter 21 395502 (2009);
         "P. Giannozzi et al., J. Phys.:Condens. Matter 29 465901 (2017);
          URL http://www.quantum-espresso.org", 
     in publications or presentations arising from this work. More details at
     http://www.quantum-espresso.org/quote

     Parallel version (MPI), running on    64 processors

     MPI processes distributed on     2 nodes
     R & G space division:  proc/nbgrp/npool/nimage =      64
     Fft bands division:     nmany     =       1
     Waiting for input...
     Reading input from standard input

     Current dimensions of program PWSCF are:
     Max number of different atomic species (ntypx) = 10
     Max number of k-points (npk) =  40000
     Max angular momentum in pseudopotentials (lmaxx) =  3
     file Cs.pbe-spn-kjpaw_psl.1.0.0.UPF: wavefunction(s)  5S 6S renormalized
     file Sn.pbe-dn-kjpaw_psl.1.0.0.UPF: wavefunction(s)  5S 5P 4D renormalized
     file I.pbe-n-kjpaw_psl.1.0.0.UPF: wavefunction(s)  5S renormalized

     Subspace diagonalization in iterative solution of the eigenvalue problem:
     a serial algorithm will be used

 
     Parallelization info
     --------------------
     sticks:   dense  smooth     PW     G-vecs:    dense   smooth      PW
     Min          97      64     17                14461     7868    1121
     Max          98      65     18                14477     7883    1136
     Sum        6211    4145   1133               925941   504115   72215
 

     Title: 
     CsSnI3                                                                     


     bravais-lattice index     =            8
     lattice parameter (alat)  =       9.1317  a.u.
     unit-cell volume          =    6370.5385 (a.u.)^3
     number of atoms/cell      =           20
     number of atomic types    =            3
     number of electrons       =       176.00
     number of Kohn-Sham states=           88
     kinetic-energy cutoff     =      70.0000  Ry
     charge density cutoff     =     420.0000  Ry
     convergence threshold     =      1.0E-06
     mixing beta               =       0.5000
     number of iterations used =            8  plain     mixing
     Exchange-correlation= SLA PW PBX PBC
                           (   1   4   3   4   0   0   0)

     celldm(1)=   9.131705  celldm(2)=   2.227728  celldm(3)=   3.755420
     celldm(4)=   0.000000  celldm(5)=   0.000000  celldm(6)=   0.000000

     crystal axes: (cart. coord. in units of alat)
               a(1) = (   1.000000   0.000000   0.000000 )  
               a(2) = (   0.000000   2.227728   0.000000 )  
               a(3) = (   0.000000   0.000000   3.755420 )  

     reciprocal axes: (cart. coord. in units 2 pi/alat)
               b(1) = (  1.000000  0.000000  0.000000 )  
               b(2) = (  0.000000  0.448888  0.000000 )  
               b(3) = (  0.000000  0.000000  0.266282 )  


     PseudoPot. # 1 for Cs read from file:
     /scratch/gtenti/degironcoli/pseudo/Cs.pbe-spn-kjpaw_psl.1.0.0.UPF
     MD5 check sum: b82c75cc2e1f4ff73b6412cffeb9c584
     Pseudo is Projector augmented-wave + core cor, Zval =  9.0
     Generated using "atomic" code by A. Dal Corso v.6.4.1
     Shape of augmentation charge: PSQ
     Using radial grid of 1251 points,  9 beta functions with: 
                l(1) =   0
                l(2) =   0
                l(3) =   0
                l(4) =   1
                l(5) =   1
                l(6) =   2
                l(7) =   2
                l(8) =   3
                l(9) =   3
     Q(r) pseudized with 0 coefficients 


     PseudoPot. # 2 for Sn read from file:
     /scratch/gtenti/degironcoli/pseudo/Sn.pbe-dn-kjpaw_psl.1.0.0.UPF
     MD5 check sum: 67f11dec737d427557dc41ea34975807
     Pseudo is Projector augmented-wave + core cor, Zval = 14.0
     Generated using "atomic" code by A. Dal Corso v.6.3
     Shape of augmentation charge: PSQ
     Using radial grid of 1243 points,  6 beta functions with: 
                l(1) =   0
                l(2) =   0
                l(3) =   1
                l(4) =   1
                l(5) =   2
                l(6) =   2
     Q(r) pseudized with 0 coefficients 


     PseudoPot. # 3 for I  read from file:
     /scratch/gtenti/degironcoli/pseudo/I.pbe-n-kjpaw_psl.1.0.0.UPF
     MD5 check sum: cd3d296c3308a581e1559a0c8a554cb5
     Pseudo is Projector augmented-wave + core cor, Zval =  7.0
     Generated using "atomic" code by A. Dal Corso v.6.3
     Shape of augmentation charge: PSQ
     Using radial grid of 1247 points,  6 beta functions with: 
                l(1) =   0
                l(2) =   0
                l(3) =   1
                l(4) =   1
                l(5) =   2
                l(6) =   2
     Q(r) pseudized with 0 coefficients 


     atomic species   valence    mass     pseudopotential
        Cs             9.00   132.90000     Cs( 1.00)
        Sn            14.00   118.70000     Sn( 1.00)
        I              7.00   126.90000     I ( 1.00)

      8 Sym. Ops., with inversion, found ( 6 have fractional translation)


                                    s                        frac. trans.

      isym =  1     identity                                     

 cryst.   s( 1) = (     1          0          0      )
                  (     0          1          0      )
                  (     0          0          1      )

 cart.    s( 1) = (  1.0000000  0.0000000  0.0000000 )
                  (  0.0000000  1.0000000  0.0000000 )
                  (  0.0000000  0.0000000  1.0000000 )


      isym =  2     180 deg rotation - cart. axis [0,0,1]        

 cryst.   s( 2) = (    -1          0          0      )    f =(  0.0000000 )
                  (     0         -1          0      )       (  0.5000000 )
                  (     0          0          1      )       (  0.5000000 )

 cart.    s( 2) = ( -1.0000000  0.0000000  0.0000000 )    f =(  0.0000000 )
                  (  0.0000000 -1.0000000  0.0000000 )       (  1.1138638 )
                  (  0.0000000  0.0000000  1.0000000 )       (  1.8777098 )


      isym =  3     180 deg rotation - cart. axis [0,1,0]        

 cryst.   s( 3) = (    -1          0          0      )    f =(  0.5000000 )
                  (     0          1          0      )       ( -0.5000000 )
                  (     0          0         -1      )       ( -0.5000000 )

 cart.    s( 3) = ( -1.0000000  0.0000000  0.0000000 )    f =(  0.5000000 )
                  (  0.0000000  1.0000000  0.0000000 )       ( -1.1138638 )
                  (  0.0000000  0.0000000 -1.0000000 )       ( -1.8777098 )


      isym =  4     180 deg rotation - cart. axis [1,0,0]        

 cryst.   s( 4) = (     1          0          0      )    f =( -0.5000000 )
                  (     0         -1          0      )       (  0.0000000 )
                  (     0          0         -1      )       (  0.0000000 )

 cart.    s( 4) = (  1.0000000  0.0000000  0.0000000 )    f =( -0.5000000 )
                  (  0.0000000 -1.0000000  0.0000000 )       (  0.0000000 )
                  (  0.0000000  0.0000000 -1.0000000 )       (  0.0000000 )


      isym =  5     inversion                                    

 cryst.   s( 5) = (    -1          0          0      )
                  (     0         -1          0      )
                  (     0          0         -1      )

 cart.    s( 5) = ( -1.0000000  0.0000000  0.0000000 )
                  (  0.0000000 -1.0000000  0.0000000 )
                  (  0.0000000  0.0000000 -1.0000000 )


      isym =  6     inv. 180 deg rotation - cart. axis [0,0,1]   

 cryst.   s( 6) = (     1          0          0      )    f =(  0.0000000 )
                  (     0          1          0      )       ( -0.5000000 )
                  (     0          0         -1      )       ( -0.5000000 )

 cart.    s( 6) = (  1.0000000  0.0000000  0.0000000 )    f =(  0.0000000 )
                  (  0.0000000  1.0000000  0.0000000 )       ( -1.1138638 )
                  (  0.0000000  0.0000000 -1.0000000 )       ( -1.8777098 )


      isym =  7     inv. 180 deg rotation - cart. axis [0,1,0]   

 cryst.   s( 7) = (     1          0          0      )    f =( -0.5000000 )
                  (     0         -1          0      )       (  0.5000000 )
                  (     0          0          1      )       (  0.5000000 )

 cart.    s( 7) = (  1.0000000  0.0000000  0.0000000 )    f =( -0.5000000 )
                  (  0.0000000 -1.0000000  0.0000000 )       (  1.1138638 )
                  (  0.0000000  0.0000000  1.0000000 )       (  1.8777098 )


      isym =  8     inv. 180 deg rotation - cart. axis [1,0,0]   

 cryst.   s( 8) = (    -1          0          0      )    f =(  0.5000000 )
                  (     0          1          0      )       (  0.0000000 )
                  (     0          0          1      )       (  0.0000000 )

 cart.    s( 8) = ( -1.0000000  0.0000000  0.0000000 )    f =(  0.5000000 )
                  (  0.0000000  1.0000000  0.0000000 )       (  0.0000000 )
                  (  0.0000000  0.0000000  1.0000000 )       (  0.0000000 )


     point group D_2h (mmm) 
     there are  8 classes
     the character table:

       E     C2    C2'   C2''  i     s_v   s_v'  s_v''
A_g    1.00  1.00  1.00  1.00  1.00  1.00  1.00  1.00
B_1g   1.00  1.00 -1.00 -1.00  1.00  1.00 -1.00 -1.00
B_2g   1.00 -1.00  1.00 -1.00  1.00 -1.00  1.00 -1.00
B_3g   1.00 -1.00 -1.00  1.00  1.00 -1.00 -1.00  1.00
A_u    1.00  1.00  1.00  1.00 -1.00 -1.00 -1.00 -1.00
B_1u   1.00  1.00 -1.00 -1.00 -1.00 -1.00  1.00  1.00
B_2u   1.00 -1.00  1.00 -1.00 -1.00  1.00 -1.00  1.00
B_3u   1.00 -1.00 -1.00  1.00 -1.00  1.00  1.00 -1.00

     the symmetry operations in each class and the name of the first element:

     E        1
          identity                                               
     C2       2
          180 deg rotation - cart. axis [0,0,1]                  
     C2'      4
          180 deg rotation - cart. axis [1,0,0]                  
     C2''     3
          180 deg rotation - cart. axis [0,1,0]                  
     i        5
          inversion                                              
     s_v      6
          inv. 180 deg rotation - cart. axis [0,0,1]             
     s_v'     8
          inv. 180 deg rotation - cart. axis [1,0,0]             
     s_v''    7
          inv. 180 deg rotation - cart. axis [0,1,0]             

   Cartesian axes

     site n.     atom                  positions (alat units)
         1           Cs  tau(   1) = (   0.2500000   0.1859640   2.5168147  )
         2           Cs  tau(   2) = (   0.7500000   2.0417636   1.2386050  )
         3           Cs  tau(   3) = (   0.2500000   1.2998278   3.1163149  )
         4           Cs  tau(   4) = (   0.7500000   0.9278998   0.6391048  )
         5           Sn  tau(   5) = (   0.2500000   0.7615710   1.6485466  )
         6           Sn  tau(   6) = (   0.7500000   1.4661567   2.1068731  )
         7           Sn  tau(   7) = (   0.2500000   1.8754348   0.2291632  )
         8           Sn  tau(   8) = (   0.7500000   0.3522928   3.5262565  )
         9           I   tau(   9) = (   0.7500000   0.0581437   0.4202578  )
        10           I   tau(  10) = (   0.2500000   2.1695839   3.3351619  )
        11           I   tau(  11) = (   0.7500000   1.1720075   1.4574521  )
        12           I   tau(  12) = (   0.2500000   1.0557201   2.2979676  )
        13           I   tau(  13) = (   0.7500000   0.6531118   2.9738192  )
        14           I   tau(  14) = (   0.2500000   1.5746158   0.7816005  )
        15           I   tau(  15) = (   0.7500000   1.7669756   2.6593103  )
        16           I   tau(  16) = (   0.2500000   0.4607520   1.0961094  )
        17           I   tau(  17) = (   0.7500000   0.3753632   1.8734812  )
        18           I   tau(  18) = (   0.2500000   1.8523644   1.8819384  )
        19           I   tau(  19) = (   0.7500000   1.4892270   0.0042286  )
        20           I   tau(  20) = (   0.2500000   0.7385006   3.7511911  )

   Crystallographic axes

     site n.     atom                  positions (cryst. coord.)
         1           Cs  tau(   1) = (  0.2500000  0.0834770  0.6701820  )
         2           Cs  tau(   2) = (  0.7500000  0.9165230  0.3298180  )
         3           Cs  tau(   3) = (  0.2500000  0.5834770  0.8298180  )
         4           Cs  tau(   4) = (  0.7500000  0.4165230  0.1701820  )
         5           Sn  tau(   5) = (  0.2500000  0.3418600  0.4389780  )
         6           Sn  tau(   6) = (  0.7500000  0.6581400  0.5610220  )
         7           Sn  tau(   7) = (  0.2500000  0.8418600  0.0610220  )
         8           Sn  tau(   8) = (  0.7500000  0.1581400  0.9389780  )
         9           I   tau(   9) = (  0.7500000  0.0261000  0.1119070  )
        10           I   tau(  10) = (  0.2500000  0.9739000  0.8880930  )
        11           I   tau(  11) = (  0.7500000  0.5261000  0.3880930  )
        12           I   tau(  12) = (  0.2500000  0.4739000  0.6119070  )
        13           I   tau(  13) = (  0.7500000  0.2931740  0.7918740  )
        14           I   tau(  14) = (  0.2500000  0.7068260  0.2081260  )
        15           I   tau(  15) = (  0.7500000  0.7931740  0.7081260  )
        16           I   tau(  16) = (  0.2500000  0.2068260  0.2918740  )
        17           I   tau(  17) = (  0.7500000  0.1684960  0.4988740  )
        18           I   tau(  18) = (  0.2500000  0.8315040  0.5011260  )
        19           I   tau(  19) = (  0.7500000  0.6684960  0.0011260  )
        20           I   tau(  20) = (  0.2500000  0.3315040  0.9988740  )

     number of k points=     8
                       cart. coord. in units 2pi/alat
        k(    1) = (   0.0000000   0.0000000   0.0000000), wk =   0.2500000
        k(    2) = (   0.0000000   0.0000000  -0.1331409), wk =   0.2500000
        k(    3) = (   0.0000000  -0.2244440   0.0000000), wk =   0.2500000
        k(    4) = (   0.0000000  -0.2244440  -0.1331409), wk =   0.2500000
        k(    5) = (  -0.5000000   0.0000000   0.0000000), wk =   0.2500000
        k(    6) = (  -0.5000000   0.0000000  -0.1331409), wk =   0.2500000
        k(    7) = (  -0.5000000  -0.2244440   0.0000000), wk =   0.2500000
        k(    8) = (  -0.5000000  -0.2244440  -0.1331409), wk =   0.2500000

                       cryst. coord.
        k(    1) = (   0.0000000   0.0000000   0.0000000), wk =   0.2500000
        k(    2) = (   0.0000000   0.0000000  -0.5000000), wk =   0.2500000
        k(    3) = (   0.0000000  -0.5000000   0.0000000), wk =   0.2500000
        k(    4) = (   0.0000000  -0.5000000  -0.5000000), wk =   0.2500000
        k(    5) = (  -0.5000000   0.0000000   0.0000000), wk =   0.2500000
        k(    6) = (  -0.5000000   0.0000000  -0.5000000), wk =   0.2500000
        k(    7) = (  -0.5000000  -0.5000000   0.0000000), wk =   0.2500000
        k(    8) = (  -0.5000000  -0.5000000  -0.5000000), wk =   0.2500000

     Dense  grid:   925941 G-vectors     FFT dimensions: (  60, 144, 240)

     Smooth grid:   504115 G-vectors     FFT dimensions: (  50, 120, 192)

     Dynamical RAM for                 wfc:       1.32 MB

     Dynamical RAM for     wfc (w. buffer):      11.89 MB

     Dynamical RAM for           str. fact:       0.66 MB

     Dynamical RAM for           local pot:       0.00 MB

     Dynamical RAM for          nlocal pot:       6.31 MB

     Dynamical RAM for                qrad:      14.80 MB

     Dynamical RAM for          rho,v,vnew:       1.45 MB

     Dynamical RAM for               rhoin:       0.48 MB

     Dynamical RAM for            rho*nmix:       3.53 MB

     Dynamical RAM for           G-vectors:       0.89 MB

     Dynamical RAM for          h,s,v(r/c):       1.42 MB

     Dynamical RAM for          <psi|beta>:       0.56 MB

     Dynamical RAM for                 psi:       2.64 MB

     Dynamical RAM for                hpsi:       2.64 MB

     Dynamical RAM for                spsi:       2.64 MB

     Dynamical RAM for      wfcinit/wfcrot:       3.37 MB

     Dynamical RAM for           addusdens:     132.49 MB

     Dynamical RAM for          addusforce:     137.61 MB

     Dynamical RAM for         addusstress:     135.80 MB

     Estimated static dynamical RAM per process >      42.22 MB

     Estimated max dynamical RAM per process >     179.83 MB

     Estimated total dynamical RAM >      11.24 GB

     Initial potential from superposition of free atoms

     starting charge  175.83511, renormalised to  176.00000
     Starting wfcs are  104 randomized atomic wfcs
     Checking if some PAW data can be deallocated... 
       PAW data deallocated on   48 nodes for type:  1
       PAW data deallocated on   52 nodes for type:  2
       PAW data deallocated on   28 nodes for type:  3

     total cpu time spent up to now is       14.5 secs

     Self-consistent Calculation

     iteration #  1     ecut=    70.00 Ry     beta= 0.50
     Davidson diagonalization with overlap
     ethr =  1.00E-02,  avg # of iterations =  1.0

     Threshold (ethr) on eigenvalues was too large:
     Diagonalizing with lowered threshold

     Davidson diagonalization with overlap
     ethr =  3.22E-04,  avg # of iterations =  3.9

     total cpu time spent up to now is       34.7 secs

     total energy              =   -7979.48616705 Ry
     estimated scf accuracy    <       0.45608555 Ry

     iteration #  2     ecut=    70.00 Ry     beta= 0.50
     Davidson diagonalization with overlap
     ethr =  2.59E-04,  avg # of iterations =  4.2

     total cpu time spent up to now is       46.5 secs

     total energy              =   -7979.62546176 Ry
     estimated scf accuracy    <       0.11898608 Ry

     iteration #  3     ecut=    70.00 Ry     beta= 0.50
     Davidson diagonalization with overlap
     ethr =  6.76E-05,  avg # of iterations =  2.5

     total cpu time spent up to now is       56.9 secs

     total energy              =   -7979.64489791 Ry
     estimated scf accuracy    <       0.01097563 Ry

     iteration #  4     ecut=    70.00 Ry     beta= 0.50
     Davidson diagonalization with overlap
     ethr =  6.24E-06,  avg # of iterations =  7.2

     total cpu time spent up to now is       72.1 secs

     total energy              =   -7979.65221767 Ry
     estimated scf accuracy    <       0.01035208 Ry

     iteration #  5     ecut=    70.00 Ry     beta= 0.50
     Davidson diagonalization with overlap
     ethr =  5.88E-06,  avg # of iterations =  5.1

     total cpu time spent up to now is       83.8 secs

     total energy              =   -7979.65502294 Ry
     estimated scf accuracy    <       0.00068965 Ry

     iteration #  6     ecut=    70.00 Ry     beta= 0.50
     Davidson diagonalization with overlap
     ethr =  3.92E-07,  avg # of iterations =  5.5

     total cpu time spent up to now is       97.0 secs

     total energy              =   -7979.65506274 Ry
     estimated scf accuracy    <       0.00080933 Ry

     iteration #  7     ecut=    70.00 Ry     beta= 0.50
     Davidson diagonalization with overlap
     ethr =  3.92E-07,  avg # of iterations =  4.4

     total cpu time spent up to now is      108.2 secs

     total energy              =   -7979.65522848 Ry
     estimated scf accuracy    <       0.00004330 Ry

     iteration #  8     ecut=    70.00 Ry     beta= 0.50
     Davidson diagonalization with overlap
     ethr =  2.46E-08,  avg # of iterations =  9.8

     total cpu time spent up to now is      125.1 secs

     total energy              =   -7979.65523262 Ry
     estimated scf accuracy    <       0.00017123 Ry

     iteration #  9     ecut=    70.00 Ry     beta= 0.50
     Davidson diagonalization with overlap
     ethr =  2.46E-08,  avg # of iterations =  5.8

     total cpu time spent up to now is      137.7 secs

     total energy              =   -7979.65525181 Ry
     estimated scf accuracy    <       0.00000776 Ry

     iteration # 10     ecut=    70.00 Ry     beta= 0.50
     Davidson diagonalization with overlap
     ethr =  4.41E-09,  avg # of iterations =  4.9

     total cpu time spent up to now is      150.3 secs

     total energy              =   -7979.65525497 Ry
     estimated scf accuracy    <       0.00000186 Ry

     iteration # 11     ecut=    70.00 Ry     beta= 0.50
     Davidson diagonalization with overlap
     ethr =  1.05E-09,  avg # of iterations =  3.2

     total cpu time spent up to now is      160.9 secs

     total energy              =   -7979.65525453 Ry
     estimated scf accuracy    <       0.00000150 Ry

     iteration # 12     ecut=    70.00 Ry     beta= 0.50
     Davidson diagonalization with overlap
     ethr =  8.53E-10,  avg # of iterations =  3.9

     total cpu time spent up to now is      171.7 secs

     End of self-consistent calculation

          k = 0.0000 0.0000 0.0000 ( 62981 PWs)   bands (ev):

   -17.8820 -17.8819 -17.8817 -17.8817 -17.8740 -17.8740 -17.8737 -17.8737
   -17.8708 -17.8707 -17.8701 -17.8701 -17.8590 -17.8589 -17.8575 -17.8575
   -17.8515 -17.8514 -17.8501 -17.8501 -17.7878 -17.7876 -17.7869 -17.7867
    -8.8009  -8.7765  -8.5945  -8.5326  -8.4452  -8.4353  -8.4152  -8.4049
    -8.2784  -8.2552  -8.2372  -8.1944  -4.6167  -4.6157  -4.6131  -4.6065
    -4.5979  -4.5711  -4.5544  -4.5527  -4.5462  -4.5447  -4.5428  -4.5399
    -2.8874  -2.8625  -2.8244  -2.7438   0.1241   0.3257   0.7540   0.8907
     0.9053   0.9866   1.1128   1.1238   1.2143   1.2805   1.3249   1.3335
     1.3342   1.5555   1.6343   1.7320   1.7808   1.7975   1.8145   1.8206
     1.8253   1.8395   1.9801   2.0645   2.0702   2.1746   2.2073   2.2231
     2.2356   2.2376   2.3134   2.3176   2.3827   2.4786   2.6264   2.9251

     occupation numbers 
     1.0000   1.0000   1.0000   1.0000   1.0000   1.0000   1.0000   1.0000
     1.0000   1.0000   1.0000   1.0000   1.0000   1.0000   1.0000   1.0000
     1.0000   1.0000   1.0000   1.0000   1.0000   1.0000   1.0000   1.0000
     1.0000   1.0000   1.0000   1.0000   1.0000   1.0000   1.0000   1.0000
     1.0000   1.0000   1.0000   1.0000   1.0000   1.0000   1.0000   1.0000
     1.0000   1.0000   1.0000   1.0000   1.0000   1.0000   1.0000   1.0000
     1.0000   1.0000   1.0000   1.0000   1.0000   1.0000   1.0000   1.0000
     1.0000   1.0000   1.0000   1.0000   1.0000   1.0000   1.0000   1.0000
     1.0000   1.0000   1.0000   1.0000   1.0000   1.0000   1.0000   1.0000
     1.0000   1.0000   1.0000   1.0000   1.0000   1.0000   1.0000   1.0000
     1.0000   1.0000   1.0000   1.0000   1.0000   1.0000   1.0000   1.0000

          k = 0.0000 0.0000-0.1331 ( 62988 PWs)   bands (ev):

   -17.8819 -17.8819 -17.8817 -17.8817 -17.8740 -17.8740 -17.8737 -17.8737
   -17.8708 -17.8708 -17.8701 -17.8701 -17.8590 -17.8590 -17.8575 -17.8575
   -17.8514 -17.8514 -17.8501 -17.8501 -17.7877 -17.7877 -17.7868 -17.7868
    -8.7900  -8.7900  -8.5640  -8.5640  -8.4403  -8.4403  -8.4086  -8.4086
    -8.2716  -8.2716  -8.2106  -8.2106  -4.6220  -4.6220  -4.6053  -4.6053
    -4.5841  -4.5841  -4.5537  -4.5537  -4.5454  -4.5454  -4.5406  -4.5406
    -2.8800  -2.8800  -2.7794  -2.7794   0.2138   0.2138   0.8433   0.8433
     0.8976   0.8976   1.1436   1.1436   1.2843   1.2843   1.3068   1.3068
     1.5230   1.5230   1.5822   1.5822   1.7967   1.7967   1.8208   1.8208
     1.8297   1.8297   1.9856   1.9856   2.1208   2.1208   2.2177   2.2177
     2.2265   2.2265   2.3549   2.3549   2.4586   2.4586   2.7654   2.7654

     occupation numbers 
     1.0000   1.0000   1.0000   1.0000   1.0000   1.0000   1.0000   1.0000
     1.0000   1.0000   1.0000   1.0000   1.0000   1.0000   1.0000   1.0000
     1.0000   1.0000   1.0000   1.0000   1.0000   1.0000   1.0000   1.0000
     1.0000   1.0000   1.0000   1.0000   1.0000   1.0000   1.0000   1.0000
     1.0000   1.0000   1.0000   1.0000   1.0000   1.0000   1.0000   1.0000
     1.0000   1.0000   1.0000   1.0000   1.0000   1.0000   1.0000   1.0000
     1.0000   1.0000   1.0000   1.0000   1.0000   1.0000   1.0000   1.0000
     1.0000   1.0000   1.0000   1.0000   1.0000   1.0000   1.0000   1.0000
     1.0000   1.0000   1.0000   1.0000   1.0000   1.0000   1.0000   1.0000
     1.0000   1.0000   1.0000   1.0000   1.0000   1.0000   1.0000   1.0000
     1.0000   1.0000   1.0000   1.0000   1.0000   1.0000   1.0000   1.0000

          k = 0.0000-0.2244 0.0000 ( 62958 PWs)   bands (ev):

   -17.8819 -17.8819 -17.8817 -17.8817 -17.8740 -17.8740 -17.8737 -17.8737
   -17.8708 -17.8708 -17.8701 -17.8701 -17.8589 -17.8589 -17.8575 -17.8575
   -17.8514 -17.8514 -17.8501 -17.8501 -17.7874 -17.7874 -17.7871 -17.7871
    -8.7670  -8.7670  -8.6072  -8.6072  -8.4863  -8.4863  -8.3439  -8.3439
    -8.2540  -8.2540  -8.2242  -8.2242  -4.6237  -4.6237  -4.6032  -4.6032
    -4.5768  -4.5768  -4.5593  -4.5593  -4.5503  -4.5503  -4.5487  -4.5487
    -2.8974  -2.8974  -2.7510  -2.7510   0.2534   0.2534   0.8177   0.8177
     0.9506   0.9506   1.1870   1.1870   1.2014   1.2014   1.3156   1.3156
     1.4154   1.4154   1.5579   1.5579   1.7456   1.7456   1.7828   1.7828
     1.9698   1.9698   2.0115   2.0115   2.0704   2.0704   2.2352   2.2352
     2.2628   2.2628   2.3123   2.3123   2.3961   2.3961   2.9392   2.9392

     occupation numbers 
     1.0000   1.0000   1.0000   1.0000   1.0000   1.0000   1.0000   1.0000
     1.0000   1.0000   1.0000   1.0000   1.0000   1.0000   1.0000   1.0000
     1.0000   1.0000   1.0000   1.0000   1.0000   1.0000   1.0000   1.0000
     1.0000   1.0000   1.0000   1.0000   1.0000   1.0000   1.0000   1.0000
     1.0000   1.0000   1.0000   1.0000   1.0000   1.0000   1.0000   1.0000
     1.0000   1.0000   1.0000   1.0000   1.0000   1.0000   1.0000   1.0000
     1.0000   1.0000   1.0000   1.0000   1.0000   1.0000   1.0000   1.0000
     1.0000   1.0000   1.0000   1.0000   1.0000   1.0000   1.0000   1.0000
     1.0000   1.0000   1.0000   1.0000   1.0000   1.0000   1.0000   1.0000
     1.0000   1.0000   1.0000   1.0000   1.0000   1.0000   1.0000   1.0000
     1.0000   1.0000   1.0000   1.0000   1.0000   1.0000   1.0000   1.0000

          k = 0.0000-0.2244-0.1331 ( 62996 PWs)   bands (ev):

   -17.8819 -17.8819 -17.8817 -17.8817 -17.8740 -17.8740 -17.8737 -17.8737
   -17.8708 -17.8708 -17.8701 -17.8701 -17.8589 -17.8589 -17.8575 -17.8575
   -17.8515 -17.8515 -17.8501 -17.8501 -17.7874 -17.7874 -17.7871 -17.7871
    -8.7671  -8.7671  -8.6075  -8.6075  -8.4842  -8.4842  -8.3496  -8.3496
    -8.2390  -8.2390  -8.2353  -8.2353  -4.6206  -4.6206  -4.6102  -4.6102
    -4.5721  -4.5721  -4.5600  -4.5600  -4.5503  -4.5503  -4.5487  -4.5487
    -2.8960  -2.8960  -2.7525  -2.7525   0.2590   0.2590   0.8076   0.8076
     0.9506   0.9506   1.2015   1.2015   1.2121   1.2121   1.3151   1.3151
     1.3584   1.3584   1.5676   1.5676   1.7469   1.7469   1.8250   1.8250
     1.9656   1.9656   1.9976   1.9976   2.0841   2.0841   2.2210   2.2210
     2.2871   2.2871   2.2909   2.2909   2.4102   2.4102   2.9225   2.9225

     occupation numbers 
     1.0000   1.0000   1.0000   1.0000   1.0000   1.0000   1.0000   1.0000
     1.0000   1.0000   1.0000   1.0000   1.0000   1.0000   1.0000   1.0000
     1.0000   1.0000   1.0000   1.0000   1.0000   1.0000   1.0000   1.0000
     1.0000   1.0000   1.0000   1.0000   1.0000   1.0000   1.0000   1.0000
     1.0000   1.0000   1.0000   1.0000   1.0000   1.0000   1.0000   1.0000
     1.0000   1.0000   1.0000   1.0000   1.0000   1.0000   1.0000   1.0000
     1.0000   1.0000   1.0000   1.0000   1.0000   1.0000   1.0000   1.0000
     1.0000   1.0000   1.0000   1.0000   1.0000   1.0000   1.0000   1.0000
     1.0000   1.0000   1.0000   1.0000   1.0000   1.0000   1.0000   1.0000
     1.0000   1.0000   1.0000   1.0000   1.0000   1.0000   1.0000   1.0000
     1.0000   1.0000   1.0000   1.0000   1.0000   1.0000   1.0000   1.0000

          k =-0.5000 0.0000 0.0000 ( 62996 PWs)   bands (ev):

   -17.8812 -17.8812 -17.8812 -17.8812 -17.8772 -17.8772 -17.8772 -17.8772
   -17.8704 -17.8704 -17.8703 -17.8703 -17.8550 -17.8550 -17.8550 -17.8550
   -17.8514 -17.8514 -17.8514 -17.8514 -17.7762 -17.7762 -17.7757 -17.7757
    -8.4823  -8.4823  -8.4800  -8.4800  -8.3068  -8.3068  -8.2972  -8.2972
    -8.2859  -8.2859  -8.2664  -8.2664  -4.7923  -4.7923  -4.7245  -4.7245
    -4.6090  -4.6090  -4.5998  -4.5998  -4.5856  -4.5856  -4.5570  -4.5570
    -3.2036  -3.2036  -3.1668  -3.1668   0.0782   0.0782   0.0796   0.0796
     0.5667   0.5667   0.6247   0.6247   0.8923   0.8923   0.9118   0.9118
     1.2450   1.2450   1.6366   1.6366   1.6780   1.6780   1.7847   1.7847
     1.7955   1.7955   1.8562   1.8562   1.9081   1.9081   1.9339   1.9339
     2.0644   2.0644   2.1022   2.1022   2.5338   2.5338   2.9138   2.9138

     occupation numbers 
     1.0000   1.0000   1.0000   1.0000   1.0000   1.0000   1.0000   1.0000
     1.0000   1.0000   1.0000   1.0000   1.0000   1.0000   1.0000   1.0000
     1.0000   1.0000   1.0000   1.0000   1.0000   1.0000   1.0000   1.0000
     1.0000   1.0000   1.0000   1.0000   1.0000   1.0000   1.0000   1.0000
     1.0000   1.0000   1.0000   1.0000   1.0000   1.0000   1.0000   1.0000
     1.0000   1.0000   1.0000   1.0000   1.0000   1.0000   1.0000   1.0000
     1.0000   1.0000   1.0000   1.0000   1.0000   1.0000   1.0000   1.0000
     1.0000   1.0000   1.0000   1.0000   1.0000   1.0000   1.0000   1.0000
     1.0000   1.0000   1.0000   1.0000   1.0000   1.0000   1.0000   1.0000
     1.0000   1.0000   1.0000   1.0000   1.0000   1.0000   1.0000   1.0000
     1.0000   1.0000   1.0000   1.0000   1.0000   1.0000   1.0000   1.0000

          k =-0.5000 0.0000-0.1331 ( 63064 PWs)   bands (ev):

   -17.8812 -17.8812 -17.8812 -17.8812 -17.8772 -17.8772 -17.8772 -17.8772
   -17.8704 -17.8704 -17.8704 -17.8704 -17.8550 -17.8550 -17.8550 -17.8550
   -17.8514 -17.8514 -17.8514 -17.8514 -17.7762 -17.7762 -17.7757 -17.7757
    -8.4829  -8.4829  -8.4794  -8.4794  -8.3062  -8.3062  -8.2982  -8.2982
    -8.2855  -8.2855  -8.2664  -8.2664  -4.7921  -4.7921  -4.7246  -4.7246
    -4.6093  -4.6093  -4.5999  -4.5999  -4.5853  -4.5853  -4.5571  -4.5571
    -3.1971  -3.1971  -3.1734  -3.1734   0.0653   0.0653   0.0979   0.0979
     0.5847   0.5847   0.6323   0.6323   0.8406   0.8406   0.8789   0.8789
     1.3336   1.3336   1.6053   1.6053   1.6886   1.6886   1.8006   1.8006
     1.8030   1.8030   1.8290   1.8290   1.8371   1.8371   1.9641   1.9641
     2.0587   2.0587   2.1326   2.1326   2.5933   2.5933   2.8550   2.8550

     occupation numbers 
     1.0000   1.0000   1.0000   1.0000   1.0000   1.0000   1.0000   1.0000
     1.0000   1.0000   1.0000   1.0000   1.0000   1.0000   1.0000   1.0000
     1.0000   1.0000   1.0000   1.0000   1.0000   1.0000   1.0000   1.0000
     1.0000   1.0000   1.0000   1.0000   1.0000   1.0000   1.0000   1.0000
     1.0000   1.0000   1.0000   1.0000   1.0000   1.0000   1.0000   1.0000
     1.0000   1.0000   1.0000   1.0000   1.0000   1.0000   1.0000   1.0000
     1.0000   1.0000   1.0000   1.0000   1.0000   1.0000   1.0000   1.0000
     1.0000   1.0000   1.0000   1.0000   1.0000   1.0000   1.0000   1.0000
     1.0000   1.0000   1.0000   1.0000   1.0000   1.0000   1.0000   1.0000
     1.0000   1.0000   1.0000   1.0000   1.0000   1.0000   1.0000   1.0000
     1.0000   1.0000   1.0000   1.0000   1.0000   1.0000   1.0000   1.0000

          k =-0.5000-0.2244 0.0000 ( 63092 PWs)   bands (ev):

   -17.8812 -17.8812 -17.8812 -17.8812 -17.8772 -17.8772 -17.8772 -17.8772
   -17.8704 -17.8704 -17.8704 -17.8704 -17.8550 -17.8550 -17.8550 -17.8550
   -17.8514 -17.8514 -17.8514 -17.8514 -17.7759 -17.7759 -17.7759 -17.7759
    -8.4812  -8.4812  -8.4812  -8.4812  -8.3031  -8.3031  -8.3031  -8.3031
    -8.2752  -8.2752  -8.2752  -8.2752  -4.7585  -4.7585  -4.7585  -4.7585
    -4.6024  -4.6024  -4.6024  -4.6024  -4.5732  -4.5732  -4.5732  -4.5732
    -3.1858  -3.1858  -3.1858  -3.1858   0.2240   0.2240   0.2240   0.2240
     0.4393   0.4393   0.4393   0.4393   0.8443   0.8443   0.8443   0.8443
     1.4588   1.4588   1.4588   1.4588   1.6404   1.6404   1.6404   1.6404
     1.8002   1.8002   1.8002   1.8002   1.9270   1.9270   1.9270   1.9270
     2.1549   2.1549   2.1549   2.1549   2.8762   2.8762   2.8762   2.8762

     occupation numbers 
     1.0000   1.0000   1.0000   1.0000   1.0000   1.0000   1.0000   1.0000
     1.0000   1.0000   1.0000   1.0000   1.0000   1.0000   1.0000   1.0000
     1.0000   1.0000   1.0000   1.0000   1.0000   1.0000   1.0000   1.0000
     1.0000   1.0000   1.0000   1.0000   1.0000   1.0000   1.0000   1.0000
     1.0000   1.0000   1.0000   1.0000   1.0000   1.0000   1.0000   1.0000
     1.0000   1.0000   1.0000   1.0000   1.0000   1.0000   1.0000   1.0000
     1.0000   1.0000   1.0000   1.0000   1.0000   1.0000   1.0000   1.0000
     1.0000   1.0000   1.0000   1.0000   1.0000   1.0000   1.0000   1.0000
     1.0000   1.0000   1.0000   1.0000   1.0000   1.0000   1.0000   1.0000
     1.0000   1.0000   1.0000   1.0000   1.0000   1.0000   1.0000   1.0000
     1.0000   1.0000   1.0000   1.0000   1.0000   1.0000   1.0000   1.0000

          k =-0.5000-0.2244-0.1331 ( 63040 PWs)   bands (ev):

   -17.8812 -17.8812 -17.8812 -17.8812 -17.8772 -17.8772 -17.8772 -17.8772
   -17.8704 -17.8704 -17.8704 -17.8704 -17.8550 -17.8550 -17.8550 -17.8550
   -17.8514 -17.8514 -17.8514 -17.8514 -17.7759 -17.7759 -17.7759 -17.7759
    -8.4812  -8.4812  -8.4812  -8.4812  -8.3030  -8.3030  -8.3030  -8.3030
    -8.2752  -8.2752  -8.2752  -8.2752  -4.7585  -4.7585  -4.7585  -4.7585
    -4.6023  -4.6023  -4.6023  -4.6023  -4.5733  -4.5733  -4.5733  -4.5733
    -3.1858  -3.1858  -3.1858  -3.1858   0.2176   0.2176   0.2176   0.2176
     0.4425   0.4425   0.4425   0.4425   0.8699   0.8699   0.8699   0.8699
     1.3740   1.3740   1.3740   1.3740   1.7119   1.7119   1.7119   1.7119
     1.8025   1.8025   1.8025   1.8025   1.9475   1.9475   1.9475   1.9475
     2.1160   2.1160   2.1160   2.1160   2.8851   2.8851   2.8851   2.8851

     occupation numbers 
     1.0000   1.0000   1.0000   1.0000   1.0000   1.0000   1.0000   1.0000
     1.0000   1.0000   1.0000   1.0000   1.0000   1.0000   1.0000   1.0000
     1.0000   1.0000   1.0000   1.0000   1.0000   1.0000   1.0000   1.0000
     1.0000   1.0000   1.0000   1.0000   1.0000   1.0000   1.0000   1.0000
     1.0000   1.0000   1.0000   1.0000   1.0000   1.0000   1.0000   1.0000
     1.0000   1.0000   1.0000   1.0000   1.0000   1.0000   1.0000   1.0000
     1.0000   1.0000   1.0000   1.0000   1.0000   1.0000   1.0000   1.0000
     1.0000   1.0000   1.0000   1.0000   1.0000   1.0000   1.0000   1.0000
     1.0000   1.0000   1.0000   1.0000   1.0000   1.0000   1.0000   1.0000
     1.0000   1.0000   1.0000   1.0000   1.0000   1.0000   1.0000   1.0000
     1.0000   1.0000   1.0000   1.0000   1.0000   1.0000   1.0000   1.0000

     highest occupied level (ev):     2.9392

!    total energy              =   -7979.65525462 Ry

     total all-electron energy =   -282510.809967 Ry
     estimated scf accuracy    <       0.00000015 Ry

     The total energy is the sum of the following terms:
     one-electron contribution =    -463.66801364 Ry
     hartree contribution      =     316.62292029 Ry
     xc contribution           =    -465.90657709 Ry
     ewald contribution        =    -633.56960439 Ry
     one-center paw contrib.   =   -6733.13397979 Ry
      -> PAW hartree energy AE =      25.63184675 Ry
      -> PAW hartree energy PS =     -25.52229972 Ry
      -> PAW xc energy AE      =    -383.52988358 Ry
      -> PAW xc energy PS      =      20.51461202 Ry
      -> total E_H with PAW    =     316.73246732 Ry
      -> total E_XC with PAW   =    -828.92184865 Ry

     convergence has been achieved in  12 iterations

     Forces acting on atoms (cartesian axes, Ry/au):

     atom    1 type  1   force =     0.00000000   -0.00060503    0.00070698
     atom    2 type  1   force =     0.00000000    0.00060503   -0.00070698
     atom    3 type  1   force =     0.00000000   -0.00060503   -0.00070698
     atom    4 type  1   force =     0.00000000    0.00060503    0.00070698
     atom    5 type  2   force =     0.00000000   -0.00049243   -0.00014212
     atom    6 type  2   force =     0.00000000    0.00049243    0.00014212
     atom    7 type  2   force =     0.00000000   -0.00049243    0.00014212
     atom    8 type  2   force =     0.00000000    0.00049243   -0.00014212
     atom    9 type  3   force =    -0.00000000   -0.00347760   -0.00189784
     atom   10 type  3   force =     0.00000000    0.00347760    0.00189784
     atom   11 type  3   force =     0.00000000   -0.00347760    0.00189784
     atom   12 type  3   force =     0.00000000    0.00347760   -0.00189784
     atom   13 type  3   force =     0.00000000   -0.00063701    0.00043538
     atom   14 type  3   force =     0.00000000    0.00063701   -0.00043538
     atom   15 type  3   force =     0.00000000   -0.00063701   -0.00043538
     atom   16 type  3   force =     0.00000000    0.00063701    0.00043538
     atom   17 type  3   force =     0.00000000    0.00333521   -0.00181062
     atom   18 type  3   force =     0.00000000   -0.00333521    0.00181062
     atom   19 type  3   force =     0.00000000    0.00333521    0.00181062
     atom   20 type  3   force =     0.00000000   -0.00333521   -0.00181062
     The non-local contrib.  to forces
     atom    1 type  1   force =     0.00000000    0.00197394   -0.00094159
     atom    2 type  1   force =     0.00000000   -0.00197394    0.00094159
     atom    3 type  1   force =     0.00000000    0.00197394    0.00094159
     atom    4 type  1   force =     0.00000000   -0.00197394   -0.00094159
     atom    5 type  2   force =    -0.00000000   -0.08824832   -0.13102540
     atom    6 type  2   force =     0.00000000    0.08824832    0.13102540
     atom    7 type  2   force =    -0.00000000   -0.08824832    0.13102540
     atom    8 type  2   force =     0.00000000    0.08824832   -0.13102540
     atom    9 type  3   force =     0.00000000   -0.04815190   -0.04707001
     atom   10 type  3   force =     0.00000000    0.04815190    0.04707001
     atom   11 type  3   force =    -0.00000000   -0.04815190    0.04707001
     atom   12 type  3   force =     0.00000000    0.04815190   -0.04707001
     atom   13 type  3   force =     0.00000000   -0.03305205    0.05613882
     atom   14 type  3   force =     0.00000000    0.03305205   -0.05613882
     atom   15 type  3   force =     0.00000000   -0.03305205   -0.05613882
     atom   16 type  3   force =     0.00000000    0.03305205    0.05613882
     atom   17 type  3   force =    -0.00000000    0.05604659   -0.01694498
     atom   18 type  3   force =     0.00000000   -0.05604659    0.01694498
     atom   19 type  3   force =     0.00000000    0.05604659    0.01694498
     atom   20 type  3   force =     0.00000000   -0.05604659   -0.01694498
     The ionic contribution  to forces
     atom    1 type  1   force =    -0.00000000    0.02273773    0.42856976
     atom    2 type  1   force =    -0.00000000   -0.02273773   -0.42856976
     atom    3 type  1   force =    -0.00000000    0.02273773   -0.42856976
     atom    4 type  1   force =     0.00000000   -0.02273773    0.42856976
     atom    5 type  2   force =     0.00000000   -2.44382135   -1.60292983
     atom    6 type  2   force =     0.00000000    2.44382135    1.60292983
     atom    7 type  2   force =    -0.00000000   -2.44382135    1.60292983
     atom    8 type  2   force =     0.00000000    2.44382135   -1.60292983
     atom    9 type  3   force =    -0.00000000    3.00608891    5.13288893
     atom   10 type  3   force =     0.00000000   -3.00608891   -5.13288893
     atom   11 type  3   force =    -0.00000000    3.00608891   -5.13288893
     atom   12 type  3   force =    -0.00000000   -3.00608891    5.13288893
     atom   13 type  3   force =     0.00000000    2.02422849   -3.75281499
     atom   14 type  3   force =     0.00000000   -2.02422849    3.75281499
     atom   15 type  3   force =    -0.00000000    2.02422849    3.75281499
     atom   16 type  3   force =    -0.00000000   -2.02422849   -3.75281499
     atom   17 type  3   force =     0.00000000   -4.20564473    2.10270404
     atom   18 type  3   force =    -0.00000000    4.20564473   -2.10270404
     atom   19 type  3   force =     0.00000000   -4.20564473   -2.10270404
     atom   20 type  3   force =    -0.00000000    4.20564473    2.10270404
     The local contribution  to forces
     atom    1 type  1   force =    -0.00000000   -0.02515237   -0.42688760
     atom    2 type  1   force =     0.00000000    0.02515237    0.42688760
     atom    3 type  1   force =    -0.00000000   -0.02515237    0.42688760
     atom    4 type  1   force =     0.00000000    0.02515237   -0.42688760
     atom    5 type  2   force =    -0.00000000    2.53160844    1.73388869
     atom    6 type  2   force =    -0.00000000   -2.53160844   -1.73388869
     atom    7 type  2   force =    -0.00000000    2.53160844   -1.73388869
     atom    8 type  2   force =    -0.00000000   -2.53160844    1.73388869
     atom    9 type  3   force =    -0.00000000   -2.96795344   -5.09444660
     atom   10 type  3   force =     0.00000000    2.96795344    5.09444660
     atom   11 type  3   force =    -0.00000000   -2.96795344    5.09444660
     atom   12 type  3   force =     0.00000000    2.96795344   -5.09444660
     atom   13 type  3   force =    -0.00000000   -1.99627215    3.70472038
     atom   14 type  3   force =     0.00000000    1.99627215   -3.70472038
     atom   15 type  3   force =    -0.00000000   -1.99627215   -3.70472038
     atom   16 type  3   force =     0.00000000    1.99627215    3.70472038
     atom   17 type  3   force =     0.00000000    4.16093422   -2.09020323
     atom   18 type  3   force =    -0.00000000   -4.16093422    2.09020323
     atom   19 type  3   force =     0.00000000    4.16093422    2.09020323
     atom   20 type  3   force =    -0.00000000   -4.16093422   -2.09020323
     The core correction contribution to forces
     atom    1 type  1   force =    -0.00000000   -0.00014686    0.00004002
     atom    2 type  1   force =     0.00000000    0.00014686   -0.00004002
     atom    3 type  1   force =    -0.00000000   -0.00014686   -0.00004002
     atom    4 type  1   force =     0.00000000    0.00014686    0.00004002
     atom    5 type  2   force =     0.00000000    0.00019377    0.00004266
     atom    6 type  2   force =    -0.00000000   -0.00019377   -0.00004266
     atom    7 type  2   force =     0.00000000    0.00019377   -0.00004266
     atom    8 type  2   force =    -0.00000000   -0.00019377    0.00004266
     atom    9 type  3   force =     0.00000000    0.00641218    0.00649356
     atom   10 type  3   force =    -0.00000000   -0.00641218   -0.00649356
     atom   11 type  3   force =     0.00000000    0.00641218   -0.00649356
     atom   12 type  3   force =     0.00000000   -0.00641218    0.00649356
     atom   13 type  3   force =     0.00000000    0.00436257   -0.00748862
     atom   14 type  3   force =    -0.00000000   -0.00436257    0.00748862
     atom   15 type  3   force =     0.00000000    0.00436257    0.00748862
     atom   16 type  3   force =    -0.00000000   -0.00436257   -0.00748862
     atom   17 type  3   force =    -0.00000000   -0.00769339    0.00252947
     atom   18 type  3   force =     0.00000000    0.00769339   -0.00252947
     atom   19 type  3   force =    -0.00000000   -0.00769339   -0.00252947
     atom   20 type  3   force =     0.00000000    0.00769339    0.00252947
     The Hubbard contrib.    to forces
     atom    1 type  1   force =     0.00000000    0.00000000    0.00000000
     atom    2 type  1   force =     0.00000000    0.00000000    0.00000000
     atom    3 type  1   force =     0.00000000    0.00000000    0.00000000
     atom    4 type  1   force =     0.00000000    0.00000000    0.00000000
     atom    5 type  2   force =     0.00000000    0.00000000    0.00000000
     atom    6 type  2   force =     0.00000000    0.00000000    0.00000000
     atom    7 type  2   force =     0.00000000    0.00000000    0.00000000
     atom    8 type  2   force =     0.00000000    0.00000000    0.00000000
     atom    9 type  3   force =     0.00000000    0.00000000    0.00000000
     atom   10 type  3   force =     0.00000000    0.00000000    0.00000000
     atom   11 type  3   force =     0.00000000    0.00000000    0.00000000
     atom   12 type  3   force =     0.00000000    0.00000000    0.00000000
     atom   13 type  3   force =     0.00000000    0.00000000    0.00000000
     atom   14 type  3   force =     0.00000000    0.00000000    0.00000000
     atom   15 type  3   force =     0.00000000    0.00000000    0.00000000
     atom   16 type  3   force =     0.00000000    0.00000000    0.00000000
     atom   17 type  3   force =     0.00000000    0.00000000    0.00000000
     atom   18 type  3   force =     0.00000000    0.00000000    0.00000000
     atom   19 type  3   force =     0.00000000    0.00000000    0.00000000
     atom   20 type  3   force =     0.00000000    0.00000000    0.00000000
     The SCF correction term to forces
     atom    1 type  1   force =    -0.00000000   -0.00001748   -0.00007362
     atom    2 type  1   force =     0.00000000    0.00001748    0.00007362
     atom    3 type  1   force =     0.00000000   -0.00001748    0.00007362
     atom    4 type  1   force =    -0.00000000    0.00001748   -0.00007362
     atom    5 type  2   force =     0.00000000   -0.00022497   -0.00011824
     atom    6 type  2   force =    -0.00000000    0.00022497    0.00011824
     atom    7 type  2   force =     0.00000000   -0.00022497    0.00011824
     atom    8 type  2   force =     0.00000000    0.00022497   -0.00011824
     atom    9 type  3   force =     0.00000000    0.00012664    0.00023627
     atom   10 type  3   force =     0.00000000   -0.00012664   -0.00023627
     atom   11 type  3   force =    -0.00000000    0.00012664   -0.00023627
     atom   12 type  3   force =    -0.00000000   -0.00012664    0.00023627
     atom   13 type  3   force =    -0.00000000    0.00009613   -0.00012022
     atom   14 type  3   force =     0.00000000   -0.00009613    0.00012022
     atom   15 type  3   force =     0.00000000    0.00009613    0.00012022
     atom   16 type  3   force =    -0.00000000   -0.00009613   -0.00012022
     atom   17 type  3   force =    -0.00000000   -0.00030749    0.00010408
     atom   18 type  3   force =     0.00000000    0.00030749   -0.00010408
     atom   19 type  3   force =     0.00000000   -0.00030749   -0.00010408
     atom   20 type  3   force =     0.00000000    0.00030749    0.00010408

     Total force =     0.011282     Total SCF correction =     0.001042


     Computing stress (Cartesian axis) and pressure

          total   stress  (Ry/bohr**3)                   (kbar)     P=       -0.78
   0.00002138   0.00000000   0.00000000            3.14        0.00        0.00
   0.00000000  -0.00002321   0.00000000            0.00       -3.41        0.00
   0.00000000   0.00000000  -0.00001403            0.00        0.00       -2.06

     kinetic stress (kbar)   5530.00      0.00      0.00
                                0.00   5530.85      0.00
                                0.00      0.00   5526.78

     local   stress (kbar)  -4523.73     -0.00     -0.00
                               -0.00  -1881.70      0.00
                               -0.00      0.00   -989.87

     nonloc. stress (kbar)   1142.50      0.00      0.00
                                0.00   1138.07      0.00
                                0.00      0.00   1141.26

     hartree stress (kbar)   3405.06      0.00     -0.00
                                0.00   2187.66     -0.00
                               -0.00     -0.00   1718.56

     exc-cor stress (kbar)   5446.65      0.00      0.00
                                0.00   5446.23      0.00
                                0.00      0.00   5446.70

     corecor stress (kbar)  -7212.53     -0.00     -0.00
                               -0.00  -7212.37     -0.00
                               -0.00     -0.00  -7212.40

     ewald   stress (kbar)  -3784.80      0.00     -0.00
                                0.00  -5212.16      0.00
                               -0.00      0.00  -5633.09

     hubbard stress (kbar)      0.00      0.00      0.00
                                0.00      0.00      0.00
                                0.00      0.00      0.00

     DFT-D   stress (kbar)      0.00      0.00      0.00
                                0.00      0.00      0.00
                                0.00      0.00      0.00

     XDM     stress (kbar)      0.00      0.00      0.00
                                0.00      0.00      0.00
                                0.00      0.00      0.00

     dft-nl  stress (kbar)      0.00      0.00      0.00
                                0.00      0.00      0.00
                                0.00      0.00      0.00

     TS-vdW  stress (kbar)      0.00      0.00      0.00
                                0.00      0.00      0.00
                                0.00      0.00      0.00



     Writing output data file ./CsSnI3.save/
 
     init_run     :      6.57s CPU      7.94s WALL (       1 calls)
     electrons    :    150.69s CPU    157.38s WALL (       1 calls)
     forces       :      3.82s CPU      4.01s WALL (       1 calls)
     stress       :     21.23s CPU     21.66s WALL (       1 calls)

     Called by init_run:
     wfcinit      :      2.84s CPU      3.91s WALL (       1 calls)
     wfcinit:atom :      0.01s CPU      0.01s WALL (       8 calls)
     wfcinit:wfcr :      2.66s CPU      2.77s WALL (       8 calls)
     potinit      :      0.86s CPU      0.90s WALL (       1 calls)
     hinit0       :      1.05s CPU      1.13s WALL (       1 calls)

     Called by electrons:
     c_bands      :    111.23s CPU    112.20s WALL (      13 calls)
     sum_band     :     23.91s CPU     27.21s WALL (      13 calls)
     v_of_rho     :      1.12s CPU      1.14s WALL (      13 calls)
     v_h          :      0.09s CPU      0.09s WALL (      13 calls)
     v_xc         :      1.19s CPU      1.21s WALL (      15 calls)
     newd         :      9.19s CPU     11.37s WALL (      13 calls)
     PAW_pot      :      5.94s CPU      5.98s WALL (      13 calls)
     mix_rho      :      0.33s CPU      0.33s WALL (      13 calls)

     Called by c_bands:
     init_us_2    :      2.88s CPU      2.88s WALL (     232 calls)
     cegterg      :    102.02s CPU    102.95s WALL (     104 calls)

     Called by sum_band:
     sum_band:wei :      0.00s CPU      0.00s WALL (      13 calls)
     sum_band:loo :     13.59s CPU     13.71s WALL (      13 calls)
     sum_band:buf :      0.23s CPU      0.24s WALL (     104 calls)
     sum_band:ini :      1.11s CPU      1.11s WALL (     104 calls)
     sum_band:cal :      3.37s CPU      3.36s WALL (     104 calls)
     sum_band:bec :      0.10s CPU      0.10s WALL (     104 calls)
     addusdens    :      9.79s CPU     12.97s WALL (      13 calls)
     addusd:skk   :      0.05s CPU      0.05s WALL (      39 calls)
     addusd:dgemm :      4.18s CPU      7.27s WALL (      39 calls)
     addusd:qvan2 :      5.22s CPU      5.23s WALL (      39 calls)

     Called by *egterg:
     cdiaghg      :      7.48s CPU      7.62s WALL (     587 calls)
     cegterg:over :      6.40s CPU      6.42s WALL (     491 calls)
     cegterg:upda :      2.97s CPU      2.98s WALL (     491 calls)
     cegterg:last :      5.42s CPU      5.43s WALL (     251 calls)
     h_psi        :     70.27s CPU     71.11s WALL (     603 calls)
     s_psi        :      8.41s CPU      8.42s WALL (     603 calls)
     g_psi        :      0.16s CPU      0.16s WALL (     491 calls)

     Called by h_psi:
     h_psi:calbec :     11.87s CPU     11.90s WALL (     603 calls)
     vloc_psi     :     49.23s CPU     49.99s WALL (     603 calls)
     add_vuspsi   :      8.59s CPU      8.63s WALL (     603 calls)

     General routines
     calbec       :     17.34s CPU     17.37s WALL (     747 calls)
     fft          :      1.15s CPU      1.24s WALL (     193 calls)
     ffts         :      0.07s CPU      0.07s WALL (      26 calls)
     fftw         :     54.29s CPU     55.12s WALL (   64106 calls)
     interpolate  :      0.11s CPU      0.11s WALL (      13 calls)
 
     Parallel routines
     fft_scatt_xy :      4.32s CPU      4.38s WALL (   64325 calls)
     fft_scatt_yz :     33.15s CPU     33.69s WALL (   64325 calls)

     PAW routines
     PAW_pot      :      5.94s CPU      5.98s WALL (      13 calls)
     PAW_symme    :      0.07s CPU      0.07s WALL (      26 calls)
 
     PWSCF        :   3m 9.99s CPU   3m20.46s WALL

 
   This run was terminated on:  12:34:27  14Jan2021            

=------------------------------------------------------------------------------=
   JOB DONE.
=------------------------------------------------------------------------------=
