
     Program PWSCF v.6.7MaX starts on 31Jan2021 at 10:38:24 

     This program is part of the open-source Quantum ESPRESSO suite
     for quantum simulation of materials; please cite
         "P. Giannozzi et al., J. Phys.:Condens. Matter 21 395502 (2009);
         "P. Giannozzi et al., J. Phys.:Condens. Matter 29 465901 (2017);
          URL http://www.quantum-espresso.org", 
     in publications or presentations arising from this work. More details at
     http://www.quantum-espresso.org/quote

     Parallel version (MPI & OpenMP), running on      96 processor cores
     Number of MPI processes:                48
     Threads/MPI process:                     2

     MPI processes distributed on     2 nodes
     R & G space division:  proc/nbgrp/npool/nimage =      48
     Waiting for input...
     Reading input from standard input

     Current dimensions of program PWSCF are:
     Max number of different atomic species (ntypx) = 10
     Max number of k-points (npk) =  40000
     Max angular momentum in pseudopotentials (lmaxx) =  3
     file Sn.rel-pbesol-dn-rrkjus_psl.1.0.0.UPF: wavefunction(s)  5S 4D 4D renormalized
     file I.rel-pbesol-n-rrkjus_psl.1.0.0.UPF: wavefunction(s)  5S renormalized

     Subspace diagonalization in iterative solution of the eigenvalue problem:
     a serial algorithm will be used


     Parallelization info
     --------------------
     sticks:   dense  smooth     PW     G-vecs:    dense   smooth      PW
     Min         206     165     43                15502    11087    1507
     Max         207     166     44                15509    11092    1512
     Sum        9925    7957   2093               744293   532289   72455


     Title: 
     SnI2                                                                       


     bravais-lattice index     =            1
     lattice parameter (alat)  =      14.4199  a.u.
     unit-cell volume          =    2998.4083 (a.u.)^3
     number of atoms/cell      =            6
     number of atomic types    =            2
     number of electrons       =        56.00
     number of Kohn-Sham states=           56
     kinetic-energy cutoff     =     120.0000  Ry
     charge density cutoff     =     600.0000  Ry
     scf convergence threshold =      1.0E-06
     mixing beta               =       0.3500
     number of iterations used =            8  plain     mixing
     Exchange-correlation= PBESOL
                           (   1   4  10   8   0   0   0)
     Non magnetic calculation with spin-orbit


     celldm(1)=  14.419944  celldm(2)=   0.000000  celldm(3)=   0.000000
     celldm(4)=   0.000000  celldm(5)=   0.000000  celldm(6)=   0.000000

     crystal axes: (cart. coord. in units of alat)
               a(1) = (   1.000000   0.000000   0.000000 )  
               a(2) = (   0.000000   1.000000   0.000000 )  
               a(3) = (   0.000000   0.000000   1.000000 )  

     reciprocal axes: (cart. coord. in units 2 pi/alat)
               b(1) = (  1.000000  0.000000  0.000000 )  
               b(2) = (  0.000000  1.000000  0.000000 )  
               b(3) = (  0.000000  0.000000  1.000000 )  


     PseudoPot. # 1 for Sn read from file:
     /scratch/cmalosso/degironcoli/pseudo/pseudo-usp/Sn.rel-pbesol-dn-rrkjus_psl.1.0.0.UPF
     MD5 check sum: c1cf6ea56b96a3656bdf0d1db379e093
     Pseudo is Ultrasoft + core correction, Zval = 14.0
     Generated using &quot;atomic&quot; code by A. Dal Corso  v.6.3
     Using radial grid of 1243 points, 10 beta functions with: 
                l(1) =   0
                l(2) =   0
                l(3) =   1
                l(4) =   1
                l(5) =   1
                l(6) =   1
                l(7) =   2
                l(8) =   2
                l(9) =   2
               l(10) =   2
     Q(r) pseudized with 0 coefficients 


     PseudoPot. # 2 for I  read from file:
     /scratch/cmalosso/degironcoli/pseudo/pseudo-usp/I.rel-pbesol-n-rrkjus_psl.1.0.0.UPF
     MD5 check sum: 0f96c6bfb1b448f280658f96eb466b08
     Pseudo is Ultrasoft + core correction, Zval =  7.0
     Generated using &quot;atomic&quot; code by A. Dal Corso  v.6.3
     Using radial grid of 1247 points, 10 beta functions with: 
                l(1) =   0
                l(2) =   0
                l(3) =   1
                l(4) =   1
                l(5) =   1
                l(6) =   1
                l(7) =   2
                l(8) =   2
                l(9) =   2
               l(10) =   2
     Q(r) pseudized with 0 coefficients 


     atomic species   valence    mass     pseudopotential
        Sn            14.00   118.70000     Sn( 1.00)
        I              7.00   126.90000     I ( 1.00)

     16 Sym. Ops., with inversion, found ( 8 have fractional translation)


                                    s                        frac. trans.

      isym =  1     identity                                     

 cryst.   s( 1) = (     1          0          0      )
                  (     0          1          0      )
                  (     0          0          1      )

 cart.    s( 1) = (  1.0000000  0.0000000  0.0000000 )
                  (  0.0000000  1.0000000  0.0000000 )
                  (  0.0000000  0.0000000  1.0000000 )


      isym =  2     180 deg rotation - cart. axis [0,0,1]        

 cryst.   s( 2) = (    -1          0          0      )
                  (     0         -1          0      )
                  (     0          0          1      )

 cart.    s( 2) = ( -1.0000000  0.0000000  0.0000000 )
                  (  0.0000000 -1.0000000  0.0000000 )
                  (  0.0000000  0.0000000  1.0000000 )


      isym =  3     180 deg rotation - cart. axis [0,1,0]        

 cryst.   s( 3) = (    -1          0          0      )    f =(  0.5000000 )
                  (     0          1          0      )       ( -0.5000000 )
                  (     0          0         -1      )       (  0.5000000 )

 cart.    s( 3) = ( -1.0000000  0.0000000  0.0000000 )    f =(  0.5000000 )
                  (  0.0000000  1.0000000  0.0000000 )       ( -0.5000000 )
                  (  0.0000000  0.0000000 -1.0000000 )       (  0.5000000 )


      isym =  4     180 deg rotation - cart. axis [1,0,0]        

 cryst.   s( 4) = (     1          0          0      )    f =( -0.5000000 )
                  (     0         -1          0      )       (  0.5000000 )
                  (     0          0         -1      )       (  0.5000000 )

 cart.    s( 4) = (  1.0000000  0.0000000  0.0000000 )    f =( -0.5000000 )
                  (  0.0000000 -1.0000000  0.0000000 )       (  0.5000000 )
                  (  0.0000000  0.0000000 -1.0000000 )       (  0.5000000 )


      isym =  5     180 deg rotation - cart. axis [1,1,0]        

 cryst.   s( 5) = (     0          1          0      )
                  (     1          0          0      )
                  (     0          0         -1      )

 cart.    s( 5) = (  0.0000000  1.0000000  0.0000000 )
                  (  1.0000000  0.0000000  0.0000000 )
                  (  0.0000000  0.0000000 -1.0000000 )


      isym =  6     180 deg rotation - cart. axis [1,-1,0]       

 cryst.   s( 6) = (     0         -1          0      )
                  (    -1          0          0      )
                  (     0          0         -1      )

 cart.    s( 6) = (  0.0000000 -1.0000000  0.0000000 )
                  ( -1.0000000  0.0000000  0.0000000 )
                  (  0.0000000  0.0000000 -1.0000000 )


      isym =  7      90 deg rotation - cart. axis [0,0,-1]       

 cryst.   s( 7) = (     0         -1          0      )    f =( -0.5000000 )
                  (     1          0          0      )       (  0.5000000 )
                  (     0          0          1      )       ( -0.5000000 )

 cart.    s( 7) = (  0.0000000  1.0000000  0.0000000 )    f =( -0.5000000 )
                  ( -1.0000000  0.0000000  0.0000000 )       (  0.5000000 )
                  (  0.0000000  0.0000000  1.0000000 )       ( -0.5000000 )


      isym =  8      90 deg rotation - cart. axis [0,0,1]        

 cryst.   s( 8) = (     0          1          0      )    f =(  0.5000000 )
                  (    -1          0          0      )       ( -0.5000000 )
                  (     0          0          1      )       ( -0.5000000 )

 cart.    s( 8) = (  0.0000000 -1.0000000  0.0000000 )    f =(  0.5000000 )
                  (  1.0000000  0.0000000  0.0000000 )       ( -0.5000000 )
                  (  0.0000000  0.0000000  1.0000000 )       ( -0.5000000 )


      isym =  9     inversion                                    

 cryst.   s( 9) = (    -1          0          0      )
                  (     0         -1          0      )
                  (     0          0         -1      )

 cart.    s( 9) = ( -1.0000000  0.0000000  0.0000000 )
                  (  0.0000000 -1.0000000  0.0000000 )
                  (  0.0000000  0.0000000 -1.0000000 )


      isym = 10     inv. 180 deg rotation - cart. axis [0,0,1]   

 cryst.   s(10) = (     1          0          0      )
                  (     0          1          0      )
                  (     0          0         -1      )

 cart.    s(10) = (  1.0000000  0.0000000  0.0000000 )
                  (  0.0000000  1.0000000  0.0000000 )
                  (  0.0000000  0.0000000 -1.0000000 )


      isym = 11     inv. 180 deg rotation - cart. axis [0,1,0]   

 cryst.   s(11) = (     1          0          0      )    f =( -0.5000000 )
                  (     0         -1          0      )       (  0.5000000 )
                  (     0          0          1      )       ( -0.5000000 )

 cart.    s(11) = (  1.0000000  0.0000000  0.0000000 )    f =( -0.5000000 )
                  (  0.0000000 -1.0000000  0.0000000 )       (  0.5000000 )
                  (  0.0000000  0.0000000  1.0000000 )       ( -0.5000000 )


      isym = 12     inv. 180 deg rotation - cart. axis [1,0,0]   

 cryst.   s(12) = (    -1          0          0      )    f =(  0.5000000 )
                  (     0          1          0      )       ( -0.5000000 )
                  (     0          0          1      )       ( -0.5000000 )

 cart.    s(12) = ( -1.0000000  0.0000000  0.0000000 )    f =(  0.5000000 )
                  (  0.0000000  1.0000000  0.0000000 )       ( -0.5000000 )
                  (  0.0000000  0.0000000  1.0000000 )       ( -0.5000000 )


      isym = 13     inv. 180 deg rotation - cart. axis [1,1,0]   

 cryst.   s(13) = (     0         -1          0      )
                  (    -1          0          0      )
                  (     0          0          1      )

 cart.    s(13) = (  0.0000000 -1.0000000  0.0000000 )
                  ( -1.0000000  0.0000000  0.0000000 )
                  (  0.0000000  0.0000000  1.0000000 )


      isym = 14     inv. 180 deg rotation - cart. axis [1,-1,0]  

 cryst.   s(14) = (     0          1          0      )
                  (     1          0          0      )
                  (     0          0          1      )

 cart.    s(14) = (  0.0000000  1.0000000  0.0000000 )
                  (  1.0000000  0.0000000  0.0000000 )
                  (  0.0000000  0.0000000  1.0000000 )


      isym = 15     inv.  90 deg rotation - cart. axis [0,0,-1]  

 cryst.   s(15) = (     0          1          0      )    f =(  0.5000000 )
                  (    -1          0          0      )       ( -0.5000000 )
                  (     0          0         -1      )       (  0.5000000 )

 cart.    s(15) = (  0.0000000 -1.0000000  0.0000000 )    f =(  0.5000000 )
                  (  1.0000000  0.0000000  0.0000000 )       ( -0.5000000 )
                  (  0.0000000  0.0000000 -1.0000000 )       (  0.5000000 )


      isym = 16     inv.  90 deg rotation - cart. axis [0,0,1]   

 cryst.   s(16) = (     0         -1          0      )    f =( -0.5000000 )
                  (     1          0          0      )       (  0.5000000 )
                  (     0          0         -1      )       (  0.5000000 )

 cart.    s(16) = (  0.0000000  1.0000000  0.0000000 )    f =( -0.5000000 )
                  ( -1.0000000  0.0000000  0.0000000 )       (  0.5000000 )
                  (  0.0000000  0.0000000 -1.0000000 )       (  0.5000000 )


     double point group D_4h(4/mmm)
     there are 14 classes and  4 irreducible representations
     the character table:

       E     -E    2C4   -2C4   C2    2C2' 2C2'' i     -i    2S4   -2S4   s_h 
                               -C2   -2C2' -2C2'                         -s_h 
G_6+   2.00 -2.00  1.41 -1.41  0.00  0.00  0.00  2.00 -2.00  1.41 -1.41  0.00
G_7+   2.00 -2.00 -1.41  1.41  0.00  0.00  0.00  2.00 -2.00 -1.41  1.41  0.00
G_6-   2.00 -2.00  1.41 -1.41  0.00  0.00  0.00 -2.00  2.00 -1.41  1.41  0.00
G_7-   2.00 -2.00 -1.41  1.41  0.00  0.00  0.00 -2.00  2.00  1.41 -1.41  0.00

        2s_v  2s_d
       -2s_v -2s_d
G_6+   0.00  0.00
G_7+   0.00  0.00
G_6-   0.00  0.00
G_7-   0.00  0.00

     the symmetry operations in each class and the name of the first element:

     E             1
          identity                                               
     -E           -1
          identity E                                             
     2C4           7    8
           90 deg rotation - cart. axis [0,0,-1]                 
     -2C4         -7   -8
           90 deg rotation - cart. axis [0,0,-1] E               
      C2  -C2      2   -2
          180 deg rotation - cart. axis [0,0,1]                  
      2C2'-2C2'    3   -3    4   -4
          180 deg rotation - cart. axis [0,1,0]                  
     2C2''-2C2'    5   -5   -6    6
          180 deg rotation - cart. axis [1,1,0]                  
     i             9
          inversion                                              
     -i           -9
          inversion E                                            
     2S4          15   16
          inv.  90 deg rotation - cart. axis [0,0,-1]            
     -2S4        -15  -16
          inv.  90 deg rotation - cart. axis [0,0,-1] E          
      s_h -s_h    10  -10
          inv. 180 deg rotation - cart. axis [0,0,1]             
      2s_v-2s_v   11  -11   12  -12
          inv. 180 deg rotation - cart. axis [0,1,0]             
      2s_d-2s_d   13  -13  -14   14
          inv. 180 deg rotation - cart. axis [1,1,0]             

   Cartesian axes

     site n.     atom                  positions (alat units)
         1           Sn  tau(   1) = (   0.0000000   0.0000000   0.0000000  )
         2           Sn  tau(   2) = (   0.5000000   0.5000000   0.5000000  )
         3           I   tau(   3) = (   0.2985210   0.2985210   0.0000000  )
         4           I   tau(   4) = (   0.7014790   0.7014790   0.0000000  )
         5           I   tau(   5) = (   0.7985210   0.2014790   0.5000000  )
         6           I   tau(   6) = (   0.2014790   0.7985210   0.5000000  )

   Crystallographic axes

     site n.     atom                  positions (cryst. coord.)
         1           Sn  tau(   1) = (  0.0000000  0.0000000  0.0000000  )
         2           Sn  tau(   2) = (  0.5000000  0.5000000  0.5000000  )
         3           I   tau(   3) = (  0.2985210  0.2985210  0.0000000  )
         4           I   tau(   4) = (  0.7014790  0.7014790  0.0000000  )
         5           I   tau(   5) = (  0.7985210  0.2014790  0.5000000  )
         6           I   tau(   6) = (  0.2014790  0.7985210  0.5000000  )

     number of k points=    18
                       cart. coord. in units 2pi/alat
        k(    1) = (   0.0833333   0.0833333   0.0833333), wk =   0.0370370
        k(    2) = (   0.0833333   0.0833333   0.2500000), wk =   0.0370370
        k(    3) = (   0.0833333   0.0833333   0.4166667), wk =   0.0370370
        k(    4) = (   0.0833333   0.2500000   0.2500000), wk =   0.0740741
        k(    5) = (   0.0833333   0.2500000   0.4166667), wk =   0.0740741
        k(    6) = (   0.0833333   0.4166667   0.4166667), wk =   0.0740741
        k(    7) = (   0.2500000   0.2500000   0.2500000), wk =   0.0370370
        k(    8) = (   0.2500000   0.2500000   0.4166667), wk =   0.0370370
        k(    9) = (   0.2500000   0.4166667   0.4166667), wk =   0.0740741
        k(   10) = (   0.4166667   0.4166667   0.4166667), wk =   0.0370370
        k(   11) = (   0.0833333   0.2500000   0.0833333), wk =   0.0740741
        k(   12) = (   0.0833333   0.4166667   0.0833333), wk =   0.0740741
        k(   13) = (   0.2500000   0.2500000   0.0833333), wk =   0.0370370
        k(   14) = (   0.2500000   0.4166667   0.0833333), wk =   0.0740741
        k(   15) = (   0.4166667   0.0833333   0.2500000), wk =   0.0740741
        k(   16) = (   0.4166667   0.4166667   0.0833333), wk =   0.0370370
        k(   17) = (   0.2500000   0.4166667   0.2500000), wk =   0.0740741
        k(   18) = (   0.4166667   0.4166667   0.2500000), wk =   0.0370370

                       cryst. coord.
        k(    1) = (   0.0833333   0.0833333   0.0833333), wk =   0.0370370
        k(    2) = (   0.0833333   0.0833333   0.2500000), wk =   0.0370370
        k(    3) = (   0.0833333   0.0833333   0.4166667), wk =   0.0370370
        k(    4) = (   0.0833333   0.2500000   0.2500000), wk =   0.0740741
        k(    5) = (   0.0833333   0.2500000   0.4166667), wk =   0.0740741
        k(    6) = (   0.0833333   0.4166667   0.4166667), wk =   0.0740741
        k(    7) = (   0.2500000   0.2500000   0.2500000), wk =   0.0370370
        k(    8) = (   0.2500000   0.2500000   0.4166667), wk =   0.0370370
        k(    9) = (   0.2500000   0.4166667   0.4166667), wk =   0.0740741
        k(   10) = (   0.4166667   0.4166667   0.4166667), wk =   0.0370370
        k(   11) = (   0.0833333   0.2500000   0.0833333), wk =   0.0740741
        k(   12) = (   0.0833333   0.4166667   0.0833333), wk =   0.0740741
        k(   13) = (   0.2500000   0.2500000   0.0833333), wk =   0.0370370
        k(   14) = (   0.2500000   0.4166667   0.0833333), wk =   0.0740741
        k(   15) = (   0.4166667   0.0833333   0.2500000), wk =   0.0740741
        k(   16) = (   0.4166667   0.4166667   0.0833333), wk =   0.0370370
        k(   17) = (   0.2500000   0.4166667   0.2500000), wk =   0.0740741
        k(   18) = (   0.4166667   0.4166667   0.2500000), wk =   0.0370370

     Dense  grid:   744293 G-vectors     FFT dimensions: ( 120, 120, 120)

     Smooth grid:   532289 G-vectors     FFT dimensions: ( 108, 108, 108)

     Dynamical RAM for                 wfc:       2.37 MB

     Dynamical RAM for     wfc (w. buffer):      45.00 MB

     Dynamical RAM for           str. fact:       0.47 MB

     Dynamical RAM for           local pot:       0.00 MB

     Dynamical RAM for          nlocal pot:       4.31 MB

     Dynamical RAM for                qrad:      10.29 MB

     Dynamical RAM for          rho,v,vnew:       6.79 MB

     Dynamical RAM for               rhoin:       2.26 MB

     Dynamical RAM for            rho*nmix:      15.15 MB

     Dynamical RAM for           G-vectors:       0.97 MB

     Dynamical RAM for          h,s,v(r/c):       0.57 MB

     Dynamical RAM for          <psi|beta>:       0.35 MB

     Dynamical RAM for                 psi:       4.74 MB

     Dynamical RAM for                hpsi:       4.74 MB

     Dynamical RAM for                spsi:       4.74 MB

     Dynamical RAM for      wfcinit/wfcrot:       4.42 MB

     Dynamical RAM for           addusdens:     145.30 MB

     Dynamical RAM for          addusforce:     146.89 MB

     Dynamical RAM for         addusstress:     148.62 MB

     Estimated static dynamical RAM per process >      88.61 MB

     Estimated max dynamical RAM per process >     237.22 MB

     Estimated total dynamical RAM >      11.12 GB

     Initial potential from superposition of free atoms

     starting charge   55.99772, renormalised to   56.00000
     Starting wfcs are   68 randomized atomic wfcs

     total cpu time spent up to now is       12.6 secs

     Self-consistent Calculation

     iteration #  1     ecut=   120.00 Ry     beta= 0.35
     Davidson diagonalization with overlap
     ethr =  1.00E-02,  avg # of iterations =  1.0

     total cpu time spent up to now is       34.0 secs

     total energy              =    -458.30175843 Ry
     estimated scf accuracy    <       0.58928348 Ry

     iteration #  2     ecut=   120.00 Ry     beta= 0.35
     Davidson diagonalization with overlap
     ethr =  1.05E-03,  avg # of iterations =  3.0

     total cpu time spent up to now is       56.8 secs

     total energy              =    -458.37942226 Ry
     estimated scf accuracy    <       0.06222646 Ry

     iteration #  3     ecut=   120.00 Ry     beta= 0.35
     Davidson diagonalization with overlap
     ethr =  1.11E-04,  avg # of iterations =  5.4

     total cpu time spent up to now is       85.7 secs

     total energy              =    -458.39290012 Ry
     estimated scf accuracy    <       0.04770074 Ry

     iteration #  4     ecut=   120.00 Ry     beta= 0.35
     Davidson diagonalization with overlap
     ethr =  8.52E-05,  avg # of iterations =  5.3

     total cpu time spent up to now is      113.2 secs

     total energy              =    -458.40331539 Ry
     estimated scf accuracy    <       0.03394793 Ry

     iteration #  5     ecut=   120.00 Ry     beta= 0.35
     Davidson diagonalization with overlap
     ethr =  6.06E-05,  avg # of iterations =  4.2

     total cpu time spent up to now is      136.5 secs

     total energy              =    -458.40975626 Ry
     estimated scf accuracy    <       0.00084150 Ry

     iteration #  6     ecut=   120.00 Ry     beta= 0.35
     Davidson diagonalization with overlap
     ethr =  1.50E-06,  avg # of iterations = 10.1

     total cpu time spent up to now is      174.8 secs

     total energy              =    -458.40831672 Ry
     estimated scf accuracy    <       0.00894410 Ry

     iteration #  7     ecut=   120.00 Ry     beta= 0.35
     Davidson diagonalization with overlap
     ethr =  1.50E-06,  avg # of iterations =  7.4

     total cpu time spent up to now is      207.7 secs

     total energy              =    -458.41049174 Ry
     estimated scf accuracy    <       0.00061159 Ry

     iteration #  8     ecut=   120.00 Ry     beta= 0.35
     Davidson diagonalization with overlap
     ethr =  1.09E-06,  avg # of iterations =  2.4

     total cpu time spent up to now is      228.9 secs

     total energy              =    -458.41053521 Ry
     estimated scf accuracy    <       0.00007847 Ry

     iteration #  9     ecut=   120.00 Ry     beta= 0.35
     Davidson diagonalization with overlap
     ethr =  1.40E-07,  avg # of iterations =  5.3

     total cpu time spent up to now is      256.6 secs

     total energy              =    -458.41057039 Ry
     estimated scf accuracy    <       0.00000174 Ry

     iteration # 10     ecut=   120.00 Ry     beta= 0.35
     Davidson diagonalization with overlap
     ethr =  3.12E-09,  avg # of iterations =  8.5

     total cpu time spent up to now is      289.1 secs

     total energy              =    -458.41057129 Ry
     estimated scf accuracy    <       0.00000533 Ry

     iteration # 11     ecut=   120.00 Ry     beta= 0.35
     Davidson diagonalization with overlap
     ethr =  3.12E-09,  avg # of iterations =  2.0

     total cpu time spent up to now is      309.3 secs

     total energy              =    -458.41057051 Ry
     estimated scf accuracy    <       0.00000265 Ry

     iteration # 12     ecut=   120.00 Ry     beta= 0.35
     Davidson diagonalization with overlap
     ethr =  3.12E-09,  avg # of iterations =  5.1

     total cpu time spent up to now is      334.7 secs

     End of self-consistent calculation

          k = 0.0833 0.0833 0.0833 ( 66608 PWs)   bands (ev):

   -23.2613 -23.2613 -23.2613 -23.2613 -23.1365 -23.1365 -23.1364 -23.1364
   -22.2410 -22.2410 -22.2410 -22.2410 -22.1321 -22.1321 -22.1321 -22.1321
   -22.0812 -22.0812 -22.0812 -22.0812 -11.6213 -11.6213 -11.5307 -11.5307
   -11.4810 -11.4810 -11.4767 -11.4767  -7.0746  -7.0746  -6.8751  -6.8751
    -2.6883  -2.6883  -2.5267  -2.5267  -2.1404  -2.1404  -2.0292  -2.0292
    -1.8817  -1.8817  -1.5298  -1.5298  -1.2265  -1.2265  -1.1332  -1.1332
    -1.1083  -1.1083  -0.9959  -0.9959  -0.9242  -0.9242  -0.8837  -0.8837

     occupation numbers 
     1.0000   1.0000   1.0000   1.0000   1.0000   1.0000   1.0000   1.0000
     1.0000   1.0000   1.0000   1.0000   1.0000   1.0000   1.0000   1.0000
     1.0000   1.0000   1.0000   1.0000   1.0000   1.0000   1.0000   1.0000
     1.0000   1.0000   1.0000   1.0000   1.0000   1.0000   1.0000   1.0000
     1.0000   1.0000   1.0000   1.0000   1.0000   1.0000   1.0000   1.0000
     1.0000   1.0000   1.0000   1.0000   1.0000   1.0000   1.0000   1.0000
     1.0000   1.0000   1.0000   1.0000   1.0000   1.0000   1.0000   1.0000

          k = 0.0833 0.0833 0.2500 ( 66551 PWs)   bands (ev):

   -23.2613 -23.2613 -23.2613 -23.2613 -23.1365 -23.1365 -23.1364 -23.1364
   -22.2410 -22.2410 -22.2410 -22.2410 -22.1321 -22.1321 -22.1321 -22.1321
   -22.0812 -22.0812 -22.0812 -22.0812 -11.6090 -11.6090 -11.5425 -11.5425
   -11.4810 -11.4810 -11.4765 -11.4765  -7.0545  -7.0545  -6.9088  -6.9088
    -2.6756  -2.6756  -2.5240  -2.5240  -2.1289  -2.1289  -2.0076  -2.0076
    -1.8561  -1.8561  -1.5543  -1.5543  -1.2242  -1.2242  -1.1743  -1.1743
    -1.1317  -1.1317  -1.0238  -1.0238  -0.9345  -0.9345  -0.8971  -0.8971

     occupation numbers 
     1.0000   1.0000   1.0000   1.0000   1.0000   1.0000   1.0000   1.0000
     1.0000   1.0000   1.0000   1.0000   1.0000   1.0000   1.0000   1.0000
     1.0000   1.0000   1.0000   1.0000   1.0000   1.0000   1.0000   1.0000
     1.0000   1.0000   1.0000   1.0000   1.0000   1.0000   1.0000   1.0000
     1.0000   1.0000   1.0000   1.0000   1.0000   1.0000   1.0000   1.0000
     1.0000   1.0000   1.0000   1.0000   1.0000   1.0000   1.0000   1.0000
     1.0000   1.0000   1.0000   1.0000   1.0000   1.0000   1.0000   1.0000

          k = 0.0833 0.0833 0.4167 ( 66540 PWs)   bands (ev):

   -23.2613 -23.2613 -23.2613 -23.2613 -23.1364 -23.1364 -23.1364 -23.1364
   -22.2410 -22.2410 -22.2410 -22.2410 -22.1321 -22.1321 -22.1321 -22.1321
   -22.0812 -22.0812 -22.0812 -22.0812 -11.5878 -11.5878 -11.5631 -11.5631
   -11.4809 -11.4809 -11.4763 -11.4763  -7.0152  -7.0152  -6.9617  -6.9617
    -2.6634  -2.6634  -2.5199  -2.5199  -2.1277  -2.1277  -1.9902  -1.9902
    -1.7897  -1.7897  -1.6112  -1.6112  -1.2230  -1.2230  -1.2031  -1.2031
    -1.1354  -1.1354  -1.0586  -1.0586  -0.9615  -0.9615  -0.9112  -0.9112

     occupation numbers 
     1.0000   1.0000   1.0000   1.0000   1.0000   1.0000   1.0000   1.0000
     1.0000   1.0000   1.0000   1.0000   1.0000   1.0000   1.0000   1.0000
     1.0000   1.0000   1.0000   1.0000   1.0000   1.0000   1.0000   1.0000
     1.0000   1.0000   1.0000   1.0000   1.0000   1.0000   1.0000   1.0000
     1.0000   1.0000   1.0000   1.0000   1.0000   1.0000   1.0000   1.0000
     1.0000   1.0000   1.0000   1.0000   1.0000   1.0000   1.0000   1.0000
     1.0000   1.0000   1.0000   1.0000   1.0000   1.0000   1.0000   1.0000

          k = 0.0833 0.2500 0.2500 ( 66556 PWs)   bands (ev):

   -23.2613 -23.2613 -23.2613 -23.2613 -23.1365 -23.1365 -23.1364 -23.1364
   -22.2410 -22.2410 -22.2410 -22.2410 -22.1321 -22.1321 -22.1321 -22.1321
   -22.0812 -22.0812 -22.0812 -22.0812 -11.5940 -11.5940 -11.5377 -11.5377
   -11.4955 -11.4955 -11.4826 -11.4826  -7.0314  -7.0314  -6.9241  -6.9241
    -2.8229  -2.8229  -2.6488  -2.6488  -2.0989  -2.0989  -1.9414  -1.9414
    -1.8141  -1.8141  -1.5762  -1.5762  -1.2496  -1.2496  -1.1820  -1.1820
    -1.0524  -1.0524  -0.9638  -0.9638  -0.8990  -0.8990  -0.7151  -0.7151

     occupation numbers 
     1.0000   1.0000   1.0000   1.0000   1.0000   1.0000   1.0000   1.0000
     1.0000   1.0000   1.0000   1.0000   1.0000   1.0000   1.0000   1.0000
     1.0000   1.0000   1.0000   1.0000   1.0000   1.0000   1.0000   1.0000
     1.0000   1.0000   1.0000   1.0000   1.0000   1.0000   1.0000   1.0000
     1.0000   1.0000   1.0000   1.0000   1.0000   1.0000   1.0000   1.0000
     1.0000   1.0000   1.0000   1.0000   1.0000   1.0000   1.0000   1.0000
     1.0000   1.0000   1.0000   1.0000   1.0000   1.0000   1.0000   1.0000

          k = 0.0833 0.2500 0.4167 ( 66550 PWs)   bands (ev):

   -23.2613 -23.2613 -23.2613 -23.2613 -23.1364 -23.1364 -23.1364 -23.1364
   -22.2410 -22.2410 -22.2410 -22.2410 -22.1321 -22.1321 -22.1321 -22.1321
   -22.0812 -22.0812 -22.0812 -22.0812 -11.5765 -11.5765 -11.5534 -11.5534
   -11.4953 -11.4953 -11.4835 -11.4835  -7.0046  -7.0046  -6.9639  -6.9639
    -2.8354  -2.8354  -2.6527  -2.6527  -2.0650  -2.0650  -1.8869  -1.8869
    -1.8346  -1.8346  -1.5843  -1.5843  -1.2566  -1.2566  -1.1778  -1.1778
    -1.0678  -1.0678  -0.9798  -0.9798  -0.8923  -0.8923  -0.7144  -0.7144

     occupation numbers 
     1.0000   1.0000   1.0000   1.0000   1.0000   1.0000   1.0000   1.0000
     1.0000   1.0000   1.0000   1.0000   1.0000   1.0000   1.0000   1.0000
     1.0000   1.0000   1.0000   1.0000   1.0000   1.0000   1.0000   1.0000
     1.0000   1.0000   1.0000   1.0000   1.0000   1.0000   1.0000   1.0000
     1.0000   1.0000   1.0000   1.0000   1.0000   1.0000   1.0000   1.0000
     1.0000   1.0000   1.0000   1.0000   1.0000   1.0000   1.0000   1.0000
     1.0000   1.0000   1.0000   1.0000   1.0000   1.0000   1.0000   1.0000

          k = 0.0833 0.4167 0.4167 ( 66574 PWs)   bands (ev):

   -23.2613 -23.2613 -23.2613 -23.2613 -23.1364 -23.1364 -23.1364 -23.1364
   -22.2410 -22.2410 -22.2410 -22.2410 -22.1321 -22.1321 -22.1321 -22.1321
   -22.0812 -22.0812 -22.0812 -22.0812 -11.5576 -11.5576 -11.5444 -11.5444
   -11.5085 -11.5085 -11.4988 -11.4988  -6.9883  -6.9883  -6.9718  -6.9718
    -2.9027  -2.9027  -2.8258  -2.8258  -2.0198  -2.0198  -1.9099  -1.9099
    -1.7858  -1.7858  -1.5862  -1.5862  -1.2440  -1.2440  -1.1975  -1.1975
    -0.9684  -0.9684  -0.9351  -0.9351  -0.7182  -0.7182  -0.5753  -0.5753

     occupation numbers 
     1.0000   1.0000   1.0000   1.0000   1.0000   1.0000   1.0000   1.0000
     1.0000   1.0000   1.0000   1.0000   1.0000   1.0000   1.0000   1.0000
     1.0000   1.0000   1.0000   1.0000   1.0000   1.0000   1.0000   1.0000
     1.0000   1.0000   1.0000   1.0000   1.0000   1.0000   1.0000   1.0000
     1.0000   1.0000   1.0000   1.0000   1.0000   1.0000   1.0000   1.0000
     1.0000   1.0000   1.0000   1.0000   1.0000   1.0000   1.0000   1.0000
     1.0000   1.0000   1.0000   1.0000   1.0000   1.0000   1.0000   1.0000

          k = 0.2500 0.2500 0.2500 ( 66518 PWs)   bands (ev):

   -23.2613 -23.2613 -23.2613 -23.2613 -23.1365 -23.1365 -23.1364 -23.1364
   -22.2410 -22.2410 -22.2410 -22.2410 -22.1321 -22.1321 -22.1321 -22.1321
   -22.0812 -22.0812 -22.0812 -22.0812 -11.5855 -11.5855 -11.5376 -11.5376
   -11.5046 -11.5046 -11.4815 -11.4815  -7.0214  -7.0214  -6.9408  -6.9408
    -2.8812  -2.8812  -2.5359  -2.5359  -2.0962  -2.0962  -1.9271  -1.9271
    -1.8729  -1.8729  -1.6038  -1.6038  -1.2958  -1.2958  -1.2283  -1.2283
    -1.1216  -1.1216  -0.9333  -0.9333  -0.8782  -0.8782  -0.5885  -0.5885

     occupation numbers 
     1.0000   1.0000   1.0000   1.0000   1.0000   1.0000   1.0000   1.0000
     1.0000   1.0000   1.0000   1.0000   1.0000   1.0000   1.0000   1.0000
     1.0000   1.0000   1.0000   1.0000   1.0000   1.0000   1.0000   1.0000
     1.0000   1.0000   1.0000   1.0000   1.0000   1.0000   1.0000   1.0000
     1.0000   1.0000   1.0000   1.0000   1.0000   1.0000   1.0000   1.0000
     1.0000   1.0000   1.0000   1.0000   1.0000   1.0000   1.0000   1.0000
     1.0000   1.0000   1.0000   1.0000   1.0000   1.0000   1.0000   1.0000

          k = 0.2500 0.2500 0.4167 ( 66539 PWs)   bands (ev):

   -23.2613 -23.2613 -23.2613 -23.2613 -23.1364 -23.1364 -23.1364 -23.1364
   -22.2410 -22.2410 -22.2410 -22.2410 -22.1321 -22.1321 -22.1321 -22.1321
   -22.0812 -22.0812 -22.0812 -22.0812 -11.5742 -11.5742 -11.5448 -11.5448
   -11.5077 -11.5077 -11.4813 -11.4813  -7.0055  -7.0055  -6.9700  -6.9700
    -2.8990  -2.8990  -2.5213  -2.5213  -2.1170  -2.1170  -1.8877  -1.8877
    -1.8737  -1.8737  -1.5833  -1.5833  -1.3082  -1.3082  -1.2065  -1.2065
    -1.1210  -1.1210  -0.9277  -0.9277  -0.8680  -0.8680  -0.5780  -0.5780

     occupation numbers 
     1.0000   1.0000   1.0000   1.0000   1.0000   1.0000   1.0000   1.0000
     1.0000   1.0000   1.0000   1.0000   1.0000   1.0000   1.0000   1.0000
     1.0000   1.0000   1.0000   1.0000   1.0000   1.0000   1.0000   1.0000
     1.0000   1.0000   1.0000   1.0000   1.0000   1.0000   1.0000   1.0000
     1.0000   1.0000   1.0000   1.0000   1.0000   1.0000   1.0000   1.0000
     1.0000   1.0000   1.0000   1.0000   1.0000   1.0000   1.0000   1.0000
     1.0000   1.0000   1.0000   1.0000   1.0000   1.0000   1.0000   1.0000

          k = 0.2500 0.4167 0.4167 ( 66590 PWs)   bands (ev):

   -23.2613 -23.2613 -23.2613 -23.2613 -23.1364 -23.1364 -23.1364 -23.1364
   -22.2410 -22.2410 -22.2410 -22.2410 -22.1321 -22.1321 -22.1321 -22.1321
   -22.0812 -22.0812 -22.0812 -22.0812 -11.5647 -11.5647 -11.5504 -11.5504
   -11.5030 -11.5030 -11.4892 -11.4892  -6.9990  -6.9990  -6.9836  -6.9836
    -2.8245  -2.8245  -2.6478  -2.6478  -2.0798  -2.0798  -1.9404  -1.9404
    -1.8230  -1.8230  -1.5892  -1.5892  -1.2926  -1.2926  -1.2359  -1.2359
    -1.0296  -1.0296  -0.8981  -0.8981  -0.8319  -0.8319  -0.7220  -0.7220

     occupation numbers 
     1.0000   1.0000   1.0000   1.0000   1.0000   1.0000   1.0000   1.0000
     1.0000   1.0000   1.0000   1.0000   1.0000   1.0000   1.0000   1.0000
     1.0000   1.0000   1.0000   1.0000   1.0000   1.0000   1.0000   1.0000
     1.0000   1.0000   1.0000   1.0000   1.0000   1.0000   1.0000   1.0000
     1.0000   1.0000   1.0000   1.0000   1.0000   1.0000   1.0000   1.0000
     1.0000   1.0000   1.0000   1.0000   1.0000   1.0000   1.0000   1.0000
     1.0000   1.0000   1.0000   1.0000   1.0000   1.0000   1.0000   1.0000

          k = 0.4167 0.4167 0.4167 ( 66623 PWs)   bands (ev):

   -23.2613 -23.2613 -23.2613 -23.2613 -23.1364 -23.1364 -23.1364 -23.1364
   -22.2410 -22.2410 -22.2410 -22.2410 -22.1321 -22.1321 -22.1321 -22.1321
   -22.0812 -22.0812 -22.0812 -22.0812 -11.5663 -11.5663 -11.5607 -11.5607
   -11.4920 -11.4920 -11.4862 -11.4862  -7.0058  -7.0058  -6.9991  -6.9991
    -2.6451  -2.6451  -2.5228  -2.5228  -2.1156  -2.1156  -1.9821  -1.9821
    -1.8675  -1.8675  -1.6644  -1.6644  -1.3327  -1.3327  -1.2813  -1.2813
    -1.0936  -1.0936  -1.0113  -1.0113  -0.8103  -0.8103  -0.7955  -0.7955

     occupation numbers 
     1.0000   1.0000   1.0000   1.0000   1.0000   1.0000   1.0000   1.0000
     1.0000   1.0000   1.0000   1.0000   1.0000   1.0000   1.0000   1.0000
     1.0000   1.0000   1.0000   1.0000   1.0000   1.0000   1.0000   1.0000
     1.0000   1.0000   1.0000   1.0000   1.0000   1.0000   1.0000   1.0000
     1.0000   1.0000   1.0000   1.0000   1.0000   1.0000   1.0000   1.0000
     1.0000   1.0000   1.0000   1.0000   1.0000   1.0000   1.0000   1.0000
     1.0000   1.0000   1.0000   1.0000   1.0000   1.0000   1.0000   1.0000

          k = 0.0833 0.2500 0.0833 ( 66551 PWs)   bands (ev):

   -23.2613 -23.2613 -23.2613 -23.2613 -23.1365 -23.1365 -23.1364 -23.1364
   -22.2410 -22.2410 -22.2410 -22.2410 -22.1321 -22.1321 -22.1321 -22.1321
   -22.0812 -22.0812 -22.0812 -22.0812 -11.6046 -11.6046 -11.5293 -11.5293
   -11.4950 -11.4950 -11.4818 -11.4818  -7.0445  -7.0445  -6.8979  -6.8979
    -2.8073  -2.8073  -2.6438  -2.6438  -2.1560  -2.1560  -1.9717  -1.9717
    -1.8025  -1.8025  -1.5551  -1.5551  -1.2427  -1.2427  -1.1861  -1.1861
    -1.0387  -1.0387  -0.9560  -0.9560  -0.9016  -0.9016  -0.7150  -0.7150

     occupation numbers 
     1.0000   1.0000   1.0000   1.0000   1.0000   1.0000   1.0000   1.0000
     1.0000   1.0000   1.0000   1.0000   1.0000   1.0000   1.0000   1.0000
     1.0000   1.0000   1.0000   1.0000   1.0000   1.0000   1.0000   1.0000
     1.0000   1.0000   1.0000   1.0000   1.0000   1.0000   1.0000   1.0000
     1.0000   1.0000   1.0000   1.0000   1.0000   1.0000   1.0000   1.0000
     1.0000   1.0000   1.0000   1.0000   1.0000   1.0000   1.0000   1.0000
     1.0000   1.0000   1.0000   1.0000   1.0000   1.0000   1.0000   1.0000

          k = 0.0833 0.4167 0.0833 ( 66540 PWs)   bands (ev):

   -23.2613 -23.2613 -23.2613 -23.2613 -23.1364 -23.1364 -23.1364 -23.1364
   -22.2410 -22.2410 -22.2410 -22.2410 -22.1321 -22.1321 -22.1321 -22.1321
   -22.0812 -22.0812 -22.0812 -22.0812 -11.5757 -11.5757 -11.5442 -11.5442
   -11.5004 -11.5004 -11.4915 -11.4915  -6.9945  -6.9945  -6.9406  -6.9406
    -2.8600  -2.8600  -2.7931  -2.7931  -2.1008  -2.1008  -2.0130  -2.0130
    -1.7058  -1.7058  -1.6059  -1.6059  -1.2687  -1.2687  -1.2444  -1.2444
    -0.9969  -0.9969  -0.9484  -0.9484  -0.7242  -0.7242  -0.5962  -0.5962

     occupation numbers 
     1.0000   1.0000   1.0000   1.0000   1.0000   1.0000   1.0000   1.0000
     1.0000   1.0000   1.0000   1.0000   1.0000   1.0000   1.0000   1.0000
     1.0000   1.0000   1.0000   1.0000   1.0000   1.0000   1.0000   1.0000
     1.0000   1.0000   1.0000   1.0000   1.0000   1.0000   1.0000   1.0000
     1.0000   1.0000   1.0000   1.0000   1.0000   1.0000   1.0000   1.0000
     1.0000   1.0000   1.0000   1.0000   1.0000   1.0000   1.0000   1.0000
     1.0000   1.0000   1.0000   1.0000   1.0000   1.0000   1.0000   1.0000

          k = 0.2500 0.2500 0.0833 ( 66556 PWs)   bands (ev):

   -23.2613 -23.2613 -23.2613 -23.2613 -23.1365 -23.1365 -23.1364 -23.1364
   -22.2410 -22.2410 -22.2410 -22.2410 -22.1321 -22.1321 -22.1321 -22.1321
   -22.0812 -22.0812 -22.0812 -22.0812 -11.5936 -11.5936 -11.5340 -11.5340
   -11.5012 -11.5012 -11.4817 -11.4817  -7.0287  -7.0287  -6.9201  -6.9201
    -2.8596  -2.8596  -2.5521  -2.5521  -2.0855  -2.0855  -1.9803  -1.9803
    -1.8692  -1.8692  -1.5868  -1.5868  -1.2952  -1.2952  -1.2495  -1.2495
    -1.1217  -1.1217  -0.9327  -0.9327  -0.8977  -0.8977  -0.5977  -0.5977

     occupation numbers 
     1.0000   1.0000   1.0000   1.0000   1.0000   1.0000   1.0000   1.0000
     1.0000   1.0000   1.0000   1.0000   1.0000   1.0000   1.0000   1.0000
     1.0000   1.0000   1.0000   1.0000   1.0000   1.0000   1.0000   1.0000
     1.0000   1.0000   1.0000   1.0000   1.0000   1.0000   1.0000   1.0000
     1.0000   1.0000   1.0000   1.0000   1.0000   1.0000   1.0000   1.0000
     1.0000   1.0000   1.0000   1.0000   1.0000   1.0000   1.0000   1.0000
     1.0000   1.0000   1.0000   1.0000   1.0000   1.0000   1.0000   1.0000

          k = 0.2500 0.4167 0.0833 ( 66550 PWs)   bands (ev):

   -23.2613 -23.2613 -23.2613 -23.2613 -23.1364 -23.1364 -23.1364 -23.1364
   -22.2410 -22.2410 -22.2410 -22.2410 -22.1321 -22.1321 -22.1321 -22.1321
   -22.0812 -22.0812 -22.0812 -22.0812 -11.5742 -11.5742 -11.5516 -11.5516
   -11.4966 -11.4966 -11.4876 -11.4876  -6.9978  -6.9978  -6.9576  -6.9576
    -2.7904  -2.7904  -2.6399  -2.6399  -2.0654  -2.0654  -2.0072  -2.0072
    -1.7671  -1.7671  -1.6406  -1.6406  -1.3494  -1.3494  -1.3216  -1.3216
    -1.0338  -1.0338  -0.9322  -0.9322  -0.8577  -0.8577  -0.7081  -0.7081

     occupation numbers 
     1.0000   1.0000   1.0000   1.0000   1.0000   1.0000   1.0000   1.0000
     1.0000   1.0000   1.0000   1.0000   1.0000   1.0000   1.0000   1.0000
     1.0000   1.0000   1.0000   1.0000   1.0000   1.0000   1.0000   1.0000
     1.0000   1.0000   1.0000   1.0000   1.0000   1.0000   1.0000   1.0000
     1.0000   1.0000   1.0000   1.0000   1.0000   1.0000   1.0000   1.0000
     1.0000   1.0000   1.0000   1.0000   1.0000   1.0000   1.0000   1.0000
     1.0000   1.0000   1.0000   1.0000   1.0000   1.0000   1.0000   1.0000

          k = 0.4167 0.0833 0.2500 ( 66550 PWs)   bands (ev):

   -23.2613 -23.2613 -23.2613 -23.2613 -23.1364 -23.1364 -23.1364 -23.1364
   -22.2410 -22.2410 -22.2410 -22.2410 -22.1321 -22.1321 -22.1321 -22.1321
   -22.0812 -22.0812 -22.0812 -22.0812 -11.5684 -11.5684 -11.5428 -11.5428
   -11.5047 -11.5047 -11.4947 -11.4947  -6.9937  -6.9937  -6.9539  -6.9539
    -2.8834  -2.8834  -2.8106  -2.8106  -2.0486  -2.0486  -1.9604  -1.9604
    -1.7558  -1.7558  -1.5932  -1.5932  -1.2594  -1.2594  -1.2249  -1.2249
    -0.9984  -0.9984  -0.9268  -0.9268  -0.7250  -0.7250  -0.5886  -0.5886

     occupation numbers 
     1.0000   1.0000   1.0000   1.0000   1.0000   1.0000   1.0000   1.0000
     1.0000   1.0000   1.0000   1.0000   1.0000   1.0000   1.0000   1.0000
     1.0000   1.0000   1.0000   1.0000   1.0000   1.0000   1.0000   1.0000
     1.0000   1.0000   1.0000   1.0000   1.0000   1.0000   1.0000   1.0000
     1.0000   1.0000   1.0000   1.0000   1.0000   1.0000   1.0000   1.0000
     1.0000   1.0000   1.0000   1.0000   1.0000   1.0000   1.0000   1.0000
     1.0000   1.0000   1.0000   1.0000   1.0000   1.0000   1.0000   1.0000

          k = 0.4167 0.4167 0.0833 ( 66574 PWs)   bands (ev):

   -23.2613 -23.2613 -23.2613 -23.2613 -23.1364 -23.1364 -23.1364 -23.1364
   -22.2410 -22.2410 -22.2410 -22.2410 -22.1321 -22.1321 -22.1321 -22.1321
   -22.0812 -22.0812 -22.0812 -22.0812 -11.5697 -11.5697 -11.5616 -11.5616
   -11.4904 -11.4904 -11.4866 -11.4866  -6.9952  -6.9952  -6.9803  -6.9803
    -2.6353  -2.6353  -2.5418  -2.5418  -2.0229  -2.0229  -1.9607  -1.9607
    -1.8491  -1.8491  -1.7229  -1.7229  -1.4104  -1.4104  -1.4008  -1.4008
    -1.1216  -1.1216  -1.0271  -1.0271  -0.8402  -0.8402  -0.8161  -0.8161

     occupation numbers 
     1.0000   1.0000   1.0000   1.0000   1.0000   1.0000   1.0000   1.0000
     1.0000   1.0000   1.0000   1.0000   1.0000   1.0000   1.0000   1.0000
     1.0000   1.0000   1.0000   1.0000   1.0000   1.0000   1.0000   1.0000
     1.0000   1.0000   1.0000   1.0000   1.0000   1.0000   1.0000   1.0000
     1.0000   1.0000   1.0000   1.0000   1.0000   1.0000   1.0000   1.0000
     1.0000   1.0000   1.0000   1.0000   1.0000   1.0000   1.0000   1.0000
     1.0000   1.0000   1.0000   1.0000   1.0000   1.0000   1.0000   1.0000

          k = 0.2500 0.4167 0.2500 ( 66539 PWs)   bands (ev):

   -23.2613 -23.2613 -23.2613 -23.2613 -23.1364 -23.1364 -23.1364 -23.1364
   -22.2410 -22.2410 -22.2410 -22.2410 -22.1321 -22.1321 -22.1321 -22.1321
   -22.0812 -22.0812 -22.0812 -22.0812 -11.5698 -11.5698 -11.5508 -11.5508
   -11.4997 -11.4997 -11.4884 -11.4884  -6.9997  -6.9997  -6.9693  -6.9693
    -2.8090  -2.8090  -2.6441  -2.6441  -2.0663  -2.0663  -1.9620  -1.9620
    -1.8069  -1.8069  -1.6253  -1.6253  -1.3196  -1.3196  -1.2836  -1.2836
    -1.0276  -1.0276  -0.9159  -0.9159  -0.8457  -0.8457  -0.7136  -0.7136

     occupation numbers 
     1.0000   1.0000   1.0000   1.0000   1.0000   1.0000   1.0000   1.0000
     1.0000   1.0000   1.0000   1.0000   1.0000   1.0000   1.0000   1.0000
     1.0000   1.0000   1.0000   1.0000   1.0000   1.0000   1.0000   1.0000
     1.0000   1.0000   1.0000   1.0000   1.0000   1.0000   1.0000   1.0000
     1.0000   1.0000   1.0000   1.0000   1.0000   1.0000   1.0000   1.0000
     1.0000   1.0000   1.0000   1.0000   1.0000   1.0000   1.0000   1.0000
     1.0000   1.0000   1.0000   1.0000   1.0000   1.0000   1.0000   1.0000

          k = 0.4167 0.4167 0.2500 ( 66590 PWs)   bands (ev):

   -23.2613 -23.2613 -23.2613 -23.2613 -23.1364 -23.1364 -23.1364 -23.1364
   -22.2410 -22.2410 -22.2410 -22.2410 -22.1321 -22.1321 -22.1321 -22.1321
   -22.0812 -22.0812 -22.0812 -22.0812 -11.5680 -11.5680 -11.5611 -11.5611
   -11.4912 -11.4912 -11.4864 -11.4864  -7.0009  -7.0009  -6.9893  -6.9893
    -2.6407  -2.6407  -2.5319  -2.5319  -2.0698  -2.0698  -1.9626  -1.9626
    -1.8639  -1.8639  -1.7007  -1.7007  -1.3727  -1.3727  -1.3529  -1.3529
    -1.0986  -1.0986  -1.0088  -1.0088  -0.8260  -0.8260  -0.8093  -0.8093

     occupation numbers 
     1.0000   1.0000   1.0000   1.0000   1.0000   1.0000   1.0000   1.0000
     1.0000   1.0000   1.0000   1.0000   1.0000   1.0000   1.0000   1.0000
     1.0000   1.0000   1.0000   1.0000   1.0000   1.0000   1.0000   1.0000
     1.0000   1.0000   1.0000   1.0000   1.0000   1.0000   1.0000   1.0000
     1.0000   1.0000   1.0000   1.0000   1.0000   1.0000   1.0000   1.0000
     1.0000   1.0000   1.0000   1.0000   1.0000   1.0000   1.0000   1.0000
     1.0000   1.0000   1.0000   1.0000   1.0000   1.0000   1.0000   1.0000

     highest occupied level (ev):    -0.5753

!    total energy              =    -458.41057098 Ry
     estimated scf accuracy    <       0.00000002 Ry

     The total energy is the sum of the following terms:
     one-electron contribution =    -256.48684038 Ry
     hartree contribution      =     145.40809531 Ry
     xc contribution           =    -157.08006557 Ry
     ewald contribution        =    -190.25176033 Ry

     convergence has been achieved in  12 iterations

     Forces acting on atoms (cartesian axes, Ry/au):

     atom    1 type  1   force =     0.00000000    0.00000000   -0.00000000
     atom    2 type  1   force =     0.00000000    0.00000000    0.00000000
     atom    3 type  2   force =    -0.01801318   -0.01801318    0.00000000
     atom    4 type  2   force =     0.01801318    0.01801318    0.00000000
     atom    5 type  2   force =    -0.01801318    0.01801318   -0.00000000
     atom    6 type  2   force =     0.01801318   -0.01801318   -0.00000000
     The non-local contrib.  to forces
     atom    1 type  1   force =     0.00000000    0.00000000    0.00000000
     atom    2 type  1   force =     0.00000000    0.00000000    0.00000000
     atom    3 type  2   force =    -0.04133503   -0.04133503    0.00000000
     atom    4 type  2   force =     0.04133503    0.04133503   -0.00000000
     atom    5 type  2   force =    -0.04133503    0.04133503    0.00000000
     atom    6 type  2   force =     0.04133503   -0.04133503    0.00000000
     The ionic contribution  to forces
     atom    1 type  1   force =    -0.00000000   -0.00000000    0.00000000
     atom    2 type  1   force =    -0.00000000   -0.00000000    0.00000000
     atom    3 type  2   force =     1.38633658    1.38633658    0.00000000
     atom    4 type  2   force =    -1.38633658   -1.38633658   -0.00000000
     atom    5 type  2   force =     1.38633658   -1.38633658    0.00000000
     atom    6 type  2   force =    -1.38633658    1.38633658    0.00000000
     The local contribution  to forces
     atom    1 type  1   force =    -0.00000000   -0.00000000   -0.00000000
     atom    2 type  1   force =     0.00000000    0.00000000    0.00000000
     atom    3 type  2   force =    -1.36695497   -1.36695497   -0.00000000
     atom    4 type  2   force =     1.36695497    1.36695497   -0.00000000
     atom    5 type  2   force =    -1.36695497    1.36695497    0.00000000
     atom    6 type  2   force =     1.36695497   -1.36695497    0.00000000
     The core correction contribution to forces
     atom    1 type  1   force =    -0.00000000   -0.00000000   -0.00000000
     atom    2 type  1   force =     0.00000000    0.00000000    0.00000000
     atom    3 type  2   force =     0.00390534    0.00390534   -0.00000000
     atom    4 type  2   force =    -0.00390534   -0.00390534   -0.00000000
     atom    5 type  2   force =     0.00390534   -0.00390534   -0.00000000
     atom    6 type  2   force =    -0.00390534    0.00390534   -0.00000000
     The Hubbard contrib.    to forces
     atom    1 type  1   force =     0.00000000    0.00000000    0.00000000
     atom    2 type  1   force =     0.00000000    0.00000000    0.00000000
     atom    3 type  2   force =     0.00000000    0.00000000    0.00000000
     atom    4 type  2   force =     0.00000000    0.00000000    0.00000000
     atom    5 type  2   force =     0.00000000    0.00000000    0.00000000
     atom    6 type  2   force =     0.00000000    0.00000000    0.00000000
     The SCF correction term to forces
     atom    1 type  1   force =    -0.00000000   -0.00000000    0.00000000
     atom    2 type  1   force =    -0.00000000    0.00000000   -0.00000000
     atom    3 type  2   force =     0.00003490    0.00003490    0.00000000
     atom    4 type  2   force =    -0.00003490   -0.00003490    0.00000000
     atom    5 type  2   force =     0.00003490   -0.00003490    0.00000000
     atom    6 type  2   force =    -0.00003490    0.00003490    0.00000000

     Total force =     0.050949     Total SCF correction =     0.000099


     Computing stress (Cartesian axis) and pressure

          total   stress  (Ry/bohr**3)                   (kbar)     P=      -26.99
  -0.00018591   0.00000000   0.00000000          -27.35        0.00        0.00
   0.00000000  -0.00018591   0.00000000            0.00      -27.35        0.00
   0.00000000   0.00000000  -0.00017867            0.00        0.00      -26.28

     kinetic stress (kbar)   4477.28      0.00      0.00
                                0.00   4477.28      0.00
                                0.00      0.00   4472.09

     local   stress (kbar)  -2714.54      0.00      0.00
                                0.00  -2714.54     -0.00
                                0.00     -0.00  -2198.84

     nonloc. stress (kbar)     70.58      0.00      0.00
                                0.00     70.58      0.00
                                0.00      0.00     55.37

     hartree stress (kbar)   2422.32      0.00     -0.00
                                0.00   2422.32      0.00
                               -0.00      0.00   2289.23

     exc-cor stress (kbar)   3792.41      0.00     -0.00
                                0.00   3792.41     -0.00
                               -0.00     -0.00   3791.41

     corecor stress (kbar)  -5084.41     -0.00      0.00
                               -0.00  -5084.41      0.00
                                0.00      0.00  -5083.56

     ewald   stress (kbar)  -2990.99      0.00     -0.00
                                0.00  -2990.99     -0.00
                               -0.00     -0.00  -3351.97

     hubbard stress (kbar)      0.00      0.00      0.00
                                0.00      0.00      0.00
                                0.00      0.00      0.00

     DFT-D   stress (kbar)      0.00      0.00      0.00
                                0.00      0.00      0.00
                                0.00      0.00      0.00

     XDM     stress (kbar)      0.00      0.00      0.00
                                0.00      0.00      0.00
                                0.00      0.00      0.00

     dft-nl  stress (kbar)      0.00      0.00      0.00
                                0.00      0.00      0.00
                                0.00      0.00      0.00

     TS-vdW  stress (kbar)      0.00      0.00      0.00
                                0.00      0.00      0.00
                                0.00      0.00      0.00



     Writing output data file ./SnI2.save/

     init_run     :     16.95s CPU     10.38s WALL (       1 calls)
     electrons    :    606.20s CPU    322.26s WALL (       1 calls)
     forces       :      6.49s CPU      4.53s WALL (       1 calls)
     stress       :     27.88s CPU     15.09s WALL (       1 calls)

     Called by init_run:
     wfcinit      :     13.92s CPU      7.67s WALL (       1 calls)
     wfcinit:atom :      0.12s CPU      0.09s WALL (      18 calls)
     wfcinit:wfcr :     13.27s CPU      7.07s WALL (      18 calls)
     potinit      :      0.46s CPU      0.29s WALL (       1 calls)
     hinit0       :      0.73s CPU      0.79s WALL (       1 calls)

     Called by electrons:
     c_bands      :    476.66s CPU    247.12s WALL (      12 calls)
     sum_band     :    110.10s CPU     61.20s WALL (      12 calls)
     v_of_rho     :      1.87s CPU      1.17s WALL (      13 calls)
     v_h          :      0.17s CPU      0.10s WALL (      13 calls)
     v_xc         :      1.97s CPU      1.25s WALL (      15 calls)
     newd         :     16.20s CPU     10.06s WALL (      13 calls)
     mix_rho      :      1.36s CPU      1.14s WALL (      12 calls)

     Called by c_bands:
     init_us_2    :      3.11s CPU      1.64s WALL (     486 calls)
     cegterg      :    454.72s CPU    235.26s WALL (     216 calls)

     Called by sum_band:
     sum_band:wei :      0.00s CPU      0.02s WALL (      12 calls)
     sum_band:loo :     94.55s CPU     49.27s WALL (      12 calls)
     sum_band:buf :      0.47s CPU      0.46s WALL (     216 calls)
     sum_band:ini :      1.16s CPU      0.60s WALL (     216 calls)
     sum_band:cal :      6.09s CPU      3.22s WALL (     216 calls)
     sum_band:bec :      6.34s CPU      3.35s WALL (     216 calls)
     addusdens    :     14.61s CPU     10.95s WALL (      12 calls)
     addusd:skk   :      0.02s CPU      0.01s WALL (      24 calls)
     addusd:dgemm :      5.35s CPU      6.25s WALL (      24 calls)
     addusd:qvan2 :      8.90s CPU      4.49s WALL (      24 calls)

     Called by *egterg:
     cdiaghg      :      9.39s CPU      5.13s WALL (    1293 calls)
     cegterg:over :     17.65s CPU      9.43s WALL (    1077 calls)
     cegterg:upda :     10.31s CPU      5.24s WALL (    1077 calls)
     cegterg:last :     18.26s CPU      9.22s WALL (     588 calls)
     h_psi        :    378.27s CPU    194.59s WALL (    1311 calls)
     s_psi        :     20.72s CPU     11.11s WALL (    1311 calls)
     g_psi        :      1.21s CPU      0.61s WALL (    1077 calls)

     Called by h_psi:
     h_psi:calbec :     21.37s CPU     11.84s WALL (    1311 calls)
     vloc_psi     :    335.01s CPU    171.10s WALL (    1311 calls)
     add_vuspsi   :     19.64s CPU     10.47s WALL (    1311 calls)

     General routines
     calbec       :     31.25s CPU     17.77s WALL (    1617 calls)
     fft          :      2.82s CPU      1.94s WALL (     303 calls)
     ffts         :      0.75s CPU      0.46s WALL (     100 calls)
     fftw         :    344.73s CPU    176.52s WALL (  181176 calls)
     interpolate  :      0.93s CPU      0.58s WALL (      52 calls)

     Parallel routines
     fft_scatt_xy :     22.66s CPU     11.44s WALL (  181579 calls)
     fft_scatt_yz :    215.71s CPU    111.73s WALL (  181579 calls)

     PWSCF        :  11m 1.79s CPU   6m 4.55s WALL


   This run was terminated on:  10:44:28  31Jan2021            

=------------------------------------------------------------------------------=
   JOB DONE.
=------------------------------------------------------------------------------=
