
     Program PWSCF v.6.6 starts on 14Jan2021 at 19:14:38 

     This program is part of the open-source Quantum ESPRESSO suite
     for quantum simulation of materials; please cite
         "P. Giannozzi et al., J. Phys.:Condens. Matter 21 395502 (2009);
         "P. Giannozzi et al., J. Phys.:Condens. Matter 29 465901 (2017);
          URL http://www.quantum-espresso.org", 
     in publications or presentations arising from this work. More details at
     http://www.quantum-espresso.org/quote

     Parallel version (MPI), running on    64 processors

     MPI processes distributed on     2 nodes
     R & G space division:  proc/nbgrp/npool/nimage =      64
     Fft bands division:     nmany     =       1
     Waiting for input...
     Reading input from standard input

     Current dimensions of program PWSCF are:
     Max number of different atomic species (ntypx) = 10
     Max number of k-points (npk) =  40000
     Max angular momentum in pseudopotentials (lmaxx) =  3
     file Cs.pbe-spn-kjpaw_psl.1.0.0.UPF: wavefunction(s)  5S 6S renormalized
     file Sn.pbe-dn-kjpaw_psl.1.0.0.UPF: wavefunction(s)  5S 5P 4D renormalized
     file I.pbe-n-kjpaw_psl.1.0.0.UPF: wavefunction(s)  5S renormalized

     Subspace diagonalization in iterative solution of the eigenvalue problem:
     a serial algorithm will be used

 
     Parallelization info
     --------------------
     sticks:   dense  smooth     PW     G-vecs:    dense   smooth      PW
     Min         103      73     19                15951     9563    1309
     Max         104      75     20                15960     9576    1326
     Sum        6629    4705   1261              1021095   612299   84265
 

     Title: 
     CsSnI3                                                                     


     bravais-lattice index     =            8
     lattice parameter (alat)  =       9.1225  a.u.
     unit-cell volume          =    6334.6921 (a.u.)^3
     number of atoms/cell      =           20
     number of atomic types    =            3
     number of electrons       =       176.00
     number of Kohn-Sham states=           88
     kinetic-energy cutoff     =      80.0000  Ry
     charge density cutoff     =     450.0000  Ry
     convergence threshold     =      1.0E-06
     mixing beta               =       0.5000
     number of iterations used =            8  plain     mixing
     Exchange-correlation= SLA PW PBX PBC
                           (   1   4   3   4   0   0   0)

     celldm(1)=   9.122542  celldm(2)=   2.224752  celldm(3)=   3.750562
     celldm(4)=   0.000000  celldm(5)=   0.000000  celldm(6)=   0.000000

     crystal axes: (cart. coord. in units of alat)
               a(1) = (   1.000000   0.000000   0.000000 )  
               a(2) = (   0.000000   2.224752   0.000000 )  
               a(3) = (   0.000000   0.000000   3.750562 )  

     reciprocal axes: (cart. coord. in units 2 pi/alat)
               b(1) = (  1.000000  0.000000  0.000000 )  
               b(2) = (  0.000000  0.449488  0.000000 )  
               b(3) = (  0.000000  0.000000  0.266627 )  


     PseudoPot. # 1 for Cs read from file:
     /scratch/gtenti/degironcoli/pseudo/Cs.pbe-spn-kjpaw_psl.1.0.0.UPF
     MD5 check sum: b82c75cc2e1f4ff73b6412cffeb9c584
     Pseudo is Projector augmented-wave + core cor, Zval =  9.0
     Generated using "atomic" code by A. Dal Corso v.6.4.1
     Shape of augmentation charge: PSQ
     Using radial grid of 1251 points,  9 beta functions with: 
                l(1) =   0
                l(2) =   0
                l(3) =   0
                l(4) =   1
                l(5) =   1
                l(6) =   2
                l(7) =   2
                l(8) =   3
                l(9) =   3
     Q(r) pseudized with 0 coefficients 


     PseudoPot. # 2 for Sn read from file:
     /scratch/gtenti/degironcoli/pseudo/Sn.pbe-dn-kjpaw_psl.1.0.0.UPF
     MD5 check sum: 67f11dec737d427557dc41ea34975807
     Pseudo is Projector augmented-wave + core cor, Zval = 14.0
     Generated using "atomic" code by A. Dal Corso v.6.3
     Shape of augmentation charge: PSQ
     Using radial grid of 1243 points,  6 beta functions with: 
                l(1) =   0
                l(2) =   0
                l(3) =   1
                l(4) =   1
                l(5) =   2
                l(6) =   2
     Q(r) pseudized with 0 coefficients 


     PseudoPot. # 3 for I  read from file:
     /scratch/gtenti/degironcoli/pseudo/I.pbe-n-kjpaw_psl.1.0.0.UPF
     MD5 check sum: cd3d296c3308a581e1559a0c8a554cb5
     Pseudo is Projector augmented-wave + core cor, Zval =  7.0
     Generated using "atomic" code by A. Dal Corso v.6.3
     Shape of augmentation charge: PSQ
     Using radial grid of 1247 points,  6 beta functions with: 
                l(1) =   0
                l(2) =   0
                l(3) =   1
                l(4) =   1
                l(5) =   2
                l(6) =   2
     Q(r) pseudized with 0 coefficients 


     atomic species   valence    mass     pseudopotential
        Cs             9.00   132.90000     Cs( 1.00)
        Sn            14.00   118.70000     Sn( 1.00)
        I              7.00   126.90000     I ( 1.00)

      8 Sym. Ops., with inversion, found ( 6 have fractional translation)


                                    s                        frac. trans.

      isym =  1     identity                                     

 cryst.   s( 1) = (     1          0          0      )
                  (     0          1          0      )
                  (     0          0          1      )

 cart.    s( 1) = (  1.0000000  0.0000000  0.0000000 )
                  (  0.0000000  1.0000000  0.0000000 )
                  (  0.0000000  0.0000000  1.0000000 )


      isym =  2     180 deg rotation - cart. axis [0,0,1]        

 cryst.   s( 2) = (    -1          0          0      )    f =(  0.0000000 )
                  (     0         -1          0      )       (  0.5000000 )
                  (     0          0          1      )       (  0.5000000 )

 cart.    s( 2) = ( -1.0000000  0.0000000  0.0000000 )    f =(  0.0000000 )
                  (  0.0000000 -1.0000000  0.0000000 )       (  1.1123758 )
                  (  0.0000000  0.0000000  1.0000000 )       (  1.8752812 )


      isym =  3     180 deg rotation - cart. axis [0,1,0]        

 cryst.   s( 3) = (    -1          0          0      )    f =(  0.5000000 )
                  (     0          1          0      )       ( -0.5000000 )
                  (     0          0         -1      )       (  0.5000000 )

 cart.    s( 3) = ( -1.0000000  0.0000000  0.0000000 )    f =(  0.5000000 )
                  (  0.0000000  1.0000000  0.0000000 )       ( -1.1123758 )
                  (  0.0000000  0.0000000 -1.0000000 )       (  1.8752812 )


      isym =  4     180 deg rotation - cart. axis [1,0,0]        

 cryst.   s( 4) = (     1          0          0      )    f =( -0.5000000 )
                  (     0         -1          0      )       ( -0.0000000 )
                  (     0          0         -1      )       ( -0.0000000 )

 cart.    s( 4) = (  1.0000000  0.0000000  0.0000000 )    f =( -0.5000000 )
                  (  0.0000000 -1.0000000  0.0000000 )       ( -0.0000000 )
                  (  0.0000000  0.0000000 -1.0000000 )       ( -0.0000000 )


      isym =  5     inversion                                    

 cryst.   s( 5) = (    -1          0          0      )
                  (     0         -1          0      )
                  (     0          0         -1      )

 cart.    s( 5) = ( -1.0000000  0.0000000  0.0000000 )
                  (  0.0000000 -1.0000000  0.0000000 )
                  (  0.0000000  0.0000000 -1.0000000 )


      isym =  6     inv. 180 deg rotation - cart. axis [0,0,1]   

 cryst.   s( 6) = (     1          0          0      )    f =(  0.0000000 )
                  (     0          1          0      )       ( -0.5000000 )
                  (     0          0         -1      )       (  0.5000000 )

 cart.    s( 6) = (  1.0000000  0.0000000  0.0000000 )    f =(  0.0000000 )
                  (  0.0000000  1.0000000  0.0000000 )       ( -1.1123758 )
                  (  0.0000000  0.0000000 -1.0000000 )       (  1.8752812 )


      isym =  7     inv. 180 deg rotation - cart. axis [0,1,0]   

 cryst.   s( 7) = (     1          0          0      )    f =( -0.5000000 )
                  (     0         -1          0      )       (  0.5000000 )
                  (     0          0          1      )       (  0.5000000 )

 cart.    s( 7) = (  1.0000000  0.0000000  0.0000000 )    f =( -0.5000000 )
                  (  0.0000000 -1.0000000  0.0000000 )       (  1.1123758 )
                  (  0.0000000  0.0000000  1.0000000 )       (  1.8752812 )


      isym =  8     inv. 180 deg rotation - cart. axis [1,0,0]   

 cryst.   s( 8) = (    -1          0          0      )    f =(  0.5000000 )
                  (     0          1          0      )       (  0.0000000 )
                  (     0          0          1      )       (  0.0000000 )

 cart.    s( 8) = ( -1.0000000  0.0000000  0.0000000 )    f =(  0.5000000 )
                  (  0.0000000  1.0000000  0.0000000 )       (  0.0000000 )
                  (  0.0000000  0.0000000  1.0000000 )       (  0.0000000 )


     point group D_2h (mmm) 
     there are  8 classes
     the character table:

       E     C2    C2'   C2''  i     s_v   s_v'  s_v''
A_g    1.00  1.00  1.00  1.00  1.00  1.00  1.00  1.00
B_1g   1.00  1.00 -1.00 -1.00  1.00  1.00 -1.00 -1.00
B_2g   1.00 -1.00  1.00 -1.00  1.00 -1.00  1.00 -1.00
B_3g   1.00 -1.00 -1.00  1.00  1.00 -1.00 -1.00  1.00
A_u    1.00  1.00  1.00  1.00 -1.00 -1.00 -1.00 -1.00
B_1u   1.00  1.00 -1.00 -1.00 -1.00 -1.00  1.00  1.00
B_2u   1.00 -1.00  1.00 -1.00 -1.00  1.00 -1.00  1.00
B_3u   1.00 -1.00 -1.00  1.00 -1.00  1.00  1.00 -1.00

     the symmetry operations in each class and the name of the first element:

     E        1
          identity                                               
     C2       2
          180 deg rotation - cart. axis [0,0,1]                  
     C2'      4
          180 deg rotation - cart. axis [1,0,0]                  
     C2''     3
          180 deg rotation - cart. axis [0,1,0]                  
     i        5
          inversion                                              
     s_v      6
          inv. 180 deg rotation - cart. axis [0,0,1]             
     s_v'     8
          inv. 180 deg rotation - cart. axis [1,0,0]             
     s_v''    7
          inv. 180 deg rotation - cart. axis [0,1,0]             

   Cartesian axes

     site n.     atom                  positions (alat units)
         1           Cs  tau(   1) = (   0.2500000   0.1850649   2.5139655  )
         2           Cs  tau(   2) = (   0.7500000   2.0396868   1.2365968  )
         3           Cs  tau(   3) = (   0.2500000   1.2974407   3.1118779  )
         4           Cs  tau(   4) = (   0.7500000   0.9273110   0.6386844  )
         5           Sn  tau(   5) = (   0.2500000   0.7598065   1.6468539  )
         6           Sn  tau(   6) = (   0.7500000   1.4649452   2.1037084  )
         7           Sn  tau(   7) = (   0.2500000   1.8721824   0.2284272  )
         8           Sn  tau(   8) = (   0.7500000   0.3525693   3.5221351  )
         9           I   tau(   9) = (   0.7500000   0.0580542   0.4195120  )
        10           I   tau(  10) = (   0.2500000   2.1666975   3.3310503  )
        11           I   tau(  11) = (   0.7500000   1.1704301   1.4557691  )
        12           I   tau(  12) = (   0.2500000   1.0543216   2.2947932  )
        13           I   tau(  13) = (   0.7500000   0.6521326   2.9693866  )
        14           I   tau(  14) = (   0.2500000   1.5726191   0.7811757  )
        15           I   tau(  15) = (   0.7500000   1.7645084   2.6564569  )
        16           I   tau(  16) = (   0.2500000   0.4602433   1.0941054  )
        17           I   tau(  17) = (   0.7500000   0.3744355   1.8713491  )
        18           I   tau(  18) = (   0.2500000   1.8503162   1.8792132  )
        19           I   tau(  19) = (   0.7500000   1.4868113   0.0039321  )
        20           I   tau(  20) = (   0.2500000   0.7379403   3.7466302  )

   Crystallographic axes

     site n.     atom                  positions (cryst. coord.)
         1           Cs  tau(   1) = (  0.2500000  0.0831845  0.6702903  )
         2           Cs  tau(   2) = (  0.7500000  0.9168155  0.3297097  )
         3           Cs  tau(   3) = (  0.2500000  0.5831845  0.8297097  )
         4           Cs  tau(   4) = (  0.7500000  0.4168155  0.1702903  )
         5           Sn  tau(   5) = (  0.2500000  0.3415242  0.4390952  )
         6           Sn  tau(   6) = (  0.7500000  0.6584758  0.5609048  )
         7           Sn  tau(   7) = (  0.2500000  0.8415242  0.0609048  )
         8           Sn  tau(   8) = (  0.7500000  0.1584758  0.9390952  )
         9           I   tau(   9) = (  0.7500000  0.0260947  0.1118531  )
        10           I   tau(  10) = (  0.2500000  0.9739053  0.8881469  )
        11           I   tau(  11) = (  0.7500000  0.5260947  0.3881469  )
        12           I   tau(  12) = (  0.2500000  0.4739053  0.6118531  )
        13           I   tau(  13) = (  0.7500000  0.2931260  0.7917177  )
        14           I   tau(  14) = (  0.2500000  0.7068740  0.2082823  )
        15           I   tau(  15) = (  0.7500000  0.7931260  0.7082823  )
        16           I   tau(  16) = (  0.2500000  0.2068740  0.2917177  )
        17           I   tau(  17) = (  0.7500000  0.1683044  0.4989516  )
        18           I   tau(  18) = (  0.2500000  0.8316956  0.5010484  )
        19           I   tau(  19) = (  0.7500000  0.6683044  0.0010484  )
        20           I   tau(  20) = (  0.2500000  0.3316956  0.9989516  )

     number of k points=     8
                       cart. coord. in units 2pi/alat
        k(    1) = (   0.1250000   0.0561860   0.0333283), wk =   0.2500000
        k(    2) = (   0.1250000   0.0561860   0.0999850), wk =   0.2500000
        k(    3) = (   0.1250000   0.1685581   0.0333283), wk =   0.2500000
        k(    4) = (   0.1250000   0.1685581   0.0999850), wk =   0.2500000
        k(    5) = (   0.3750000   0.0561860   0.0333283), wk =   0.2500000
        k(    6) = (   0.3750000   0.0561860   0.0999850), wk =   0.2500000
        k(    7) = (   0.3750000   0.1685581   0.0333283), wk =   0.2500000
        k(    8) = (   0.3750000   0.1685581   0.0999850), wk =   0.2500000

                       cryst. coord.
        k(    1) = (   0.1250000   0.1250000   0.1250000), wk =   0.2500000
        k(    2) = (   0.1250000   0.1250000   0.3750000), wk =   0.2500000
        k(    3) = (   0.1250000   0.3750000   0.1250000), wk =   0.2500000
        k(    4) = (   0.1250000   0.3750000   0.3750000), wk =   0.2500000
        k(    5) = (   0.3750000   0.1250000   0.1250000), wk =   0.2500000
        k(    6) = (   0.3750000   0.1250000   0.3750000), wk =   0.2500000
        k(    7) = (   0.3750000   0.3750000   0.1250000), wk =   0.2500000
        k(    8) = (   0.3750000   0.3750000   0.3750000), wk =   0.2500000

     Dense  grid:  1021095 G-vectors     FFT dimensions: (  64, 144, 240)

     Smooth grid:   612299 G-vectors     FFT dimensions: (  54, 120, 200)

     Dynamical RAM for                 wfc:       1.61 MB

     Dynamical RAM for     wfc (w. buffer):      14.45 MB

     Dynamical RAM for           str. fact:       0.73 MB

     Dynamical RAM for           local pot:       0.00 MB

     Dynamical RAM for          nlocal pot:       7.66 MB

     Dynamical RAM for                qrad:      15.32 MB

     Dynamical RAM for          rho,v,vnew:       1.57 MB

     Dynamical RAM for               rhoin:       0.52 MB

     Dynamical RAM for            rho*nmix:       3.89 MB

     Dynamical RAM for           G-vectors:       0.99 MB

     Dynamical RAM for          h,s,v(r/c):       1.42 MB

     Dynamical RAM for          <psi|beta>:       0.56 MB

     Dynamical RAM for                 psi:       3.21 MB

     Dynamical RAM for                hpsi:       3.21 MB

     Dynamical RAM for                spsi:       3.21 MB

     Dynamical RAM for      wfcinit/wfcrot:       4.04 MB

     Dynamical RAM for           addusdens:     146.05 MB

     Dynamical RAM for          addusforce:     151.69 MB

     Dynamical RAM for         addusstress:     149.71 MB

     Estimated static dynamical RAM per process >      47.53 MB

     Estimated max dynamical RAM per process >     199.21 MB

     Estimated total dynamical RAM >      12.45 GB

     Initial potential from superposition of free atoms

     starting charge  175.83511, renormalised to  176.00000
     Starting wfcs are  104 randomized atomic wfcs
     Checking if some PAW data can be deallocated... 
       PAW data deallocated on   48 nodes for type:  1
       PAW data deallocated on   52 nodes for type:  2
       PAW data deallocated on   28 nodes for type:  3

     total cpu time spent up to now is       14.7 secs

     Self-consistent Calculation

     iteration #  1     ecut=    80.00 Ry     beta= 0.50
     Davidson diagonalization with overlap
     ethr =  1.00E-02,  avg # of iterations =  1.0

     Threshold (ethr) on eigenvalues was too large:
     Diagonalizing with lowered threshold

     Davidson diagonalization with overlap
     ethr =  3.12E-04,  avg # of iterations =  3.9

     total cpu time spent up to now is       39.6 secs

     total energy              =   -7979.49834339 Ry
     estimated scf accuracy    <       0.44459488 Ry

     iteration #  2     ecut=    80.00 Ry     beta= 0.50
     Davidson diagonalization with overlap
     ethr =  2.53E-04,  avg # of iterations =  4.1

     total cpu time spent up to now is       54.1 secs

     total energy              =   -7979.63967753 Ry
     estimated scf accuracy    <       0.11238756 Ry

     iteration #  3     ecut=    80.00 Ry     beta= 0.50
     Davidson diagonalization with overlap
     ethr =  6.39E-05,  avg # of iterations =  2.0

     total cpu time spent up to now is       66.8 secs

     total energy              =   -7979.65786628 Ry
     estimated scf accuracy    <       0.01065053 Ry

     iteration #  4     ecut=    80.00 Ry     beta= 0.50
     Davidson diagonalization with overlap
     ethr =  6.05E-06,  avg # of iterations =  7.0

     total cpu time spent up to now is       85.1 secs

     total energy              =   -7979.66487201 Ry
     estimated scf accuracy    <       0.00953614 Ry

     iteration #  5     ecut=    80.00 Ry     beta= 0.50
     Davidson diagonalization with overlap
     ethr =  5.42E-06,  avg # of iterations =  5.0

     total cpu time spent up to now is       99.9 secs

     total energy              =   -7979.66759249 Ry
     estimated scf accuracy    <       0.00103299 Ry

     iteration #  6     ecut=    80.00 Ry     beta= 0.50
     Davidson diagonalization with overlap
     ethr =  5.87E-07,  avg # of iterations =  4.2

     total cpu time spent up to now is      114.0 secs

     total energy              =   -7979.66767814 Ry
     estimated scf accuracy    <       0.00033352 Ry

     iteration #  7     ecut=    80.00 Ry     beta= 0.50
     Davidson diagonalization with overlap
     ethr =  1.89E-07,  avg # of iterations =  5.1

     total cpu time spent up to now is      129.6 secs

     total energy              =   -7979.66780321 Ry
     estimated scf accuracy    <       0.00011063 Ry

     iteration #  8     ecut=    80.00 Ry     beta= 0.50
     Davidson diagonalization with overlap
     ethr =  6.29E-08,  avg # of iterations =  2.5

     total cpu time spent up to now is      142.6 secs

     total energy              =   -7979.66782020 Ry
     estimated scf accuracy    <       0.00000996 Ry

     iteration #  9     ecut=    80.00 Ry     beta= 0.50
     Davidson diagonalization with overlap
     ethr =  5.66E-09,  avg # of iterations =  6.6

     total cpu time spent up to now is      161.0 secs

     total energy              =   -7979.66782227 Ry
     estimated scf accuracy    <       0.00001506 Ry

     iteration # 10     ecut=    80.00 Ry     beta= 0.50
     Davidson diagonalization with overlap
     ethr =  5.66E-09,  avg # of iterations =  5.0

     total cpu time spent up to now is      176.7 secs

     total energy              =   -7979.66782648 Ry
     estimated scf accuracy    <       0.00000148 Ry

     iteration # 11     ecut=    80.00 Ry     beta= 0.50
     Davidson diagonalization with overlap
     ethr =  8.41E-10,  avg # of iterations =  2.0

     total cpu time spent up to now is      189.4 secs

     End of self-consistent calculation

          k = 0.1250 0.0562 0.0333 ( 76488 PWs)   bands (ev):

   -17.8088 -17.8088 -17.8087 -17.8087 -17.8065 -17.8065 -17.8062 -17.8062
   -17.7967 -17.7967 -17.7961 -17.7961 -17.7924 -17.7924 -17.7909 -17.7909
   -17.7856 -17.7856 -17.7843 -17.7843 -17.7230 -17.7228 -17.7222 -17.7219
    -8.7405  -8.7199  -8.5439  -8.5004  -8.4132  -8.4003  -8.3682  -8.3390
    -8.2385  -8.2257  -8.2044  -8.1735  -4.5560  -4.5537  -4.5489  -4.5428
    -4.5355  -4.5256  -4.5218  -4.5197  -4.5133  -4.5070  -4.4878  -4.4856
    -2.8914  -2.8772  -2.8014  -2.7473   0.2239   0.3809   0.7046   0.7501
     0.8348   0.8952   0.9621   1.0111   1.1865   1.1888   1.2154   1.2705
     1.4263   1.5049   1.5369   1.5932   1.7077   1.7873   1.8294   1.8682
     1.9431   1.9705   2.0288   2.0340   2.1031   2.1233   2.1622   2.1841
     2.1980   2.2696   2.3475   2.3696   2.6577   2.7316   2.8415   3.0531

     occupation numbers 
     1.0000   1.0000   1.0000   1.0000   1.0000   1.0000   1.0000   1.0000
     1.0000   1.0000   1.0000   1.0000   1.0000   1.0000   1.0000   1.0000
     1.0000   1.0000   1.0000   1.0000   1.0000   1.0000   1.0000   1.0000
     1.0000   1.0000   1.0000   1.0000   1.0000   1.0000   1.0000   1.0000
     1.0000   1.0000   1.0000   1.0000   1.0000   1.0000   1.0000   1.0000
     1.0000   1.0000   1.0000   1.0000   1.0000   1.0000   1.0000   1.0000
     1.0000   1.0000   1.0000   1.0000   1.0000   1.0000   1.0000   1.0000
     1.0000   1.0000   1.0000   1.0000   1.0000   1.0000   1.0000   1.0000
     1.0000   1.0000   1.0000   1.0000   1.0000   1.0000   1.0000   1.0000
     1.0000   1.0000   1.0000   1.0000   1.0000   1.0000   1.0000   1.0000
     1.0000   1.0000   1.0000   1.0000   1.0000   1.0000   1.0000   1.0000

          k = 0.1250 0.0562 0.1000 ( 76493 PWs)   bands (ev):

   -17.8088 -17.8088 -17.8087 -17.8087 -17.8065 -17.8065 -17.8062 -17.8062
   -17.7967 -17.7967 -17.7961 -17.7961 -17.7924 -17.7924 -17.7909 -17.7909
   -17.7856 -17.7856 -17.7843 -17.7843 -17.7229 -17.7229 -17.7221 -17.7220
    -8.7352  -8.7268  -8.5304  -8.5124  -8.4120  -8.4072  -8.3570  -8.3455
    -8.2364  -8.2316  -8.1926  -8.1806  -4.5572  -4.5561  -4.5461  -4.5408
    -4.5356  -4.5301  -4.5200  -4.5194  -4.5113  -4.5086  -4.4867  -4.4858
    -2.8884  -2.8829  -2.7842  -2.7621   0.2633   0.3269   0.7333   0.7597
     0.8197   0.8481   1.0103   1.0348   1.1838   1.1875   1.2104   1.2339
     1.4419   1.4693   1.5603   1.6225   1.7306   1.7900   1.8023   1.8366
     1.9227   1.9563   2.0128   2.0292   2.1285   2.1328   2.1668   2.1730
     2.2382   2.2760   2.3525   2.3644   2.6769   2.7063   2.9019   2.9895

     occupation numbers 
     1.0000   1.0000   1.0000   1.0000   1.0000   1.0000   1.0000   1.0000
     1.0000   1.0000   1.0000   1.0000   1.0000   1.0000   1.0000   1.0000
     1.0000   1.0000   1.0000   1.0000   1.0000   1.0000   1.0000   1.0000
     1.0000   1.0000   1.0000   1.0000   1.0000   1.0000   1.0000   1.0000
     1.0000   1.0000   1.0000   1.0000   1.0000   1.0000   1.0000   1.0000
     1.0000   1.0000   1.0000   1.0000   1.0000   1.0000   1.0000   1.0000
     1.0000   1.0000   1.0000   1.0000   1.0000   1.0000   1.0000   1.0000
     1.0000   1.0000   1.0000   1.0000   1.0000   1.0000   1.0000   1.0000
     1.0000   1.0000   1.0000   1.0000   1.0000   1.0000   1.0000   1.0000
     1.0000   1.0000   1.0000   1.0000   1.0000   1.0000   1.0000   1.0000
     1.0000   1.0000   1.0000   1.0000   1.0000   1.0000   1.0000   1.0000

          k = 0.1250 0.1686 0.0333 ( 76521 PWs)   bands (ev):

   -17.8088 -17.8088 -17.8087 -17.8087 -17.8065 -17.8065 -17.8062 -17.8062
   -17.7967 -17.7967 -17.7961 -17.7961 -17.7924 -17.7924 -17.7909 -17.7909
   -17.7856 -17.7856 -17.7843 -17.7843 -17.7227 -17.7225 -17.7224 -17.7222
    -8.7196  -8.7094  -8.5575  -8.5485  -8.4367  -8.4344  -8.3191  -8.3032
    -8.2252  -8.2169  -8.2077  -8.1859  -4.5591  -4.5579  -4.5450  -4.5420
    -4.5387  -4.5315  -4.5230  -4.5216  -4.5052  -4.4996  -4.4958  -4.4924
    -2.8928  -2.8856  -2.7723  -2.7509   0.2855   0.3481   0.6288   0.6724
     0.8062   0.8512   0.9855   1.0251   1.1640   1.2018   1.3202   1.3691
     1.5098   1.5599   1.5923   1.6595   1.6741   1.7232   1.7933   1.8646
     1.9118   1.9394   2.0214   2.0311   2.0626   2.1129   2.2075   2.2120
     2.2266   2.2665   2.2975   2.3204   2.5947   2.6597   2.9408   3.0008

     occupation numbers 
     1.0000   1.0000   1.0000   1.0000   1.0000   1.0000   1.0000   1.0000
     1.0000   1.0000   1.0000   1.0000   1.0000   1.0000   1.0000   1.0000
     1.0000   1.0000   1.0000   1.0000   1.0000   1.0000   1.0000   1.0000
     1.0000   1.0000   1.0000   1.0000   1.0000   1.0000   1.0000   1.0000
     1.0000   1.0000   1.0000   1.0000   1.0000   1.0000   1.0000   1.0000
     1.0000   1.0000   1.0000   1.0000   1.0000   1.0000   1.0000   1.0000
     1.0000   1.0000   1.0000   1.0000   1.0000   1.0000   1.0000   1.0000
     1.0000   1.0000   1.0000   1.0000   1.0000   1.0000   1.0000   1.0000
     1.0000   1.0000   1.0000   1.0000   1.0000   1.0000   1.0000   1.0000
     1.0000   1.0000   1.0000   1.0000   1.0000   1.0000   1.0000   1.0000
     1.0000   1.0000   1.0000   1.0000   1.0000   1.0000   1.0000   1.0000

          k = 0.1250 0.1686 0.1000 ( 76506 PWs)   bands (ev):

   -17.8088 -17.8088 -17.8087 -17.8087 -17.8065 -17.8065 -17.8062 -17.8062
   -17.7967 -17.7967 -17.7961 -17.7961 -17.7924 -17.7924 -17.7909 -17.7909
   -17.7856 -17.7856 -17.7843 -17.7843 -17.7227 -17.7226 -17.7223 -17.7222
    -8.7168  -8.7126  -8.5545  -8.5508  -8.4358  -8.4342  -8.3172  -8.3104
    -8.2215  -8.2150  -8.2030  -8.1923  -4.5579  -4.5565  -4.5493  -4.5467
    -4.5344  -4.5322  -4.5220  -4.5215  -4.5033  -4.5009  -4.4942  -4.4929
    -2.8903  -2.8872  -2.7666  -2.7577   0.3082   0.3351   0.6301   0.6495
     0.8339   0.8831   0.9537   1.0043   1.1521   1.1650   1.3389   1.3574
     1.5404   1.5862   1.6036   1.6337   1.7171   1.7400   1.7674   1.8126
     1.9254   1.9489   2.0204   2.0286   2.0905   2.1072   2.2115   2.2161
     2.2186   2.2451   2.3071   2.3162   2.6201   2.6476   2.9476   2.9732

     occupation numbers 
     1.0000   1.0000   1.0000   1.0000   1.0000   1.0000   1.0000   1.0000
     1.0000   1.0000   1.0000   1.0000   1.0000   1.0000   1.0000   1.0000
     1.0000   1.0000   1.0000   1.0000   1.0000   1.0000   1.0000   1.0000
     1.0000   1.0000   1.0000   1.0000   1.0000   1.0000   1.0000   1.0000
     1.0000   1.0000   1.0000   1.0000   1.0000   1.0000   1.0000   1.0000
     1.0000   1.0000   1.0000   1.0000   1.0000   1.0000   1.0000   1.0000
     1.0000   1.0000   1.0000   1.0000   1.0000   1.0000   1.0000   1.0000
     1.0000   1.0000   1.0000   1.0000   1.0000   1.0000   1.0000   1.0000
     1.0000   1.0000   1.0000   1.0000   1.0000   1.0000   1.0000   1.0000
     1.0000   1.0000   1.0000   1.0000   1.0000   1.0000   1.0000   1.0000
     1.0000   1.0000   1.0000   1.0000   1.0000   1.0000   1.0000   1.0000

          k = 0.3750 0.0562 0.0333 ( 76578 PWs)   bands (ev):

   -17.8090 -17.8090 -17.8089 -17.8089 -17.8078 -17.8078 -17.8077 -17.8077
   -17.7965 -17.7965 -17.7962 -17.7962 -17.7898 -17.7898 -17.7892 -17.7892
   -17.7857 -17.7857 -17.7851 -17.7851 -17.7147 -17.7146 -17.7141 -17.7140
    -8.5434  -8.5342  -8.4380  -8.4266  -8.3173  -8.3080  -8.2874  -8.2762
    -8.2442  -8.2385  -8.2270  -8.2184  -4.7000  -4.6971  -4.6463  -4.6424
    -4.5461  -4.5432  -4.5382  -4.5350  -4.5242  -4.5158  -4.5033  -4.5015
    -3.1358  -3.1107  -3.0592  -3.0409   0.1746   0.1906   0.2590   0.2643
     0.5648   0.5844   0.6687   0.6911   0.7033   0.8293   1.0272   1.1052
     1.3162   1.4132   1.5618   1.6297   1.6636   1.7431   1.7578   1.8208
     1.8289   1.8619   1.8847   1.9010   1.9370   1.9626   2.0101   2.0435
     2.0778   2.1844   2.2074   2.2545   2.6102   2.8429   2.9105   3.0671

     occupation numbers 
     1.0000   1.0000   1.0000   1.0000   1.0000   1.0000   1.0000   1.0000
     1.0000   1.0000   1.0000   1.0000   1.0000   1.0000   1.0000   1.0000
     1.0000   1.0000   1.0000   1.0000   1.0000   1.0000   1.0000   1.0000
     1.0000   1.0000   1.0000   1.0000   1.0000   1.0000   1.0000   1.0000
     1.0000   1.0000   1.0000   1.0000   1.0000   1.0000   1.0000   1.0000
     1.0000   1.0000   1.0000   1.0000   1.0000   1.0000   1.0000   1.0000
     1.0000   1.0000   1.0000   1.0000   1.0000   1.0000   1.0000   1.0000
     1.0000   1.0000   1.0000   1.0000   1.0000   1.0000   1.0000   1.0000
     1.0000   1.0000   1.0000   1.0000   1.0000   1.0000   1.0000   1.0000
     1.0000   1.0000   1.0000   1.0000   1.0000   1.0000   1.0000   1.0000
     1.0000   1.0000   1.0000   1.0000   1.0000   1.0000   1.0000   1.0000

          k = 0.3750 0.0562 0.1000 ( 76576 PWs)   bands (ev):

   -17.8090 -17.8090 -17.8089 -17.8089 -17.8078 -17.8078 -17.8077 -17.8077
   -17.7965 -17.7965 -17.7962 -17.7962 -17.7898 -17.7898 -17.7892 -17.7892
   -17.7857 -17.7857 -17.7851 -17.7851 -17.7147 -17.7146 -17.7140 -17.7140
    -8.5409  -8.5371  -8.4345  -8.4297  -8.3149  -8.3111  -8.2841  -8.2795
    -8.2425  -8.2402  -8.2241  -8.2206  -4.6992  -4.6980  -4.6451  -4.6435
    -4.5462  -4.5452  -4.5367  -4.5351  -4.5216  -4.5181  -4.5026  -4.5019
    -3.1289  -3.1186  -3.0533  -3.0459   0.1801   0.1860   0.2575   0.2616
     0.5869   0.6254   0.6609   0.6853   0.7026   0.7758   1.0361   1.0743
     1.3437   1.3817   1.5878   1.6106   1.6844   1.7216   1.7783   1.8264
     1.8283   1.8545   1.9125   1.9340   1.9419   1.9603   1.9831   1.9957
     2.1142   2.1624   2.2245   2.2463   2.6701   2.7627   2.9656   3.0261

     occupation numbers 
     1.0000   1.0000   1.0000   1.0000   1.0000   1.0000   1.0000   1.0000
     1.0000   1.0000   1.0000   1.0000   1.0000   1.0000   1.0000   1.0000
     1.0000   1.0000   1.0000   1.0000   1.0000   1.0000   1.0000   1.0000
     1.0000   1.0000   1.0000   1.0000   1.0000   1.0000   1.0000   1.0000
     1.0000   1.0000   1.0000   1.0000   1.0000   1.0000   1.0000   1.0000
     1.0000   1.0000   1.0000   1.0000   1.0000   1.0000   1.0000   1.0000
     1.0000   1.0000   1.0000   1.0000   1.0000   1.0000   1.0000   1.0000
     1.0000   1.0000   1.0000   1.0000   1.0000   1.0000   1.0000   1.0000
     1.0000   1.0000   1.0000   1.0000   1.0000   1.0000   1.0000   1.0000
     1.0000   1.0000   1.0000   1.0000   1.0000   1.0000   1.0000   1.0000
     1.0000   1.0000   1.0000   1.0000   1.0000   1.0000   1.0000   1.0000

          k = 0.3750 0.1686 0.0333 ( 76597 PWs)   bands (ev):

   -17.8090 -17.8090 -17.8089 -17.8089 -17.8078 -17.8078 -17.8077 -17.8077
   -17.7965 -17.7965 -17.7962 -17.7962 -17.7898 -17.7898 -17.7892 -17.7892
   -17.7857 -17.7857 -17.7851 -17.7851 -17.7145 -17.7144 -17.7142 -17.7142
    -8.5329  -8.5287  -8.4444  -8.4405  -8.3333  -8.3296  -8.2645  -8.2603
    -8.2369  -8.2330  -8.2304  -8.2242  -4.6862  -4.6806  -4.6639  -4.6579
    -4.5438  -4.5414  -4.5395  -4.5373  -4.5187  -4.5113  -4.5100  -4.5052
    -3.1152  -3.1042  -3.0657  -3.0587   0.2210   0.2326   0.3340   0.3371
     0.5246   0.5404   0.5889   0.6063   0.6856   0.7225   1.0623   1.0911
     1.4176   1.4381   1.4950   1.6018   1.6647   1.7037   1.7839   1.7845
     1.8339   1.8470   1.8658   1.9049   1.9508   1.9638   2.0091   2.0653
     2.1077   2.1527   2.1994   2.2320   2.7585   2.9275   2.9783   3.0019

     occupation numbers 
     1.0000   1.0000   1.0000   1.0000   1.0000   1.0000   1.0000   1.0000
     1.0000   1.0000   1.0000   1.0000   1.0000   1.0000   1.0000   1.0000
     1.0000   1.0000   1.0000   1.0000   1.0000   1.0000   1.0000   1.0000
     1.0000   1.0000   1.0000   1.0000   1.0000   1.0000   1.0000   1.0000
     1.0000   1.0000   1.0000   1.0000   1.0000   1.0000   1.0000   1.0000
     1.0000   1.0000   1.0000   1.0000   1.0000   1.0000   1.0000   1.0000
     1.0000   1.0000   1.0000   1.0000   1.0000   1.0000   1.0000   1.0000
     1.0000   1.0000   1.0000   1.0000   1.0000   1.0000   1.0000   1.0000
     1.0000   1.0000   1.0000   1.0000   1.0000   1.0000   1.0000   1.0000
     1.0000   1.0000   1.0000   1.0000   1.0000   1.0000   1.0000   1.0000
     1.0000   1.0000   1.0000   1.0000   1.0000   1.0000   1.0000   1.0000

          k = 0.3750 0.1686 0.1000 ( 76619 PWs)   bands (ev):

   -17.8090 -17.8090 -17.8089 -17.8089 -17.8078 -17.8078 -17.8077 -17.8077
   -17.7965 -17.7965 -17.7962 -17.7962 -17.7898 -17.7898 -17.7892 -17.7892
   -17.7857 -17.7857 -17.7851 -17.7851 -17.7145 -17.7145 -17.7142 -17.7142
    -8.5317  -8.5300  -8.4432  -8.4416  -8.3322  -8.3306  -8.2635  -8.2617
    -8.2359  -8.2342  -8.2283  -8.2258  -4.6846  -4.6823  -4.6621  -4.6596
    -4.5439  -4.5431  -4.5383  -4.5375  -4.5164  -4.5134  -4.5083  -4.5064
    -3.1121  -3.1076  -3.0635  -3.0606   0.2256   0.2308   0.3290   0.3310
     0.5262   0.5357   0.5927   0.6002   0.7169   0.7339   1.0544   1.0679
     1.3883   1.3987   1.5577   1.5785   1.6993   1.7222   1.7728   1.8020
     1.8207   1.8566   1.8645   1.8771   1.9595   1.9701   2.0108   2.0492
     2.1063   2.1374   2.2168   2.2314   2.8089   2.8812   2.9835   2.9966

     occupation numbers 
     1.0000   1.0000   1.0000   1.0000   1.0000   1.0000   1.0000   1.0000
     1.0000   1.0000   1.0000   1.0000   1.0000   1.0000   1.0000   1.0000
     1.0000   1.0000   1.0000   1.0000   1.0000   1.0000   1.0000   1.0000
     1.0000   1.0000   1.0000   1.0000   1.0000   1.0000   1.0000   1.0000
     1.0000   1.0000   1.0000   1.0000   1.0000   1.0000   1.0000   1.0000
     1.0000   1.0000   1.0000   1.0000   1.0000   1.0000   1.0000   1.0000
     1.0000   1.0000   1.0000   1.0000   1.0000   1.0000   1.0000   1.0000
     1.0000   1.0000   1.0000   1.0000   1.0000   1.0000   1.0000   1.0000
     1.0000   1.0000   1.0000   1.0000   1.0000   1.0000   1.0000   1.0000
     1.0000   1.0000   1.0000   1.0000   1.0000   1.0000   1.0000   1.0000
     1.0000   1.0000   1.0000   1.0000   1.0000   1.0000   1.0000   1.0000

     highest occupied level (ev):     3.0671

!    total energy              =   -7979.66782615 Ry

     total all-electron energy =   -282510.822539 Ry
     estimated scf accuracy    <       0.00000064 Ry

     The total energy is the sum of the following terms:
     one-electron contribution =    -461.41677345 Ry
     hartree contribution      =     315.80685663 Ry
     xc contribution           =    -465.92616760 Ry
     ewald contribution        =    -634.99218634 Ry
     one-center paw contrib.   =   -6733.13955539 Ry
      -> PAW hartree energy AE =      25.63649401 Ry
      -> PAW hartree energy PS =     -25.52692682 Ry
      -> PAW xc energy AE      =    -383.53070676 Ry
      -> PAW xc energy PS      =      20.51532225 Ry
      -> total E_H with PAW    =     315.91642382 Ry
      -> total E_XC with PAW   =    -828.94155211 Ry

     convergence has been achieved in  11 iterations

     Forces acting on atoms (cartesian axes, Ry/au):

     atom    1 type  1   force =     0.00000000   -0.00059652    0.00036295
     atom    2 type  1   force =     0.00000000    0.00059652   -0.00036295
     atom    3 type  1   force =     0.00000000   -0.00059652   -0.00036295
     atom    4 type  1   force =     0.00000000    0.00059652    0.00036295
     atom    5 type  2   force =     0.00000000   -0.00016877    0.00055883
     atom    6 type  2   force =     0.00000000    0.00016877   -0.00055883
     atom    7 type  2   force =     0.00000000   -0.00016877   -0.00055883
     atom    8 type  2   force =     0.00000000    0.00016877    0.00055883
     atom    9 type  3   force =     0.00000000    0.00016143    0.00017962
     atom   10 type  3   force =     0.00000000   -0.00016143   -0.00017962
     atom   11 type  3   force =     0.00000000    0.00016143   -0.00017962
     atom   12 type  3   force =     0.00000000   -0.00016143    0.00017962
     atom   13 type  3   force =     0.00000000    0.00025536   -0.00100870
     atom   14 type  3   force =     0.00000000   -0.00025536    0.00100870
     atom   15 type  3   force =     0.00000000    0.00025536    0.00100870
     atom   16 type  3   force =     0.00000000   -0.00025536   -0.00100870
     atom   17 type  3   force =     0.00000000   -0.00081116    0.00049263
     atom   18 type  3   force =     0.00000000    0.00081116   -0.00049263
     atom   19 type  3   force =     0.00000000   -0.00081116   -0.00049263
     atom   20 type  3   force =     0.00000000    0.00081116    0.00049263
     The non-local contrib.  to forces
     atom    1 type  1   force =     0.00000000    0.00227778   -0.00227882
     atom    2 type  1   force =     0.00000000   -0.00227778    0.00227882
     atom    3 type  1   force =     0.00000000    0.00227778    0.00227882
     atom    4 type  1   force =     0.00000000   -0.00227778   -0.00227882
     atom    5 type  2   force =     0.00000000   -0.08736212   -0.13122947
     atom    6 type  2   force =     0.00000000    0.08736212    0.13122947
     atom    7 type  2   force =     0.00000000   -0.08736212    0.13122947
     atom    8 type  2   force =     0.00000000    0.08736212   -0.13122947
     atom    9 type  3   force =     0.00000000   -0.04742874   -0.04688172
     atom   10 type  3   force =     0.00000000    0.04742874    0.04688172
     atom   11 type  3   force =     0.00000000   -0.04742874    0.04688172
     atom   12 type  3   force =     0.00000000    0.04742874   -0.04688172
     atom   13 type  3   force =    -0.00000000   -0.03248350    0.05558725
     atom   14 type  3   force =     0.00000000    0.03248350   -0.05558725
     atom   15 type  3   force =    -0.00000000   -0.03248350   -0.05558725
     atom   16 type  3   force =     0.00000000    0.03248350    0.05558725
     atom   17 type  3   force =     0.00000000    0.05453593   -0.01634824
     atom   18 type  3   force =     0.00000000   -0.05453593    0.01634824
     atom   19 type  3   force =     0.00000000    0.05453593    0.01634824
     atom   20 type  3   force =     0.00000000   -0.05453593   -0.01634824
     The ionic contribution  to forces
     atom    1 type  1   force =    -0.00000000    0.03077255    0.43317335
     atom    2 type  1   force =     0.00000000   -0.03077255   -0.43317335
     atom    3 type  1   force =    -0.00000000    0.03077255   -0.43317335
     atom    4 type  1   force =    -0.00000000   -0.03077255    0.43317335
     atom    5 type  2   force =     0.00000000   -2.44078114   -1.60480832
     atom    6 type  2   force =     0.00000000    2.44078114    1.60480832
     atom    7 type  2   force =     0.00000000   -2.44078114    1.60480832
     atom    8 type  2   force =    -0.00000000    2.44078114   -1.60480832
     atom    9 type  3   force =     0.00000000    2.99719434    5.14146732
     atom   10 type  3   force =     0.00000000   -2.99719434   -5.14146732
     atom   11 type  3   force =    -0.00000000    2.99719434   -5.14146732
     atom   12 type  3   force =    -0.00000000   -2.99719434    5.14146732
     atom   13 type  3   force =     0.00000000    2.01702576   -3.76181498
     atom   14 type  3   force =    -0.00000000   -2.01702576    3.76181498
     atom   15 type  3   force =    -0.00000000    2.01702576    3.76181498
     atom   16 type  3   force =     0.00000000   -2.01702576   -3.76181498
     atom   17 type  3   force =     0.00000000   -4.20202707    2.10976133
     atom   18 type  3   force =    -0.00000000    4.20202707   -2.10976133
     atom   19 type  3   force =     0.00000000   -4.20202707   -2.10976133
     atom   20 type  3   force =     0.00000000    4.20202707    2.10976133
     The local contribution  to forces
     atom    1 type  1   force =    -0.00000000   -0.03356041   -0.43074492
     atom    2 type  1   force =     0.00000000    0.03356041    0.43074492
     atom    3 type  1   force =    -0.00000000   -0.03356041    0.43074492
     atom    4 type  1   force =     0.00000000    0.03356041   -0.43074492
     atom    5 type  2   force =     0.00000000    2.52717307    1.73628914
     atom    6 type  2   force =     0.00000000   -2.52717307   -1.73628914
     atom    7 type  2   force =     0.00000000    2.52717307   -1.73628914
     atom    8 type  2   force =     0.00000000   -2.52717307    1.73628914
     atom    9 type  3   force =    -0.00000000   -2.95579370   -5.10059212
     atom   10 type  3   force =     0.00000000    2.95579370    5.10059212
     atom   11 type  3   force =    -0.00000000   -2.95579370    5.10059212
     atom   12 type  3   force =     0.00000000    2.95579370   -5.10059212
     atom   13 type  3   force =     0.00000000   -1.98847256    3.71257206
     atom   14 type  3   force =    -0.00000000    1.98847256   -3.71257206
     atom   15 type  3   force =    -0.00000000   -1.98847256   -3.71257206
     atom   16 type  3   force =     0.00000000    1.98847256    3.71257206
     atom   17 type  3   force =    -0.00000000    4.15386632   -2.09534328
     atom   18 type  3   force =     0.00000000   -4.15386632    2.09534328
     atom   19 type  3   force =    -0.00000000    4.15386632    2.09534328
     atom   20 type  3   force =     0.00000000   -4.15386632   -2.09534328
     The core correction contribution to forces
     atom    1 type  1   force =    -0.00000000   -0.00018311    0.00018406
     atom    2 type  1   force =     0.00000000    0.00018311   -0.00018406
     atom    3 type  1   force =    -0.00000000   -0.00018311   -0.00018406
     atom    4 type  1   force =    -0.00000000    0.00018311    0.00018406
     atom    5 type  2   force =    -0.00000000    0.00011624    0.00006250
     atom    6 type  2   force =     0.00000000   -0.00011624   -0.00006250
     atom    7 type  2   force =    -0.00000000    0.00011624   -0.00006250
     atom    8 type  2   force =     0.00000000   -0.00011624    0.00006250
     atom    9 type  3   force =     0.00000000    0.00630573    0.00646660
     atom   10 type  3   force =    -0.00000000   -0.00630573   -0.00646660
     atom   11 type  3   force =     0.00000000    0.00630573   -0.00646660
     atom   12 type  3   force =    -0.00000000   -0.00630573    0.00646660
     atom   13 type  3   force =    -0.00000000    0.00428961   -0.00741237
     atom   14 type  3   force =     0.00000000   -0.00428961    0.00741237
     atom   15 type  3   force =    -0.00000000    0.00428961    0.00741237
     atom   16 type  3   force =     0.00000000   -0.00428961   -0.00741237
     atom   17 type  3   force =    -0.00000000   -0.00748683    0.00244770
     atom   18 type  3   force =    -0.00000000    0.00748683   -0.00244770
     atom   19 type  3   force =     0.00000000   -0.00748683   -0.00244770
     atom   20 type  3   force =    -0.00000000    0.00748683    0.00244770
     The Hubbard contrib.    to forces
     atom    1 type  1   force =     0.00000000    0.00000000    0.00000000
     atom    2 type  1   force =     0.00000000    0.00000000    0.00000000
     atom    3 type  1   force =     0.00000000    0.00000000    0.00000000
     atom    4 type  1   force =     0.00000000    0.00000000    0.00000000
     atom    5 type  2   force =     0.00000000    0.00000000    0.00000000
     atom    6 type  2   force =     0.00000000    0.00000000    0.00000000
     atom    7 type  2   force =     0.00000000    0.00000000    0.00000000
     atom    8 type  2   force =     0.00000000    0.00000000    0.00000000
     atom    9 type  3   force =     0.00000000    0.00000000    0.00000000
     atom   10 type  3   force =     0.00000000    0.00000000    0.00000000
     atom   11 type  3   force =     0.00000000    0.00000000    0.00000000
     atom   12 type  3   force =     0.00000000    0.00000000    0.00000000
     atom   13 type  3   force =     0.00000000    0.00000000    0.00000000
     atom   14 type  3   force =     0.00000000    0.00000000    0.00000000
     atom   15 type  3   force =     0.00000000    0.00000000    0.00000000
     atom   16 type  3   force =     0.00000000    0.00000000    0.00000000
     atom   17 type  3   force =     0.00000000    0.00000000    0.00000000
     atom   18 type  3   force =     0.00000000    0.00000000    0.00000000
     atom   19 type  3   force =     0.00000000    0.00000000    0.00000000
     atom   20 type  3   force =     0.00000000    0.00000000    0.00000000
     The SCF correction term to forces
     atom    1 type  1   force =    -0.00000000    0.00009667    0.00002928
     atom    2 type  1   force =     0.00000000   -0.00009667   -0.00002928
     atom    3 type  1   force =     0.00000000    0.00009667   -0.00002928
     atom    4 type  1   force =    -0.00000000   -0.00009667    0.00002928
     atom    5 type  2   force =     0.00000000    0.00068518    0.00024498
     atom    6 type  2   force =    -0.00000000   -0.00068518   -0.00024498
     atom    7 type  2   force =     0.00000000    0.00068518   -0.00024498
     atom    8 type  2   force =    -0.00000000   -0.00068518    0.00024498
     atom    9 type  3   force =    -0.00000000   -0.00011620   -0.00028045
     atom   10 type  3   force =    -0.00000000    0.00011620    0.00028045
     atom   11 type  3   force =    -0.00000000   -0.00011620    0.00028045
     atom   12 type  3   force =     0.00000000    0.00011620   -0.00028045
     atom   13 type  3   force =     0.00000000   -0.00010395    0.00005933
     atom   14 type  3   force =    -0.00000000    0.00010395   -0.00005933
     atom   15 type  3   force =    -0.00000000   -0.00010395   -0.00005933
     atom   16 type  3   force =     0.00000000    0.00010395    0.00005933
     atom   17 type  3   force =     0.00000000    0.00030050   -0.00002488
     atom   18 type  3   force =    -0.00000000   -0.00030050    0.00002488
     atom   19 type  3   force =     0.00000000    0.00030050    0.00002488
     atom   20 type  3   force =     0.00000000   -0.00030050   -0.00002488

     Total force =     0.003388     Total SCF correction =     0.001717
     SCF correction compared to forces is large: reduce conv_thr to get better values


     Computing stress (Cartesian axis) and pressure

          total   stress  (Ry/bohr**3)                   (kbar)     P=        0.54
   0.00000265   0.00000000   0.00000000            0.39        0.00        0.00
   0.00000000   0.00000397   0.00000000            0.00        0.58        0.00
   0.00000000   0.00000000   0.00000445            0.00        0.00        0.65

     kinetic stress (kbar)   5554.09      0.00      0.00
                                0.00   5566.13      0.00
                                0.00      0.00   5559.81

     local   stress (kbar)  -4516.22     -0.00      0.00
                               -0.00  -1884.53      0.00
                                0.00      0.00   -985.06

     nonloc. stress (kbar)   1149.19      0.00      0.00
                                0.00   1147.94      0.00
                                0.00      0.00   1150.58

     hartree stress (kbar)   3411.29     -0.00      0.00
                               -0.00   2198.14     -0.00
                                0.00     -0.00   1724.28

     exc-cor stress (kbar)   5477.33     -0.00     -0.00
                               -0.00   5476.99     -0.00
                               -0.00     -0.00   5477.43

     corecor stress (kbar)  -7253.06      0.00      0.00
                                0.00  -7253.42      0.00
                                0.00      0.00  -7253.39

     ewald   stress (kbar)  -3822.23     -0.00      0.00
                               -0.00  -5250.65     -0.00
                                0.00     -0.00  -5672.99

     hubbard stress (kbar)      0.00      0.00      0.00
                                0.00      0.00      0.00
                                0.00      0.00      0.00

     DFT-D   stress (kbar)      0.00      0.00      0.00
                                0.00      0.00      0.00
                                0.00      0.00      0.00

     XDM     stress (kbar)      0.00      0.00      0.00
                                0.00      0.00      0.00
                                0.00      0.00      0.00

     dft-nl  stress (kbar)      0.00      0.00      0.00
                                0.00      0.00      0.00
                                0.00      0.00      0.00

     TS-vdW  stress (kbar)      0.00      0.00      0.00
                                0.00      0.00      0.00
                                0.00      0.00      0.00



     Writing output data file ./CsSnI3.save/
 
     init_run     :      7.86s CPU      8.33s WALL (       1 calls)
     electrons    :    166.96s CPU    174.82s WALL (       1 calls)
     forces       :      4.06s CPU      4.29s WALL (       1 calls)
     stress       :     24.52s CPU     25.08s WALL (       1 calls)

     Called by init_run:
     wfcinit      :      3.78s CPU      3.87s WALL (       1 calls)
     wfcinit:atom :      0.04s CPU      0.04s WALL (       8 calls)
     wfcinit:wfcr :      3.56s CPU      3.64s WALL (       8 calls)
     potinit      :      0.91s CPU      0.94s WALL (       1 calls)
     hinit0       :      1.11s CPU      1.22s WALL (       1 calls)

     Called by electrons:
     c_bands      :    124.41s CPU    126.47s WALL (      12 calls)
     sum_band     :     27.53s CPU     31.18s WALL (      12 calls)
     v_of_rho     :      1.13s CPU      1.15s WALL (      12 calls)
     v_h          :      0.10s CPU      0.10s WALL (      12 calls)
     v_xc         :      1.21s CPU      1.23s WALL (      14 calls)
     newd         :      9.38s CPU     11.60s WALL (      12 calls)
     PAW_pot      :      5.23s CPU      5.27s WALL (      12 calls)
     mix_rho      :      0.32s CPU      0.33s WALL (      12 calls)

     Called by c_bands:
     init_us_2    :      2.39s CPU      2.41s WALL (     216 calls)
     cegterg      :    114.39s CPU    116.38s WALL (      96 calls)

     Called by sum_band:
     sum_band:wei :      0.00s CPU      0.00s WALL (      12 calls)
     sum_band:loo :     16.72s CPU     17.15s WALL (      12 calls)
     sum_band:buf :      0.30s CPU      0.31s WALL (      96 calls)
     sum_band:ini :      1.03s CPU      1.04s WALL (      96 calls)
     sum_band:cal :      3.14s CPU      3.35s WALL (      96 calls)
     sum_band:bec :      0.09s CPU      0.09s WALL (      96 calls)
     addusdens    :     10.41s CPU     13.62s WALL (      12 calls)
     addusd:skk   :      0.08s CPU      0.09s WALL (      36 calls)
     addusd:dgemm :      3.94s CPU      7.06s WALL (      36 calls)
     addusd:qvan2 :      5.96s CPU      5.98s WALL (      36 calls)

     Called by *egterg:
     cdiaghg      :      6.42s CPU      6.57s WALL (     476 calls)
     cegterg:over :      6.17s CPU      6.22s WALL (     388 calls)
     cegterg:upda :      3.16s CPU      3.18s WALL (     388 calls)
     cegterg:last :      5.87s CPU      5.89s WALL (     226 calls)
     h_psi        :     83.66s CPU     85.41s WALL (     492 calls)
     s_psi        :      9.01s CPU      9.05s WALL (     492 calls)
     g_psi        :      0.20s CPU      0.20s WALL (     388 calls)

     Called by h_psi:
     h_psi:calbec :     11.68s CPU     12.45s WALL (     492 calls)
     vloc_psi     :     62.19s CPU     63.12s WALL (     492 calls)
     add_vuspsi   :      9.02s CPU      9.06s WALL (     492 calls)

     General routines
     calbec       :     16.33s CPU     17.32s WALL (     628 calls)
     fft          :      1.15s CPU      1.27s WALL (     180 calls)
     ffts         :      0.08s CPU      0.08s WALL (      24 calls)
     fftw         :     67.77s CPU     68.83s WALL (   58910 calls)
     interpolate  :      0.13s CPU      0.13s WALL (      12 calls)
 
     Parallel routines
     fft_scatt_xy :      6.92s CPU      7.01s WALL (   59114 calls)
     fft_scatt_yz :     37.90s CPU     38.49s WALL (   59114 calls)

     PAW routines
     PAW_pot      :      5.23s CPU      5.27s WALL (      12 calls)
     PAW_symme    :      0.07s CPU      0.07s WALL (      24 calls)
 
     PWSCF        :   3m31.30s CPU   3m42.03s WALL

 
   This run was terminated on:  19:18:20  14Jan2021            

=------------------------------------------------------------------------------=
   JOB DONE.
=------------------------------------------------------------------------------=
