
     Program PWSCF v.6.7MaX starts on 31Jan2021 at 15:30:23 

     This program is part of the open-source Quantum ESPRESSO suite
     for quantum simulation of materials; please cite
         "P. Giannozzi et al., J. Phys.:Condens. Matter 21 395502 (2009);
         "P. Giannozzi et al., J. Phys.:Condens. Matter 29 465901 (2017);
          URL http://www.quantum-espresso.org", 
     in publications or presentations arising from this work. More details at
     http://www.quantum-espresso.org/quote

     Parallel version (MPI & OpenMP), running on      96 processor cores
     Number of MPI processes:                48
     Threads/MPI process:                     2

     MPI processes distributed on     2 nodes
     R & G space division:  proc/nbgrp/npool/nimage =      48
     Waiting for input...
     Reading input from standard input

     Current dimensions of program PWSCF are:
     Max number of different atomic species (ntypx) = 10
     Max number of k-points (npk) =  40000
     Max angular momentum in pseudopotentials (lmaxx) =  3
     file Cs.rel-pbesol-spn-rrkjus_psl.1.0.0.UPF: wavefunction(s)  5S 6S renormalized
     file I.rel-pbesol-n-rrkjus_psl.1.0.0.UPF: wavefunction(s)  5S renormalized

     Subspace diagonalization in iterative solution of the eigenvalue problem:
     a serial algorithm will be used

     Found symmetry operation: I + (  0.0000 -0.5000 -0.5000)
     This is a supercell, fractional translations are disabled

     Parallelization info
     --------------------
     sticks:   dense  smooth     PW     G-vecs:    dense   smooth      PW
     Min          51      41     11                 1925     1379     203
     Max          52      42     12                 1932     1383     206
     Sum        2469    1993    553                92469    66299    9795


     Title: 
     CsIbcc                                                                     


     bravais-lattice index     =            1
     lattice parameter (alat)  =       8.8160  a.u.
     unit-cell volume          =     685.1896 (a.u.)^3
     number of atoms/cell      =            8
     number of atomic types    =            2
     number of electrons       =        64.00
     number of Kohn-Sham states=           64
     kinetic-energy cutoff     =      80.0000  Ry
     charge density cutoff     =     400.0000  Ry
     scf convergence threshold =      1.0E-06
     mixing beta               =       0.3500
     number of iterations used =            8  plain     mixing
     Exchange-correlation= PBESOL
                           (   1   4  10   8   0   0   0)
     Non magnetic calculation with spin-orbit


     celldm(1)=   8.815973  celldm(2)=   0.000000  celldm(3)=   0.000000
     celldm(4)=   0.000000  celldm(5)=   0.000000  celldm(6)=   0.000000

     crystal axes: (cart. coord. in units of alat)
               a(1) = (   1.000000   0.000000   0.000000 )  
               a(2) = (   0.000000   1.000000   0.000000 )  
               a(3) = (   0.000000   0.000000   1.000000 )  

     reciprocal axes: (cart. coord. in units 2 pi/alat)
               b(1) = (  1.000000  0.000000  0.000000 )  
               b(2) = (  0.000000  1.000000  0.000000 )  
               b(3) = (  0.000000  0.000000  1.000000 )  


     PseudoPot. # 1 for Cs read from file:
     /scratch/cmalosso/degironcoli/pseudo/pseudo-usp/Cs.rel-pbesol-spn-rrkjus_psl.1.0.0.UPF
     MD5 check sum: 846889b67fb1b19751b5b37931589d70
     Pseudo is Ultrasoft + core correction, Zval =  9.0
     Generated using &quot;atomic&quot; code by A. Dal Corso  v.6.4.1
     Using radial grid of 1251 points, 15 beta functions with: 
                l(1) =   0
                l(2) =   0
                l(3) =   0
                l(4) =   1
                l(5) =   1
                l(6) =   1
                l(7) =   1
                l(8) =   2
                l(9) =   2
               l(10) =   2
               l(11) =   2
               l(12) =   3
               l(13) =   3
               l(14) =   3
               l(15) =   3
     Q(r) pseudized with 0 coefficients 


     PseudoPot. # 2 for I  read from file:
     /scratch/cmalosso/degironcoli/pseudo/pseudo-usp/I.rel-pbesol-n-rrkjus_psl.1.0.0.UPF
     MD5 check sum: 0f96c6bfb1b448f280658f96eb466b08
     Pseudo is Ultrasoft + core correction, Zval =  7.0
     Generated using &quot;atomic&quot; code by A. Dal Corso  v.6.3
     Using radial grid of 1247 points, 10 beta functions with: 
                l(1) =   0
                l(2) =   0
                l(3) =   1
                l(4) =   1
                l(5) =   1
                l(6) =   1
                l(7) =   2
                l(8) =   2
                l(9) =   2
               l(10) =   2
     Q(r) pseudized with 0 coefficients 


     atomic species   valence    mass     pseudopotential
        Cs             9.00   132.90000     Cs( 1.00)
        I              7.00   126.90000     I ( 1.00)

     48 Sym. Ops., with inversion, found


                                    s                        frac. trans.

      isym =  1     identity                                     

 cryst.   s( 1) = (     1          0          0      )
                  (     0          1          0      )
                  (     0          0          1      )

 cart.    s( 1) = (  1.0000000  0.0000000  0.0000000 )
                  (  0.0000000  1.0000000  0.0000000 )
                  (  0.0000000  0.0000000  1.0000000 )


      isym =  2     180 deg rotation - cart. axis [0,0,1]        

 cryst.   s( 2) = (    -1          0          0      )
                  (     0         -1          0      )
                  (     0          0          1      )

 cart.    s( 2) = ( -1.0000000  0.0000000  0.0000000 )
                  (  0.0000000 -1.0000000  0.0000000 )
                  (  0.0000000  0.0000000  1.0000000 )


      isym =  3     180 deg rotation - cart. axis [0,1,0]        

 cryst.   s( 3) = (    -1          0          0      )
                  (     0          1          0      )
                  (     0          0         -1      )

 cart.    s( 3) = ( -1.0000000  0.0000000  0.0000000 )
                  (  0.0000000  1.0000000  0.0000000 )
                  (  0.0000000  0.0000000 -1.0000000 )


      isym =  4     180 deg rotation - cart. axis [1,0,0]        

 cryst.   s( 4) = (     1          0          0      )
                  (     0         -1          0      )
                  (     0          0         -1      )

 cart.    s( 4) = (  1.0000000  0.0000000  0.0000000 )
                  (  0.0000000 -1.0000000  0.0000000 )
                  (  0.0000000  0.0000000 -1.0000000 )


      isym =  5     180 deg rotation - cart. axis [1,1,0]        

 cryst.   s( 5) = (     0          1          0      )
                  (     1          0          0      )
                  (     0          0         -1      )

 cart.    s( 5) = (  0.0000000  1.0000000  0.0000000 )
                  (  1.0000000  0.0000000  0.0000000 )
                  (  0.0000000  0.0000000 -1.0000000 )


      isym =  6     180 deg rotation - cart. axis [1,-1,0]       

 cryst.   s( 6) = (     0         -1          0      )
                  (    -1          0          0      )
                  (     0          0         -1      )

 cart.    s( 6) = (  0.0000000 -1.0000000  0.0000000 )
                  ( -1.0000000  0.0000000  0.0000000 )
                  (  0.0000000  0.0000000 -1.0000000 )


      isym =  7      90 deg rotation - cart. axis [0,0,-1]       

 cryst.   s( 7) = (     0         -1          0      )
                  (     1          0          0      )
                  (     0          0          1      )

 cart.    s( 7) = (  0.0000000  1.0000000  0.0000000 )
                  ( -1.0000000  0.0000000  0.0000000 )
                  (  0.0000000  0.0000000  1.0000000 )


      isym =  8      90 deg rotation - cart. axis [0,0,1]        

 cryst.   s( 8) = (     0          1          0      )
                  (    -1          0          0      )
                  (     0          0          1      )

 cart.    s( 8) = (  0.0000000 -1.0000000  0.0000000 )
                  (  1.0000000  0.0000000  0.0000000 )
                  (  0.0000000  0.0000000  1.0000000 )


      isym =  9     180 deg rotation - cart. axis [1,0,1]        

 cryst.   s( 9) = (     0          0          1      )
                  (     0         -1          0      )
                  (     1          0          0      )

 cart.    s( 9) = (  0.0000000  0.0000000  1.0000000 )
                  (  0.0000000 -1.0000000  0.0000000 )
                  (  1.0000000  0.0000000  0.0000000 )


      isym = 10     180 deg rotation - cart. axis [-1,0,1]       

 cryst.   s(10) = (     0          0         -1      )
                  (     0         -1          0      )
                  (    -1          0          0      )

 cart.    s(10) = (  0.0000000  0.0000000 -1.0000000 )
                  (  0.0000000 -1.0000000  0.0000000 )
                  ( -1.0000000  0.0000000  0.0000000 )


      isym = 11      90 deg rotation - cart. axis [0,1,0]        

 cryst.   s(11) = (     0          0         -1      )
                  (     0          1          0      )
                  (     1          0          0      )

 cart.    s(11) = (  0.0000000  0.0000000  1.0000000 )
                  (  0.0000000  1.0000000  0.0000000 )
                  ( -1.0000000  0.0000000  0.0000000 )


      isym = 12      90 deg rotation - cart. axis [0,-1,0]       

 cryst.   s(12) = (     0          0          1      )
                  (     0          1          0      )
                  (    -1          0          0      )

 cart.    s(12) = (  0.0000000  0.0000000 -1.0000000 )
                  (  0.0000000  1.0000000  0.0000000 )
                  (  1.0000000  0.0000000  0.0000000 )


      isym = 13     180 deg rotation - cart. axis [0,1,1]        

 cryst.   s(13) = (    -1          0          0      )
                  (     0          0          1      )
                  (     0          1          0      )

 cart.    s(13) = ( -1.0000000  0.0000000  0.0000000 )
                  (  0.0000000  0.0000000  1.0000000 )
                  (  0.0000000  1.0000000  0.0000000 )


      isym = 14     180 deg rotation - cart. axis [0,1,-1]       

 cryst.   s(14) = (    -1          0          0      )
                  (     0          0         -1      )
                  (     0         -1          0      )

 cart.    s(14) = ( -1.0000000  0.0000000  0.0000000 )
                  (  0.0000000  0.0000000 -1.0000000 )
                  (  0.0000000 -1.0000000  0.0000000 )


      isym = 15      90 deg rotation - cart. axis [-1,0,0]       

 cryst.   s(15) = (     1          0          0      )
                  (     0          0         -1      )
                  (     0          1          0      )

 cart.    s(15) = (  1.0000000  0.0000000  0.0000000 )
                  (  0.0000000  0.0000000  1.0000000 )
                  (  0.0000000 -1.0000000  0.0000000 )


      isym = 16      90 deg rotation - cart. axis [1,0,0]        

 cryst.   s(16) = (     1          0          0      )
                  (     0          0          1      )
                  (     0         -1          0      )

 cart.    s(16) = (  1.0000000  0.0000000  0.0000000 )
                  (  0.0000000  0.0000000 -1.0000000 )
                  (  0.0000000  1.0000000  0.0000000 )


      isym = 17     120 deg rotation - cart. axis [-1,-1,-1]     

 cryst.   s(17) = (     0          0          1      )
                  (     1          0          0      )
                  (     0          1          0      )

 cart.    s(17) = (  0.0000000  1.0000000  0.0000000 )
                  (  0.0000000  0.0000000  1.0000000 )
                  (  1.0000000  0.0000000  0.0000000 )


      isym = 18     120 deg rotation - cart. axis [-1,1,1]       

 cryst.   s(18) = (     0          0         -1      )
                  (    -1          0          0      )
                  (     0          1          0      )

 cart.    s(18) = (  0.0000000 -1.0000000  0.0000000 )
                  (  0.0000000  0.0000000  1.0000000 )
                  ( -1.0000000  0.0000000  0.0000000 )


      isym = 19     120 deg rotation - cart. axis [1,1,-1]       

 cryst.   s(19) = (     0          0         -1      )
                  (     1          0          0      )
                  (     0         -1          0      )

 cart.    s(19) = (  0.0000000  1.0000000  0.0000000 )
                  (  0.0000000  0.0000000 -1.0000000 )
                  ( -1.0000000  0.0000000  0.0000000 )


      isym = 20     120 deg rotation - cart. axis [1,-1,1]       

 cryst.   s(20) = (     0          0          1      )
                  (    -1          0          0      )
                  (     0         -1          0      )

 cart.    s(20) = (  0.0000000 -1.0000000  0.0000000 )
                  (  0.0000000  0.0000000 -1.0000000 )
                  (  1.0000000  0.0000000  0.0000000 )


      isym = 21     120 deg rotation - cart. axis [1,1,1]        

 cryst.   s(21) = (     0          1          0      )
                  (     0          0          1      )
                  (     1          0          0      )

 cart.    s(21) = (  0.0000000  0.0000000  1.0000000 )
                  (  1.0000000  0.0000000  0.0000000 )
                  (  0.0000000  1.0000000  0.0000000 )


      isym = 22     120 deg rotation - cart. axis [-1,1,-1]      

 cryst.   s(22) = (     0         -1          0      )
                  (     0          0         -1      )
                  (     1          0          0      )

 cart.    s(22) = (  0.0000000  0.0000000  1.0000000 )
                  ( -1.0000000  0.0000000  0.0000000 )
                  (  0.0000000 -1.0000000  0.0000000 )


      isym = 23     120 deg rotation - cart. axis [1,-1,-1]      

 cryst.   s(23) = (     0         -1          0      )
                  (     0          0          1      )
                  (    -1          0          0      )

 cart.    s(23) = (  0.0000000  0.0000000 -1.0000000 )
                  ( -1.0000000  0.0000000  0.0000000 )
                  (  0.0000000  1.0000000  0.0000000 )


      isym = 24     120 deg rotation - cart. axis [-1,-1,1]      

 cryst.   s(24) = (     0          1          0      )
                  (     0          0         -1      )
                  (    -1          0          0      )

 cart.    s(24) = (  0.0000000  0.0000000 -1.0000000 )
                  (  1.0000000  0.0000000  0.0000000 )
                  (  0.0000000 -1.0000000  0.0000000 )


      isym = 25     inversion                                    

 cryst.   s(25) = (    -1          0          0      )
                  (     0         -1          0      )
                  (     0          0         -1      )

 cart.    s(25) = ( -1.0000000  0.0000000  0.0000000 )
                  (  0.0000000 -1.0000000  0.0000000 )
                  (  0.0000000  0.0000000 -1.0000000 )


      isym = 26     inv. 180 deg rotation - cart. axis [0,0,1]   

 cryst.   s(26) = (     1          0          0      )
                  (     0          1          0      )
                  (     0          0         -1      )

 cart.    s(26) = (  1.0000000  0.0000000  0.0000000 )
                  (  0.0000000  1.0000000  0.0000000 )
                  (  0.0000000  0.0000000 -1.0000000 )


      isym = 27     inv. 180 deg rotation - cart. axis [0,1,0]   

 cryst.   s(27) = (     1          0          0      )
                  (     0         -1          0      )
                  (     0          0          1      )

 cart.    s(27) = (  1.0000000  0.0000000  0.0000000 )
                  (  0.0000000 -1.0000000  0.0000000 )
                  (  0.0000000  0.0000000  1.0000000 )


      isym = 28     inv. 180 deg rotation - cart. axis [1,0,0]   

 cryst.   s(28) = (    -1          0          0      )
                  (     0          1          0      )
                  (     0          0          1      )

 cart.    s(28) = ( -1.0000000  0.0000000  0.0000000 )
                  (  0.0000000  1.0000000  0.0000000 )
                  (  0.0000000  0.0000000  1.0000000 )


      isym = 29     inv. 180 deg rotation - cart. axis [1,1,0]   

 cryst.   s(29) = (     0         -1          0      )
                  (    -1          0          0      )
                  (     0          0          1      )

 cart.    s(29) = (  0.0000000 -1.0000000  0.0000000 )
                  ( -1.0000000  0.0000000  0.0000000 )
                  (  0.0000000  0.0000000  1.0000000 )


      isym = 30     inv. 180 deg rotation - cart. axis [1,-1,0]  

 cryst.   s(30) = (     0          1          0      )
                  (     1          0          0      )
                  (     0          0          1      )

 cart.    s(30) = (  0.0000000  1.0000000  0.0000000 )
                  (  1.0000000  0.0000000  0.0000000 )
                  (  0.0000000  0.0000000  1.0000000 )


      isym = 31     inv.  90 deg rotation - cart. axis [0,0,-1]  

 cryst.   s(31) = (     0          1          0      )
                  (    -1          0          0      )
                  (     0          0         -1      )

 cart.    s(31) = (  0.0000000 -1.0000000  0.0000000 )
                  (  1.0000000  0.0000000  0.0000000 )
                  (  0.0000000  0.0000000 -1.0000000 )


      isym = 32     inv.  90 deg rotation - cart. axis [0,0,1]   

 cryst.   s(32) = (     0         -1          0      )
                  (     1          0          0      )
                  (     0          0         -1      )

 cart.    s(32) = (  0.0000000  1.0000000  0.0000000 )
                  ( -1.0000000  0.0000000  0.0000000 )
                  (  0.0000000  0.0000000 -1.0000000 )


      isym = 33     inv. 180 deg rotation - cart. axis [1,0,1]   

 cryst.   s(33) = (     0          0         -1      )
                  (     0          1          0      )
                  (    -1          0          0      )

 cart.    s(33) = (  0.0000000  0.0000000 -1.0000000 )
                  (  0.0000000  1.0000000  0.0000000 )
                  ( -1.0000000  0.0000000  0.0000000 )


      isym = 34     inv. 180 deg rotation - cart. axis [-1,0,1]  

 cryst.   s(34) = (     0          0          1      )
                  (     0          1          0      )
                  (     1          0          0      )

 cart.    s(34) = (  0.0000000  0.0000000  1.0000000 )
                  (  0.0000000  1.0000000  0.0000000 )
                  (  1.0000000  0.0000000  0.0000000 )


      isym = 35     inv.  90 deg rotation - cart. axis [0,1,0]   

 cryst.   s(35) = (     0          0          1      )
                  (     0         -1          0      )
                  (    -1          0          0      )

 cart.    s(35) = (  0.0000000  0.0000000 -1.0000000 )
                  (  0.0000000 -1.0000000  0.0000000 )
                  (  1.0000000  0.0000000  0.0000000 )


      isym = 36     inv.  90 deg rotation - cart. axis [0,-1,0]  

 cryst.   s(36) = (     0          0         -1      )
                  (     0         -1          0      )
                  (     1          0          0      )

 cart.    s(36) = (  0.0000000  0.0000000  1.0000000 )
                  (  0.0000000 -1.0000000  0.0000000 )
                  ( -1.0000000  0.0000000  0.0000000 )


      isym = 37     inv. 180 deg rotation - cart. axis [0,1,1]   

 cryst.   s(37) = (     1          0          0      )
                  (     0          0         -1      )
                  (     0         -1          0      )

 cart.    s(37) = (  1.0000000  0.0000000  0.0000000 )
                  (  0.0000000  0.0000000 -1.0000000 )
                  (  0.0000000 -1.0000000  0.0000000 )


      isym = 38     inv. 180 deg rotation - cart. axis [0,1,-1]  

 cryst.   s(38) = (     1          0          0      )
                  (     0          0          1      )
                  (     0          1          0      )

 cart.    s(38) = (  1.0000000  0.0000000  0.0000000 )
                  (  0.0000000  0.0000000  1.0000000 )
                  (  0.0000000  1.0000000  0.0000000 )


      isym = 39     inv.  90 deg rotation - cart. axis [-1,0,0]  

 cryst.   s(39) = (    -1          0          0      )
                  (     0          0          1      )
                  (     0         -1          0      )

 cart.    s(39) = ( -1.0000000  0.0000000  0.0000000 )
                  (  0.0000000  0.0000000 -1.0000000 )
                  (  0.0000000  1.0000000  0.0000000 )


      isym = 40     inv.  90 deg rotation - cart. axis [1,0,0]   

 cryst.   s(40) = (    -1          0          0      )
                  (     0          0         -1      )
                  (     0          1          0      )

 cart.    s(40) = ( -1.0000000  0.0000000  0.0000000 )
                  (  0.0000000  0.0000000  1.0000000 )
                  (  0.0000000 -1.0000000  0.0000000 )


      isym = 41     inv. 120 deg rotation - cart. axis [-1,-1,-1]

 cryst.   s(41) = (     0          0         -1      )
                  (    -1          0          0      )
                  (     0         -1          0      )

 cart.    s(41) = (  0.0000000 -1.0000000  0.0000000 )
                  (  0.0000000  0.0000000 -1.0000000 )
                  ( -1.0000000  0.0000000  0.0000000 )


      isym = 42     inv. 120 deg rotation - cart. axis [-1,1,1]  

 cryst.   s(42) = (     0          0          1      )
                  (     1          0          0      )
                  (     0         -1          0      )

 cart.    s(42) = (  0.0000000  1.0000000  0.0000000 )
                  (  0.0000000  0.0000000 -1.0000000 )
                  (  1.0000000  0.0000000  0.0000000 )


      isym = 43     inv. 120 deg rotation - cart. axis [1,1,-1]  

 cryst.   s(43) = (     0          0          1      )
                  (    -1          0          0      )
                  (     0          1          0      )

 cart.    s(43) = (  0.0000000 -1.0000000  0.0000000 )
                  (  0.0000000  0.0000000  1.0000000 )
                  (  1.0000000  0.0000000  0.0000000 )


      isym = 44     inv. 120 deg rotation - cart. axis [1,-1,1]  

 cryst.   s(44) = (     0          0         -1      )
                  (     1          0          0      )
                  (     0          1          0      )

 cart.    s(44) = (  0.0000000  1.0000000  0.0000000 )
                  (  0.0000000  0.0000000  1.0000000 )
                  ( -1.0000000  0.0000000  0.0000000 )


      isym = 45     inv. 120 deg rotation - cart. axis [1,1,1]   

 cryst.   s(45) = (     0         -1          0      )
                  (     0          0         -1      )
                  (    -1          0          0      )

 cart.    s(45) = (  0.0000000  0.0000000 -1.0000000 )
                  ( -1.0000000  0.0000000  0.0000000 )
                  (  0.0000000 -1.0000000  0.0000000 )


      isym = 46     inv. 120 deg rotation - cart. axis [-1,1,-1] 

 cryst.   s(46) = (     0          1          0      )
                  (     0          0          1      )
                  (    -1          0          0      )

 cart.    s(46) = (  0.0000000  0.0000000 -1.0000000 )
                  (  1.0000000  0.0000000  0.0000000 )
                  (  0.0000000  1.0000000  0.0000000 )


      isym = 47     inv. 120 deg rotation - cart. axis [1,-1,-1] 

 cryst.   s(47) = (     0          1          0      )
                  (     0          0         -1      )
                  (     1          0          0      )

 cart.    s(47) = (  0.0000000  0.0000000  1.0000000 )
                  (  1.0000000  0.0000000  0.0000000 )
                  (  0.0000000 -1.0000000  0.0000000 )


      isym = 48     inv. 120 deg rotation - cart. axis [-1,-1,1] 

 cryst.   s(48) = (     0         -1          0      )
                  (     0          0          1      )
                  (     1          0          0      )

 cart.    s(48) = (  0.0000000  0.0000000  1.0000000 )
                  ( -1.0000000  0.0000000  0.0000000 )
                  (  0.0000000  1.0000000  0.0000000 )


     double point group O_h (m-3m) 
     there are 16 classes and  6 irreducible representations
     the character table:

       E     -E    8C3   -8C3   3C2  6C4   -6C4   6C2' i     -i    8S6   -8S6 
                               -3C2              -6C2'                        
G_6+   2.00 -2.00  1.00 -1.00  0.00  1.41 -1.41  0.00  2.00 -2.00  1.00 -1.00
G_7+   2.00 -2.00  1.00 -1.00  0.00 -1.41  1.41  0.00  2.00 -2.00  1.00 -1.00
G_8+   4.00 -4.00 -1.00  1.00  0.00  0.00  0.00  0.00  4.00 -4.00 -1.00  1.00
G_6-   2.00 -2.00  1.00 -1.00  0.00  1.41 -1.41  0.00 -2.00  2.00 -1.00  1.00
G_7-   2.00 -2.00  1.00 -1.00  0.00 -1.41  1.41  0.00 -2.00  2.00 -1.00  1.00
G_8-   4.00 -4.00 -1.00  1.00  0.00  0.00  0.00  0.00 -4.00  4.00  1.00 -1.00

        3s_h 6S4   -6S4   6s_d
       -3s_h             -6s_d
G_6+   0.00  1.41 -1.41  0.00
G_7+   0.00 -1.41  1.41  0.00
G_8+   0.00  0.00  0.00  0.00
G_6-   0.00 -1.41  1.41  0.00
G_7-   0.00  1.41 -1.41  0.00
G_8-   0.00  0.00  0.00  0.00

     the symmetry operations in each class and the name of the first element:

     E             1
          identity                                               
     -E           -1
          identity E                                             
     8C3          17   19   20   18   24   21   22   23
          120 deg rotation - cart. axis [-1,-1,-1]               
     -8C3        -17  -19  -20  -18  -24  -21  -22  -23
          120 deg rotation - cart. axis [-1,-1,-1] E             
      3C2 -3C2     2   -2    4   -4    3   -3
          180 deg rotation - cart. axis [0,0,1]                  
     6C4           7    8   15   16   12   11
           90 deg rotation - cart. axis [0,0,-1]                 
     -6C4         -7   -8  -15  -16  -12  -11
           90 deg rotation - cart. axis [0,0,-1] E               
      6C2'-6C2'    5   -5   -6    6   14  -13  -14   13   10   -9  -10    9
          180 deg rotation - cart. axis [1,1,0]                  
     i            25
          inversion                                              
     -i          -25
          inversion E                                            
     8S6          41   43   44   42   48   45   46   47
          inv. 120 deg rotation - cart. axis [-1,-1,-1]          
     -8S6        -41  -43  -44  -42  -48  -45  -46  -47
          inv. 120 deg rotation - cart. axis [-1,-1,-1] E        
      3s_h-3s_h   26  -26   28  -28   27  -27
          inv. 180 deg rotation - cart. axis [0,0,1]             
     6S4          31   32   39   40   36   35
          inv.  90 deg rotation - cart. axis [0,0,-1]            
     -6S4        -31  -32  -39  -40  -36  -35
          inv.  90 deg rotation - cart. axis [0,0,-1] E          
      6s_d-6s_d   29  -29  -30   30   38  -37  -38   37   34  -33  -34   33
          inv. 180 deg rotation - cart. axis [1,1,0]             

   Cartesian axes

     site n.     atom                  positions (alat units)
         1           Cs  tau(   1) = (   0.0000000   0.0000000   0.0000000  )
         2           Cs  tau(   2) = (   0.0000000   0.5000000   0.5000000  )
         3           Cs  tau(   3) = (   0.5000000   0.0000000   0.5000000  )
         4           Cs  tau(   4) = (   0.5000000   0.5000000   0.0000000  )
         5           I   tau(   5) = (   0.5000000   0.0000000   0.0000000  )
         6           I   tau(   6) = (   0.5000000   0.5000000   0.5000000  )
         7           I   tau(   7) = (   0.0000000   0.0000000   0.5000000  )
         8           I   tau(   8) = (   0.0000000   0.5000000   0.0000000  )

   Crystallographic axes

     site n.     atom                  positions (cryst. coord.)
         1           Cs  tau(   1) = (  0.0000000  0.0000000  0.0000000  )
         2           Cs  tau(   2) = (  0.0000000  0.5000000  0.5000000  )
         3           Cs  tau(   3) = (  0.5000000  0.0000000  0.5000000  )
         4           Cs  tau(   4) = (  0.5000000  0.5000000  0.0000000  )
         5           I   tau(   5) = (  0.5000000  0.0000000  0.0000000  )
         6           I   tau(   6) = (  0.5000000  0.5000000  0.5000000  )
         7           I   tau(   7) = (  0.0000000  0.0000000  0.5000000  )
         8           I   tau(   8) = (  0.0000000  0.5000000  0.0000000  )

     number of k points=    10
                       cart. coord. in units 2pi/alat
        k(    1) = (   0.0833333   0.0833333   0.0833333), wk =   0.0370370
        k(    2) = (   0.0833333   0.0833333   0.2500000), wk =   0.1111111
        k(    3) = (   0.0833333   0.0833333   0.4166667), wk =   0.1111111
        k(    4) = (   0.0833333   0.2500000   0.2500000), wk =   0.1111111
        k(    5) = (   0.0833333   0.2500000   0.4166667), wk =   0.2222222
        k(    6) = (   0.0833333   0.4166667   0.4166667), wk =   0.1111111
        k(    7) = (   0.2500000   0.2500000   0.2500000), wk =   0.0370370
        k(    8) = (   0.2500000   0.2500000   0.4166667), wk =   0.1111111
        k(    9) = (   0.2500000   0.4166667   0.4166667), wk =   0.1111111
        k(   10) = (   0.4166667   0.4166667   0.4166667), wk =   0.0370370

                       cryst. coord.
        k(    1) = (   0.0833333   0.0833333   0.0833333), wk =   0.0370370
        k(    2) = (   0.0833333   0.0833333   0.2500000), wk =   0.1111111
        k(    3) = (   0.0833333   0.0833333   0.4166667), wk =   0.1111111
        k(    4) = (   0.0833333   0.2500000   0.2500000), wk =   0.1111111
        k(    5) = (   0.0833333   0.2500000   0.4166667), wk =   0.2222222
        k(    6) = (   0.0833333   0.4166667   0.4166667), wk =   0.1111111
        k(    7) = (   0.2500000   0.2500000   0.2500000), wk =   0.0370370
        k(    8) = (   0.2500000   0.2500000   0.4166667), wk =   0.1111111
        k(    9) = (   0.2500000   0.4166667   0.4166667), wk =   0.1111111
        k(   10) = (   0.4166667   0.4166667   0.4166667), wk =   0.0370370

     Dense  grid:    92469 G-vectors     FFT dimensions: (  60,  60,  60)

     Smooth grid:    66299 G-vectors     FFT dimensions: (  54,  54,  54)

     Dynamical RAM for                 wfc:       0.34 MB

     Dynamical RAM for     wfc (w. buffer):       3.70 MB

     Dynamical RAM for           str. fact:       0.06 MB

     Dynamical RAM for           local pot:       0.00 MB

     Dynamical RAM for          nlocal pot:       1.02 MB

     Dynamical RAM for                qrad:      25.69 MB

     Dynamical RAM for          rho,v,vnew:       1.01 MB

     Dynamical RAM for               rhoin:       0.34 MB

     Dynamical RAM for            rho*nmix:       1.88 MB

     Dynamical RAM for           G-vectors:       0.12 MB

     Dynamical RAM for          h,s,v(r/c):       0.75 MB

     Dynamical RAM for          <psi|beta>:       0.76 MB

     Dynamical RAM for                 psi:       0.67 MB

     Dynamical RAM for                hpsi:       0.67 MB

     Dynamical RAM for                spsi:       0.67 MB

     Dynamical RAM for      wfcinit/wfcrot:       0.69 MB

     Dynamical RAM for           addusdens:      60.19 MB

     Dynamical RAM for          addusforce:      60.57 MB

     Dynamical RAM for         addusstress:      60.95 MB

     Estimated static dynamical RAM per process >      34.34 MB

     Estimated max dynamical RAM per process >      95.29 MB

     Estimated total dynamical RAM >       4.47 GB

     Initial potential from superposition of free atoms

     starting charge   63.84620, renormalised to   64.00000
     Starting wfcs are   72 randomized atomic wfcs

     total cpu time spent up to now is        5.2 secs

     Self-consistent Calculation

     iteration #  1     ecut=    80.00 Ry     beta= 0.35
     Davidson diagonalization with overlap
     ethr =  1.00E-02,  avg # of iterations =  9.4

     Threshold (ethr) on eigenvalues was too large:
     Diagonalizing with lowered threshold

     Davidson diagonalization with overlap
     c_bands:  3 eigenvalues not converged
     c_bands:  1 eigenvalues not converged
     c_bands:  1 eigenvalues not converged
     c_bands:  2 eigenvalues not converged
     ethr =  1.88E-04,  avg # of iterations = 18.2

     total cpu time spent up to now is       27.0 secs

     total energy              =    -341.48996942 Ry
     estimated scf accuracy    <       0.11466527 Ry

     iteration #  2     ecut=    80.00 Ry     beta= 0.35
     Davidson diagonalization with overlap
     ethr =  1.79E-04,  avg # of iterations =  4.6

     total cpu time spent up to now is       33.4 secs

     total energy              =    -341.48321151 Ry
     estimated scf accuracy    <       0.03689717 Ry

     iteration #  3     ecut=    80.00 Ry     beta= 0.35
     Davidson diagonalization with overlap
     c_bands:  1 eigenvalues not converged
     c_bands:  1 eigenvalues not converged
     ethr =  5.77E-05,  avg # of iterations = 11.1

     total cpu time spent up to now is       41.9 secs

     total energy              =    -341.51058221 Ry
     estimated scf accuracy    <       0.00229507 Ry

     iteration #  4     ecut=    80.00 Ry     beta= 0.35
     Davidson diagonalization with overlap
     c_bands:  3 eigenvalues not converged
     c_bands:  3 eigenvalues not converged
     c_bands:  2 eigenvalues not converged
     c_bands:  2 eigenvalues not converged
     ethr =  3.59E-06,  avg # of iterations = 16.2

     total cpu time spent up to now is       56.0 secs

     total energy              =    -341.54449213 Ry
     estimated scf accuracy    <       0.00426827 Ry

     iteration #  5     ecut=    80.00 Ry     beta= 0.35
     Davidson diagonalization with overlap
     c_bands:  2 eigenvalues not converged
     c_bands:  1 eigenvalues not converged
     ethr =  3.59E-06,  avg # of iterations = 11.9

     total cpu time spent up to now is       67.0 secs

     total energy              =    -341.53104875 Ry
     estimated scf accuracy    <       0.03371929 Ry

     iteration #  6     ecut=    80.00 Ry     beta= 0.35
     Davidson diagonalization with overlap
     c_bands:  2 eigenvalues not converged
     c_bands:  2 eigenvalues not converged
     ethr =  3.59E-06,  avg # of iterations =  9.5

     total cpu time spent up to now is       76.7 secs

     total energy              =    -341.53428875 Ry
     estimated scf accuracy    <       0.00250005 Ry

     iteration #  7     ecut=    80.00 Ry     beta= 0.35
     Davidson diagonalization with overlap
     c_bands:  1 eigenvalues not converged
     ethr =  3.59E-06,  avg # of iterations =  5.2

     total cpu time spent up to now is       83.0 secs

     total energy              =    -341.53442815 Ry
     estimated scf accuracy    <       0.00058443 Ry

     iteration #  8     ecut=    80.00 Ry     beta= 0.35
     Davidson diagonalization with overlap
     c_bands:  1 eigenvalues not converged
     c_bands:  1 eigenvalues not converged
     ethr =  9.13E-07,  avg # of iterations = 11.8

     total cpu time spent up to now is       94.7 secs

     total energy              =    -341.53525011 Ry
     estimated scf accuracy    <       0.00030975 Ry

     iteration #  9     ecut=    80.00 Ry     beta= 0.35
     Davidson diagonalization with overlap
     c_bands:  2 eigenvalues not converged
     ethr =  4.84E-07,  avg # of iterations =  4.6

     total cpu time spent up to now is      101.3 secs

     total energy              =    -341.53513873 Ry
     estimated scf accuracy    <       0.00026616 Ry

     iteration # 10     ecut=    80.00 Ry     beta= 0.35
     Davidson diagonalization with overlap
     ethr =  4.16E-07,  avg # of iterations =  3.8

     total cpu time spent up to now is      107.2 secs

     total energy              =    -341.53513697 Ry
     estimated scf accuracy    <       0.00005140 Ry

     iteration # 11     ecut=    80.00 Ry     beta= 0.35
     Davidson diagonalization with overlap
     c_bands:  1 eigenvalues not converged
     c_bands:  2 eigenvalues not converged
     ethr =  8.03E-08,  avg # of iterations = 11.1

     total cpu time spent up to now is      116.7 secs

     total energy              =    -341.53518936 Ry
     estimated scf accuracy    <       0.00000799 Ry

     iteration # 12     ecut=    80.00 Ry     beta= 0.35
     Davidson diagonalization with overlap
     c_bands:  1 eigenvalues not converged
     c_bands:  1 eigenvalues not converged
     c_bands:  1 eigenvalues not converged
     c_bands:  2 eigenvalues not converged
     ethr =  1.25E-08,  avg # of iterations = 15.9

     total cpu time spent up to now is      129.7 secs

     total energy              =    -341.53519206 Ry
     estimated scf accuracy    <       0.00003442 Ry

     iteration # 13     ecut=    80.00 Ry     beta= 0.35
     Davidson diagonalization with overlap
     c_bands:  1 eigenvalues not converged
     c_bands:  1 eigenvalues not converged
     ethr =  1.25E-08,  avg # of iterations =  7.8

     total cpu time spent up to now is      136.8 secs

     total energy              =    -341.53518753 Ry
     estimated scf accuracy    <       0.00001185 Ry

     iteration # 14     ecut=    80.00 Ry     beta= 0.35
     Davidson diagonalization with overlap
     ethr =  1.25E-08,  avg # of iterations =  7.1

     total cpu time spent up to now is      144.3 secs

     total energy              =    -341.53519132 Ry
     estimated scf accuracy    <       0.00000154 Ry

     iteration # 15     ecut=    80.00 Ry     beta= 0.35
     Davidson diagonalization with overlap
     c_bands:  1 eigenvalues not converged
     c_bands:  1 eigenvalues not converged
     c_bands:  1 eigenvalues not converged
     ethr =  2.41E-09,  avg # of iterations = 10.1

     total cpu time spent up to now is      152.9 secs

     End of self-consistent calculation

          k = 0.0833 0.0833 0.0833 (  8289 PWs)   bands (ev):

    -1.7702  -1.7702   2.5362   2.5362   2.5362   2.5362   2.5368   2.5368
     8.9684   8.9684   8.9686   8.9686   8.9687   8.9687  10.4483  10.4483
    10.4486  10.4486  10.4486  10.4486  12.6041  12.6041  12.6043  12.6043
    12.6043  12.6043  13.8227  13.8227  13.8230  13.8230  13.8230  13.8230
    14.1951  14.1951  15.8244  15.8244  16.6939  16.6939  19.6829  19.6829
    22.6144  22.6144  22.6144  22.6144  22.6144  22.6144  24.8037  24.8037
    26.0705  26.0705  26.1969  26.1969  26.9024  26.9024  27.0844  27.0844
    27.1873  27.1873  29.1118  29.1118  29.1119  29.1119  29.1120  29.1120

     occupation numbers 
     1.0000   1.0000   1.0000   1.0000   1.0000   1.0000   1.0000   1.0000
     1.0000   1.0000   1.0000   1.0000   1.0000   1.0000   1.0000   1.0000
     1.0000   1.0000   1.0000   1.0000   1.0000   1.0000   1.0000   1.0000
     1.0000   1.0000   1.0000   1.0000   1.0000   1.0000   1.0000   1.0000
     1.0000   1.0000   1.0000   1.0000   1.0000   1.0000   1.0000   1.0000
     1.0000   1.0000   1.0000   1.0000   1.0000   1.0000   1.0000   1.0000
     1.0000   1.0000   1.0000   1.0000   1.0000   1.0000   1.0000   1.0000
     1.0000   1.0000   1.0000   1.0000   1.0000   1.0000   1.0000   1.0000

          k = 0.0833 0.0833 0.2500 (  8296 PWs)   bands (ev):

    -1.4078  -1.4078   1.5364   1.5364   2.6978   2.6978   2.6983   2.6983
     8.4935   8.4935   8.4940   8.4940   9.5253   9.5253   9.7827   9.7827
     9.7829   9.7829  11.8784  11.8784  12.1871  12.1871  12.1873  12.1873
    12.8245  12.8245  13.0315  13.0315  14.2854  14.2854  15.1785  15.1785
    16.0420  16.0420  16.0422  16.0422  16.2838  16.2838  21.2798  21.2798
    22.6631  22.6631  22.9286  22.9286  23.9520  23.9520  23.9520  23.9520
    25.4366  25.4366  25.7845  25.7845  26.4461  26.4461  26.4462  26.4462
    26.6512  26.6512  28.2550  28.2550  28.3094  28.3094  28.5101  28.5101

     occupation numbers 
     1.0000   1.0000   1.0000   1.0000   1.0000   1.0000   1.0000   1.0000
     1.0000   1.0000   1.0000   1.0000   1.0000   1.0000   1.0000   1.0000
     1.0000   1.0000   1.0000   1.0000   1.0000   1.0000   1.0000   1.0000
     1.0000   1.0000   1.0000   1.0000   1.0000   1.0000   1.0000   1.0000
     1.0000   1.0000   1.0000   1.0000   1.0000   1.0000   1.0000   1.0000
     1.0000   1.0000   1.0000   1.0000   1.0000   1.0000   1.0000   1.0000
     1.0000   1.0000   1.0000   1.0000   1.0000   1.0000   1.0000   1.0000
     1.0000   1.0000   1.0000   1.0000   1.0000   1.0000   1.0000   1.0000

          k = 0.0833 0.0833 0.4167 (  8271 PWs)   bands (ev):

    -0.6950  -0.6950   0.3281   0.3281   2.8869   2.8869   2.8874   2.8874
     7.6922   7.6922   7.6927   7.6927  10.2875  10.2875  10.2878  10.2878
    10.3264  10.3264  11.2638  11.2638  11.2640  11.2640  11.4337  11.4337
    13.3256  13.3256  14.2064  14.2064  14.2727  14.2727  15.3455  15.3455
    15.7116  15.7116  18.6562  18.6562  18.9847  18.9847  18.9848  18.9848
    23.0142  23.0142  23.0144  23.0144  23.5474  23.5474  24.3519  24.3519
    24.8482  24.8482  26.1856  26.1856  26.1856  26.1856  26.2516  26.2516
    27.1134  27.1134  27.3282  27.3282  27.8725  27.8725  28.7178  28.7178

     occupation numbers 
     1.0000   1.0000   1.0000   1.0000   1.0000   1.0000   1.0000   1.0000
     1.0000   1.0000   1.0000   1.0000   1.0000   1.0000   1.0000   1.0000
     1.0000   1.0000   1.0000   1.0000   1.0000   1.0000   1.0000   1.0000
     1.0000   1.0000   1.0000   1.0000   1.0000   1.0000   1.0000   1.0000
     1.0000   1.0000   1.0000   1.0000   1.0000   1.0000   1.0000   1.0000
     1.0000   1.0000   1.0000   1.0000   1.0000   1.0000   1.0000   1.0000
     1.0000   1.0000   1.0000   1.0000   1.0000   1.0000   1.0000   1.0000
     1.0000   1.0000   1.0000   1.0000   1.0000   1.0000   1.0000   1.0000

          k = 0.0833 0.2500 0.2500 (  8290 PWs)   bands (ev):

    -1.0506  -1.0506   1.7931   1.7931   1.7935   1.7935   2.7328   2.7328
     7.4838   7.4838   8.3809   8.3809   8.3814   8.3814   9.9832   9.9832
    11.3422  11.3422  11.7980  11.7980  11.7982  11.7982  12.6427  12.6427
    12.6428  12.6428  13.5816  13.5816  14.8291  14.8291  16.1514  16.1514
    16.4406  16.4406  16.4409  16.4409  16.9594  16.9594  21.8580  21.8580
    22.2551  22.2551  23.3514  23.3514  24.2358  24.2358  24.2358  24.2358
    25.2812  25.2812  25.4770  25.4770  25.4771  25.4771  25.9262  25.9262
    25.9516  25.9516  27.3259  27.3259  27.6629  27.6629  28.3318  28.3318

     occupation numbers 
     1.0000   1.0000   1.0000   1.0000   1.0000   1.0000   1.0000   1.0000
     1.0000   1.0000   1.0000   1.0000   1.0000   1.0000   1.0000   1.0000
     1.0000   1.0000   1.0000   1.0000   1.0000   1.0000   1.0000   1.0000
     1.0000   1.0000   1.0000   1.0000   1.0000   1.0000   1.0000   1.0000
     1.0000   1.0000   1.0000   1.0000   1.0000   1.0000   1.0000   1.0000
     1.0000   1.0000   1.0000   1.0000   1.0000   1.0000   1.0000   1.0000
     1.0000   1.0000   1.0000   1.0000   1.0000   1.0000   1.0000   1.0000
     1.0000   1.0000   1.0000   1.0000   1.0000   1.0000   1.0000   1.0000

          k = 0.0833 0.2500 0.4167 (  8275 PWs)   bands (ev):

    -0.3510  -0.3510   0.6441   0.6441   2.2232   2.2232   2.6099   2.6099
     6.9459   6.9459   7.3224   7.3224   8.9356   8.9356   9.9596   9.9596
    10.6108  10.6108  11.4520  11.4520  12.5931  12.5931  13.0494  13.0494
    13.3183  13.3183  13.9472  13.9472  14.6416  14.6416  16.5357  16.5357
    17.3499  17.3499  18.3217  18.3217  19.2389  19.2389  19.4031  19.4031
    22.1435  22.1435  23.1139  23.1139  23.3146  23.3146  24.0295  24.0295
    24.2362  24.2362  24.8596  24.8596  25.7348  25.7348  26.4129  26.4129
    27.1032  27.1032  27.2493  27.2493  27.4252  27.4252  28.4434  28.4434

     occupation numbers 
     1.0000   1.0000   1.0000   1.0000   1.0000   1.0000   1.0000   1.0000
     1.0000   1.0000   1.0000   1.0000   1.0000   1.0000   1.0000   1.0000
     1.0000   1.0000   1.0000   1.0000   1.0000   1.0000   1.0000   1.0000
     1.0000   1.0000   1.0000   1.0000   1.0000   1.0000   1.0000   1.0000
     1.0000   1.0000   1.0000   1.0000   1.0000   1.0000   1.0000   1.0000
     1.0000   1.0000   1.0000   1.0000   1.0000   1.0000   1.0000   1.0000
     1.0000   1.0000   1.0000   1.0000   1.0000   1.0000   1.0000   1.0000
     1.0000   1.0000   1.0000   1.0000   1.0000   1.0000   1.0000   1.0000

          k = 0.0833 0.4167 0.4167 (  8278 PWs)   bands (ev):

     0.3156   0.3156   1.2363   1.2363   1.2367   1.2367   1.9822   1.9822
     6.9216   6.9216   7.6713   7.6713   7.6718   7.6718   8.6068   8.6068
    11.2666  11.2666  12.1512  12.1512  12.1512  12.1512  13.0395  13.0395
    15.2237  15.2237  15.2241  15.2241  15.2487  15.2487  17.0377  17.0377
    18.2401  18.2401  19.6083  19.6083  19.6085  19.6085  20.4491  20.4491
    20.9484  20.9484  21.3569  21.3569  21.3570  21.3570  22.7310  22.7310
    23.6989  23.6989  25.6469  25.6469  25.7191  25.7191  25.7192  25.7192
    26.9656  26.9656  27.1427  27.1427  27.1427  27.1427  28.7574  28.7574

     occupation numbers 
     1.0000   1.0000   1.0000   1.0000   1.0000   1.0000   1.0000   1.0000
     1.0000   1.0000   1.0000   1.0000   1.0000   1.0000   1.0000   1.0000
     1.0000   1.0000   1.0000   1.0000   1.0000   1.0000   1.0000   1.0000
     1.0000   1.0000   1.0000   1.0000   1.0000   1.0000   1.0000   1.0000
     1.0000   1.0000   1.0000   1.0000   1.0000   1.0000   1.0000   1.0000
     1.0000   1.0000   1.0000   1.0000   1.0000   1.0000   1.0000   1.0000
     1.0000   1.0000   1.0000   1.0000   1.0000   1.0000   1.0000   1.0000
     1.0000   1.0000   1.0000   1.0000   1.0000   1.0000   1.0000   1.0000

          k = 0.2500 0.2500 0.2500 (  8279 PWs)   bands (ev):

    -0.7008  -0.7008   1.9836   1.9836   1.9836   1.9836   1.9843   1.9843
     7.2284   7.2284   7.2292   7.2292   7.2292   7.2292   9.9498   9.9498
    12.0454  12.0454  12.0454  12.0454  12.0458  12.0458  13.9392  13.9392
    13.9393  13.9393  13.9394  13.9394  15.6882  15.6882  16.5713  16.5713
    16.5718  16.5718  16.5718  16.5718  16.8350  16.8350  21.5023  21.5023
    22.1573  22.1573  23.0221  23.0221  24.4298  24.4298  24.9874  24.9874
    24.9875  24.9875  24.9876  24.9876  25.4699  25.4699  25.4700  25.4700
    25.4700  25.4700  27.1394  27.1394  27.1394  27.1394  27.1396  27.1396

     occupation numbers 
     1.0000   1.0000   1.0000   1.0000   1.0000   1.0000   1.0000   1.0000
     1.0000   1.0000   1.0000   1.0000   1.0000   1.0000   1.0000   1.0000
     1.0000   1.0000   1.0000   1.0000   1.0000   1.0000   1.0000   1.0000
     1.0000   1.0000   1.0000   1.0000   1.0000   1.0000   1.0000   1.0000
     1.0000   1.0000   1.0000   1.0000   1.0000   1.0000   1.0000   1.0000
     1.0000   1.0000   1.0000   1.0000   1.0000   1.0000   1.0000   1.0000
     1.0000   1.0000   1.0000   1.0000   1.0000   1.0000   1.0000   1.0000
     1.0000   1.0000   1.0000   1.0000   1.0000   1.0000   1.0000   1.0000

          k = 0.2500 0.2500 0.4167 (  8274 PWs)   bands (ev):

    -0.0198  -0.0198   0.9325   0.9325   2.2149   2.2149   2.2155   2.2155
     6.3599   6.3599   6.3605   6.3605   7.6528   7.6528   8.6130   8.6130
    12.5509  12.5509  12.5514  12.5514  13.7848  13.7848  13.7852  13.7852
    14.2245  14.2245  14.9218  14.9218  15.1825  15.1825  16.5246  16.5246
    17.5508  17.5508  18.6468  18.6468  18.6470  18.6470  19.6605  19.6605
    22.2378  22.2378  22.2381  22.2381  22.6315  22.6315  23.1824  23.1824
    23.9520  23.9520  24.6306  24.6306  24.9722  24.9722  26.2720  26.2720
    26.2724  26.2724  26.6241  26.6241  26.9922  26.9922  27.6003  27.6003

     occupation numbers 
     1.0000   1.0000   1.0000   1.0000   1.0000   1.0000   1.0000   1.0000
     1.0000   1.0000   1.0000   1.0000   1.0000   1.0000   1.0000   1.0000
     1.0000   1.0000   1.0000   1.0000   1.0000   1.0000   1.0000   1.0000
     1.0000   1.0000   1.0000   1.0000   1.0000   1.0000   1.0000   1.0000
     1.0000   1.0000   1.0000   1.0000   1.0000   1.0000   1.0000   1.0000
     1.0000   1.0000   1.0000   1.0000   1.0000   1.0000   1.0000   1.0000
     1.0000   1.0000   1.0000   1.0000   1.0000   1.0000   1.0000   1.0000
     1.0000   1.0000   1.0000   1.0000   1.0000   1.0000   1.0000   1.0000

          k = 0.2500 0.4167 0.4167 (  8262 PWs)   bands (ev):

     0.6111   0.6111   1.4410   1.4410   1.4415   1.4415   1.9679   1.9679
     5.9698   5.9698   6.4977   6.4977   6.4982   6.4982   7.3312   7.3312
    13.2593  13.2593  14.0013  14.0013  14.0013  14.0013  14.8462  14.8462
    15.5509  15.5509  15.5514  15.5514  15.5684  15.5684  17.0592  17.0592
    18.6044  18.6044  19.2696  19.2696  19.2700  19.2700  20.3396  20.3396
    20.9523  20.9523  21.3101  21.3101  21.3101  21.3101  21.9832  21.9832
    22.3634  22.3634  24.1377  24.1377  24.2042  24.2042  24.2043  24.2043
    25.0720  25.0720  26.2633  26.2633  26.2635  26.2635  27.0467  27.0467

     occupation numbers 
     1.0000   1.0000   1.0000   1.0000   1.0000   1.0000   1.0000   1.0000
     1.0000   1.0000   1.0000   1.0000   1.0000   1.0000   1.0000   1.0000
     1.0000   1.0000   1.0000   1.0000   1.0000   1.0000   1.0000   1.0000
     1.0000   1.0000   1.0000   1.0000   1.0000   1.0000   1.0000   1.0000
     1.0000   1.0000   1.0000   1.0000   1.0000   1.0000   1.0000   1.0000
     1.0000   1.0000   1.0000   1.0000   1.0000   1.0000   1.0000   1.0000
     1.0000   1.0000   1.0000   1.0000   1.0000   1.0000   1.0000   1.0000
     1.0000   1.0000   1.0000   1.0000   1.0000   1.0000   1.0000   1.0000

          k = 0.4167 0.4167 0.4167 (  8267 PWs)   bands (ev):

     1.1374   1.1374   1.6945   1.6945   1.6945   1.6945   1.6953   1.6953
     5.6050   5.6050   5.6059   5.6059   5.6059   5.6059   6.1633   6.1633
    15.4401  15.4401  15.4402  15.4402  15.4407  15.4407  16.0857  16.0857
    16.3468  16.3468  16.3472  16.3472  16.3473  16.3473  17.2220  17.2220
    19.3060  19.3060  19.3067  19.3067  19.3067  19.3067  20.0783  20.0783
    20.8890  20.8890  21.1051  21.1051  21.1052  21.1052  21.1053  21.1053
    21.5826  21.5826  22.5149  22.5149  22.5150  22.5150  22.5154  22.5154
    23.1946  23.1946  24.3273  24.3273  24.3279  24.3279  24.3280  24.3280

     occupation numbers 
     1.0000   1.0000   1.0000   1.0000   1.0000   1.0000   1.0000   1.0000
     1.0000   1.0000   1.0000   1.0000   1.0000   1.0000   1.0000   1.0000
     1.0000   1.0000   1.0000   1.0000   1.0000   1.0000   1.0000   1.0000
     1.0000   1.0000   1.0000   1.0000   1.0000   1.0000   1.0000   1.0000
     1.0000   1.0000   1.0000   1.0000   1.0000   1.0000   1.0000   1.0000
     1.0000   1.0000   1.0000   1.0000   1.0000   1.0000   1.0000   1.0000
     1.0000   1.0000   1.0000   1.0000   1.0000   1.0000   1.0000   1.0000
     1.0000   1.0000   1.0000   1.0000   1.0000   1.0000   1.0000   1.0000

     highest occupied level (ev):    29.1120

!    total energy              =    -341.53519133 Ry
     estimated scf accuracy    <       0.00000068 Ry

     The total energy is the sum of the following terms:
     one-electron contribution =     143.14506164 Ry
     hartree contribution      =       5.44554678 Ry
     xc contribution           =    -157.39410301 Ry
     ewald contribution        =    -332.73169674 Ry

     convergence has been achieved in  15 iterations

     Forces acting on atoms (cartesian axes, Ry/au):

     atom    1 type  1   force =     0.00000000    0.00000000    0.00000000
     atom    2 type  1   force =     0.00000000    0.00000000    0.00000000
     atom    3 type  1   force =     0.00000000    0.00000000    0.00000000
     atom    4 type  1   force =     0.00000000    0.00000000    0.00000000
     atom    5 type  2   force =     0.00000000    0.00000000    0.00000000
     atom    6 type  2   force =     0.00000000    0.00000000    0.00000000
     atom    7 type  2   force =     0.00000000    0.00000000    0.00000000
     atom    8 type  2   force =     0.00000000    0.00000000    0.00000000
     The non-local contrib.  to forces
     atom    1 type  1   force =     0.00000000    0.00000000    0.00000000
     atom    2 type  1   force =     0.00000000    0.00000000    0.00000000
     atom    3 type  1   force =     0.00000000    0.00000000    0.00000000
     atom    4 type  1   force =     0.00000000    0.00000000    0.00000000
     atom    5 type  2   force =     0.00000000    0.00000000    0.00000000
     atom    6 type  2   force =     0.00000000    0.00000000    0.00000000
     atom    7 type  2   force =     0.00000000    0.00000000    0.00000000
     atom    8 type  2   force =     0.00000000    0.00000000    0.00000000
     The ionic contribution  to forces
     atom    1 type  1   force =    -0.00000000   -0.00000000   -0.00000000
     atom    2 type  1   force =    -0.00000000    0.00000000    0.00000000
     atom    3 type  1   force =     0.00000000   -0.00000000    0.00000000
     atom    4 type  1   force =     0.00000000    0.00000000   -0.00000000
     atom    5 type  2   force =     0.00000000   -0.00000000   -0.00000000
     atom    6 type  2   force =     0.00000000    0.00000000    0.00000000
     atom    7 type  2   force =    -0.00000000   -0.00000000    0.00000000
     atom    8 type  2   force =    -0.00000000    0.00000000   -0.00000000
     The local contribution  to forces
     atom    1 type  1   force =    -0.00000000   -0.00000000   -0.00000000
     atom    2 type  1   force =    -0.00000000    0.00000000    0.00000000
     atom    3 type  1   force =     0.00000000   -0.00000000    0.00000000
     atom    4 type  1   force =     0.00000000    0.00000000   -0.00000000
     atom    5 type  2   force =     0.00000000   -0.00000000   -0.00000000
     atom    6 type  2   force =     0.00000000    0.00000000    0.00000000
     atom    7 type  2   force =    -0.00000000   -0.00000000    0.00000000
     atom    8 type  2   force =    -0.00000000    0.00000000   -0.00000000
     The core correction contribution to forces
     atom    1 type  1   force =    -0.00000000   -0.00000000   -0.00000000
     atom    2 type  1   force =    -0.00000000    0.00000000   -0.00000000
     atom    3 type  1   force =     0.00000000   -0.00000000    0.00000000
     atom    4 type  1   force =     0.00000000    0.00000000   -0.00000000
     atom    5 type  2   force =     0.00000000   -0.00000000   -0.00000000
     atom    6 type  2   force =     0.00000000    0.00000000   -0.00000000
     atom    7 type  2   force =    -0.00000000   -0.00000000    0.00000000
     atom    8 type  2   force =    -0.00000000    0.00000000   -0.00000000
     The Hubbard contrib.    to forces
     atom    1 type  1   force =     0.00000000    0.00000000    0.00000000
     atom    2 type  1   force =     0.00000000    0.00000000    0.00000000
     atom    3 type  1   force =     0.00000000    0.00000000    0.00000000
     atom    4 type  1   force =     0.00000000    0.00000000    0.00000000
     atom    5 type  2   force =     0.00000000    0.00000000    0.00000000
     atom    6 type  2   force =     0.00000000    0.00000000    0.00000000
     atom    7 type  2   force =     0.00000000    0.00000000    0.00000000
     atom    8 type  2   force =     0.00000000    0.00000000    0.00000000
     The SCF correction term to forces
     atom    1 type  1   force =     0.00000000    0.00000000    0.00000000
     atom    2 type  1   force =     0.00000000    0.00000000    0.00000000
     atom    3 type  1   force =     0.00000000   -0.00000000    0.00000000
     atom    4 type  1   force =     0.00000000    0.00000000    0.00000000
     atom    5 type  2   force =     0.00000000    0.00000000   -0.00000000
     atom    6 type  2   force =     0.00000000    0.00000000    0.00000000
     atom    7 type  2   force =     0.00000000    0.00000000    0.00000000
     atom    8 type  2   force =     0.00000000    0.00000000   -0.00000000

     Total force =     0.000000     Total SCF correction =     0.000000


     Computing stress (Cartesian axis) and pressure

          total   stress  (Ry/bohr**3)                   (kbar)     P=     4193.95
   0.02850989   0.00000000   0.00000000         4193.95        0.00        0.00
   0.00000000   0.02850989   0.00000000            0.00     4193.95        0.00
   0.00000000   0.00000000   0.02850989            0.00        0.00     4193.95

     kinetic stress (kbar)  15379.76      0.00      0.00
                                0.00  15379.76      0.00
                                0.00      0.00  15379.76

     local   stress (kbar)   6134.46     -0.00      0.00
                               -0.00   6134.46     -0.00
                                0.00     -0.00   6134.46

     nonloc. stress (kbar)  11707.73      0.00      0.00
                                0.00  11707.73      0.00
                                0.00      0.00  11707.73

     hartree stress (kbar)    389.71     -0.00     -0.00
                               -0.00    389.71     -0.00
                               -0.00     -0.00    389.71

     exc-cor stress (kbar)  17118.27      0.00      0.00
                                0.00  17118.27     -0.00
                                0.00     -0.00  17118.27

     corecor stress (kbar) -22724.31      0.00      0.00
                                0.00 -22724.31     -0.00
                                0.00     -0.00 -22724.31

     ewald   stress (kbar) -23811.67     -0.00      0.00
                               -0.00 -23811.67      0.00
                                0.00      0.00 -23811.67

     hubbard stress (kbar)      0.00      0.00      0.00
                                0.00      0.00      0.00
                                0.00      0.00      0.00

     DFT-D   stress (kbar)      0.00      0.00      0.00
                                0.00      0.00      0.00
                                0.00      0.00      0.00

     XDM     stress (kbar)      0.00      0.00      0.00
                                0.00      0.00      0.00
                                0.00      0.00      0.00

     dft-nl  stress (kbar)      0.00      0.00      0.00
                                0.00      0.00      0.00
                                0.00      0.00      0.00

     TS-vdW  stress (kbar)      0.00      0.00      0.00
                                0.00      0.00      0.00
                                0.00      0.00      0.00



     Writing output data file ./CsIbcc.save/

     init_run     :      5.76s CPU      4.07s WALL (       1 calls)
     electrons    :    236.81s CPU    147.76s WALL (       1 calls)
     forces       :      6.28s CPU      5.78s WALL (       1 calls)
     stress       :     19.50s CPU     10.88s WALL (       1 calls)

     Called by init_run:
     wfcinit      :      2.59s CPU      1.52s WALL (       1 calls)
     wfcinit:atom :      0.01s CPU      0.01s WALL (      10 calls)
     wfcinit:wfcr :      2.50s CPU      1.47s WALL (      10 calls)
     potinit      :      0.09s CPU      0.09s WALL (       1 calls)
     hinit0       :      1.36s CPU      0.88s WALL (       1 calls)

     Called by electrons:
     c_bands      :    179.73s CPU    104.36s WALL (      16 calls)
     sum_band     :     32.28s CPU     21.10s WALL (      16 calls)
     v_of_rho     :      0.26s CPU      0.13s WALL (      16 calls)
     v_h          :      0.02s CPU      0.01s WALL (      16 calls)
     v_xc         :      0.27s CPU      0.14s WALL (      18 calls)
     newd         :     25.20s CPU     22.81s WALL (      16 calls)
     mix_rho      :      0.22s CPU      0.12s WALL (      16 calls)

     Called by c_bands:
     init_us_2    :      0.57s CPU      0.31s WALL (     350 calls)
     cegterg      :    175.81s CPU    101.19s WALL (     161 calls)

     Called by sum_band:
     sum_band:wei :      0.00s CPU      0.00s WALL (      16 calls)
     sum_band:loo :     26.16s CPU     16.61s WALL (      16 calls)
     sum_band:buf :      0.05s CPU      0.03s WALL (     160 calls)
     sum_band:ini :      0.23s CPU      0.12s WALL (     160 calls)
     sum_band:cal :      1.68s CPU      0.89s WALL (     160 calls)
     sum_band:bec :     10.98s CPU      7.92s WALL (     160 calls)
     addusdens    :      5.67s CPU      4.16s WALL (      16 calls)
     addusd:skk   :      0.01s CPU      0.00s WALL (      32 calls)
     addusd:dgemm :      1.57s CPU      2.04s WALL (      32 calls)
     addusd:qvan2 :      3.97s CPU      2.04s WALL (      32 calls)

     Called by *egterg:
     cdiaghg      :     17.48s CPU      9.80s WALL (    1733 calls)
     cegterg:over :     11.30s CPU      7.47s WALL (    1583 calls)
     cegterg:upda :      1.66s CPU      0.86s WALL (    1583 calls)
     cegterg:last :      3.02s CPU      1.56s WALL (     687 calls)
     h_psi        :    121.39s CPU     66.65s WALL (    1754 calls)
     s_psi        :     17.19s CPU     12.22s WALL (    1754 calls)
     g_psi        :      0.25s CPU      0.13s WALL (    1583 calls)

     Called by h_psi:
     h_psi:calbec :      9.58s CPU      5.26s WALL (    1754 calls)
     vloc_psi     :    100.26s CPU     53.18s WALL (    1754 calls)
     add_vuspsi   :     11.38s CPU      8.13s WALL (    1754 calls)

     General routines
     calbec       :     13.37s CPU      8.05s WALL (    1964 calls)
     fft          :      0.50s CPU      0.27s WALL (     370 calls)
     ffts         :      0.35s CPU      0.26s WALL (     128 calls)
     fftw         :    105.60s CPU     56.75s WALL (  209420 calls)
     interpolate  :      0.14s CPU      0.07s WALL (      64 calls)

     Parallel routines
     fft_scatt_xy :      5.20s CPU      2.67s WALL (  209918 calls)
     fft_scatt_yz :     71.03s CPU     38.89s WALL (  209918 calls)

     PWSCF        :   4m30.80s CPU   2m51.68s WALL


   This run was terminated on:  15:33:14  31Jan2021            

=------------------------------------------------------------------------------=
   JOB DONE.
=------------------------------------------------------------------------------=
