
     Program PWSCF v.6.7MaX starts on 31Jan2021 at 11:13:46 

     This program is part of the open-source Quantum ESPRESSO suite
     for quantum simulation of materials; please cite
         "P. Giannozzi et al., J. Phys.:Condens. Matter 21 395502 (2009);
         "P. Giannozzi et al., J. Phys.:Condens. Matter 29 465901 (2017);
          URL http://www.quantum-espresso.org", 
     in publications or presentations arising from this work. More details at
     http://www.quantum-espresso.org/quote

     Parallel version (MPI & OpenMP), running on      96 processor cores
     Number of MPI processes:                48
     Threads/MPI process:                     2

     MPI processes distributed on     2 nodes
     R & G space division:  proc/nbgrp/npool/nimage =      48
     Waiting for input...
     Reading input from standard input

     Current dimensions of program PWSCF are:
     Max number of different atomic species (ntypx) = 10
     Max number of k-points (npk) =  40000
     Max angular momentum in pseudopotentials (lmaxx) =  3
     file Sn.rel-pbesol-dn-rrkjus_psl.1.0.0.UPF: wavefunction(s)  5S 4D 4D renormalized
     file I.rel-pbesol-n-rrkjus_psl.1.0.0.UPF: wavefunction(s)  5S renormalized

     Subspace diagonalization in iterative solution of the eigenvalue problem:
     a serial algorithm will be used


     Parallelization info
     --------------------
     sticks:   dense  smooth     PW     G-vecs:    dense   smooth      PW
     Min         120      96     26                 6900     4938     704
     Max         121      97     27                 6907     4943     708
     Sum        5761    4637   1265               331237   237129   33833


     Title: 
     SnI2                                                                       


     bravais-lattice index     =            1
     lattice parameter (alat)  =      14.4199  a.u.
     unit-cell volume          =    2998.4083 (a.u.)^3
     number of atoms/cell      =            6
     number of atomic types    =            2
     number of electrons       =        56.00
     number of Kohn-Sham states=           56
     kinetic-energy cutoff     =      70.0000  Ry
     charge density cutoff     =     350.0000  Ry
     scf convergence threshold =      1.0E-06
     mixing beta               =       0.3500
     number of iterations used =            8  plain     mixing
     Exchange-correlation= PBESOL
                           (   1   4  10   8   0   0   0)
     Non magnetic calculation with spin-orbit


     celldm(1)=  14.419944  celldm(2)=   0.000000  celldm(3)=   0.000000
     celldm(4)=   0.000000  celldm(5)=   0.000000  celldm(6)=   0.000000

     crystal axes: (cart. coord. in units of alat)
               a(1) = (   1.000000   0.000000   0.000000 )  
               a(2) = (   0.000000   1.000000   0.000000 )  
               a(3) = (   0.000000   0.000000   1.000000 )  

     reciprocal axes: (cart. coord. in units 2 pi/alat)
               b(1) = (  1.000000  0.000000  0.000000 )  
               b(2) = (  0.000000  1.000000  0.000000 )  
               b(3) = (  0.000000  0.000000  1.000000 )  


     PseudoPot. # 1 for Sn read from file:
     /scratch/cmalosso/degironcoli/pseudo/pseudo-usp/Sn.rel-pbesol-dn-rrkjus_psl.1.0.0.UPF
     MD5 check sum: c1cf6ea56b96a3656bdf0d1db379e093
     Pseudo is Ultrasoft + core correction, Zval = 14.0
     Generated using &quot;atomic&quot; code by A. Dal Corso  v.6.3
     Using radial grid of 1243 points, 10 beta functions with: 
                l(1) =   0
                l(2) =   0
                l(3) =   1
                l(4) =   1
                l(5) =   1
                l(6) =   1
                l(7) =   2
                l(8) =   2
                l(9) =   2
               l(10) =   2
     Q(r) pseudized with 0 coefficients 


     PseudoPot. # 2 for I  read from file:
     /scratch/cmalosso/degironcoli/pseudo/pseudo-usp/I.rel-pbesol-n-rrkjus_psl.1.0.0.UPF
     MD5 check sum: 0f96c6bfb1b448f280658f96eb466b08
     Pseudo is Ultrasoft + core correction, Zval =  7.0
     Generated using &quot;atomic&quot; code by A. Dal Corso  v.6.3
     Using radial grid of 1247 points, 10 beta functions with: 
                l(1) =   0
                l(2) =   0
                l(3) =   1
                l(4) =   1
                l(5) =   1
                l(6) =   1
                l(7) =   2
                l(8) =   2
                l(9) =   2
               l(10) =   2
     Q(r) pseudized with 0 coefficients 


     atomic species   valence    mass     pseudopotential
        Sn            14.00   118.70000     Sn( 1.00)
        I              7.00   126.90000     I ( 1.00)

     16 Sym. Ops., with inversion, found ( 8 have fractional translation)


                                    s                        frac. trans.

      isym =  1     identity                                     

 cryst.   s( 1) = (     1          0          0      )
                  (     0          1          0      )
                  (     0          0          1      )

 cart.    s( 1) = (  1.0000000  0.0000000  0.0000000 )
                  (  0.0000000  1.0000000  0.0000000 )
                  (  0.0000000  0.0000000  1.0000000 )


      isym =  2     180 deg rotation - cart. axis [0,0,1]        

 cryst.   s( 2) = (    -1          0          0      )
                  (     0         -1          0      )
                  (     0          0          1      )

 cart.    s( 2) = ( -1.0000000  0.0000000  0.0000000 )
                  (  0.0000000 -1.0000000  0.0000000 )
                  (  0.0000000  0.0000000  1.0000000 )


      isym =  3     180 deg rotation - cart. axis [0,1,0]        

 cryst.   s( 3) = (    -1          0          0      )    f =(  0.5000000 )
                  (     0          1          0      )       ( -0.5000000 )
                  (     0          0         -1      )       (  0.5000000 )

 cart.    s( 3) = ( -1.0000000  0.0000000  0.0000000 )    f =(  0.5000000 )
                  (  0.0000000  1.0000000  0.0000000 )       ( -0.5000000 )
                  (  0.0000000  0.0000000 -1.0000000 )       (  0.5000000 )


      isym =  4     180 deg rotation - cart. axis [1,0,0]        

 cryst.   s( 4) = (     1          0          0      )    f =( -0.5000000 )
                  (     0         -1          0      )       (  0.5000000 )
                  (     0          0         -1      )       (  0.5000000 )

 cart.    s( 4) = (  1.0000000  0.0000000  0.0000000 )    f =( -0.5000000 )
                  (  0.0000000 -1.0000000  0.0000000 )       (  0.5000000 )
                  (  0.0000000  0.0000000 -1.0000000 )       (  0.5000000 )


      isym =  5     180 deg rotation - cart. axis [1,1,0]        

 cryst.   s( 5) = (     0          1          0      )
                  (     1          0          0      )
                  (     0          0         -1      )

 cart.    s( 5) = (  0.0000000  1.0000000  0.0000000 )
                  (  1.0000000  0.0000000  0.0000000 )
                  (  0.0000000  0.0000000 -1.0000000 )


      isym =  6     180 deg rotation - cart. axis [1,-1,0]       

 cryst.   s( 6) = (     0         -1          0      )
                  (    -1          0          0      )
                  (     0          0         -1      )

 cart.    s( 6) = (  0.0000000 -1.0000000  0.0000000 )
                  ( -1.0000000  0.0000000  0.0000000 )
                  (  0.0000000  0.0000000 -1.0000000 )


      isym =  7      90 deg rotation - cart. axis [0,0,-1]       

 cryst.   s( 7) = (     0         -1          0      )    f =( -0.5000000 )
                  (     1          0          0      )       (  0.5000000 )
                  (     0          0          1      )       ( -0.5000000 )

 cart.    s( 7) = (  0.0000000  1.0000000  0.0000000 )    f =( -0.5000000 )
                  ( -1.0000000  0.0000000  0.0000000 )       (  0.5000000 )
                  (  0.0000000  0.0000000  1.0000000 )       ( -0.5000000 )


      isym =  8      90 deg rotation - cart. axis [0,0,1]        

 cryst.   s( 8) = (     0          1          0      )    f =(  0.5000000 )
                  (    -1          0          0      )       ( -0.5000000 )
                  (     0          0          1      )       ( -0.5000000 )

 cart.    s( 8) = (  0.0000000 -1.0000000  0.0000000 )    f =(  0.5000000 )
                  (  1.0000000  0.0000000  0.0000000 )       ( -0.5000000 )
                  (  0.0000000  0.0000000  1.0000000 )       ( -0.5000000 )


      isym =  9     inversion                                    

 cryst.   s( 9) = (    -1          0          0      )
                  (     0         -1          0      )
                  (     0          0         -1      )

 cart.    s( 9) = ( -1.0000000  0.0000000  0.0000000 )
                  (  0.0000000 -1.0000000  0.0000000 )
                  (  0.0000000  0.0000000 -1.0000000 )


      isym = 10     inv. 180 deg rotation - cart. axis [0,0,1]   

 cryst.   s(10) = (     1          0          0      )
                  (     0          1          0      )
                  (     0          0         -1      )

 cart.    s(10) = (  1.0000000  0.0000000  0.0000000 )
                  (  0.0000000  1.0000000  0.0000000 )
                  (  0.0000000  0.0000000 -1.0000000 )


      isym = 11     inv. 180 deg rotation - cart. axis [0,1,0]   

 cryst.   s(11) = (     1          0          0      )    f =( -0.5000000 )
                  (     0         -1          0      )       (  0.5000000 )
                  (     0          0          1      )       ( -0.5000000 )

 cart.    s(11) = (  1.0000000  0.0000000  0.0000000 )    f =( -0.5000000 )
                  (  0.0000000 -1.0000000  0.0000000 )       (  0.5000000 )
                  (  0.0000000  0.0000000  1.0000000 )       ( -0.5000000 )


      isym = 12     inv. 180 deg rotation - cart. axis [1,0,0]   

 cryst.   s(12) = (    -1          0          0      )    f =(  0.5000000 )
                  (     0          1          0      )       ( -0.5000000 )
                  (     0          0          1      )       ( -0.5000000 )

 cart.    s(12) = ( -1.0000000  0.0000000  0.0000000 )    f =(  0.5000000 )
                  (  0.0000000  1.0000000  0.0000000 )       ( -0.5000000 )
                  (  0.0000000  0.0000000  1.0000000 )       ( -0.5000000 )


      isym = 13     inv. 180 deg rotation - cart. axis [1,1,0]   

 cryst.   s(13) = (     0         -1          0      )
                  (    -1          0          0      )
                  (     0          0          1      )

 cart.    s(13) = (  0.0000000 -1.0000000  0.0000000 )
                  ( -1.0000000  0.0000000  0.0000000 )
                  (  0.0000000  0.0000000  1.0000000 )


      isym = 14     inv. 180 deg rotation - cart. axis [1,-1,0]  

 cryst.   s(14) = (     0          1          0      )
                  (     1          0          0      )
                  (     0          0          1      )

 cart.    s(14) = (  0.0000000  1.0000000  0.0000000 )
                  (  1.0000000  0.0000000  0.0000000 )
                  (  0.0000000  0.0000000  1.0000000 )


      isym = 15     inv.  90 deg rotation - cart. axis [0,0,-1]  

 cryst.   s(15) = (     0          1          0      )    f =(  0.5000000 )
                  (    -1          0          0      )       ( -0.5000000 )
                  (     0          0         -1      )       (  0.5000000 )

 cart.    s(15) = (  0.0000000 -1.0000000  0.0000000 )    f =(  0.5000000 )
                  (  1.0000000  0.0000000  0.0000000 )       ( -0.5000000 )
                  (  0.0000000  0.0000000 -1.0000000 )       (  0.5000000 )


      isym = 16     inv.  90 deg rotation - cart. axis [0,0,1]   

 cryst.   s(16) = (     0         -1          0      )    f =( -0.5000000 )
                  (     1          0          0      )       (  0.5000000 )
                  (     0          0         -1      )       (  0.5000000 )

 cart.    s(16) = (  0.0000000  1.0000000  0.0000000 )    f =( -0.5000000 )
                  ( -1.0000000  0.0000000  0.0000000 )       (  0.5000000 )
                  (  0.0000000  0.0000000 -1.0000000 )       (  0.5000000 )


     double point group D_4h(4/mmm)
     there are 14 classes and  4 irreducible representations
     the character table:

       E     -E    2C4   -2C4   C2    2C2' 2C2'' i     -i    2S4   -2S4   s_h 
                               -C2   -2C2' -2C2'                         -s_h 
G_6+   2.00 -2.00  1.41 -1.41  0.00  0.00  0.00  2.00 -2.00  1.41 -1.41  0.00
G_7+   2.00 -2.00 -1.41  1.41  0.00  0.00  0.00  2.00 -2.00 -1.41  1.41  0.00
G_6-   2.00 -2.00  1.41 -1.41  0.00  0.00  0.00 -2.00  2.00 -1.41  1.41  0.00
G_7-   2.00 -2.00 -1.41  1.41  0.00  0.00  0.00 -2.00  2.00  1.41 -1.41  0.00

        2s_v  2s_d
       -2s_v -2s_d
G_6+   0.00  0.00
G_7+   0.00  0.00
G_6-   0.00  0.00
G_7-   0.00  0.00

     the symmetry operations in each class and the name of the first element:

     E             1
          identity                                               
     -E           -1
          identity E                                             
     2C4           7    8
           90 deg rotation - cart. axis [0,0,-1]                 
     -2C4         -7   -8
           90 deg rotation - cart. axis [0,0,-1] E               
      C2  -C2      2   -2
          180 deg rotation - cart. axis [0,0,1]                  
      2C2'-2C2'    3   -3    4   -4
          180 deg rotation - cart. axis [0,1,0]                  
     2C2''-2C2'    5   -5   -6    6
          180 deg rotation - cart. axis [1,1,0]                  
     i             9
          inversion                                              
     -i           -9
          inversion E                                            
     2S4          15   16
          inv.  90 deg rotation - cart. axis [0,0,-1]            
     -2S4        -15  -16
          inv.  90 deg rotation - cart. axis [0,0,-1] E          
      s_h -s_h    10  -10
          inv. 180 deg rotation - cart. axis [0,0,1]             
      2s_v-2s_v   11  -11   12  -12
          inv. 180 deg rotation - cart. axis [0,1,0]             
      2s_d-2s_d   13  -13  -14   14
          inv. 180 deg rotation - cart. axis [1,1,0]             

   Cartesian axes

     site n.     atom                  positions (alat units)
         1           Sn  tau(   1) = (   0.0000000   0.0000000   0.0000000  )
         2           Sn  tau(   2) = (   0.5000000   0.5000000   0.5000000  )
         3           I   tau(   3) = (   0.2985210   0.2985210   0.0000000  )
         4           I   tau(   4) = (   0.7014790   0.7014790   0.0000000  )
         5           I   tau(   5) = (   0.7985210   0.2014790   0.5000000  )
         6           I   tau(   6) = (   0.2014790   0.7985210   0.5000000  )

   Crystallographic axes

     site n.     atom                  positions (cryst. coord.)
         1           Sn  tau(   1) = (  0.0000000  0.0000000  0.0000000  )
         2           Sn  tau(   2) = (  0.5000000  0.5000000  0.5000000  )
         3           I   tau(   3) = (  0.2985210  0.2985210  0.0000000  )
         4           I   tau(   4) = (  0.7014790  0.7014790  0.0000000  )
         5           I   tau(   5) = (  0.7985210  0.2014790  0.5000000  )
         6           I   tau(   6) = (  0.2014790  0.7985210  0.5000000  )

     number of k points=    75
                       cart. coord. in units 2pi/alat
        k(    1) = (   0.0555556   0.0555556   0.0555556), wk =   0.0109739
        k(    2) = (   0.0555556   0.0555556   0.1666667), wk =   0.0109739
        k(    3) = (   0.0555556   0.0555556   0.2777778), wk =   0.0109739
        k(    4) = (   0.0555556   0.0555556   0.3888889), wk =   0.0109739
        k(    5) = (   0.0555556   0.0555556  -0.5000000), wk =   0.0054870
        k(    6) = (   0.0555556   0.1666667   0.1666667), wk =   0.0219479
        k(    7) = (   0.0555556   0.1666667   0.2777778), wk =   0.0219479
        k(    8) = (   0.0555556   0.1666667   0.3888889), wk =   0.0219479
        k(    9) = (   0.0555556   0.1666667  -0.5000000), wk =   0.0109739
        k(   10) = (   0.0555556   0.2777778   0.2777778), wk =   0.0219479
        k(   11) = (   0.0555556   0.2777778   0.3888889), wk =   0.0219479
        k(   12) = (   0.0555556   0.2777778  -0.5000000), wk =   0.0109739
        k(   13) = (   0.0555556   0.3888889   0.3888889), wk =   0.0219479
        k(   14) = (   0.0555556   0.3888889  -0.5000000), wk =   0.0109739
        k(   15) = (   0.0555556  -0.5000000  -0.5000000), wk =   0.0054870
        k(   16) = (   0.1666667   0.1666667   0.1666667), wk =   0.0109739
        k(   17) = (   0.1666667   0.1666667   0.2777778), wk =   0.0109739
        k(   18) = (   0.1666667   0.1666667   0.3888889), wk =   0.0109739
        k(   19) = (   0.1666667   0.1666667  -0.5000000), wk =   0.0054870
        k(   20) = (   0.1666667   0.2777778   0.2777778), wk =   0.0219479
        k(   21) = (   0.1666667   0.2777778   0.3888889), wk =   0.0219479
        k(   22) = (   0.1666667   0.2777778  -0.5000000), wk =   0.0109739
        k(   23) = (   0.1666667   0.3888889   0.3888889), wk =   0.0219479
        k(   24) = (   0.1666667   0.3888889  -0.5000000), wk =   0.0109739
        k(   25) = (   0.1666667  -0.5000000  -0.5000000), wk =   0.0054870
        k(   26) = (   0.2777778   0.2777778   0.2777778), wk =   0.0109739
        k(   27) = (   0.2777778   0.2777778   0.3888889), wk =   0.0109739
        k(   28) = (   0.2777778   0.2777778  -0.5000000), wk =   0.0054870
        k(   29) = (   0.2777778   0.3888889   0.3888889), wk =   0.0219479
        k(   30) = (   0.2777778   0.3888889  -0.5000000), wk =   0.0109739
        k(   31) = (   0.2777778  -0.5000000  -0.5000000), wk =   0.0054870
        k(   32) = (   0.3888889   0.3888889   0.3888889), wk =   0.0109739
        k(   33) = (   0.3888889   0.3888889  -0.5000000), wk =   0.0054870
        k(   34) = (   0.3888889  -0.5000000  -0.5000000), wk =   0.0054870
        k(   35) = (  -0.5000000  -0.5000000  -0.5000000), wk =   0.0013717
        k(   36) = (   0.0555556   0.1666667   0.0555556), wk =   0.0219479
        k(   37) = (   0.0555556   0.2777778   0.0555556), wk =   0.0219479
        k(   38) = (   0.0555556   0.3888889   0.0555556), wk =   0.0219479
        k(   39) = (   0.0555556  -0.5000000   0.0555556), wk =   0.0109739
        k(   40) = (   0.1666667   0.1666667   0.0555556), wk =   0.0109739
        k(   41) = (   0.1666667   0.2777778   0.0555556), wk =   0.0219479
        k(   42) = (   0.2777778   0.0555556   0.1666667), wk =   0.0219479
        k(   43) = (   0.1666667   0.3888889   0.0555556), wk =   0.0219479
        k(   44) = (   0.3888889   0.0555556   0.1666667), wk =   0.0219479
        k(   45) = (   0.1666667  -0.5000000   0.0555556), wk =   0.0109739
        k(   46) = (  -0.5000000   0.0555556   0.1666667), wk =   0.0109739
        k(   47) = (   0.2777778   0.2777778   0.0555556), wk =   0.0109739
        k(   48) = (   0.2777778   0.3888889   0.0555556), wk =   0.0219479
        k(   49) = (   0.3888889   0.0555556   0.2777778), wk =   0.0219479
        k(   50) = (   0.2777778  -0.5000000   0.0555556), wk =   0.0109739
        k(   51) = (  -0.5000000   0.0555556   0.2777778), wk =   0.0109739
        k(   52) = (   0.3888889   0.3888889   0.0555556), wk =   0.0109739
        k(   53) = (   0.3888889  -0.5000000   0.0555556), wk =   0.0109739
        k(   54) = (  -0.5000000   0.0555556   0.3888889), wk =   0.0109739
        k(   55) = (  -0.5000000  -0.5000000   0.0555556), wk =   0.0027435
        k(   56) = (   0.1666667   0.2777778   0.1666667), wk =   0.0219479
        k(   57) = (   0.1666667   0.3888889   0.1666667), wk =   0.0219479
        k(   58) = (   0.1666667  -0.5000000   0.1666667), wk =   0.0109739
        k(   59) = (   0.2777778   0.2777778   0.1666667), wk =   0.0109739
        k(   60) = (   0.2777778   0.3888889   0.1666667), wk =   0.0219479
        k(   61) = (   0.3888889   0.1666667   0.2777778), wk =   0.0219479
        k(   62) = (   0.2777778  -0.5000000   0.1666667), wk =   0.0109739
        k(   63) = (  -0.5000000   0.1666667   0.2777778), wk =   0.0109739
        k(   64) = (   0.3888889   0.3888889   0.1666667), wk =   0.0109739
        k(   65) = (   0.3888889  -0.5000000   0.1666667), wk =   0.0109739
        k(   66) = (  -0.5000000   0.1666667   0.3888889), wk =   0.0109739
        k(   67) = (  -0.5000000  -0.5000000   0.1666667), wk =   0.0027435
        k(   68) = (   0.2777778   0.3888889   0.2777778), wk =   0.0219479
        k(   69) = (   0.2777778  -0.5000000   0.2777778), wk =   0.0109739
        k(   70) = (   0.3888889   0.3888889   0.2777778), wk =   0.0109739
        k(   71) = (   0.3888889  -0.5000000   0.2777778), wk =   0.0109739
        k(   72) = (  -0.5000000   0.2777778   0.3888889), wk =   0.0109739
        k(   73) = (  -0.5000000  -0.5000000   0.2777778), wk =   0.0027435
        k(   74) = (   0.3888889  -0.5000000   0.3888889), wk =   0.0109739
        k(   75) = (  -0.5000000  -0.5000000   0.3888889), wk =   0.0027435

                       cryst. coord.
        k(    1) = (   0.0555556   0.0555556   0.0555556), wk =   0.0109739
        k(    2) = (   0.0555556   0.0555556   0.1666667), wk =   0.0109739
        k(    3) = (   0.0555556   0.0555556   0.2777778), wk =   0.0109739
        k(    4) = (   0.0555556   0.0555556   0.3888889), wk =   0.0109739
        k(    5) = (   0.0555556   0.0555556  -0.5000000), wk =   0.0054870
        k(    6) = (   0.0555556   0.1666667   0.1666667), wk =   0.0219479
        k(    7) = (   0.0555556   0.1666667   0.2777778), wk =   0.0219479
        k(    8) = (   0.0555556   0.1666667   0.3888889), wk =   0.0219479
        k(    9) = (   0.0555556   0.1666667  -0.5000000), wk =   0.0109739
        k(   10) = (   0.0555556   0.2777778   0.2777778), wk =   0.0219479
        k(   11) = (   0.0555556   0.2777778   0.3888889), wk =   0.0219479
        k(   12) = (   0.0555556   0.2777778  -0.5000000), wk =   0.0109739
        k(   13) = (   0.0555556   0.3888889   0.3888889), wk =   0.0219479
        k(   14) = (   0.0555556   0.3888889  -0.5000000), wk =   0.0109739
        k(   15) = (   0.0555556  -0.5000000  -0.5000000), wk =   0.0054870
        k(   16) = (   0.1666667   0.1666667   0.1666667), wk =   0.0109739
        k(   17) = (   0.1666667   0.1666667   0.2777778), wk =   0.0109739
        k(   18) = (   0.1666667   0.1666667   0.3888889), wk =   0.0109739
        k(   19) = (   0.1666667   0.1666667  -0.5000000), wk =   0.0054870
        k(   20) = (   0.1666667   0.2777778   0.2777778), wk =   0.0219479
        k(   21) = (   0.1666667   0.2777778   0.3888889), wk =   0.0219479
        k(   22) = (   0.1666667   0.2777778  -0.5000000), wk =   0.0109739
        k(   23) = (   0.1666667   0.3888889   0.3888889), wk =   0.0219479
        k(   24) = (   0.1666667   0.3888889  -0.5000000), wk =   0.0109739
        k(   25) = (   0.1666667  -0.5000000  -0.5000000), wk =   0.0054870
        k(   26) = (   0.2777778   0.2777778   0.2777778), wk =   0.0109739
        k(   27) = (   0.2777778   0.2777778   0.3888889), wk =   0.0109739
        k(   28) = (   0.2777778   0.2777778  -0.5000000), wk =   0.0054870
        k(   29) = (   0.2777778   0.3888889   0.3888889), wk =   0.0219479
        k(   30) = (   0.2777778   0.3888889  -0.5000000), wk =   0.0109739
        k(   31) = (   0.2777778  -0.5000000  -0.5000000), wk =   0.0054870
        k(   32) = (   0.3888889   0.3888889   0.3888889), wk =   0.0109739
        k(   33) = (   0.3888889   0.3888889  -0.5000000), wk =   0.0054870
        k(   34) = (   0.3888889  -0.5000000  -0.5000000), wk =   0.0054870
        k(   35) = (  -0.5000000  -0.5000000  -0.5000000), wk =   0.0013717
        k(   36) = (   0.0555556   0.1666667   0.0555556), wk =   0.0219479
        k(   37) = (   0.0555556   0.2777778   0.0555556), wk =   0.0219479
        k(   38) = (   0.0555556   0.3888889   0.0555556), wk =   0.0219479
        k(   39) = (   0.0555556  -0.5000000   0.0555556), wk =   0.0109739
        k(   40) = (   0.1666667   0.1666667   0.0555556), wk =   0.0109739
        k(   41) = (   0.1666667   0.2777778   0.0555556), wk =   0.0219479
        k(   42) = (   0.2777778   0.0555556   0.1666667), wk =   0.0219479
        k(   43) = (   0.1666667   0.3888889   0.0555556), wk =   0.0219479
        k(   44) = (   0.3888889   0.0555556   0.1666667), wk =   0.0219479
        k(   45) = (   0.1666667  -0.5000000   0.0555556), wk =   0.0109739
        k(   46) = (  -0.5000000   0.0555556   0.1666667), wk =   0.0109739
        k(   47) = (   0.2777778   0.2777778   0.0555556), wk =   0.0109739
        k(   48) = (   0.2777778   0.3888889   0.0555556), wk =   0.0219479
        k(   49) = (   0.3888889   0.0555556   0.2777778), wk =   0.0219479
        k(   50) = (   0.2777778  -0.5000000   0.0555556), wk =   0.0109739
        k(   51) = (  -0.5000000   0.0555556   0.2777778), wk =   0.0109739
        k(   52) = (   0.3888889   0.3888889   0.0555556), wk =   0.0109739
        k(   53) = (   0.3888889  -0.5000000   0.0555556), wk =   0.0109739
        k(   54) = (  -0.5000000   0.0555556   0.3888889), wk =   0.0109739
        k(   55) = (  -0.5000000  -0.5000000   0.0555556), wk =   0.0027435
        k(   56) = (   0.1666667   0.2777778   0.1666667), wk =   0.0219479
        k(   57) = (   0.1666667   0.3888889   0.1666667), wk =   0.0219479
        k(   58) = (   0.1666667  -0.5000000   0.1666667), wk =   0.0109739
        k(   59) = (   0.2777778   0.2777778   0.1666667), wk =   0.0109739
        k(   60) = (   0.2777778   0.3888889   0.1666667), wk =   0.0219479
        k(   61) = (   0.3888889   0.1666667   0.2777778), wk =   0.0219479
        k(   62) = (   0.2777778  -0.5000000   0.1666667), wk =   0.0109739
        k(   63) = (  -0.5000000   0.1666667   0.2777778), wk =   0.0109739
        k(   64) = (   0.3888889   0.3888889   0.1666667), wk =   0.0109739
        k(   65) = (   0.3888889  -0.5000000   0.1666667), wk =   0.0109739
        k(   66) = (  -0.5000000   0.1666667   0.3888889), wk =   0.0109739
        k(   67) = (  -0.5000000  -0.5000000   0.1666667), wk =   0.0027435
        k(   68) = (   0.2777778   0.3888889   0.2777778), wk =   0.0219479
        k(   69) = (   0.2777778  -0.5000000   0.2777778), wk =   0.0109739
        k(   70) = (   0.3888889   0.3888889   0.2777778), wk =   0.0109739
        k(   71) = (   0.3888889  -0.5000000   0.2777778), wk =   0.0109739
        k(   72) = (  -0.5000000   0.2777778   0.3888889), wk =   0.0109739
        k(   73) = (  -0.5000000  -0.5000000   0.2777778), wk =   0.0027435
        k(   74) = (   0.3888889  -0.5000000   0.3888889), wk =   0.0109739
        k(   75) = (  -0.5000000  -0.5000000   0.3888889), wk =   0.0027435

     Dense  grid:   331237 G-vectors     FFT dimensions: (  90,  90,  90)

     Smooth grid:   237129 G-vectors     FFT dimensions: (  80,  80,  80)

     Dynamical RAM for                 wfc:       1.05 MB

     Dynamical RAM for     wfc (w. buffer):      80.14 MB

     Dynamical RAM for           str. fact:       0.21 MB

     Dynamical RAM for           local pot:       0.00 MB

     Dynamical RAM for          nlocal pot:       1.92 MB

     Dynamical RAM for                qrad:       7.86 MB

     Dynamical RAM for          rho,v,vnew:       2.75 MB

     Dynamical RAM for               rhoin:       0.92 MB

     Dynamical RAM for            rho*nmix:       6.74 MB

     Dynamical RAM for           G-vectors:       0.43 MB

     Dynamical RAM for          h,s,v(r/c):       0.57 MB

     Dynamical RAM for          <psi|beta>:       0.35 MB

     Dynamical RAM for                 psi:       2.11 MB

     Dynamical RAM for                hpsi:       2.11 MB

     Dynamical RAM for                spsi:       2.11 MB

     Dynamical RAM for      wfcinit/wfcrot:       2.03 MB

     Dynamical RAM for           addusdens:      64.66 MB

     Dynamical RAM for          addusforce:      65.40 MB

     Dynamical RAM for         addusstress:      66.14 MB

     Estimated static dynamical RAM per process >     102.27 MB

     Estimated max dynamical RAM per process >     168.41 MB

     Estimated total dynamical RAM >       7.89 GB

     Initial potential from superposition of free atoms

     starting charge   55.99772, renormalised to   56.00000
     Starting wfcs are   68 randomized atomic wfcs

     total cpu time spent up to now is       17.5 secs

     Self-consistent Calculation

     iteration #  1     ecut=    70.00 Ry     beta= 0.35
     Davidson diagonalization with overlap
     ethr =  1.00E-02,  avg # of iterations =  1.0

     total cpu time spent up to now is       51.3 secs

     total energy              =    -458.29941918 Ry
     estimated scf accuracy    <       0.58822754 Ry

     iteration #  2     ecut=    70.00 Ry     beta= 0.35
     Davidson diagonalization with overlap
     ethr =  1.05E-03,  avg # of iterations =  3.0

     total cpu time spent up to now is       93.2 secs

     total energy              =    -458.37633075 Ry
     estimated scf accuracy    <       0.06229547 Ry

     iteration #  3     ecut=    70.00 Ry     beta= 0.35
     Davidson diagonalization with overlap
     ethr =  1.11E-04,  avg # of iterations =  5.4

     total cpu time spent up to now is      148.6 secs

     total energy              =    -458.39007094 Ry
     estimated scf accuracy    <       0.04714525 Ry

     iteration #  4     ecut=    70.00 Ry     beta= 0.35
     Davidson diagonalization with overlap
     ethr =  8.42E-05,  avg # of iterations =  5.2

     total cpu time spent up to now is      201.0 secs

     total energy              =    -458.40025698 Ry
     estimated scf accuracy    <       0.03347930 Ry

     iteration #  5     ecut=    70.00 Ry     beta= 0.35
     Davidson diagonalization with overlap
     ethr =  5.98E-05,  avg # of iterations =  4.9

     total cpu time spent up to now is      246.1 secs

     total energy              =    -458.40719562 Ry
     estimated scf accuracy    <       0.00098255 Ry

     iteration #  6     ecut=    70.00 Ry     beta= 0.35
     Davidson diagonalization with overlap
     ethr =  1.75E-06,  avg # of iterations =  9.8

     total cpu time spent up to now is      315.9 secs

     total energy              =    -458.40527553 Ry
     estimated scf accuracy    <       0.00906488 Ry

     iteration #  7     ecut=    70.00 Ry     beta= 0.35
     Davidson diagonalization with overlap
     ethr =  1.75E-06,  avg # of iterations =  6.9

     total cpu time spent up to now is      375.1 secs

     total energy              =    -458.40745089 Ry
     estimated scf accuracy    <       0.00047738 Ry

     iteration #  8     ecut=    70.00 Ry     beta= 0.35
     Davidson diagonalization with overlap
     ethr =  8.52E-07,  avg # of iterations =  2.7

     total cpu time spent up to now is      414.6 secs

     total energy              =    -458.40748347 Ry
     estimated scf accuracy    <       0.00005442 Ry

     iteration #  9     ecut=    70.00 Ry     beta= 0.35
     Davidson diagonalization with overlap
     ethr =  9.72E-08,  avg # of iterations =  7.1

     total cpu time spent up to now is      470.2 secs

     total energy              =    -458.40751758 Ry
     estimated scf accuracy    <       0.00001341 Ry

     iteration # 10     ecut=    70.00 Ry     beta= 0.35
     Davidson diagonalization with overlap
     ethr =  2.40E-08,  avg # of iterations =  2.1

     total cpu time spent up to now is      507.7 secs

     total energy              =    -458.40751671 Ry
     estimated scf accuracy    <       0.00000374 Ry

     iteration # 11     ecut=    70.00 Ry     beta= 0.35
     Davidson diagonalization with overlap
     ethr =  6.68E-09,  avg # of iterations =  6.2

     total cpu time spent up to now is      559.3 secs

     End of self-consistent calculation

          k = 0.0556 0.0556 0.0556 ( 29633 PWs)   bands (ev):

   -23.2577 -23.2577 -23.2577 -23.2577 -23.1327 -23.1327 -23.1327 -23.1327
   -22.2375 -22.2375 -22.2374 -22.2374 -22.1284 -22.1284 -22.1284 -22.1284
   -22.0775 -22.0775 -22.0774 -22.0774 -11.6258 -11.6258 -11.5315 -11.5315
   -11.4795 -11.4795 -11.4775 -11.4775  -7.0793  -7.0793  -6.8680  -6.8680
    -2.6649  -2.6649  -2.5033  -2.5033  -2.1348  -2.1348  -2.0456  -2.0456
    -1.9047  -1.9047  -1.5262  -1.5262  -1.2353  -1.2353  -1.1201  -1.1201
    -1.0991  -1.0991  -1.0268  -1.0268  -0.9272  -0.9272  -0.8945  -0.8945

     occupation numbers 
     1.0000   1.0000   1.0000   1.0000   1.0000   1.0000   1.0000   1.0000
     1.0000   1.0000   1.0000   1.0000   1.0000   1.0000   1.0000   1.0000
     1.0000   1.0000   1.0000   1.0000   1.0000   1.0000   1.0000   1.0000
     1.0000   1.0000   1.0000   1.0000   1.0000   1.0000   1.0000   1.0000
     1.0000   1.0000   1.0000   1.0000   1.0000   1.0000   1.0000   1.0000
     1.0000   1.0000   1.0000   1.0000   1.0000   1.0000   1.0000   1.0000
     1.0000   1.0000   1.0000   1.0000   1.0000   1.0000   1.0000   1.0000

          k = 0.0556 0.0556 0.1667 ( 29612 PWs)   bands (ev):

   -23.2577 -23.2577 -23.2577 -23.2577 -23.1327 -23.1327 -23.1326 -23.1326
   -22.2375 -22.2375 -22.2375 -22.2375 -22.1284 -22.1284 -22.1284 -22.1284
   -22.0775 -22.0775 -22.0774 -22.0774 -11.6201 -11.6201 -11.5371 -11.5371
   -11.4794 -11.4794 -11.4774 -11.4774  -7.0700  -7.0700  -6.8844  -6.8844
    -2.6514  -2.6514  -2.5057  -2.5057  -2.1299  -2.1299  -2.0418  -2.0418
    -1.8884  -1.8884  -1.5334  -1.5334  -1.2381  -1.2381  -1.1411  -1.1411
    -1.1167  -1.1167  -1.0419  -1.0419  -0.9293  -0.9293  -0.9056  -0.9056

     occupation numbers 
     1.0000   1.0000   1.0000   1.0000   1.0000   1.0000   1.0000   1.0000
     1.0000   1.0000   1.0000   1.0000   1.0000   1.0000   1.0000   1.0000
     1.0000   1.0000   1.0000   1.0000   1.0000   1.0000   1.0000   1.0000
     1.0000   1.0000   1.0000   1.0000   1.0000   1.0000   1.0000   1.0000
     1.0000   1.0000   1.0000   1.0000   1.0000   1.0000   1.0000   1.0000
     1.0000   1.0000   1.0000   1.0000   1.0000   1.0000   1.0000   1.0000
     1.0000   1.0000   1.0000   1.0000   1.0000   1.0000   1.0000   1.0000

          k = 0.0556 0.0556 0.2778 ( 29640 PWs)   bands (ev):

   -23.2578 -23.2578 -23.2577 -23.2577 -23.1327 -23.1327 -23.1327 -23.1327
   -22.2375 -22.2375 -22.2375 -22.2375 -22.1284 -22.1284 -22.1284 -22.1284
   -22.0775 -22.0775 -22.0774 -22.0774 -11.6092 -11.6092 -11.5476 -11.5476
   -11.4793 -11.4793 -11.4773 -11.4773  -7.0512  -7.0512  -6.9138  -6.9138
    -2.6294  -2.6294  -2.5104  -2.5104  -2.1266  -2.1266  -2.0365  -2.0365
    -1.8499  -1.8499  -1.5591  -1.5591  -1.2364  -1.2364  -1.1705  -1.1705
    -1.1347  -1.1347  -1.0643  -1.0643  -0.9479  -0.9479  -0.9172  -0.9172

     occupation numbers 
     1.0000   1.0000   1.0000   1.0000   1.0000   1.0000   1.0000   1.0000
     1.0000   1.0000   1.0000   1.0000   1.0000   1.0000   1.0000   1.0000
     1.0000   1.0000   1.0000   1.0000   1.0000   1.0000   1.0000   1.0000
     1.0000   1.0000   1.0000   1.0000   1.0000   1.0000   1.0000   1.0000
     1.0000   1.0000   1.0000   1.0000   1.0000   1.0000   1.0000   1.0000
     1.0000   1.0000   1.0000   1.0000   1.0000   1.0000   1.0000   1.0000
     1.0000   1.0000   1.0000   1.0000   1.0000   1.0000   1.0000   1.0000

          k = 0.0556 0.0556 0.3889 ( 29667 PWs)   bands (ev):

   -23.2578 -23.2578 -23.2578 -23.2578 -23.1327 -23.1327 -23.1327 -23.1327
   -22.2375 -22.2375 -22.2375 -22.2375 -22.1284 -22.1284 -22.1284 -22.1284
   -22.0775 -22.0775 -22.0774 -22.0774 -11.5947 -11.5947 -11.5618 -11.5618
   -11.4792 -11.4792 -11.4771 -11.4771  -7.0237  -7.0237  -6.9506  -6.9506
    -2.6079  -2.6079  -2.5165  -2.5165  -2.1266  -2.1266  -2.0337  -2.0337
    -1.7907  -1.7907  -1.6082  -1.6082  -1.2275  -1.2275  -1.1885  -1.1885
    -1.1489  -1.1489  -1.0829  -1.0829  -0.9700  -0.9700  -0.9327  -0.9327

     occupation numbers 
     1.0000   1.0000   1.0000   1.0000   1.0000   1.0000   1.0000   1.0000
     1.0000   1.0000   1.0000   1.0000   1.0000   1.0000   1.0000   1.0000
     1.0000   1.0000   1.0000   1.0000   1.0000   1.0000   1.0000   1.0000
     1.0000   1.0000   1.0000   1.0000   1.0000   1.0000   1.0000   1.0000
     1.0000   1.0000   1.0000   1.0000   1.0000   1.0000   1.0000   1.0000
     1.0000   1.0000   1.0000   1.0000   1.0000   1.0000   1.0000   1.0000
     1.0000   1.0000   1.0000   1.0000   1.0000   1.0000   1.0000   1.0000

          k = 0.0556 0.0556-0.5000 ( 29646 PWs)   bands (ev):

   -23.2578 -23.2578 -23.2577 -23.2577 -23.1327 -23.1327 -23.1327 -23.1327
   -22.2375 -22.2375 -22.2375 -22.2375 -22.1284 -22.1284 -22.1284 -22.1284
   -22.0774 -22.0774 -22.0774 -22.0774 -11.5791 -11.5791 -11.5772 -11.5772
   -11.4791 -11.4791 -11.4771 -11.4771  -6.9905  -6.9905  -6.9875  -6.9875
    -2.5984  -2.5984  -2.5199  -2.5199  -2.1272  -2.1272  -2.0333  -2.0333
    -1.7468  -1.7468  -1.6484  -1.6484  -1.2207  -1.2207  -1.1946  -1.1946
    -1.1545  -1.1545  -1.0899  -1.0899  -0.9795  -0.9795  -0.9413  -0.9413

     occupation numbers 
     1.0000   1.0000   1.0000   1.0000   1.0000   1.0000   1.0000   1.0000
     1.0000   1.0000   1.0000   1.0000   1.0000   1.0000   1.0000   1.0000
     1.0000   1.0000   1.0000   1.0000   1.0000   1.0000   1.0000   1.0000
     1.0000   1.0000   1.0000   1.0000   1.0000   1.0000   1.0000   1.0000
     1.0000   1.0000   1.0000   1.0000   1.0000   1.0000   1.0000   1.0000
     1.0000   1.0000   1.0000   1.0000   1.0000   1.0000   1.0000   1.0000
     1.0000   1.0000   1.0000   1.0000   1.0000   1.0000   1.0000   1.0000

          k = 0.0556 0.1667 0.1667 ( 29613 PWs)   bands (ev):

   -23.2577 -23.2577 -23.2577 -23.2577 -23.1327 -23.1327 -23.1326 -23.1326
   -22.2375 -22.2375 -22.2375 -22.2375 -22.1284 -22.1284 -22.1284 -22.1284
   -22.0775 -22.0775 -22.0774 -22.0774 -11.6125 -11.6125 -11.5351 -11.5351
   -11.4869 -11.4869 -11.4799 -11.4799  -7.0567  -7.0567  -6.8932  -6.8932
    -2.7290  -2.7290  -2.5863  -2.5863  -2.1430  -2.1430  -1.9819  -1.9819
    -1.8456  -1.8456  -1.5478  -1.5478  -1.2258  -1.2258  -1.1585  -1.1585
    -1.0908  -1.0908  -0.9829  -0.9829  -0.9205  -0.9205  -0.8487  -0.8487

     occupation numbers 
     1.0000   1.0000   1.0000   1.0000   1.0000   1.0000   1.0000   1.0000
     1.0000   1.0000   1.0000   1.0000   1.0000   1.0000   1.0000   1.0000
     1.0000   1.0000   1.0000   1.0000   1.0000   1.0000   1.0000   1.0000
     1.0000   1.0000   1.0000   1.0000   1.0000   1.0000   1.0000   1.0000
     1.0000   1.0000   1.0000   1.0000   1.0000   1.0000   1.0000   1.0000
     1.0000   1.0000   1.0000   1.0000   1.0000   1.0000   1.0000   1.0000
     1.0000   1.0000   1.0000   1.0000   1.0000   1.0000   1.0000   1.0000

          k = 0.0556 0.1667 0.2778 ( 29663 PWs)   bands (ev):

   -23.2578 -23.2578 -23.2577 -23.2577 -23.1327 -23.1327 -23.1327 -23.1327
   -22.2375 -22.2375 -22.2375 -22.2375 -22.1284 -22.1284 -22.1284 -22.1284
   -22.0775 -22.0775 -22.0774 -22.0774 -11.6023 -11.6023 -11.5446 -11.5446
   -11.4867 -11.4867 -11.4802 -11.4802  -7.0408  -7.0408  -6.9195  -6.9195
    -2.7289  -2.7289  -2.5881  -2.5881  -2.1145  -2.1145  -1.9606  -1.9606
    -1.8384  -1.8384  -1.5690  -1.5690  -1.2291  -1.2291  -1.1742  -1.1741
    -1.1040  -1.1040  -1.0010  -1.0010  -0.9271  -0.9271  -0.8543  -0.8543

     occupation numbers 
     1.0000   1.0000   1.0000   1.0000   1.0000   1.0000   1.0000   1.0000
     1.0000   1.0000   1.0000   1.0000   1.0000   1.0000   1.0000   1.0000
     1.0000   1.0000   1.0000   1.0000   1.0000   1.0000   1.0000   1.0000
     1.0000   1.0000   1.0000   1.0000   1.0000   1.0000   1.0000   1.0000
     1.0000   1.0000   1.0000   1.0000   1.0000   1.0000   1.0000   1.0000
     1.0000   1.0000   1.0000   1.0000   1.0000   1.0000   1.0000   1.0000
     1.0000   1.0000   1.0000   1.0000   1.0000   1.0000   1.0000   1.0000

          k = 0.0556 0.1667 0.3889 ( 29657 PWs)   bands (ev):

   -23.2578 -23.2578 -23.2578 -23.2578 -23.1327 -23.1327 -23.1327 -23.1327
   -22.2375 -22.2375 -22.2375 -22.2375 -22.1284 -22.1284 -22.1284 -22.1284
   -22.0775 -22.0775 -22.0774 -22.0774 -11.5887 -11.5887 -11.5577 -11.5577
   -11.4864 -11.4864 -11.4804 -11.4804  -7.0171  -7.0171  -6.9524  -6.9524
    -2.7284  -2.7284  -2.5892  -2.5892  -2.0982  -2.0982  -1.9402  -1.9402
    -1.8190  -1.8190  -1.5924  -1.5924  -1.2368  -1.2368  -1.1824  -1.1824
    -1.1104  -1.1104  -1.0205  -1.0205  -0.9375  -0.9375  -0.8591  -0.8591

     occupation numbers 
     1.0000   1.0000   1.0000   1.0000   1.0000   1.0000   1.0000   1.0000
     1.0000   1.0000   1.0000   1.0000   1.0000   1.0000   1.0000   1.0000
     1.0000   1.0000   1.0000   1.0000   1.0000   1.0000   1.0000   1.0000
     1.0000   1.0000   1.0000   1.0000   1.0000   1.0000   1.0000   1.0000
     1.0000   1.0000   1.0000   1.0000   1.0000   1.0000   1.0000   1.0000
     1.0000   1.0000   1.0000   1.0000   1.0000   1.0000   1.0000   1.0000
     1.0000   1.0000   1.0000   1.0000   1.0000   1.0000   1.0000   1.0000

          k = 0.0556 0.1667-0.5000 ( 29642 PWs)   bands (ev):

   -23.2578 -23.2578 -23.2577 -23.2577 -23.1327 -23.1327 -23.1327 -23.1327
   -22.2375 -22.2375 -22.2375 -22.2375 -22.1284 -22.1284 -22.1284 -22.1284
   -22.0775 -22.0775 -22.0774 -22.0774 -11.5757 -11.5757 -11.5705 -11.5705
   -11.4863 -11.4863 -11.4805 -11.4805  -6.9901  -6.9901  -6.9830  -6.9830
    -2.7281  -2.7281  -2.5894  -2.5894  -2.0938  -2.0938  -1.9336  -1.9336
    -1.8048  -1.8048  -1.6039  -1.6039  -1.2412  -1.2412  -1.1842  -1.1842
    -1.1116  -1.1116  -1.0295  -1.0295  -0.9428  -0.9428  -0.8611  -0.8611

     occupation numbers 
     1.0000   1.0000   1.0000   1.0000   1.0000   1.0000   1.0000   1.0000
     1.0000   1.0000   1.0000   1.0000   1.0000   1.0000   1.0000   1.0000
     1.0000   1.0000   1.0000   1.0000   1.0000   1.0000   1.0000   1.0000
     1.0000   1.0000   1.0000   1.0000   1.0000   1.0000   1.0000   1.0000
     1.0000   1.0000   1.0000   1.0000   1.0000   1.0000   1.0000   1.0000
     1.0000   1.0000   1.0000   1.0000   1.0000   1.0000   1.0000   1.0000
     1.0000   1.0000   1.0000   1.0000   1.0000   1.0000   1.0000   1.0000

          k = 0.0556 0.2778 0.2778 ( 29674 PWs)   bands (ev):

   -23.2578 -23.2578 -23.2578 -23.2578 -23.1327 -23.1327 -23.1327 -23.1327
   -22.2375 -22.2375 -22.2375 -22.2375 -22.1284 -22.1284 -22.1284 -22.1284
   -22.0775 -22.0775 -22.0774 -22.0774 -11.5894 -11.5894 -11.5405 -11.5405
   -11.4980 -11.4980 -11.4867 -11.4867  -7.0218  -7.0218  -6.9314  -6.9314
    -2.8268  -2.8268  -2.7097  -2.7097  -2.0796  -2.0796  -1.9328  -1.9328
    -1.8005  -1.8005  -1.5805  -1.5805  -1.2524  -1.2524  -1.1825  -1.1825
    -1.0229  -1.0229  -0.9548  -0.9548  -0.8754  -0.8754  -0.7125  -0.7125

     occupation numbers 
     1.0000   1.0000   1.0000   1.0000   1.0000   1.0000   1.0000   1.0000
     1.0000   1.0000   1.0000   1.0000   1.0000   1.0000   1.0000   1.0000
     1.0000   1.0000   1.0000   1.0000   1.0000   1.0000   1.0000   1.0000
     1.0000   1.0000   1.0000   1.0000   1.0000   1.0000   1.0000   1.0000
     1.0000   1.0000   1.0000   1.0000   1.0000   1.0000   1.0000   1.0000
     1.0000   1.0000   1.0000   1.0000   1.0000   1.0000   1.0000   1.0000
     1.0000   1.0000   1.0000   1.0000   1.0000   1.0000   1.0000   1.0000

          k = 0.0556 0.2778 0.3889 ( 29666 PWs)   bands (ev):

   -23.2578 -23.2578 -23.2578 -23.2578 -23.1327 -23.1327 -23.1327 -23.1327
   -22.2375 -22.2375 -22.2375 -22.2375 -22.1284 -22.1284 -22.1284 -22.1284
   -22.0775 -22.0775 -22.0774 -22.0774 -11.5777 -11.5777 -11.5506 -11.5506
   -11.4974 -11.4974 -11.4881 -11.4881  -7.0053  -7.0053  -6.9567  -6.9567
    -2.8352  -2.8352  -2.7166  -2.7166  -2.0503  -2.0503  -1.8939  -1.8939
    -1.8222  -1.8222  -1.5838  -1.5838  -1.2536  -1.2536  -1.1771  -1.1771
    -1.0291  -1.0291  -0.9716  -0.9716  -0.8644  -0.8644  -0.7125  -0.7125

     occupation numbers 
     1.0000   1.0000   1.0000   1.0000   1.0000   1.0000   1.0000   1.0000
     1.0000   1.0000   1.0000   1.0000   1.0000   1.0000   1.0000   1.0000
     1.0000   1.0000   1.0000   1.0000   1.0000   1.0000   1.0000   1.0000
     1.0000   1.0000   1.0000   1.0000   1.0000   1.0000   1.0000   1.0000
     1.0000   1.0000   1.0000   1.0000   1.0000   1.0000   1.0000   1.0000
     1.0000   1.0000   1.0000   1.0000   1.0000   1.0000   1.0000   1.0000
     1.0000   1.0000   1.0000   1.0000   1.0000   1.0000   1.0000   1.0000

          k = 0.0556 0.2778-0.5000 ( 29650 PWs)   bands (ev):

   -23.2578 -23.2578 -23.2577 -23.2577 -23.1327 -23.1327 -23.1327 -23.1327
   -22.2375 -22.2375 -22.2375 -22.2375 -22.1284 -22.1284 -22.1284 -22.1284
   -22.0775 -22.0775 -22.0774 -22.0774 -11.5677 -11.5677 -11.5601 -11.5601
   -11.4970 -11.4970 -11.4887 -11.4887  -6.9871  -6.9871  -6.9783  -6.9783
    -2.8383  -2.8383  -2.7192  -2.7192  -2.0424  -2.0424  -1.8654  -1.8654
    -1.8417  -1.8417  -1.5832  -1.5832  -1.2516  -1.2516  -1.1740  -1.1740
    -1.0394  -1.0394  -0.9754  -0.9754  -0.8588  -0.8588  -0.7126  -0.7126

     occupation numbers 
     1.0000   1.0000   1.0000   1.0000   1.0000   1.0000   1.0000   1.0000
     1.0000   1.0000   1.0000   1.0000   1.0000   1.0000   1.0000   1.0000
     1.0000   1.0000   1.0000   1.0000   1.0000   1.0000   1.0000   1.0000
     1.0000   1.0000   1.0000   1.0000   1.0000   1.0000   1.0000   1.0000
     1.0000   1.0000   1.0000   1.0000   1.0000   1.0000   1.0000   1.0000
     1.0000   1.0000   1.0000   1.0000   1.0000   1.0000   1.0000   1.0000
     1.0000   1.0000   1.0000   1.0000   1.0000   1.0000   1.0000   1.0000

          k = 0.0556 0.3889 0.3889 ( 29671 PWs)   bands (ev):

   -23.2578 -23.2578 -23.2577 -23.2577 -23.1327 -23.1327 -23.1327 -23.1327
   -22.2375 -22.2375 -22.2375 -22.2375 -22.1284 -22.1284 -22.1284 -22.1284
   -22.0775 -22.0775 -22.0774 -22.0774 -11.5634 -11.5634 -11.5449 -11.5449
   -11.5076 -11.5076 -11.4983 -11.4983  -6.9910  -6.9910  -6.9644  -6.9644
    -2.8948  -2.8948  -2.8247  -2.8247  -2.0220  -2.0220  -1.9084  -1.9084
    -1.7891  -1.7891  -1.5868  -1.5868  -1.2468  -1.2468  -1.1934  -1.1934
    -0.9815  -0.9815  -0.9421  -0.9421  -0.7225  -0.7225  -0.5936  -0.5936

     occupation numbers 
     1.0000   1.0000   1.0000   1.0000   1.0000   1.0000   1.0000   1.0000
     1.0000   1.0000   1.0000   1.0000   1.0000   1.0000   1.0000   1.0000
     1.0000   1.0000   1.0000   1.0000   1.0000   1.0000   1.0000   1.0000
     1.0000   1.0000   1.0000   1.0000   1.0000   1.0000   1.0000   1.0000
     1.0000   1.0000   1.0000   1.0000   1.0000   1.0000   1.0000   1.0000
     1.0000   1.0000   1.0000   1.0000   1.0000   1.0000   1.0000   1.0000
     1.0000   1.0000   1.0000   1.0000   1.0000   1.0000   1.0000   1.0000

          k = 0.0556 0.3889-0.5000 ( 29686 PWs)   bands (ev):

   -23.2578 -23.2578 -23.2578 -23.2578 -23.1327 -23.1327 -23.1327 -23.1327
   -22.2375 -22.2375 -22.2375 -22.2375 -22.1284 -22.1284 -22.1284 -22.1284
   -22.0775 -22.0775 -22.0774 -22.0774 -11.5569 -11.5569 -11.5496 -11.5496
   -11.5076 -11.5076 -11.4999 -11.4999  -6.9833  -6.9833  -6.9754  -6.9754
    -2.8993  -2.8993  -2.8286  -2.8286  -2.0152  -2.0152  -1.8944  -1.8944
    -1.7963  -1.7963  -1.5859  -1.5859  -1.2416  -1.2416  -1.1852  -1.1852
    -0.9769  -0.9769  -0.9452  -0.9452  -0.7182  -0.7182  -0.5896  -0.5896

     occupation numbers 
     1.0000   1.0000   1.0000   1.0000   1.0000   1.0000   1.0000   1.0000
     1.0000   1.0000   1.0000   1.0000   1.0000   1.0000   1.0000   1.0000
     1.0000   1.0000   1.0000   1.0000   1.0000   1.0000   1.0000   1.0000
     1.0000   1.0000   1.0000   1.0000   1.0000   1.0000   1.0000   1.0000
     1.0000   1.0000   1.0000   1.0000   1.0000   1.0000   1.0000   1.0000
     1.0000   1.0000   1.0000   1.0000   1.0000   1.0000   1.0000   1.0000
     1.0000   1.0000   1.0000   1.0000   1.0000   1.0000   1.0000   1.0000

          k = 0.0556-0.5000-0.5000 ( 29692 PWs)   bands (ev):

   -23.2578 -23.2578 -23.2578 -23.2578 -23.1327 -23.1327 -23.1327 -23.1327
   -22.2375 -22.2375 -22.2375 -22.2375 -22.1284 -22.1284 -22.1284 -22.1284
   -22.0775 -22.0775 -22.0774 -22.0774 -11.5479 -11.5479 -11.5476 -11.5476
   -11.5094 -11.5094 -11.5093 -11.5093  -6.9815  -6.9815  -6.9746  -6.9746
    -2.9100  -2.9100  -2.8784  -2.8784  -2.0076  -2.0076  -1.9063  -1.9063
    -1.7793  -1.7793  -1.5906  -1.5906  -1.2318  -1.2318  -1.1944  -1.1944
    -0.9547  -0.9547  -0.9384  -0.9384  -0.6037  -0.6037  -0.5823  -0.5823

     occupation numbers 
     1.0000   1.0000   1.0000   1.0000   1.0000   1.0000   1.0000   1.0000
     1.0000   1.0000   1.0000   1.0000   1.0000   1.0000   1.0000   1.0000
     1.0000   1.0000   1.0000   1.0000   1.0000   1.0000   1.0000   1.0000
     1.0000   1.0000   1.0000   1.0000   1.0000   1.0000   1.0000   1.0000
     1.0000   1.0000   1.0000   1.0000   1.0000   1.0000   1.0000   1.0000
     1.0000   1.0000   1.0000   1.0000   1.0000   1.0000   1.0000   1.0000
     1.0000   1.0000   1.0000   1.0000   1.0000   1.0000   1.0000   1.0000

          k = 0.1667 0.1667 0.1667 ( 29605 PWs)   bands (ev):

   -23.2577 -23.2577 -23.2577 -23.2577 -23.1327 -23.1327 -23.1326 -23.1326
   -22.2375 -22.2375 -22.2374 -22.2374 -22.1284 -22.1284 -22.1284 -22.1284
   -22.0775 -22.0775 -22.0774 -22.0774 -11.6062 -11.6062 -11.5338 -11.5338
   -11.4947 -11.4947 -11.4799 -11.4799  -7.0468  -7.0468  -6.9023  -6.9023
    -2.8145  -2.8145  -2.5471  -2.5471  -2.1193  -2.1193  -1.9842  -1.9842
    -1.8550  -1.8550  -1.5627  -1.5627  -1.2366  -1.2366  -1.1850  -1.1850
    -1.1318  -1.1318  -0.9625  -0.9625  -0.9066  -0.9066  -0.7190  -0.7190

     occupation numbers 
     1.0000   1.0000   1.0000   1.0000   1.0000   1.0000   1.0000   1.0000
     1.0000   1.0000   1.0000   1.0000   1.0000   1.0000   1.0000   1.0000
     1.0000   1.0000   1.0000   1.0000   1.0000   1.0000   1.0000   1.0000
     1.0000   1.0000   1.0000   1.0000   1.0000   1.0000   1.0000   1.0000
     1.0000   1.0000   1.0000   1.0000   1.0000   1.0000   1.0000   1.0000
     1.0000   1.0000   1.0000   1.0000   1.0000   1.0000   1.0000   1.0000
     1.0000   1.0000   1.0000   1.0000   1.0000   1.0000   1.0000   1.0000

          k = 0.1667 0.1667 0.2778 ( 29662 PWs)   bands (ev):

   -23.2578 -23.2578 -23.2577 -23.2577 -23.1327 -23.1327 -23.1327 -23.1327
   -22.2375 -22.2375 -22.2375 -22.2375 -22.1284 -22.1284 -22.1284 -22.1284
   -22.0775 -22.0775 -22.0774 -22.0774 -11.5969 -11.5969 -11.5420 -11.5420
   -11.4953 -11.4953 -11.4798 -11.4798  -7.0335  -7.0335  -6.9259  -6.9259
    -2.8257  -2.8257  -2.5341  -2.5341  -2.1182  -2.1182  -1.9408  -1.9408
    -1.8543  -1.8543  -1.5794  -1.5794  -1.2481  -1.2481  -1.1913  -1.1913
    -1.1357  -1.1357  -0.9713  -0.9713  -0.9065  -0.9065  -0.7185  -0.7185

     occupation numbers 
     1.0000   1.0000   1.0000   1.0000   1.0000   1.0000   1.0000   1.0000
     1.0000   1.0000   1.0000   1.0000   1.0000   1.0000   1.0000   1.0000
     1.0000   1.0000   1.0000   1.0000   1.0000   1.0000   1.0000   1.0000
     1.0000   1.0000   1.0000   1.0000   1.0000   1.0000   1.0000   1.0000
     1.0000   1.0000   1.0000   1.0000   1.0000   1.0000   1.0000   1.0000
     1.0000   1.0000   1.0000   1.0000   1.0000   1.0000   1.0000   1.0000
     1.0000   1.0000   1.0000   1.0000   1.0000   1.0000   1.0000   1.0000

          k = 0.1667 0.1667 0.3889 ( 29650 PWs)   bands (ev):

   -23.2578 -23.2578 -23.2577 -23.2577 -23.1327 -23.1327 -23.1327 -23.1327
   -22.2375 -22.2375 -22.2375 -22.2375 -22.1284 -22.1284 -22.1284 -22.1284
   -22.0775 -22.0775 -22.0774 -22.0774 -11.5849 -11.5849 -11.5530 -11.5530
   -11.4956 -11.4956 -11.4797 -11.4797  -7.0136  -7.0136  -6.9549  -6.9549
    -2.8342  -2.8342  -2.5234  -2.5234  -2.1229  -2.1229  -1.9053  -1.9053
    -1.8456  -1.8456  -1.5886  -1.5886  -1.2674  -1.2674  -1.1943  -1.1943
    -1.1293  -1.1293  -0.9850  -0.9850  -0.9102  -0.9102  -0.7179  -0.7179

     occupation numbers 
     1.0000   1.0000   1.0000   1.0000   1.0000   1.0000   1.0000   1.0000
     1.0000   1.0000   1.0000   1.0000   1.0000   1.0000   1.0000   1.0000
     1.0000   1.0000   1.0000   1.0000   1.0000   1.0000   1.0000   1.0000
     1.0000   1.0000   1.0000   1.0000   1.0000   1.0000   1.0000   1.0000
     1.0000   1.0000   1.0000   1.0000   1.0000   1.0000   1.0000   1.0000
     1.0000   1.0000   1.0000   1.0000   1.0000   1.0000   1.0000   1.0000
     1.0000   1.0000   1.0000   1.0000   1.0000   1.0000   1.0000   1.0000

          k = 0.1667 0.1667-0.5000 ( 29660 PWs)   bands (ev):

   -23.2578 -23.2578 -23.2577 -23.2577 -23.1327 -23.1327 -23.1327 -23.1327
   -22.2375 -22.2375 -22.2375 -22.2375 -22.1284 -22.1284 -22.1284 -22.1284
   -22.0775 -22.0775 -22.0774 -22.0774 -11.5762 -11.5762 -11.5614 -11.5614
   -11.4957 -11.4957 -11.4796 -11.4796  -6.9941  -6.9941  -6.9780  -6.9780
    -2.8372  -2.8372  -2.5193  -2.5193  -2.1255  -2.1255  -1.8970  -1.8970
    -1.8357  -1.8357  -1.5903  -1.5903  -1.2762  -1.2762  -1.1950  -1.1950
    -1.1252  -1.1252  -0.9924  -0.9924  -0.9129  -0.9129  -0.7176  -0.7176

     occupation numbers 
     1.0000   1.0000   1.0000   1.0000   1.0000   1.0000   1.0000   1.0000
     1.0000   1.0000   1.0000   1.0000   1.0000   1.0000   1.0000   1.0000
     1.0000   1.0000   1.0000   1.0000   1.0000   1.0000   1.0000   1.0000
     1.0000   1.0000   1.0000   1.0000   1.0000   1.0000   1.0000   1.0000
     1.0000   1.0000   1.0000   1.0000   1.0000   1.0000   1.0000   1.0000
     1.0000   1.0000   1.0000   1.0000   1.0000   1.0000   1.0000   1.0000
     1.0000   1.0000   1.0000   1.0000   1.0000   1.0000   1.0000   1.0000

          k = 0.1667 0.2778 0.2778 ( 29656 PWs)   bands (ev):

   -23.2578 -23.2578 -23.2577 -23.2577 -23.1327 -23.1327 -23.1327 -23.1327
   -22.2375 -22.2375 -22.2375 -22.2375 -22.1284 -22.1284 -22.1284 -22.1284
   -22.0775 -22.0775 -22.0774 -22.0774 -11.5866 -11.5866 -11.5394 -11.5394
   -11.5044 -11.5044 -11.4836 -11.4836  -7.0195  -7.0195  -6.9385  -6.9385
    -2.8802  -2.8802  -2.5927  -2.5927  -2.0909  -2.0909  -1.9305  -1.9305
    -1.8368  -1.8368  -1.5930  -1.5930  -1.2783  -1.2783  -1.2078  -1.2078
    -1.0884  -1.0884  -0.9484  -0.9484  -0.8856  -0.8856  -0.6030  -0.6030

     occupation numbers 
     1.0000   1.0000   1.0000   1.0000   1.0000   1.0000   1.0000   1.0000
     1.0000   1.0000   1.0000   1.0000   1.0000   1.0000   1.0000   1.0000
     1.0000   1.0000   1.0000   1.0000   1.0000   1.0000   1.0000   1.0000
     1.0000   1.0000   1.0000   1.0000   1.0000   1.0000   1.0000   1.0000
     1.0000   1.0000   1.0000   1.0000   1.0000   1.0000   1.0000   1.0000
     1.0000   1.0000   1.0000   1.0000   1.0000   1.0000   1.0000   1.0000
     1.0000   1.0000   1.0000   1.0000   1.0000   1.0000   1.0000   1.0000

          k = 0.1667 0.2778 0.3889 ( 29631 PWs)   bands (ev):

   -23.2578 -23.2578 -23.2577 -23.2577 -23.1327 -23.1327 -23.1327 -23.1327
   -22.2375 -22.2375 -22.2375 -22.2375 -22.1284 -22.1284 -22.1284 -22.1284
   -22.0775 -22.0775 -22.0774 -22.0774 -11.5774 -11.5774 -11.5465 -11.5465
   -11.5056 -11.5056 -11.4838 -11.4838  -7.0064  -7.0064  -6.9606  -6.9606
    -2.8919  -2.8919  -2.5897  -2.5897  -2.0878  -2.0878  -1.8987  -1.8987
    -1.8437  -1.8437  -1.5857  -1.5857  -1.2836  -1.2836  -1.1974  -1.1974
    -1.0942  -1.0942  -0.9483  -0.9483  -0.8800  -0.8800  -0.5959  -0.5959

     occupation numbers 
     1.0000   1.0000   1.0000   1.0000   1.0000   1.0000   1.0000   1.0000
     1.0000   1.0000   1.0000   1.0000   1.0000   1.0000   1.0000   1.0000
     1.0000   1.0000   1.0000   1.0000   1.0000   1.0000   1.0000   1.0000
     1.0000   1.0000   1.0000   1.0000   1.0000   1.0000   1.0000   1.0000
     1.0000   1.0000   1.0000   1.0000   1.0000   1.0000   1.0000   1.0000
     1.0000   1.0000   1.0000   1.0000   1.0000   1.0000   1.0000   1.0000
     1.0000   1.0000   1.0000   1.0000   1.0000   1.0000   1.0000   1.0000

          k = 0.1667 0.2778-0.5000 ( 29644 PWs)   bands (ev):

   -23.2578 -23.2578 -23.2577 -23.2577 -23.1327 -23.1327 -23.1327 -23.1327
   -22.2375 -22.2375 -22.2375 -22.2375 -22.1284 -22.1284 -22.1284 -22.1284
   -22.0775 -22.0775 -22.0774 -22.0774 -11.5719 -11.5719 -11.5512 -11.5512
   -11.5061 -11.5061 -11.4839 -11.4839  -6.9945  -6.9945  -6.9761  -6.9761
    -2.8961  -2.8961  -2.5886  -2.5886  -2.0882  -2.0882  -1.8887  -1.8887
    -1.8445  -1.8445  -1.5788  -1.5788  -1.2851  -1.2851  -1.1928  -1.1928
    -1.0992  -1.0992  -0.9481  -0.9481  -0.8780  -0.8780  -0.5929  -0.5929

     occupation numbers 
     1.0000   1.0000   1.0000   1.0000   1.0000   1.0000   1.0000   1.0000
     1.0000   1.0000   1.0000   1.0000   1.0000   1.0000   1.0000   1.0000
     1.0000   1.0000   1.0000   1.0000   1.0000   1.0000   1.0000   1.0000
     1.0000   1.0000   1.0000   1.0000   1.0000   1.0000   1.0000   1.0000
     1.0000   1.0000   1.0000   1.0000   1.0000   1.0000   1.0000   1.0000
     1.0000   1.0000   1.0000   1.0000   1.0000   1.0000   1.0000   1.0000
     1.0000   1.0000   1.0000   1.0000   1.0000   1.0000   1.0000   1.0000

          k = 0.1667 0.3889 0.3889 ( 29680 PWs)   bands (ev):

   -23.2578 -23.2578 -23.2578 -23.2578 -23.1327 -23.1327 -23.1327 -23.1327
   -22.2375 -22.2375 -22.2375 -22.2375 -22.1284 -22.1284 -22.1284 -22.1284
   -22.0775 -22.0775 -22.0774 -22.0774 -11.5667 -11.5667 -11.5455 -11.5455
   -11.5091 -11.5091 -11.4920 -11.4920  -6.9958  -6.9958  -6.9701  -6.9701
    -2.8890  -2.8890  -2.7144  -2.7144  -2.0521  -2.0521  -1.9248  -1.9248
    -1.8027  -1.8027  -1.5865  -1.5865  -1.2715  -1.2715  -1.2157  -1.2157
    -0.9970  -0.9970  -0.9229  -0.9229  -0.8338  -0.8338  -0.5999  -0.5999

     occupation numbers 
     1.0000   1.0000   1.0000   1.0000   1.0000   1.0000   1.0000   1.0000
     1.0000   1.0000   1.0000   1.0000   1.0000   1.0000   1.0000   1.0000
     1.0000   1.0000   1.0000   1.0000   1.0000   1.0000   1.0000   1.0000
     1.0000   1.0000   1.0000   1.0000   1.0000   1.0000   1.0000   1.0000
     1.0000   1.0000   1.0000   1.0000   1.0000   1.0000   1.0000   1.0000
     1.0000   1.0000   1.0000   1.0000   1.0000   1.0000   1.0000   1.0000
     1.0000   1.0000   1.0000   1.0000   1.0000   1.0000   1.0000   1.0000

          k = 0.1667 0.3889-0.5000 ( 29670 PWs)   bands (ev):

   -23.2578 -23.2578 -23.2578 -23.2578 -23.1327 -23.1327 -23.1327 -23.1327
   -22.2375 -22.2375 -22.2375 -22.2375 -22.1284 -22.1284 -22.1284 -22.1284
   -22.0775 -22.0775 -22.0774 -22.0774 -11.5636 -11.5636 -11.5467 -11.5467
   -11.5103 -11.5103 -11.4924 -11.4924  -6.9912  -6.9912  -6.9782  -6.9782
    -2.8935  -2.8935  -2.7165  -2.7165  -2.0513  -2.0513  -1.9188  -1.9188
    -1.8037  -1.8037  -1.5795  -1.5795  -1.2649  -1.2649  -1.2054  -1.2054
    -1.0010  -1.0010  -0.9194  -0.9194  -0.8296  -0.8296  -0.5971  -0.5971

     occupation numbers 
     1.0000   1.0000   1.0000   1.0000   1.0000   1.0000   1.0000   1.0000
     1.0000   1.0000   1.0000   1.0000   1.0000   1.0000   1.0000   1.0000
     1.0000   1.0000   1.0000   1.0000   1.0000   1.0000   1.0000   1.0000
     1.0000   1.0000   1.0000   1.0000   1.0000   1.0000   1.0000   1.0000
     1.0000   1.0000   1.0000   1.0000   1.0000   1.0000   1.0000   1.0000
     1.0000   1.0000   1.0000   1.0000   1.0000   1.0000   1.0000   1.0000
     1.0000   1.0000   1.0000   1.0000   1.0000   1.0000   1.0000   1.0000

          k = 0.1667-0.5000-0.5000 ( 29684 PWs)   bands (ev):

   -23.2578 -23.2578 -23.2578 -23.2578 -23.1327 -23.1327 -23.1327 -23.1327
   -22.2375 -22.2375 -22.2375 -22.2375 -22.1284 -22.1284 -22.1284 -22.1284
   -22.0775 -22.0775 -22.0774 -22.0774 -11.5535 -11.5535 -11.5532 -11.5532
   -11.5031 -11.5031 -11.5031 -11.5031  -6.9874  -6.9874  -6.9815  -6.9815
    -2.8427  -2.8427  -2.8151  -2.8151  -2.0413  -2.0413  -1.9309  -1.9309
    -1.7847  -1.7847  -1.5825  -1.5825  -1.2507  -1.2507  -1.2150  -1.2150
    -0.9334  -0.9334  -0.9174  -0.9174  -0.7229  -0.7229  -0.7159  -0.7159

     occupation numbers 
     1.0000   1.0000   1.0000   1.0000   1.0000   1.0000   1.0000   1.0000
     1.0000   1.0000   1.0000   1.0000   1.0000   1.0000   1.0000   1.0000
     1.0000   1.0000   1.0000   1.0000   1.0000   1.0000   1.0000   1.0000
     1.0000   1.0000   1.0000   1.0000   1.0000   1.0000   1.0000   1.0000
     1.0000   1.0000   1.0000   1.0000   1.0000   1.0000   1.0000   1.0000
     1.0000   1.0000   1.0000   1.0000   1.0000   1.0000   1.0000   1.0000
     1.0000   1.0000   1.0000   1.0000   1.0000   1.0000   1.0000   1.0000

          k = 0.2778 0.2778 0.2778 ( 29653 PWs)   bands (ev):

   -23.2578 -23.2578 -23.2577 -23.2577 -23.1327 -23.1327 -23.1327 -23.1327
   -22.2375 -22.2375 -22.2375 -22.2375 -22.1284 -22.1284 -22.1284 -22.1284
   -22.0775 -22.0775 -22.0774 -22.0774 -11.5811 -11.5811 -11.5420 -11.5420
   -11.5067 -11.5067 -11.4836 -11.4836  -7.0137  -7.0137  -6.9520  -6.9520
    -2.8754  -2.8754  -2.5327  -2.5327  -2.0959  -2.0959  -1.9162  -1.9162
    -1.8805  -1.8805  -1.6130  -1.6130  -1.3133  -1.3133  -1.2417  -1.2417
    -1.1157  -1.1157  -0.9210  -0.9210  -0.8664  -0.8664  -0.6054  -0.6054

     occupation numbers 
     1.0000   1.0000   1.0000   1.0000   1.0000   1.0000   1.0000   1.0000
     1.0000   1.0000   1.0000   1.0000   1.0000   1.0000   1.0000   1.0000
     1.0000   1.0000   1.0000   1.0000   1.0000   1.0000   1.0000   1.0000
     1.0000   1.0000   1.0000   1.0000   1.0000   1.0000   1.0000   1.0000
     1.0000   1.0000   1.0000   1.0000   1.0000   1.0000   1.0000   1.0000
     1.0000   1.0000   1.0000   1.0000   1.0000   1.0000   1.0000   1.0000
     1.0000   1.0000   1.0000   1.0000   1.0000   1.0000   1.0000   1.0000

          k = 0.2778 0.2778 0.3889 ( 29638 PWs)   bands (ev):

   -23.2578 -23.2578 -23.2577 -23.2577 -23.1327 -23.1327 -23.1327 -23.1327
   -22.2375 -22.2375 -22.2375 -22.2375 -22.1284 -22.1284 -22.1284 -22.1284
   -22.0775 -22.0775 -22.0774 -22.0774 -11.5748 -11.5748 -11.5448 -11.5448
   -11.5094 -11.5094 -11.4835 -11.4835  -7.0060  -7.0060  -6.9688  -6.9688
    -2.8874  -2.8874  -2.5233  -2.5233  -2.1138  -2.1138  -1.8968  -1.8968
    -1.8815  -1.8815  -1.5911  -1.5911  -1.3164  -1.3164  -1.2211  -1.2211
    -1.1151  -1.1151  -0.9128  -0.9128  -0.8570  -0.8570  -0.6014  -0.6014

     occupation numbers 
     1.0000   1.0000   1.0000   1.0000   1.0000   1.0000   1.0000   1.0000
     1.0000   1.0000   1.0000   1.0000   1.0000   1.0000   1.0000   1.0000
     1.0000   1.0000   1.0000   1.0000   1.0000   1.0000   1.0000   1.0000
     1.0000   1.0000   1.0000   1.0000   1.0000   1.0000   1.0000   1.0000
     1.0000   1.0000   1.0000   1.0000   1.0000   1.0000   1.0000   1.0000
     1.0000   1.0000   1.0000   1.0000   1.0000   1.0000   1.0000   1.0000
     1.0000   1.0000   1.0000   1.0000   1.0000   1.0000   1.0000   1.0000

          k = 0.2778 0.2778-0.5000 ( 29660 PWs)   bands (ev):

   -23.2578 -23.2578 -23.2578 -23.2578 -23.1327 -23.1327 -23.1327 -23.1327
   -22.2375 -22.2375 -22.2375 -22.2375 -22.1284 -22.1284 -22.1284 -22.1284
   -22.0775 -22.0775 -22.0774 -22.0774 -11.5718 -11.5718 -11.5465 -11.5465
   -11.5104 -11.5104 -11.4835 -11.4835  -6.9996  -6.9996  -6.9789  -6.9789
    -2.8918  -2.8918  -2.5198  -2.5198  -2.1211  -2.1211  -1.9006  -1.9006
    -1.8735  -1.8735  -1.5770  -1.5770  -1.3181  -1.3181  -1.2121  -1.2121
    -1.1174  -1.1174  -0.9084  -0.9084  -0.8538  -0.8538  -0.5997  -0.5997

     occupation numbers 
     1.0000   1.0000   1.0000   1.0000   1.0000   1.0000   1.0000   1.0000
     1.0000   1.0000   1.0000   1.0000   1.0000   1.0000   1.0000   1.0000
     1.0000   1.0000   1.0000   1.0000   1.0000   1.0000   1.0000   1.0000
     1.0000   1.0000   1.0000   1.0000   1.0000   1.0000   1.0000   1.0000
     1.0000   1.0000   1.0000   1.0000   1.0000   1.0000   1.0000   1.0000
     1.0000   1.0000   1.0000   1.0000   1.0000   1.0000   1.0000   1.0000
     1.0000   1.0000   1.0000   1.0000   1.0000   1.0000   1.0000   1.0000

          k = 0.2778 0.3889 0.3889 ( 29655 PWs)   bands (ev):

   -23.2578 -23.2578 -23.2577 -23.2577 -23.1327 -23.1327 -23.1327 -23.1327
   -22.2375 -22.2375 -22.2375 -22.2375 -22.1284 -22.1284 -22.1284 -22.1284
   -22.0775 -22.0775 -22.0774 -22.0774 -11.5691 -11.5691 -11.5510 -11.5510
   -11.5041 -11.5041 -11.4876 -11.4876  -7.0016  -7.0016  -6.9802  -6.9802
    -2.8225  -2.8225  -2.5870  -2.5870  -2.0940  -2.0940  -1.9362  -1.9362
    -1.8483  -1.8483  -1.5990  -1.5990  -1.3129  -1.3129  -1.2449  -1.2449
    -1.0705  -1.0705  -0.8960  -0.8960  -0.8357  -0.8357  -0.7224  -0.7224

     occupation numbers 
     1.0000   1.0000   1.0000   1.0000   1.0000   1.0000   1.0000   1.0000
     1.0000   1.0000   1.0000   1.0000   1.0000   1.0000   1.0000   1.0000
     1.0000   1.0000   1.0000   1.0000   1.0000   1.0000   1.0000   1.0000
     1.0000   1.0000   1.0000   1.0000   1.0000   1.0000   1.0000   1.0000
     1.0000   1.0000   1.0000   1.0000   1.0000   1.0000   1.0000   1.0000
     1.0000   1.0000   1.0000   1.0000   1.0000   1.0000   1.0000   1.0000
     1.0000   1.0000   1.0000   1.0000   1.0000   1.0000   1.0000   1.0000

          k = 0.2778 0.3889-0.5000 ( 29640 PWs)   bands (ev):

   -23.2578 -23.2578 -23.2577 -23.2577 -23.1327 -23.1327 -23.1327 -23.1327
   -22.2375 -22.2375 -22.2375 -22.2375 -22.1284 -22.1284 -22.1284 -22.1284
   -22.0775 -22.0775 -22.0774 -22.0774 -11.5675 -11.5675 -11.5512 -11.5512
   -11.5051 -11.5051 -11.4877 -11.4877  -6.9997  -6.9997  -6.9859  -6.9859
    -2.8262  -2.8262  -2.5864  -2.5864  -2.1007  -2.1007  -1.9372  -1.9372
    -1.8474  -1.8474  -1.5855  -1.5855  -1.3065  -1.3065  -1.2298  -1.2298
    -1.0746  -1.0746  -0.8883  -0.8883  -0.8313  -0.8313  -0.7261  -0.7261

     occupation numbers 
     1.0000   1.0000   1.0000   1.0000   1.0000   1.0000   1.0000   1.0000
     1.0000   1.0000   1.0000   1.0000   1.0000   1.0000   1.0000   1.0000
     1.0000   1.0000   1.0000   1.0000   1.0000   1.0000   1.0000   1.0000
     1.0000   1.0000   1.0000   1.0000   1.0000   1.0000   1.0000   1.0000
     1.0000   1.0000   1.0000   1.0000   1.0000   1.0000   1.0000   1.0000
     1.0000   1.0000   1.0000   1.0000   1.0000   1.0000   1.0000   1.0000
     1.0000   1.0000   1.0000   1.0000   1.0000   1.0000   1.0000   1.0000

          k = 0.2778-0.5000-0.5000 ( 29688 PWs)   bands (ev):

   -23.2578 -23.2578 -23.2578 -23.2578 -23.1327 -23.1327 -23.1327 -23.1327
   -22.2375 -22.2375 -22.2375 -22.2375 -22.1284 -22.1284 -22.1284 -22.1284
   -22.0775 -22.0775 -22.0774 -22.0774 -11.5600 -11.5600 -11.5598 -11.5598
   -11.4957 -11.4957 -11.4956 -11.4956  -6.9964  -6.9964  -6.9920  -6.9920
    -2.7224  -2.7224  -2.7041  -2.7041  -2.0874  -2.0874  -1.9564  -1.9564
    -1.8187  -1.8187  -1.5933  -1.5933  -1.2863  -1.2863  -1.2414  -1.2414
    -0.9707  -0.9707  -0.9593  -0.9593  -0.8246  -0.8246  -0.7999  -0.7999

     occupation numbers 
     1.0000   1.0000   1.0000   1.0000   1.0000   1.0000   1.0000   1.0000
     1.0000   1.0000   1.0000   1.0000   1.0000   1.0000   1.0000   1.0000
     1.0000   1.0000   1.0000   1.0000   1.0000   1.0000   1.0000   1.0000
     1.0000   1.0000   1.0000   1.0000   1.0000   1.0000   1.0000   1.0000
     1.0000   1.0000   1.0000   1.0000   1.0000   1.0000   1.0000   1.0000
     1.0000   1.0000   1.0000   1.0000   1.0000   1.0000   1.0000   1.0000
     1.0000   1.0000   1.0000   1.0000   1.0000   1.0000   1.0000   1.0000

          k = 0.3889 0.3889 0.3889 ( 29677 PWs)   bands (ev):

   -23.2578 -23.2578 -23.2578 -23.2578 -23.1327 -23.1327 -23.1327 -23.1327
   -22.2375 -22.2375 -22.2375 -22.2375 -22.1284 -22.1284 -22.1284 -22.1284
   -22.0775 -22.0775 -22.0775 -22.0775 -11.5686 -11.5686 -11.5585 -11.5585
   -11.4965 -11.4965 -11.4869 -11.4869  -7.0041  -7.0041  -6.9917  -6.9917
    -2.7092  -2.7092  -2.5240  -2.5240  -2.1135  -2.1135  -1.9537  -1.9537
    -1.8813  -1.8813  -1.6386  -1.6386  -1.3372  -1.3372  -1.2756  -1.2756
    -1.0960  -1.0960  -0.9524  -0.9524  -0.8202  -0.8202  -0.7989  -0.7989

     occupation numbers 
     1.0000   1.0000   1.0000   1.0000   1.0000   1.0000   1.0000   1.0000
     1.0000   1.0000   1.0000   1.0000   1.0000   1.0000   1.0000   1.0000
     1.0000   1.0000   1.0000   1.0000   1.0000   1.0000   1.0000   1.0000
     1.0000   1.0000   1.0000   1.0000   1.0000   1.0000   1.0000   1.0000
     1.0000   1.0000   1.0000   1.0000   1.0000   1.0000   1.0000   1.0000
     1.0000   1.0000   1.0000   1.0000   1.0000   1.0000   1.0000   1.0000
     1.0000   1.0000   1.0000   1.0000   1.0000   1.0000   1.0000   1.0000

          k = 0.3889 0.3889-0.5000 ( 29642 PWs)   bands (ev):

   -23.2578 -23.2578 -23.2577 -23.2577 -23.1327 -23.1327 -23.1327 -23.1327
   -22.2375 -22.2375 -22.2375 -22.2375 -22.1284 -22.1284 -22.1284 -22.1284
   -22.0775 -22.0775 -22.0774 -22.0774 -11.5679 -11.5679 -11.5585 -11.5585
   -11.4969 -11.4969 -11.4868 -11.4868  -7.0044  -7.0044  -6.9953  -6.9953
    -2.7114  -2.7114  -2.5215  -2.5215  -2.1247  -2.1247  -1.9600  -1.9600
    -1.8798  -1.8798  -1.6260  -1.6260  -1.3274  -1.3274  -1.2542  -1.2542
    -1.0986  -1.0986  -0.9526  -0.9526  -0.8164  -0.8164  -0.7968  -0.7968

     occupation numbers 
     1.0000   1.0000   1.0000   1.0000   1.0000   1.0000   1.0000   1.0000
     1.0000   1.0000   1.0000   1.0000   1.0000   1.0000   1.0000   1.0000
     1.0000   1.0000   1.0000   1.0000   1.0000   1.0000   1.0000   1.0000
     1.0000   1.0000   1.0000   1.0000   1.0000   1.0000   1.0000   1.0000
     1.0000   1.0000   1.0000   1.0000   1.0000   1.0000   1.0000   1.0000
     1.0000   1.0000   1.0000   1.0000   1.0000   1.0000   1.0000   1.0000
     1.0000   1.0000   1.0000   1.0000   1.0000   1.0000   1.0000   1.0000

          k = 0.3889-0.5000-0.5000 ( 29660 PWs)   bands (ev):

   -23.2578 -23.2578 -23.2578 -23.2578 -23.1327 -23.1327 -23.1327 -23.1327
   -22.2375 -22.2375 -22.2375 -22.2375 -22.1284 -22.1284 -22.1284 -22.1284
   -22.0775 -22.0775 -22.0774 -22.0774 -11.5647 -11.5647 -11.5646 -11.5646
   -11.4902 -11.4902 -11.4901 -11.4901  -7.0038  -7.0038  -7.0015  -7.0015
    -2.5875  -2.5875  -2.5832  -2.5832  -2.1164  -2.1164  -1.9957  -1.9957
    -1.8518  -1.8518  -1.6674  -1.6674  -1.3185  -1.3185  -1.2736  -1.2736
    -1.0640  -1.0640  -1.0589  -1.0589  -0.8072  -0.8072  -0.7932  -0.7932

     occupation numbers 
     1.0000   1.0000   1.0000   1.0000   1.0000   1.0000   1.0000   1.0000
     1.0000   1.0000   1.0000   1.0000   1.0000   1.0000   1.0000   1.0000
     1.0000   1.0000   1.0000   1.0000   1.0000   1.0000   1.0000   1.0000
     1.0000   1.0000   1.0000   1.0000   1.0000   1.0000   1.0000   1.0000
     1.0000   1.0000   1.0000   1.0000   1.0000   1.0000   1.0000   1.0000
     1.0000   1.0000   1.0000   1.0000   1.0000   1.0000   1.0000   1.0000
     1.0000   1.0000   1.0000   1.0000   1.0000   1.0000   1.0000   1.0000

          k =-0.5000-0.5000-0.5000 ( 29464 PWs)   bands (ev):

   -23.2577 -23.2577 -23.2577 -23.2577 -23.1326 -23.1326 -23.1326 -23.1326
   -22.2374 -22.2374 -22.2374 -22.2374 -22.1283 -22.1283 -22.1283 -22.1283
   -22.0774 -22.0774 -22.0774 -22.0774 -11.5663 -11.5663 -11.5663 -11.5663
   -11.4882 -11.4882 -11.4882 -11.4882  -7.0060  -7.0060  -7.0060  -7.0060
    -2.5226  -2.5226  -2.5226  -2.5226  -2.0824  -2.0824  -2.0824  -2.0824
    -1.7870  -1.7870  -1.7870  -1.7870  -1.3094  -1.3094  -1.3094  -1.3094
    -1.0940  -1.0940  -1.0940  -1.0940  -0.7903  -0.7903  -0.7903  -0.7903

     occupation numbers 
     1.0000   1.0000   1.0000   1.0000   1.0000   1.0000   1.0000   1.0000
     1.0000   1.0000   1.0000   1.0000   1.0000   1.0000   1.0000   1.0000
     1.0000   1.0000   1.0000   1.0000   1.0000   1.0000   1.0000   1.0000
     1.0000   1.0000   1.0000   1.0000   1.0000   1.0000   1.0000   1.0000
     1.0000   1.0000   1.0000   1.0000   1.0000   1.0000   1.0000   1.0000
     1.0000   1.0000   1.0000   1.0000   1.0000   1.0000   1.0000   1.0000
     1.0000   1.0000   1.0000   1.0000   1.0000   1.0000   1.0000   1.0000

          k = 0.0556 0.1667 0.0556 ( 29612 PWs)   bands (ev):

   -23.2577 -23.2577 -23.2577 -23.2577 -23.1327 -23.1327 -23.1326 -23.1326
   -22.2375 -22.2375 -22.2374 -22.2374 -22.1284 -22.1284 -22.1284 -22.1284
   -22.0775 -22.0775 -22.0774 -22.0774 -11.6179 -11.6179 -11.5302 -11.5302
   -11.4870 -11.4870 -11.4798 -11.4798  -7.0646  -7.0646  -6.8784  -6.8784
    -2.7288  -2.7288  -2.5847  -2.5847  -2.1669  -2.1669  -1.9921  -1.9921
    -1.8468  -1.8468  -1.5359  -1.5359  -1.2240  -1.2240  -1.1492  -1.1492
    -1.0777  -1.0777  -0.9710  -0.9710  -0.9191  -0.9191  -0.8450  -0.8450

     occupation numbers 
     1.0000   1.0000   1.0000   1.0000   1.0000   1.0000   1.0000   1.0000
     1.0000   1.0000   1.0000   1.0000   1.0000   1.0000   1.0000   1.0000
     1.0000   1.0000   1.0000   1.0000   1.0000   1.0000   1.0000   1.0000
     1.0000   1.0000   1.0000   1.0000   1.0000   1.0000   1.0000   1.0000
     1.0000   1.0000   1.0000   1.0000   1.0000   1.0000   1.0000   1.0000
     1.0000   1.0000   1.0000   1.0000   1.0000   1.0000   1.0000   1.0000
     1.0000   1.0000   1.0000   1.0000   1.0000   1.0000   1.0000   1.0000

          k = 0.0556 0.2778 0.0556 ( 29640 PWs)   bands (ev):

   -23.2578 -23.2578 -23.2577 -23.2577 -23.1327 -23.1327 -23.1327 -23.1327
   -22.2375 -22.2375 -22.2375 -22.2375 -22.1284 -22.1284 -22.1284 -22.1284
   -22.0775 -22.0775 -22.0774 -22.0774 -11.6030 -11.6030 -11.5305 -11.5305
   -11.4976 -11.4976 -11.4847 -11.4847  -7.0375  -7.0375  -6.8990  -6.8990
    -2.8072  -2.8072  -2.6939  -2.6939  -2.1652  -2.1652  -1.9727  -1.9727
    -1.7766  -1.7766  -1.5582  -1.5582  -1.2442  -1.2442  -1.1919  -1.1919
    -1.0144  -1.0144  -0.9482  -0.9482  -0.8748  -0.8748  -0.7116  -0.7116

     occupation numbers 
     1.0000   1.0000   1.0000   1.0000   1.0000   1.0000   1.0000   1.0000
     1.0000   1.0000   1.0000   1.0000   1.0000   1.0000   1.0000   1.0000
     1.0000   1.0000   1.0000   1.0000   1.0000   1.0000   1.0000   1.0000
     1.0000   1.0000   1.0000   1.0000   1.0000   1.0000   1.0000   1.0000
     1.0000   1.0000   1.0000   1.0000   1.0000   1.0000   1.0000   1.0000
     1.0000   1.0000   1.0000   1.0000   1.0000   1.0000   1.0000   1.0000
     1.0000   1.0000   1.0000   1.0000   1.0000   1.0000   1.0000   1.0000

          k = 0.0556 0.3889 0.0556 ( 29667 PWs)   bands (ev):

   -23.2578 -23.2578 -23.2578 -23.2578 -23.1327 -23.1327 -23.1327 -23.1327
   -22.2375 -22.2375 -22.2375 -22.2375 -22.1284 -22.1284 -22.1284 -22.1284
   -22.0775 -22.0775 -22.0774 -22.0774 -11.5830 -11.5830 -11.5405 -11.5405
   -11.5019 -11.5019 -11.4912 -11.4912  -7.0023  -7.0023  -6.9284  -6.9284
    -2.8538  -2.8538  -2.7912  -2.7912  -2.1239  -2.1239  -2.0050  -2.0050
    -1.7113  -1.7113  -1.5954  -1.5954  -1.2606  -1.2606  -1.2314  -1.2314
    -0.9994  -0.9994  -0.9547  -0.9547  -0.7301  -0.7301  -0.6097  -0.6097

     occupation numbers 
     1.0000   1.0000   1.0000   1.0000   1.0000   1.0000   1.0000   1.0000
     1.0000   1.0000   1.0000   1.0000   1.0000   1.0000   1.0000   1.0000
     1.0000   1.0000   1.0000   1.0000   1.0000   1.0000   1.0000   1.0000
     1.0000   1.0000   1.0000   1.0000   1.0000   1.0000   1.0000   1.0000
     1.0000   1.0000   1.0000   1.0000   1.0000   1.0000   1.0000   1.0000
     1.0000   1.0000   1.0000   1.0000   1.0000   1.0000   1.0000   1.0000
     1.0000   1.0000   1.0000   1.0000   1.0000   1.0000   1.0000   1.0000

          k = 0.0556-0.5000 0.0556 ( 29646 PWs)   bands (ev):

   -23.2578 -23.2578 -23.2577 -23.2577 -23.1327 -23.1327 -23.1327 -23.1327
   -22.2375 -22.2375 -22.2375 -22.2375 -22.1284 -22.1284 -22.1284 -22.1284
   -22.0774 -22.0774 -22.0774 -22.0774 -11.5607 -11.5607 -11.5606 -11.5606
   -11.4978 -11.4978 -11.4978 -11.4978  -6.9648  -6.9648  -6.9636  -6.9636
    -2.8524  -2.8524  -2.8452  -2.8452  -2.0695  -2.0695  -2.0571  -2.0571
    -1.6689  -1.6689  -1.6303  -1.6303  -1.2580  -1.2580  -1.2547  -1.2547
    -0.9939  -0.9939  -0.9630  -0.9630  -0.6172  -0.6172  -0.6142  -0.6142

     occupation numbers 
     1.0000   1.0000   1.0000   1.0000   1.0000   1.0000   1.0000   1.0000
     1.0000   1.0000   1.0000   1.0000   1.0000   1.0000   1.0000   1.0000
     1.0000   1.0000   1.0000   1.0000   1.0000   1.0000   1.0000   1.0000
     1.0000   1.0000   1.0000   1.0000   1.0000   1.0000   1.0000   1.0000
     1.0000   1.0000   1.0000   1.0000   1.0000   1.0000   1.0000   1.0000
     1.0000   1.0000   1.0000   1.0000   1.0000   1.0000   1.0000   1.0000
     1.0000   1.0000   1.0000   1.0000   1.0000   1.0000   1.0000   1.0000

          k = 0.1667 0.1667 0.0556 ( 29613 PWs)   bands (ev):

   -23.2577 -23.2577 -23.2577 -23.2577 -23.1327 -23.1327 -23.1326 -23.1326
   -22.2375 -22.2375 -22.2374 -22.2374 -22.1284 -22.1284 -22.1284 -22.1284
   -22.0775 -22.0775 -22.0774 -22.0774 -11.6112 -11.6112 -11.5297 -11.5297
   -11.4942 -11.4942 -11.4800 -11.4800  -7.0533  -7.0533  -6.8890  -6.8890
    -2.8059  -2.8059  -2.5561  -2.5561  -2.1270  -2.1270  -2.0062  -2.0062
    -1.8550  -1.8550  -1.5491  -1.5491  -1.2360  -1.2360  -1.1831  -1.1831
    -1.1174  -1.1174  -0.9590  -0.9590  -0.9097  -0.9097  -0.7194  -0.7194

     occupation numbers 
     1.0000   1.0000   1.0000   1.0000   1.0000   1.0000   1.0000   1.0000
     1.0000   1.0000   1.0000   1.0000   1.0000   1.0000   1.0000   1.0000
     1.0000   1.0000   1.0000   1.0000   1.0000   1.0000   1.0000   1.0000
     1.0000   1.0000   1.0000   1.0000   1.0000   1.0000   1.0000   1.0000
     1.0000   1.0000   1.0000   1.0000   1.0000   1.0000   1.0000   1.0000
     1.0000   1.0000   1.0000   1.0000   1.0000   1.0000   1.0000   1.0000
     1.0000   1.0000   1.0000   1.0000   1.0000   1.0000   1.0000   1.0000

          k = 0.1667 0.2778 0.0556 ( 29663 PWs)   bands (ev):

   -23.2578 -23.2578 -23.2577 -23.2577 -23.1327 -23.1327 -23.1327 -23.1327
   -22.2375 -22.2375 -22.2375 -22.2375 -22.1284 -22.1284 -22.1284 -22.1284
   -22.0775 -22.0775 -22.0774 -22.0774 -11.5986 -11.5986 -11.5325 -11.5325
   -11.5011 -11.5011 -11.4833 -11.4833  -7.0318  -7.0318  -6.9093  -6.9093
    -2.8536  -2.8536  -2.5993  -2.5993  -2.1234  -2.1234  -1.9825  -1.9825
    -1.8248  -1.8248  -1.5726  -1.5726  -1.2763  -1.2763  -1.2275  -1.2275
    -1.0766  -1.0766  -0.9466  -0.9466  -0.9019  -0.9019  -0.6146  -0.6146

     occupation numbers 
     1.0000   1.0000   1.0000   1.0000   1.0000   1.0000   1.0000   1.0000
     1.0000   1.0000   1.0000   1.0000   1.0000   1.0000   1.0000   1.0000
     1.0000   1.0000   1.0000   1.0000   1.0000   1.0000   1.0000   1.0000
     1.0000   1.0000   1.0000   1.0000   1.0000   1.0000   1.0000   1.0000
     1.0000   1.0000   1.0000   1.0000   1.0000   1.0000   1.0000   1.0000
     1.0000   1.0000   1.0000   1.0000   1.0000   1.0000   1.0000   1.0000
     1.0000   1.0000   1.0000   1.0000   1.0000   1.0000   1.0000   1.0000

          k = 0.2778 0.0556 0.1667 ( 29663 PWs)   bands (ev):

   -23.2578 -23.2578 -23.2577 -23.2577 -23.1327 -23.1327 -23.1327 -23.1327
   -22.2375 -22.2375 -22.2375 -22.2375 -22.1284 -22.1284 -22.1284 -22.1284
   -22.0775 -22.0775 -22.0774 -22.0774 -11.5983 -11.5983 -11.5336 -11.5336
   -11.4980 -11.4980 -11.4854 -11.4854  -7.0324  -7.0324  -6.9107  -6.9107
    -2.8156  -2.8156  -2.7007  -2.7007  -2.1278  -2.1278  -1.9596  -1.9596
    -1.7847  -1.7847  -1.5694  -1.5694  -1.2471  -1.2471  -1.1877  -1.1877
    -1.0225  -1.0225  -0.9433  -0.9433  -0.8790  -0.8790  -0.7122  -0.7122

     occupation numbers 
     1.0000   1.0000   1.0000   1.0000   1.0000   1.0000   1.0000   1.0000
     1.0000   1.0000   1.0000   1.0000   1.0000   1.0000   1.0000   1.0000
     1.0000   1.0000   1.0000   1.0000   1.0000   1.0000   1.0000   1.0000
     1.0000   1.0000   1.0000   1.0000   1.0000   1.0000   1.0000   1.0000
     1.0000   1.0000   1.0000   1.0000   1.0000   1.0000   1.0000   1.0000
     1.0000   1.0000   1.0000   1.0000   1.0000   1.0000   1.0000   1.0000
     1.0000   1.0000   1.0000   1.0000   1.0000   1.0000   1.0000   1.0000

          k = 0.1667 0.3889 0.0556 ( 29657 PWs)   bands (ev):

[...]
    -2.5370  -2.5370  -2.5370  -2.5370  -1.9963  -1.9963  -1.9963  -1.9963
    -1.8170  -1.8170  -1.8170  -1.8170  -1.4108  -1.4108  -1.4108  -1.4108
    -1.1066  -1.1066  -1.1066  -1.1066  -0.8219  -0.8219  -0.8219  -0.8219

     occupation numbers 
     1.0000   1.0000   1.0000   1.0000   1.0000   1.0000   1.0000   1.0000
     1.0000   1.0000   1.0000   1.0000   1.0000   1.0000   1.0000   1.0000
     1.0000   1.0000   1.0000   1.0000   1.0000   1.0000   1.0000   1.0000
     1.0000   1.0000   1.0000   1.0000   1.0000   1.0000   1.0000   1.0000
     1.0000   1.0000   1.0000   1.0000   1.0000   1.0000   1.0000   1.0000
     1.0000   1.0000   1.0000   1.0000   1.0000   1.0000   1.0000   1.0000
     1.0000   1.0000   1.0000   1.0000   1.0000   1.0000   1.0000   1.0000

          k = 0.2778 0.3889 0.2778 ( 29638 PWs)   bands (ev):

   -23.2578 -23.2578 -23.2577 -23.2577 -23.1327 -23.1327 -23.1327 -23.1327
   -22.2375 -22.2375 -22.2375 -22.2375 -22.1284 -22.1284 -22.1284 -22.1284
   -22.0775 -22.0775 -22.0774 -22.0774 -11.5727 -11.5727 -11.5508 -11.5508
   -11.5018 -11.5018 -11.4874 -11.4874  -7.0031  -7.0031  -6.9694  -6.9694
    -2.8121  -2.8121  -2.5888  -2.5888  -2.0784  -2.0784  -1.9473  -1.9473
    -1.8400  -1.8400  -1.6270  -1.6270  -1.3276  -1.3276  -1.2779  -1.2779
    -1.0689  -1.0689  -0.9103  -0.9103  -0.8471  -0.8471  -0.7153  -0.7153

     occupation numbers 
     1.0000   1.0000   1.0000   1.0000   1.0000   1.0000   1.0000   1.0000
     1.0000   1.0000   1.0000   1.0000   1.0000   1.0000   1.0000   1.0000
     1.0000   1.0000   1.0000   1.0000   1.0000   1.0000   1.0000   1.0000
     1.0000   1.0000   1.0000   1.0000   1.0000   1.0000   1.0000   1.0000
     1.0000   1.0000   1.0000   1.0000   1.0000   1.0000   1.0000   1.0000
     1.0000   1.0000   1.0000   1.0000   1.0000   1.0000   1.0000   1.0000
     1.0000   1.0000   1.0000   1.0000   1.0000   1.0000   1.0000   1.0000

          k = 0.2778-0.5000 0.2778 ( 29660 PWs)   bands (ev):

   -23.2578 -23.2578 -23.2578 -23.2578 -23.1327 -23.1327 -23.1327 -23.1327
   -22.2375 -22.2375 -22.2375 -22.2375 -22.1284 -22.1284 -22.1284 -22.1284
   -22.0775 -22.0775 -22.0774 -22.0774 -11.5622 -11.5622 -11.5620 -11.5620
   -11.4942 -11.4942 -11.4942 -11.4942  -6.9892  -6.9892  -6.9859  -6.9859
    -2.7132  -2.7132  -2.6965  -2.6965  -2.0678  -2.0678  -1.9644  -1.9644
    -1.8090  -1.8090  -1.6303  -1.6303  -1.3166  -1.3166  -1.3064  -1.3064
    -0.9889  -0.9889  -0.9451  -0.9451  -0.8241  -0.8241  -0.8083  -0.8083

     occupation numbers 
     1.0000   1.0000   1.0000   1.0000   1.0000   1.0000   1.0000   1.0000
     1.0000   1.0000   1.0000   1.0000   1.0000   1.0000   1.0000   1.0000
     1.0000   1.0000   1.0000   1.0000   1.0000   1.0000   1.0000   1.0000
     1.0000   1.0000   1.0000   1.0000   1.0000   1.0000   1.0000   1.0000
     1.0000   1.0000   1.0000   1.0000   1.0000   1.0000   1.0000   1.0000
     1.0000   1.0000   1.0000   1.0000   1.0000   1.0000   1.0000   1.0000
     1.0000   1.0000   1.0000   1.0000   1.0000   1.0000   1.0000   1.0000

          k = 0.3889 0.3889 0.2778 ( 29655 PWs)   bands (ev):

   -23.2578 -23.2578 -23.2577 -23.2577 -23.1327 -23.1327 -23.1327 -23.1327
   -22.2375 -22.2375 -22.2375 -22.2375 -22.1284 -22.1284 -22.1284 -22.1284
   -22.0775 -22.0775 -22.0774 -22.0774 -11.5704 -11.5704 -11.5587 -11.5587
   -11.4955 -11.4955 -11.4870 -11.4870  -7.0022  -7.0022  -6.9837  -6.9837
    -2.7031  -2.7031  -2.5307  -2.5307  -2.0844  -2.0844  -1.9479  -1.9479
    -1.8766  -1.8766  -1.6676  -1.6676  -1.3588  -1.3588  -1.3213  -1.3213
    -1.0988  -1.0988  -0.9562  -0.9562  -0.8310  -0.8310  -0.8012  -0.8012

     occupation numbers 
     1.0000   1.0000   1.0000   1.0000   1.0000   1.0000   1.0000   1.0000
     1.0000   1.0000   1.0000   1.0000   1.0000   1.0000   1.0000   1.0000
     1.0000   1.0000   1.0000   1.0000   1.0000   1.0000   1.0000   1.0000
     1.0000   1.0000   1.0000   1.0000   1.0000   1.0000   1.0000   1.0000
     1.0000   1.0000   1.0000   1.0000   1.0000   1.0000   1.0000   1.0000
     1.0000   1.0000   1.0000   1.0000   1.0000   1.0000   1.0000   1.0000
     1.0000   1.0000   1.0000   1.0000   1.0000   1.0000   1.0000   1.0000

          k = 0.3889-0.5000 0.2778 ( 29640 PWs)   bands (ev):

   -23.2578 -23.2578 -23.2577 -23.2577 -23.1327 -23.1327 -23.1327 -23.1327
   -22.2375 -22.2375 -22.2375 -22.2375 -22.1284 -22.1284 -22.1284 -22.1284
   -22.0774 -22.0774 -22.0774 -22.0774 -11.5656 -11.5656 -11.5656 -11.5656
   -11.4899 -11.4899 -11.4899 -11.4899  -6.9965  -6.9965  -6.9947  -6.9947
    -2.5896  -2.5896  -2.5833  -2.5833  -2.0763  -2.0763  -1.9750  -1.9750
    -1.8493  -1.8493  -1.7000  -1.7000  -1.3607  -1.3607  -1.3505  -1.3505
    -1.0694  -1.0694  -1.0426  -1.0426  -0.8222  -0.8222  -0.8104  -0.8104

     occupation numbers 
     1.0000   1.0000   1.0000   1.0000   1.0000   1.0000   1.0000   1.0000
     1.0000   1.0000   1.0000   1.0000   1.0000   1.0000   1.0000   1.0000
     1.0000   1.0000   1.0000   1.0000   1.0000   1.0000   1.0000   1.0000
     1.0000   1.0000   1.0000   1.0000   1.0000   1.0000   1.0000   1.0000
     1.0000   1.0000   1.0000   1.0000   1.0000   1.0000   1.0000   1.0000
     1.0000   1.0000   1.0000   1.0000   1.0000   1.0000   1.0000   1.0000
     1.0000   1.0000   1.0000   1.0000   1.0000   1.0000   1.0000   1.0000

          k =-0.5000 0.2778 0.3889 ( 29640 PWs)   bands (ev):

   -23.2578 -23.2578 -23.2577 -23.2577 -23.1327 -23.1327 -23.1327 -23.1327
   -22.2375 -22.2375 -22.2375 -22.2375 -22.1284 -22.1284 -22.1284 -22.1284
   -22.0775 -22.0775 -22.0774 -22.0774 -11.5606 -11.5606 -11.5605 -11.5605
   -11.4952 -11.4952 -11.4952 -11.4952  -6.9944  -6.9944  -6.9902  -6.9902
    -2.7201  -2.7201  -2.7020  -2.7020  -2.0814  -2.0814  -1.9548  -1.9548
    -1.8204  -1.8204  -1.6038  -1.6038  -1.2953  -1.2953  -1.2622  -1.2622
    -0.9758  -0.9758  -0.9524  -0.9524  -0.8251  -0.8251  -0.8025  -0.8025

     occupation numbers 
     1.0000   1.0000   1.0000   1.0000   1.0000   1.0000   1.0000   1.0000
     1.0000   1.0000   1.0000   1.0000   1.0000   1.0000   1.0000   1.0000
     1.0000   1.0000   1.0000   1.0000   1.0000   1.0000   1.0000   1.0000
     1.0000   1.0000   1.0000   1.0000   1.0000   1.0000   1.0000   1.0000
     1.0000   1.0000   1.0000   1.0000   1.0000   1.0000   1.0000   1.0000
     1.0000   1.0000   1.0000   1.0000   1.0000   1.0000   1.0000   1.0000
     1.0000   1.0000   1.0000   1.0000   1.0000   1.0000   1.0000   1.0000

          k =-0.5000-0.5000 0.2778 ( 29688 PWs)   bands (ev):

   -23.2578 -23.2578 -23.2578 -23.2578 -23.1327 -23.1327 -23.1327 -23.1327
   -22.2375 -22.2375 -22.2375 -22.2375 -22.1284 -22.1284 -22.1284 -22.1284
   -22.0775 -22.0775 -22.0775 -22.0775 -11.5669 -11.5669 -11.5669 -11.5669
   -11.4884 -11.4884 -11.4884 -11.4884  -6.9988  -6.9988  -6.9988  -6.9988
    -2.5302  -2.5302  -2.5302  -2.5302  -2.0382  -2.0382  -2.0382  -2.0382
    -1.8008  -1.8008  -1.8008  -1.8008  -1.3739  -1.3739  -1.3739  -1.3739
    -1.0911  -1.0911  -1.0911  -1.0911  -0.8095  -0.8095  -0.8095  -0.8095

     occupation numbers 
     1.0000   1.0000   1.0000   1.0000   1.0000   1.0000   1.0000   1.0000
     1.0000   1.0000   1.0000   1.0000   1.0000   1.0000   1.0000   1.0000
     1.0000   1.0000   1.0000   1.0000   1.0000   1.0000   1.0000   1.0000
     1.0000   1.0000   1.0000   1.0000   1.0000   1.0000   1.0000   1.0000
     1.0000   1.0000   1.0000   1.0000   1.0000   1.0000   1.0000   1.0000
     1.0000   1.0000   1.0000   1.0000   1.0000   1.0000   1.0000   1.0000
     1.0000   1.0000   1.0000   1.0000   1.0000   1.0000   1.0000   1.0000

          k = 0.3889-0.5000 0.3889 ( 29642 PWs)   bands (ev):

   -23.2578 -23.2578 -23.2577 -23.2577 -23.1327 -23.1327 -23.1327 -23.1327
   -22.2375 -22.2375 -22.2375 -22.2375 -22.1284 -22.1284 -22.1284 -22.1284
   -22.0774 -22.0774 -22.0774 -22.0774 -11.5649 -11.5649 -11.5649 -11.5649
   -11.4901 -11.4901 -11.4901 -11.4901  -7.0017  -7.0017  -6.9996  -6.9996
    -2.5882  -2.5882  -2.5831  -2.5831  -2.1054  -2.1054  -1.9881  -1.9881
    -1.8533  -1.8533  -1.6761  -1.6761  -1.3319  -1.3319  -1.2987  -1.2987
    -1.0639  -1.0639  -1.0505  -1.0505  -0.8122  -0.8122  -0.7982  -0.7982

     occupation numbers 
     1.0000   1.0000   1.0000   1.0000   1.0000   1.0000   1.0000   1.0000
     1.0000   1.0000   1.0000   1.0000   1.0000   1.0000   1.0000   1.0000
     1.0000   1.0000   1.0000   1.0000   1.0000   1.0000   1.0000   1.0000
     1.0000   1.0000   1.0000   1.0000   1.0000   1.0000   1.0000   1.0000
     1.0000   1.0000   1.0000   1.0000   1.0000   1.0000   1.0000   1.0000
     1.0000   1.0000   1.0000   1.0000   1.0000   1.0000   1.0000   1.0000
     1.0000   1.0000   1.0000   1.0000   1.0000   1.0000   1.0000   1.0000

          k =-0.5000-0.5000 0.3889 ( 29660 PWs)   bands (ev):

   -23.2578 -23.2578 -23.2578 -23.2578 -23.1327 -23.1327 -23.1327 -23.1327
   -22.2375 -22.2375 -22.2375 -22.2375 -22.1284 -22.1284 -22.1284 -22.1284
   -22.0774 -22.0774 -22.0774 -22.0774 -11.5665 -11.5665 -11.5665 -11.5665
   -11.4882 -11.4882 -11.4882 -11.4882  -7.0039  -7.0039  -7.0039  -7.0039
    -2.5247  -2.5247  -2.5247  -2.5247  -2.0705  -2.0705  -2.0705  -2.0705
    -1.7904  -1.7904  -1.7904  -1.7904  -1.3304  -1.3304  -1.3304  -1.3304
    -1.0902  -1.0902  -1.0902  -1.0902  -0.7961  -0.7961  -0.7961  -0.7961

     occupation numbers 
     1.0000   1.0000   1.0000   1.0000   1.0000   1.0000   1.0000   1.0000
     1.0000   1.0000   1.0000   1.0000   1.0000   1.0000   1.0000   1.0000
     1.0000   1.0000   1.0000   1.0000   1.0000   1.0000   1.0000   1.0000
     1.0000   1.0000   1.0000   1.0000   1.0000   1.0000   1.0000   1.0000
     1.0000   1.0000   1.0000   1.0000   1.0000   1.0000   1.0000   1.0000
     1.0000   1.0000   1.0000   1.0000   1.0000   1.0000   1.0000   1.0000
     1.0000   1.0000   1.0000   1.0000   1.0000   1.0000   1.0000   1.0000

     highest occupied level (ev):    -0.5823

!    total energy              =    -458.40751803 Ry
     estimated scf accuracy    <       0.00000067 Ry

     The total energy is the sum of the following terms:
     one-electron contribution =    -256.47996413 Ry
     hartree contribution      =     145.40510461 Ry
     xc contribution           =    -157.08089818 Ry
     ewald contribution        =    -190.25176033 Ry

     convergence has been achieved in  11 iterations

     Forces acting on atoms (cartesian axes, Ry/au):

     atom    1 type  1   force =     0.00000000    0.00000000   -0.00000000
     atom    2 type  1   force =     0.00000000    0.00000000    0.00000000
     atom    3 type  2   force =    -0.01796773   -0.01796773    0.00000000
     atom    4 type  2   force =     0.01796773    0.01796773    0.00000000
     atom    5 type  2   force =    -0.01796773    0.01796773    0.00000000
     atom    6 type  2   force =     0.01796773   -0.01796773    0.00000000
     The non-local contrib.  to forces
     atom    1 type  1   force =     0.00000000    0.00000000    0.00000000
     atom    2 type  1   force =     0.00000000    0.00000000    0.00000000
     atom    3 type  2   force =    -0.04134061   -0.04134061    0.00000000
     atom    4 type  2   force =     0.04134061    0.04134061    0.00000000
     atom    5 type  2   force =    -0.04134061    0.04134061    0.00000000
     atom    6 type  2   force =     0.04134061   -0.04134061    0.00000000
     The ionic contribution  to forces
     atom    1 type  1   force =    -0.00000000   -0.00000000    0.00000000
     atom    2 type  1   force =    -0.00000000   -0.00000000    0.00000000
     atom    3 type  2   force =     1.38633658    1.38633658    0.00000000
     atom    4 type  2   force =    -1.38633658   -1.38633658   -0.00000000
     atom    5 type  2   force =     1.38633658   -1.38633658    0.00000000
     atom    6 type  2   force =    -1.38633658    1.38633658    0.00000000
     The local contribution  to forces
     atom    1 type  1   force =    -0.00000000   -0.00000000   -0.00000000
     atom    2 type  1   force =     0.00000000    0.00000000    0.00000000
     atom    3 type  2   force =    -1.36664969   -1.36664969   -0.00000000
     atom    4 type  2   force =     1.36664969    1.36664969   -0.00000000
     atom    5 type  2   force =    -1.36664969    1.36664969    0.00000000
     atom    6 type  2   force =     1.36664969   -1.36664969    0.00000000
     The core correction contribution to forces
     atom    1 type  1   force =     0.00000000    0.00000000    0.00000000
     atom    2 type  1   force =     0.00000000    0.00000000    0.00000000
     atom    3 type  2   force =     0.00391420    0.00391420    0.00000000
     atom    4 type  2   force =    -0.00391420   -0.00391420    0.00000000
     atom    5 type  2   force =     0.00391420   -0.00391420    0.00000000
     atom    6 type  2   force =    -0.00391420    0.00391420    0.00000000
     The Hubbard contrib.    to forces
     atom    1 type  1   force =     0.00000000    0.00000000    0.00000000
     atom    2 type  1   force =     0.00000000    0.00000000    0.00000000
     atom    3 type  2   force =     0.00000000    0.00000000    0.00000000
     atom    4 type  2   force =     0.00000000    0.00000000    0.00000000
     atom    5 type  2   force =     0.00000000    0.00000000    0.00000000
     atom    6 type  2   force =     0.00000000    0.00000000    0.00000000
     The SCF correction term to forces
     atom    1 type  1   force =     0.00000000   -0.00000000   -0.00000000
     atom    2 type  1   force =    -0.00000000    0.00000000   -0.00000000
     atom    3 type  2   force =    -0.00022821   -0.00022821    0.00000000
     atom    4 type  2   force =     0.00022821    0.00022821    0.00000000
     atom    5 type  2   force =    -0.00022821    0.00022821    0.00000000
     atom    6 type  2   force =     0.00022821   -0.00022821    0.00000000

     Total force =     0.050820     Total SCF correction =     0.000645


     Computing stress (Cartesian axis) and pressure

          total   stress  (Ry/bohr**3)                   (kbar)     P=      -28.10
  -0.00019331   0.00000000   0.00000000          -28.44        0.00        0.00
   0.00000000  -0.00019331   0.00000000            0.00      -28.44        0.00
   0.00000000   0.00000000  -0.00018647            0.00        0.00      -27.43

     kinetic stress (kbar)   4478.11      0.00      0.00
                                0.00   4478.11      0.00
                                0.00      0.00   4472.91

     local   stress (kbar)  -2714.49      0.00      0.00
                                0.00  -2714.49     -0.00
                                0.00     -0.00  -2198.90

     nonloc. stress (kbar)     68.70      0.00      0.00
                                0.00     68.70      0.00
                                0.00      0.00     53.49

     hartree stress (kbar)   2422.25     -0.00     -0.00
                               -0.00   2422.25      0.00
                               -0.00      0.00   2289.22

     exc-cor stress (kbar)   3792.41      0.00      0.00
                                0.00   3792.41      0.00
                                0.00      0.00   3791.41

     corecor stress (kbar)  -5084.44      0.00      0.00
                                0.00  -5084.44      0.00
                                0.00      0.00  -5083.59

     ewald   stress (kbar)  -2990.99     -0.00     -0.00
                               -0.00  -2990.99     -0.00
                               -0.00     -0.00  -3351.97

     hubbard stress (kbar)      0.00      0.00      0.00
                                0.00      0.00      0.00
                                0.00      0.00      0.00

     DFT-D   stress (kbar)      0.00      0.00      0.00
                                0.00      0.00      0.00
                                0.00      0.00      0.00

     XDM     stress (kbar)      0.00      0.00      0.00
                                0.00      0.00      0.00
                                0.00      0.00      0.00

     dft-nl  stress (kbar)      0.00      0.00      0.00
                                0.00      0.00      0.00
                                0.00      0.00      0.00

     TS-vdW  stress (kbar)      0.00      0.00      0.00
                                0.00      0.00      0.00
                                0.00      0.00      0.00



     Writing output data file ./SnI2.save/

     init_run     :     28.72s CPU     15.93s WALL (       1 calls)
     electrons    :   1010.96s CPU    542.61s WALL (       1 calls)
     forces       :     12.84s CPU      9.79s WALL (       1 calls)
     stress       :     43.21s CPU     23.27s WALL (       1 calls)

     Called by init_run:
     wfcinit      :     27.07s CPU     14.66s WALL (       1 calls)
     wfcinit:atom :      0.23s CPU      0.12s WALL (      75 calls)
     wfcinit:wfcr :     25.77s CPU     13.67s WALL (      75 calls)
     potinit      :      0.25s CPU      0.15s WALL (       1 calls)
     hinit0       :      0.57s CPU      0.46s WALL (       1 calls)

     Called by electrons:
     c_bands      :    855.62s CPU    457.80s WALL (      11 calls)
     sum_band     :    146.26s CPU     77.80s WALL (      11 calls)
     v_of_rho     :      0.68s CPU      0.39s WALL (      12 calls)
     v_h          :      0.06s CPU      0.03s WALL (      12 calls)
     v_xc         :      0.72s CPU      0.41s WALL (      14 calls)
     newd         :      7.43s CPU      5.03s WALL (      12 calls)
     mix_rho      :      0.67s CPU      0.44s WALL (      11 calls)

     Called by c_bands:
     init_us_2    :      5.09s CPU      2.66s WALL (    1875 calls)
     cegterg      :    821.67s CPU    435.38s WALL (     825 calls)

     Called by sum_band:
     sum_band:wei :      0.00s CPU      0.00s WALL (      11 calls)
     sum_band:loo :    139.91s CPU     72.99s WALL (      11 calls)
     sum_band:buf :      0.68s CPU      0.56s WALL (     825 calls)
     sum_band:ini :      1.78s CPU      0.93s WALL (     825 calls)
     sum_band:cal :     11.08s CPU      5.59s WALL (     825 calls)
     sum_band:bec :     26.90s CPU     13.69s WALL (     825 calls)
     addusdens    :      5.84s CPU      4.44s WALL (      11 calls)
     addusd:skk   :      0.01s CPU      0.01s WALL (      22 calls)
     addusd:dgemm :      2.04s CPU      2.50s WALL (      22 calls)
     addusd:qvan2 :      3.67s CPU      1.86s WALL (      22 calls)

     Called by *egterg:
     cdiaghg      :     35.55s CPU     18.99s WALL (    4893 calls)
     cegterg:over :     39.55s CPU     21.57s WALL (    4068 calls)
     cegterg:upda :     15.65s CPU      7.92s WALL (    4068 calls)
     cegterg:last :     26.95s CPU     13.62s WALL (    2170 calls)
     h_psi        :    649.02s CPU    340.94s WALL (    4968 calls)
     s_psi        :     48.89s CPU     27.67s WALL (    4968 calls)
     g_psi        :      1.99s CPU      1.00s WALL (    4068 calls)

     Called by h_psi:
     h_psi:calbec :     37.39s CPU     18.89s WALL (    4968 calls)
     vloc_psi     :    565.70s CPU    296.93s WALL (    4968 calls)
     add_vuspsi   :     43.85s CPU     24.06s WALL (    4968 calls)

     General routines
     calbec       :     56.71s CPU     30.40s WALL (    6168 calls)
     fft          :      1.39s CPU      0.83s WALL (     281 calls)
     ffts         :      0.34s CPU      0.19s WALL (      92 calls)
     fftw         :    602.66s CPU    317.23s WALL (  682488 calls)
     interpolate  :      0.31s CPU      0.16s WALL (      48 calls)

     Parallel routines
     fft_scatt_xy :     32.73s CPU     16.66s WALL (  682861 calls)
     fft_scatt_yz :    422.56s CPU    225.10s WALL (  682861 calls)

     PWSCF        :  18m25.36s CPU  10m33.30s WALL


   This run was terminated on:  11:24:19  31Jan2021            

=------------------------------------------------------------------------------=
   JOB DONE.
=------------------------------------------------------------------------------=
