
     Program PWSCF v.6.3 starts on 17Feb2021 at 21:17:58 

     This program is part of the open-source Quantum ESPRESSO suite
     for quantum simulation of materials; please cite
         "P. Giannozzi et al., J. Phys.:Condens. Matter 21 395502 (2009);
         "P. Giannozzi et al., J. Phys.:Condens. Matter 29 465901 (2017);
          URL http://www.quantum-espresso.org", 
     in publications or presentations arising from this work. More details at
     http://www.quantum-espresso.org/quote

     Parallel version (MPI & OpenMP), running on      32 processor cores
     Number of MPI processes:                32
     Threads/MPI process:                     1

     MPI processes distributed on     1 nodes
     R & G space division:  proc/nbgrp/npool/nimage =      32
     Waiting for input...
     Reading input from standard input

     Current dimensions of program PWSCF are:
     Max number of different atomic species (ntypx) = 10
     Max number of k-points (npk) =  40000
     Max angular momentum in pseudopotentials (lmaxx) =  3
               file Sn.rel-pbe-dn-rrkjus_psl.1.0.0.UPF: wavefunction(s)  5S 4D 4D renormalized
               file Cs.rel-pbe-spn-rrkjus_psl.1.0.0.UPF: wavefunction(s)  5S 6S renormalized

     Subspace diagonalization in iterative solution of the eigenvalue problem:
     one sub-group per band group will be used
     scalapack distributed-memory algorithm (size of sub-group:  4*  4 procs)

 
     Parallelization info
     --------------------
     sticks:   dense  smooth     PW     G-vecs:    dense   smooth      PW
     Min         208     208     56                19702    19702    2792
     Max         209     209     57                19713    19713    2797
     Sum        6673    6673   1813               630597   630597   89389
 

     Title: 
     perovskite                                                                 


     bravais-lattice index     =            0
     lattice parameter (alat)  =      17.4003  a.u.
     unit-cell volume          =    6523.1036 (a.u.)^3
     number of atoms/cell      =           20
     number of atomic types    =            3
     number of electrons       =       176.00
     number of Kohn-Sham states=          176
     kinetic-energy cutoff     =      80.0000  Ry
     charge density cutoff     =     320.0000  Ry
     convergence threshold     =      1.0E-07
     mixing beta               =       0.6000
     number of iterations used =            8  plain     mixing
     Exchange-correlation      = PBE ( 1  4  3  4 0 0)
     nstep                     =           50

     Non magnetic calculation with spin-orbit


     celldm(1)=  17.400300  celldm(2)=   0.000000  celldm(3)=   0.000000
     celldm(4)=   0.000000  celldm(5)=   0.000000  celldm(6)=   0.000000

     crystal axes: (cart. coord. in units of alat)
               a(1) = (   1.000000   0.000000   0.000000 )  
               a(2) = (  -0.499997   0.866025   0.000000 )  
               a(3) = (   0.000000   0.000000   1.429728 )  

     reciprocal axes: (cart. coord. in units 2 pi/alat)
               b(1) = (  1.000000  0.577347  0.000000 )  
               b(2) = (  0.000000  1.154701  0.000000 )  
               b(3) = (  0.000000  0.000000  0.699434 )  


     PseudoPot. # 1 for Sn read from file:
     ./Sn.rel-pbe-dn-rrkjus_psl.1.0.0.UPF
     MD5 check sum: e9415cc9ba1036dfb73502962f03961a
     Pseudo is Ultrasoft + core correction, Zval = 14.0
     Generated using "atomic" code by A. Dal Corso v.6.3
     Using radial grid of 1243 points, 10 beta functions with: 
                l(1) =   0
                l(2) =   0
                l(3) =   1
                l(4) =   1
                l(5) =   1
                l(6) =   1
                l(7) =   2
                l(8) =   2
                l(9) =   2
               l(10) =   2
     Q(r) pseudized with 0 coefficients 


     PseudoPot. # 2 for I  read from file:
     ./I.rel-pbe-n-rrkjus_psl.0.2.2.UPF
     MD5 check sum: b9024a078df971004264c9bcc9ff756e
     Pseudo is Ultrasoft + core correction, Zval =  7.0
     Generated using "atomic" code by A. Dal Corso v.5.0.2 svn rev. 9415
     Using radial grid of 1247 points,  6 beta functions with: 
                l(1) =   0
                l(2) =   0
                l(3) =   1
                l(4) =   1
                l(5) =   1
                l(6) =   1
     Q(r) pseudized with 0 coefficients 


     PseudoPot. # 3 for Cs read from file:
     ./Cs.rel-pbe-spn-rrkjus_psl.1.0.0.UPF
     MD5 check sum: 92f45d5fced885c1284380ec35df8368
     Pseudo is Ultrasoft + core correction, Zval =  9.0
     Generated using "atomic" code by A. Dal Corso v.6.4.1
     Using radial grid of 1251 points, 15 beta functions with: 
                l(1) =   0
                l(2) =   0
                l(3) =   0
                l(4) =   1
                l(5) =   1
                l(6) =   1
                l(7) =   1
                l(8) =   2
                l(9) =   2
               l(10) =   2
               l(11) =   2
               l(12) =   3
               l(13) =   3
               l(14) =   3
               l(15) =   3
     Q(r) pseudized with 0 coefficients 


     atomic species   valence    mass     pseudopotential
        Sn            14.00   118.70000     Sn( 1.00)
        I              7.00   126.90000     I ( 1.00)
        Cs             9.00   132.90000     Cs( 1.00)

      2 Sym. Ops. (no inversion) found ( 1 have fractional translation)


                                    s                        frac. trans.

      isym =  1     identity                                     

 cryst.   s( 1) = (     1          0          0      )
                  (     0          1          0      )
                  (     0          0          1      )

 cart.    s( 1) = (  1.0000000 -0.0000000  0.0000000 )
                  (  0.0000000  1.0000000  0.0000000 )
                  (  0.0000000  0.0000000  1.0000000 )


      isym =  2     inv. 180 deg rotation - cart. axis [0,0,1]   

 cryst.   s( 2) = (     1          0          0      )    f =(  0.0000000 )
                  (     0          1          0      )       (  0.0000000 )
                  (     0          0         -1      )       ( -0.5000000 )

 cart.    s( 2) = (  1.0000000 -0.0000000  0.0000000 )    f =(  0.0000000 )
                  (  0.0000000  1.0000000  0.0000000 )       (  0.0000000 )
                  (  0.0000000  0.0000000 -1.0000000 )       ( -0.7148641 )


   Cartesian axes

     site n.     atom                  positions (alat units)
         1           Cs  tau(   1) = (   0.0000014   0.5773505   1.1493113  )
         2           Cs  tau(   2) = (   0.5000015   0.2886748   0.2804169  )
         3           Cs  tau(   3) = (   0.0000014   0.5773505   0.9952810  )
         4           Cs  tau(   4) = (   0.5000015   0.2886748   0.4344472  )
         5           Sn  tau(   5) = (   0.0000014   0.5773505   0.5517950  )
         6           Sn  tau(   6) = (   0.5000015   0.2886748   0.8779332  )
         7           Sn  tau(   7) = (   0.0000014   0.5773505   0.1630691  )
         8           Sn  tau(   8) = (   0.5000015   0.2886748   1.2666591  )
         9           I   tau(   9) = (   0.2993107   0.0619182   0.8102198  )
        10           I   tau(  10) = (   0.7967228   0.2282514   0.8102198  )
        11           I   tau(  11) = (   0.4039694   0.5758557   0.8102198  )
        12           I   tau(  12) = (  -0.2006868   0.8041071   0.6195084  )
        13           I   tau(  13) = (  -0.0960315   0.2901696   0.6195084  )
        14           I   tau(  14) = (   0.2967241   0.6377739   0.6195084  )
        15           I   tau(  15) = (   0.4039694   0.5758557   1.3343725  )
        16           I   tau(  16) = (   0.2993107   0.0619182   1.3343725  )
        17           I   tau(  17) = (   0.7967228   0.2282514   1.3343725  )
        18           I   tau(  18) = (   0.2967241   0.6377739   0.0953557  )
        19           I   tau(  19) = (  -0.2006868   0.8041071   0.0953557  )
        20           I   tau(  20) = (  -0.0960315   0.2901696   0.0953557  )

   Crystallographic axes

     site n.     atom                  positions (cryst. coord.)
         1           Cs  tau(   1) = (  0.3333330  0.6666670  0.8038670  )
         2           Cs  tau(   2) = (  0.6666670  0.3333330  0.1961330  )
         3           Cs  tau(   3) = (  0.3333330  0.6666670  0.6961330  )
         4           Cs  tau(   4) = (  0.6666670  0.3333330  0.3038670  )
         5           Sn  tau(   5) = (  0.3333330  0.6666670  0.3859440  )
         6           Sn  tau(   6) = (  0.6666670  0.3333330  0.6140560  )
         7           Sn  tau(   7) = (  0.3333330  0.6666670  0.1140560  )
         8           Sn  tau(   8) = (  0.6666670  0.3333330  0.8859440  )
         9           I   tau(   9) = (  0.3350590  0.0714970  0.5666950  )
        10           I   tau(  10) = (  0.9285030  0.2635620  0.5666950  )
        11           I   tau(  11) = (  0.7364380  0.6649410  0.5666950  )
        12           I   tau(  12) = (  0.2635620  0.9285030  0.4333050  )
        13           I   tau(  13) = (  0.0714970  0.3350590  0.4333050  )
        14           I   tau(  14) = (  0.6649410  0.7364380  0.4333050  )
        15           I   tau(  15) = (  0.7364380  0.6649410  0.9333050  )
        16           I   tau(  16) = (  0.3350590  0.0714970  0.9333050  )
        17           I   tau(  17) = (  0.9285030  0.2635620  0.9333050  )
        18           I   tau(  18) = (  0.6649410  0.7364380  0.0666950  )
        19           I   tau(  19) = (  0.2635620  0.9285030  0.0666950  )
        20           I   tau(  20) = (  0.0714970  0.3350590  0.0666950  )

     number of k points=    20
                       cart. coord. in units 2pi/alat
        k(    1) = (   0.0000000   0.0000000   0.0000000), wk =   0.0312500
        k(    2) = (   0.0000000   0.0000000  -0.3497168), wk =   0.0312500
        k(    3) = (   0.0000000   0.2886752   0.0000000), wk =   0.0625000
        k(    4) = (   0.0000000   0.2886752  -0.3497168), wk =   0.0625000
        k(    5) = (   0.0000000  -0.5773503   0.0000000), wk =   0.0312500
        k(    6) = (   0.0000000  -0.5773503  -0.3497168), wk =   0.0312500
        k(    7) = (   0.2500000   0.1443368   0.0000000), wk =   0.0625000
        k(    8) = (   0.2500000   0.1443368  -0.3497168), wk =   0.0625000
        k(    9) = (   0.2500000   0.4330119   0.0000000), wk =   0.0625000
        k(   10) = (   0.2500000   0.4330119  -0.3497168), wk =   0.0625000
        k(   11) = (   0.2500000  -0.4330136   0.0000000), wk =   0.0625000
        k(   12) = (   0.2500000  -0.4330136  -0.3497168), wk =   0.0625000
        k(   13) = (   0.2500000  -0.1443384   0.0000000), wk =   0.0625000
        k(   14) = (   0.2500000  -0.1443384  -0.3497168), wk =   0.0625000
        k(   15) = (  -0.5000000  -0.2886735   0.0000000), wk =   0.0312500
        k(   16) = (  -0.5000000  -0.2886735  -0.3497168), wk =   0.0312500
        k(   17) = (  -0.5000000   0.0000017   0.0000000), wk =   0.0625000
        k(   18) = (  -0.5000000   0.0000017  -0.3497168), wk =   0.0625000
        k(   19) = (  -0.5000000  -0.8660239   0.0000000), wk =   0.0312500
        k(   20) = (  -0.5000000  -0.8660239  -0.3497168), wk =   0.0312500

                       cryst. coord.
        k(    1) = (   0.0000000   0.0000000   0.0000000), wk =   0.0312500
        k(    2) = (   0.0000000   0.0000000  -0.5000000), wk =   0.0312500
        k(    3) = (   0.0000000   0.2500000   0.0000000), wk =   0.0625000
        k(    4) = (   0.0000000   0.2500000  -0.5000000), wk =   0.0625000
        k(    5) = (   0.0000000  -0.5000000   0.0000000), wk =   0.0312500
        k(    6) = (   0.0000000  -0.5000000  -0.5000000), wk =   0.0312500
        k(    7) = (   0.2500000  -0.0000000   0.0000000), wk =   0.0625000
        k(    8) = (   0.2500000  -0.0000000  -0.5000000), wk =   0.0625000
        k(    9) = (   0.2500000   0.2500000   0.0000000), wk =   0.0625000
        k(   10) = (   0.2500000   0.2500000  -0.5000000), wk =   0.0625000
        k(   11) = (   0.2500000  -0.5000000   0.0000000), wk =   0.0625000
        k(   12) = (   0.2500000  -0.5000000  -0.5000000), wk =   0.0625000
        k(   13) = (   0.2500000  -0.2500000   0.0000000), wk =   0.0625000
        k(   14) = (   0.2500000  -0.2500000  -0.5000000), wk =   0.0625000
        k(   15) = (  -0.5000000   0.0000000   0.0000000), wk =   0.0312500
        k(   16) = (  -0.5000000   0.0000000  -0.5000000), wk =   0.0312500
        k(   17) = (  -0.5000000   0.2500000   0.0000000), wk =   0.0625000
        k(   18) = (  -0.5000000   0.2500000  -0.5000000), wk =   0.0625000
        k(   19) = (  -0.5000000  -0.5000000   0.0000000), wk =   0.0312500
        k(   20) = (  -0.5000000  -0.5000000  -0.5000000), wk =   0.0312500

     Dense  grid:   630597 G-vectors     FFT dimensions: ( 100, 100, 144)

     Dynamical RAM for                 wfc:      13.23 MB

     Dynamical RAM for     wfc (w. buffer):     277.81 MB

     Dynamical RAM for           str. fact:       0.90 MB

     Dynamical RAM for           local pot:       0.00 MB

     Dynamical RAM for          nlocal pot:      20.90 MB

     Dynamical RAM for                qrad:     190.63 MB

     Dynamical RAM for          rho,v,vnew:       8.19 MB

     Dynamical RAM for               rhoin:       2.73 MB

     Dynamical RAM for            rho*nmix:      19.24 MB

     Dynamical RAM for           G-vectors:       1.28 MB

     Dynamical RAM for          h,s,v(r/c):       1.42 MB

     Dynamical RAM for          <psi|beta>:       2.99 MB

     Dynamical RAM for                 psi:      52.92 MB

     Dynamical RAM for                hpsi:      52.92 MB

     Dynamical RAM for                spsi:      52.92 MB

     Dynamical RAM for      wfcinit/wfcrot:      24.44 MB

     Dynamical RAM for           addusdens:     617.85 MB

     Dynamical RAM for          addusforce:     632.76 MB

     Dynamical RAM for         addusstress:     623.27 MB

     Estimated static dynamical RAM per process >     525.92 MB

     Estimated max dynamical RAM per process >       1.13 GB

     Estimated total dynamical RAM >      36.21 GB

     Initial potential from superposition of free atoms

     starting charge  175.83607, renormalised to  176.00000
     Starting wfcs are  208 randomized atomic wfcs

     total cpu time spent up to now is       35.2 secs

     Self-consistent Calculation

     iteration #  1     ecut=    80.00 Ry     beta= 0.60
     Davidson diagonalization with overlap
     ethr =  1.00E-02,  avg # of iterations =  7.0

     negative rho (up, down):  3.620E+03 0.000E+00

     total cpu time spent up to now is      144.2 secs

     total energy              = 6451525.00528945 Ry
     Harris-Foulkes estimate   =   -1849.47209864 Ry
     estimated scf accuracy    < 7686090.17554926 Ry

     iteration #  2     ecut=    80.00 Ry     beta= 0.60
     Davidson diagonalization with overlap
     c_bands:  1 eigenvalues not converged
     ethr =  1.00E-02,  avg # of iterations = 20.0

     negative rho (up, down):  1.333E+03 0.000E+00

     total cpu time spent up to now is      493.4 secs

     total energy              =-4095337.49247148 Ry
     Harris-Foulkes estimate   =***************** Ry
     estimated scf accuracy    <22283066.36364444 Ry

     iteration #  3     ecut=    80.00 Ry     beta= 0.60
     Davidson diagonalization with overlap
     ethr =  1.00E-02,  avg # of iterations = 14.3

     negative rho (up, down):  5.288E+03 0.000E+00

     total cpu time spent up to now is      651.5 secs

     total energy              = 9035610.64259493 Ry
     Harris-Foulkes estimate   =-4095939.76443677 Ry
     estimated scf accuracy    <13482059.62640440 Ry

     iteration #  4     ecut=    80.00 Ry     beta= 0.60
     Davidson diagonalization with overlap
     c_bands:  4 eigenvalues not converged
     c_bands:  3 eigenvalues not converged
     c_bands:  1 eigenvalues not converged
     c_bands:  3 eigenvalues not converged
     c_bands:  1 eigenvalues not converged
     c_bands:  2 eigenvalues not converged
     c_bands:  3 eigenvalues not converged
     c_bands:  2 eigenvalues not converged
     c_bands:  3 eigenvalues not converged
     c_bands:  1 eigenvalues not converged
     ethr =  1.00E-02,  avg # of iterations = 19.9

     negative rho (up, down):  5.296E+03 0.000E+00

     total cpu time spent up to now is      958.8 secs

     total energy              =***************** Ry
     Harris-Foulkes estimate   =***************** Ry
     estimated scf accuracy    <29112294.55891163 Ry

     iteration #  5     ecut=    80.00 Ry     beta= 0.60
     Davidson diagonalization with overlap
     ethr =  1.00E-02,  avg # of iterations =  8.3

     negative rho (up, down):  5.872E+02 0.000E+00

     total cpu time spent up to now is     1037.2 secs

     total energy              =-1667599.75886063 Ry
     Harris-Foulkes estimate   =***************** Ry
     estimated scf accuracy    <29153175.24970248 Ry

     iteration #  6     ecut=    80.00 Ry     beta= 0.60
     Davidson diagonalization with overlap
     ethr =  1.00E-02,  avg # of iterations = 37.1

     negative rho (up, down):  5.940E+02 0.000E+00

     total cpu time spent up to now is     1683.6 secs

     total energy              =-1706194.81041714 Ry
     Harris-Foulkes estimate   =-1684772.04179978 Ry
     estimated scf accuracy    <10121711.22121100 Ry

     iteration #  7     ecut=    80.00 Ry     beta= 0.60
     Davidson diagonalization with overlap
     ethr =  1.00E-02,  avg # of iterations =  1.0

     negative rho (up, down):  5.953E+02 0.000E+00

     total cpu time spent up to now is     1746.0 secs

     total energy              =-1710121.53786607 Ry
     Harris-Foulkes estimate   =-1706195.08321370 Ry
     estimated scf accuracy    <10143161.91591730 Ry

     iteration #  8     ecut=    80.00 Ry     beta= 0.60
     Davidson diagonalization with overlap
     ethr =  1.00E-02,  avg # of iterations =  2.0

     negative rho (up, down):  6.090E+02 0.000E+00

     total cpu time spent up to now is     1810.8 secs

     total energy              =-1755066.78053188 Ry
     Harris-Foulkes estimate   =-1710121.84123280 Ry
     estimated scf accuracy    <10147276.58204317 Ry

     iteration #  9     ecut=    80.00 Ry     beta= 0.60
     Davidson diagonalization with overlap
     ethr =  1.00E-02,  avg # of iterations =  5.9

     negative rho (up, down):  6.298E+02 0.000E+00

     total cpu time spent up to now is     1884.8 secs

     total energy              =-1820982.58418272 Ry
     Harris-Foulkes estimate   =-1755067.92656095 Ry
     estimated scf accuracy    <10192831.12901837 Ry

     iteration # 10     ecut=    80.00 Ry     beta= 0.60
     Davidson diagonalization with overlap
     ethr =  1.00E-02,  avg # of iterations =  6.4

     negative rho (up, down):  4.960E+02 0.000E+00

     total cpu time spent up to now is     1962.1 secs

     total energy              =-1384711.03142520 Ry
     Harris-Foulkes estimate   =-1820984.56819733 Ry
     estimated scf accuracy    <10259545.83843262 Ry

     iteration # 11     ecut=    80.00 Ry     beta= 0.60
     Davidson diagonalization with overlap
     ethr =  1.00E-02,  avg # of iterations = 13.5

     negative rho (up, down):  9.729E+02 0.000E+00

     total cpu time spent up to now is     2085.9 secs

     total energy              =-2922415.51385682 Ry
     Harris-Foulkes estimate   =-1384787.32542278 Ry
     estimated scf accuracy    < 9816671.44538540 Ry

     iteration # 12     ecut=    80.00 Ry     beta= 0.60
     Davidson diagonalization with overlap
     c_bands:  2 eigenvalues not converged
     c_bands:  1 eigenvalues not converged
     ethr =  1.00E-02,  avg # of iterations = 52.6

     negative rho (up, down):  6.491E+03 0.000E+00

     total cpu time spent up to now is     2537.7 secs

     total energy              = 8443491.11514180 Ry
     Harris-Foulkes estimate   =-2924568.45190101 Ry
     estimated scf accuracy    <11421420.96303093 Ry

     iteration # 13     ecut=    80.00 Ry     beta= 0.60
     Davidson diagonalization with overlap
     c_bands:  2 eigenvalues not converged
     c_bands:  1 eigenvalues not converged
     c_bands:  2 eigenvalues not converged
     c_bands:  1 eigenvalues not converged
     c_bands:  1 eigenvalues not converged
     c_bands:  3 eigenvalues not converged
     c_bands:  2 eigenvalues not converged
     ethr =  1.00E-02,  avg # of iterations = 18.4

     negative rho (up, down):  1.479E+03 0.000E+00

     total cpu time spent up to now is     2892.0 secs

     total energy              =-4464553.57512874 Ry
     Harris-Foulkes estimate   =***************** Ry
     estimated scf accuracy    <35188478.18001726 Ry

     iteration # 14     ecut=    80.00 Ry     beta= 0.60
     Davidson diagonalization with overlap
     c_bands:  1 eigenvalues not converged
     c_bands:  4 eigenvalues not converged
     c_bands:  3 eigenvalues not converged
     c_bands:  3 eigenvalues not converged
     c_bands:  2 eigenvalues not converged
     c_bands:  2 eigenvalues not converged
     c_bands:  4 eigenvalues not converged
     c_bands:  4 eigenvalues not converged
     c_bands:  2 eigenvalues not converged
     c_bands:  2 eigenvalues not converged
     c_bands:  3 eigenvalues not converged
     ethr =  1.00E-02,  avg # of iterations = 19.2

     negative rho (up, down):  4.304E+02 0.000E+00

     total cpu time spent up to now is     3103.9 secs

     total energy              =-1085012.01156678 Ry
     Harris-Foulkes estimate   =-4466161.94001374 Ry
     estimated scf accuracy    <13842462.50825295 Ry

     iteration # 15     ecut=    80.00 Ry     beta= 0.60
     Davidson diagonalization with overlap
     ethr =  1.00E-02,  avg # of iterations = 22.0

     negative rho (up, down):  4.076E+02 0.000E+00

     total cpu time spent up to now is     3561.8 secs

     total energy              = -977126.24387688 Ry
     Harris-Foulkes estimate   =-1096668.41748248 Ry
     estimated scf accuracy    <10313110.83029360 Ry

     iteration # 16     ecut=    80.00 Ry     beta= 0.60
     Davidson diagonalization with overlap
     ethr =  1.00E-02,  avg # of iterations = 11.2

     negative rho (up, down):  6.323E+02 0.000E+00

     total cpu time spent up to now is     3670.6 secs

     WARNING: integrated charge=   175.99959984, expected=   176.00000000

     total energy              =-1746399.51160356 Ry
     Harris-Foulkes estimate   = -977160.07614334 Ry
     estimated scf accuracy    <10186398.50245025 Ry

     iteration # 17     ecut=    80.00 Ry     beta= 0.60
     Davidson diagonalization with overlap
     c_bands:  2 eigenvalues not converged
     ethr =  1.00E-02,  avg # of iterations =  8.8

     negative rho (up, down):  6.892E+02 0.000E+00

     total cpu time spent up to now is     3773.3 secs

     WARNING: integrated charge=   175.99967276, expected=   176.00000000

     total energy              =-1923542.05919100 Ry
     Harris-Foulkes estimate   =-1747168.71032043 Ry
     estimated scf accuracy    <10988915.55509142 Ry

     iteration # 18     ecut=    80.00 Ry     beta= 0.60
     Davidson diagonalization with overlap
     c_bands:  2 eigenvalues not converged
     c_bands:  5 eigenvalues not converged
     ethr =  1.00E-02,  avg # of iterations = 24.0

     negative rho (up, down):  1.026E+03 0.000E+00

     total cpu time spent up to now is     3961.4 secs

     WARNING: integrated charge=   175.98804223, expected=   176.00000000

     total energy              =-3004433.03213963 Ry
     Harris-Foulkes estimate   =-1923624.00220151 Ry
     estimated scf accuracy    <11180324.19874648 Ry

     iteration # 19     ecut=    80.00 Ry     beta= 0.60
     Davidson diagonalization with overlap
     ethr =  1.00E-02,  avg # of iterations = 27.6

     negative rho (up, down):  1.045E+03 0.000E+00

     total cpu time spent up to now is     4252.2 secs

     WARNING: integrated charge=   175.98563796, expected=   176.00000000

     total energy              =-3066081.00122713 Ry
     Harris-Foulkes estimate   =-3006654.69375834 Ry
     estimated scf accuracy    <12323965.52847934 Ry

     iteration # 20     ecut=    80.00 Ry     beta= 0.60
     Davidson diagonalization with overlap
     ethr =  1.00E-02,  avg # of iterations =  4.5

     negative rho (up, down):  3.952E+02 0.000E+00

     total cpu time spent up to now is     4325.0 secs

     WARNING: integrated charge=   175.98516082, expected=   176.00000000

     total energy              = -998857.50293928 Ry
     Harris-Foulkes estimate   =-3066082.51456440 Ry
     estimated scf accuracy    <12383596.01105567 Ry

     iteration # 21     ecut=    80.00 Ry     beta= 0.60
     Davidson diagonalization with overlap
     ethr =  1.00E-02,  avg # of iterations = 13.0

     negative rho (up, down):  6.551E+03 0.000E+00

     total cpu time spent up to now is     4528.2 secs

     WARNING: integrated charge=   175.98202751, expected=   176.00000000

     total energy              = 9173449.44205889 Ry
     Harris-Foulkes estimate   =-1004007.34005054 Ry
     estimated scf accuracy    <10216224.73825707 Ry

     iteration # 22     ecut=    80.00 Ry     beta= 0.60
     Davidson diagonalization with overlap
     c_bands:  2 eigenvalues not converged
     c_bands:  1 eigenvalues not converged
     ethr =  1.00E-02,  avg # of iterations = 17.9

     negative rho (up, down):  2.397E+03 0.000E+00

     total cpu time spent up to now is     4883.9 secs

     WARNING: integrated charge=   175.99160879, expected=   176.00000000

     total energy              =-7813201.79986239 Ry
     Harris-Foulkes estimate   =***************** Ry
     estimated scf accuracy    <34919710.67445002 Ry

     iteration # 23     ecut=    80.00 Ry     beta= 0.60
     Davidson diagonalization with overlap
     c_bands:  1 eigenvalues not converged
     ethr =  1.00E-02,  avg # of iterations = 16.2

     negative rho (up, down):  3.436E+02 0.000E+00

     total cpu time spent up to now is     5045.7 secs

     WARNING: integrated charge=   175.94161992, expected=   176.00000000

     total energy              = -799820.17610663 Ry
     Harris-Foulkes estimate   =-7813773.26080815 Ry
     estimated scf accuracy    <16407951.39193973 Ry

     iteration # 24     ecut=    80.00 Ry     beta= 0.60
     Davidson diagonalization with overlap
     c_bands:  1 eigenvalues not converged
     ethr =  1.00E-02,  avg # of iterations = 29.6

     negative rho (up, down):  2.569E+02 0.000E+00

     total cpu time spent up to now is     5608.5 secs

     WARNING: integrated charge=   175.99391935, expected=   176.00000000

     total energy              =  268131.34320271 Ry
     Harris-Foulkes estimate   = -820206.04856754 Ry
     estimated scf accuracy    < 9231536.51819354 Ry

     iteration # 25     ecut=    80.00 Ry     beta= 0.60
     Davidson diagonalization with overlap
     ethr =  1.00E-02,  avg # of iterations = 17.0

     negative rho (up, down):  2.488E+02 0.000E+00

     total cpu time spent up to now is     5898.6 secs

     WARNING: integrated charge=   175.98831702, expected=   176.00000000

     total energy              = -193061.15997125 Ry
     Harris-Foulkes estimate   = -255065.63551578 Ry
     estimated scf accuracy    < 9034259.51575646 Ry

     iteration # 26     ecut=    80.00 Ry     beta= 0.60
     Davidson diagonalization with overlap
     c_bands:  5 eigenvalues not converged
     ethr =  1.00E-02,  avg # of iterations = 18.7

     negative rho (up, down):  3.094E+02 0.000E+00

     total cpu time spent up to now is     6111.5 secs

     WARNING: integrated charge=   175.98627112, expected=   176.00000000

     total energy              = -687484.87525964 Ry
     Harris-Foulkes estimate   = -196822.37352111 Ry
     estimated scf accuracy    < 8749339.38007811 Ry

     iteration # 27     ecut=    80.00 Ry     beta= 0.60
     Davidson diagonalization with overlap
     ethr =  1.00E-02,  avg # of iterations = 10.8

     negative rho (up, down):  4.088E+02 0.000E+00

     total cpu time spent up to now is     6212.2 secs

     WARNING: integrated charge=   176.00433871, expected=   176.00000000

     total energy              = 1040707.86491983 Ry
     Harris-Foulkes estimate   = -700581.98798723 Ry
     estimated scf accuracy    < 9876953.71871140 Ry

     iteration # 28     ecut=    80.00 Ry     beta= 0.60
     Davidson diagonalization with overlap
     ethr =  1.00E-02,  avg # of iterations = 16.1

     negative rho (up, down):  3.880E+02 0.000E+00

     total cpu time spent up to now is     6372.5 secs

     WARNING: integrated charge=   175.99903836, expected=   176.00000000

     total energy              =  907158.22764331 Ry
     Harris-Foulkes estimate   =-1024744.69950964 Ry
     estimated scf accuracy    < 9445068.61521716 Ry

     iteration # 29     ecut=    80.00 Ry     beta= 0.60
     Davidson diagonalization with overlap
     c_bands:  4 eigenvalues not converged
     c_bands:  1 eigenvalues not converged
     ethr =  1.00E-02,  avg # of iterations = 19.6

     negative rho (up, down):  2.495E+02 0.000E+00

     total cpu time spent up to now is     6682.0 secs

     WARNING: integrated charge=   176.00036249, expected=   176.00000000

     total energy              =  127646.73832654 Ry
     Harris-Foulkes estimate   = -961457.46833210 Ry
     estimated scf accuracy    <10166452.53825692 Ry

     iteration # 30     ecut=    80.00 Ry     beta= 0.60
     Davidson diagonalization with overlap
     ethr =  1.00E-02,  avg # of iterations = 14.2

     negative rho (up, down):  3.295E+02 0.000E+00

     total cpu time spent up to now is     6972.1 secs

     WARNING: integrated charge=   176.00173299, expected=   176.00000000

     total energy              =  606475.07969933 Ry
     Harris-Foulkes estimate   =  -97470.40246216 Ry
     estimated scf accuracy    < 6686392.91194194 Ry

     iteration # 31     ecut=    80.00 Ry     beta= 0.60
     Davidson diagonalization with overlap
     c_bands:  3 eigenvalues not converged
     c_bands:  4 eigenvalues not converged
     c_bands:  3 eigenvalues not converged
     c_bands:  3 eigenvalues not converged
     c_bands:  5 eigenvalues not converged
     c_bands:  5 eigenvalues not converged
     c_bands:  2 eigenvalues not converged
     c_bands:  5 eigenvalues not converged
     c_bands:  5 eigenvalues not converged
     c_bands:  4 eigenvalues not converged
     ethr =  1.00E-02,  avg # of iterations = 18.4

     negative rho (up, down):  1.066E+03 0.000E+00

     total cpu time spent up to now is     7132.0 secs

     WARNING: integrated charge=   176.00296906, expected=   176.00000000

     total energy              = 2799244.20398900 Ry
     Harris-Foulkes estimate   = -752530.57989845 Ry
     estimated scf accuracy    < 9935485.66588904 Ry

     iteration # 32     ecut=    80.00 Ry     beta= 0.60
     Davidson diagonalization with overlap
     c_bands:  1 eigenvalues not converged
     c_bands:  3 eigenvalues not converged
     c_bands:  3 eigenvalues not converged
     c_bands:  5 eigenvalues not converged
     c_bands:  5 eigenvalues not converged
     c_bands:  4 eigenvalues not converged
     c_bands:  4 eigenvalues not converged
     ethr =  1.00E-02,  avg # of iterations = 27.8

     negative rho (up, down):  7.544E+02 0.000E+00

     total cpu time spent up to now is     7529.4 secs

     WARNING: integrated charge=   176.00927560, expected=   176.00000000

     total energy              =-2064909.02514460 Ry
     Harris-Foulkes estimate   =-3147323.65032341 Ry
     estimated scf accuracy    <11670102.10752643 Ry

     iteration # 33     ecut=    80.00 Ry     beta= 0.60
     Davidson diagonalization with overlap
     ethr =  1.00E-02,  avg # of iterations = 18.1

     negative rho (up, down):  7.054E+02 0.000E+00

     total cpu time spent up to now is     7811.6 secs

     WARNING: integrated charge=   176.00321090, expected=   176.00000000

     total energy              =-1922331.41831800 Ry
     Harris-Foulkes estimate   =-2065715.63890575 Ry
     estimated scf accuracy    <10552052.53586032 Ry

     iteration # 34     ecut=    80.00 Ry     beta= 0.60
     Davidson diagonalization with overlap
     ethr =  1.00E-02,  avg # of iterations =  6.5

     negative rho (up, down):  5.693E+02 0.000E+00

     total cpu time spent up to now is     7937.3 secs

     WARNING: integrated charge=   176.00137730, expected=   176.00000000

     total energy              =-1459732.14765949 Ry
     Harris-Foulkes estimate   =-1922650.54669870 Ry
     estimated scf accuracy    <10407612.14452895 Ry

     iteration # 35     ecut=    80.00 Ry     beta= 0.60
     Davidson diagonalization with overlap
     c_bands:  1 eigenvalues not converged
     ethr =  1.00E-02,  avg # of iterations = 18.0

     negative rho (up, down):  5.449E+02 0.000E+00

     total cpu time spent up to now is     8247.1 secs

     WARNING: integrated charge=   175.99965503, expected=   176.00000000

     total energy              =-1364676.02140006 Ry
     Harris-Foulkes estimate   =-1460442.59060473 Ry
     estimated scf accuracy    < 9901625.89401338 Ry

     iteration # 36     ecut=    80.00 Ry     beta= 0.60
     Davidson diagonalization with overlap
     ethr =  1.00E-02,  avg # of iterations =  7.0

     negative rho (up, down):  5.142E+02 0.000E+00

     total cpu time spent up to now is     8374.9 secs

     WARNING: integrated charge=   175.99916622, expected=   176.00000000

     total energy              =-1268092.92771720 Ry
     Harris-Foulkes estimate   =-1364747.20263600 Ry
     estimated scf accuracy    < 9803756.03567798 Ry

     iteration # 37     ecut=    80.00 Ry     beta= 0.60
     Davidson diagonalization with overlap
     ethr =  1.00E-02,  avg # of iterations =  8.9

     negative rho (up, down):  3.079E+02 0.000E+00

     total cpu time spent up to now is     8486.9 secs

     WARNING: integrated charge=   175.99831605, expected=   176.00000000

     total energy              = -533173.24890135 Ry
     Harris-Foulkes estimate   =-1268183.10828849 Ry
     estimated scf accuracy    < 9703839.84045928 Ry

     iteration # 38     ecut=    80.00 Ry     beta= 0.60
     Davidson diagonalization with overlap
     ethr =  1.00E-02,  avg # of iterations = 12.6

     negative rho (up, down):  3.546E+02 0.000E+00

     total cpu time spent up to now is     8694.9 secs

     WARNING: integrated charge=   175.99624067, expected=   176.00000000

     total energy              =  661775.98512875 Ry
     Harris-Foulkes estimate   = -534584.06034433 Ry
     estimated scf accuracy    < 8902797.51197647 Ry

     iteration # 39     ecut=    80.00 Ry     beta= 0.60
     Davidson diagonalization with overlap
     c_bands:  1 eigenvalues not converged
     c_bands:  1 eigenvalues not converged
     c_bands:  1 eigenvalues not converged
     c_bands:  2 eigenvalues not converged
     c_bands:  1 eigenvalues not converged
     c_bands:  1 eigenvalues not converged
     c_bands:  1 eigenvalues not converged
     c_bands:  1 eigenvalues not converged
     c_bands:  1 eigenvalues not converged
     ethr =  1.00E-02,  avg # of iterations = 18.1

     negative rho (up, down):  7.593E+02 0.000E+00

     total cpu time spent up to now is     9046.1 secs

     WARNING: integrated charge=   176.00547644, expected=   176.00000000

     total energy              = 1944137.54766248 Ry
     Harris-Foulkes estimate   = -681358.99905724 Ry
     estimated scf accuracy    < 9869893.50604532 Ry

     iteration # 40     ecut=    80.00 Ry     beta= 0.60
     Davidson diagonalization with overlap
     ethr =  1.00E-02,  avg # of iterations = 34.9

     negative rho (up, down):  6.583E+02 0.000E+00

     total cpu time spent up to now is     9548.4 secs

     WARNING: integrated charge=   176.00279220, expected=   176.00000000

     total energy              =-1741569.70851069 Ry
     Harris-Foulkes estimate   =-2047247.87200640 Ry
     estimated scf accuracy    <10533153.39120611 Ry

     iteration # 41     ecut=    80.00 Ry     beta= 0.60
     Davidson diagonalization with overlap
     c_bands:  1 eigenvalues not converged
     c_bands:  1 eigenvalues not converged
     c_bands:  1 eigenvalues not converged
     c_bands:  2 eigenvalues not converged
     c_bands:  2 eigenvalues not converged
     c_bands:  1 eigenvalues not converged
     c_bands:  1 eigenvalues not converged
     c_bands:  1 eigenvalues not converged
     c_bands:  1 eigenvalues not converged
     c_bands:  1 eigenvalues not converged
     c_bands:  2 eigenvalues not converged
     ethr =  1.00E-02,  avg # of iterations = 20.0

     negative rho (up, down):  4.373E+02 0.000E+00

     total cpu time spent up to now is     9838.5 secs

     WARNING: integrated charge=   176.00078547, expected=   176.00000000

     total energy              =-1019946.81606635 Ry
     Harris-Foulkes estimate   =-1741848.62637559 Ry
     estimated scf accuracy    <10200724.66506763 Ry

     iteration # 42     ecut=    80.00 Ry     beta= 0.60
     Davidson diagonalization with overlap
     ethr =  1.00E-02,  avg # of iterations = 13.2

     negative rho (up, down):  3.390E+02 0.000E+00

     total cpu time spent up to now is    10047.0 secs

     WARNING: integrated charge=   176.00061051, expected=   176.00000000

     total energy              = -683324.22543041 Ry
     Harris-Foulkes estimate   =-1020607.97280464 Ry
     estimated scf accuracy    < 9447600.13102023 Ry

     iteration # 43     ecut=    80.00 Ry     beta= 0.60
     Davidson diagonalization with overlap
     ethr =  1.00E-02,  avg # of iterations =  6.2

     negative rho (up, down):  2.982E+02 0.000E+00

     total cpu time spent up to now is    10170.9 secs

     WARNING: integrated charge=   176.00019504, expected=   176.00000000

     total energy              = -460171.78829978 Ry
     Harris-Foulkes estimate   = -683547.87470188 Ry
     estimated scf accuracy    < 9084528.44865127 Ry

     iteration # 44     ecut=    80.00 Ry     beta= 0.60
     Davidson diagonalization with overlap
     ethr =  1.00E-02,  avg # of iterations =  6.2

     negative rho (up, down):  2.903E+02 0.000E+00

     total cpu time spent up to now is    10297.3 secs

     WARNING: integrated charge=   176.00026741, expected=   176.00000000

     total energy              = -412936.58804706 Ry
     Harris-Foulkes estimate   = -460478.40531740 Ry
     estimated scf accuracy    < 8809540.03672021 Ry

     iteration # 45     ecut=    80.00 Ry     beta= 0.60
     Davidson diagonalization with overlap
     ethr =  1.00E-02,  avg # of iterations =  6.0

     negative rho (up, down):  2.902E+02 0.000E+00

     total cpu time spent up to now is    10382.0 secs

     WARNING: integrated charge=   176.00026900, expected=   176.00000000

     total energy              = -412371.00127108 Ry
     Harris-Foulkes estimate   = -413008.34860960 Ry
     estimated scf accuracy    < 8740898.15551262 Ry

     iteration # 46     ecut=    80.00 Ry     beta= 0.60
     Davidson diagonalization with overlap
     ethr =  1.00E-02,  avg # of iterations =  1.4

     negative rho (up, down):  2.695E+02 0.000E+00

     total cpu time spent up to now is    10444.8 secs

     WARNING: integrated charge=   175.99941033, expected=   176.00000000

     total energy              =  212486.14110536 Ry
     Harris-Foulkes estimate   = -412371.34880794 Ry
     estimated scf accuracy    < 8740068.07089525 Ry

     iteration # 47     ecut=    80.00 Ry     beta= 0.60
     Davidson diagonalization with overlap
     ethr =  1.00E-02,  avg # of iterations = 15.7

     negative rho (up, down):  3.586E+02 0.000E+00

     total cpu time spent up to now is    10586.4 secs

     WARNING: integrated charge=   175.99996750, expected=   176.00000000

     total energy              =  752976.52031970 Ry
     Harris-Foulkes estimate   = -188814.47490853 Ry
     estimated scf accuracy    < 8905122.19337399 Ry

     iteration # 48     ecut=    80.00 Ry     beta= 0.60
     Davidson diagonalization with overlap
     c_bands:  1 eigenvalues not converged
     ethr =  1.00E-02,  avg # of iterations = 13.9

     negative rho (up, down):  7.794E+02 0.000E+00

     total cpu time spent up to now is    10801.0 secs

     WARNING: integrated charge=   176.00115913, expected=   176.00000000

     total energy              =-1996918.02357359 Ry
     Harris-Foulkes estimate   = -743628.92022715 Ry
     estimated scf accuracy    < 9150754.47479657 Ry

     iteration # 49     ecut=    80.00 Ry     beta= 0.60
     Davidson diagonalization with overlap
     c_bands:  1 eigenvalues not converged
     c_bands:  1 eigenvalues not converged
     c_bands:  2 eigenvalues not converged
     c_bands:  1 eigenvalues not converged
     c_bands:  1 eigenvalues not converged
     c_bands:  2 eigenvalues not converged
     c_bands:  2 eigenvalues not converged
     c_bands:  1 eigenvalues not converged
     c_bands:  2 eigenvalues not converged
     c_bands:  1 eigenvalues not converged
     c_bands:  1 eigenvalues not converged
     c_bands:  2 eigenvalues not converged
     c_bands:  1 eigenvalues not converged
     c_bands:  1 eigenvalues not converged
     c_bands:  1 eigenvalues not converged
     c_bands:  1 eigenvalues not converged
     c_bands:  2 eigenvalues not converged
     ethr =  1.00E-02,  avg # of iterations = 19.6

     negative rho (up, down):  3.104E+02 0.000E+00

     total cpu time spent up to now is    11160.6 secs

     WARNING: integrated charge=   175.99997788, expected=   176.00000000

     total energy              = -467510.12308059 Ry
     Harris-Foulkes estimate   =-2012404.81753300 Ry
     estimated scf accuracy    <10498293.07191115 Ry

     iteration # 50     ecut=    80.00 Ry     beta= 0.60
     Davidson diagonalization with overlap
     ethr =  1.00E-02,  avg # of iterations = 13.8

     negative rho (up, down):  3.711E+02 0.000E+00

     total cpu time spent up to now is    11447.5 secs

     WARNING: integrated charge=   176.00030638, expected=   176.00000000

     total energy              = -769543.58827061 Ry
     Harris-Foulkes estimate   = -471343.59185780 Ry
     estimated scf accuracy    < 8826403.77571186 Ry

     iteration # 51     ecut=    80.00 Ry     beta= 0.60
     Davidson diagonalization with overlap
     ethr =  1.00E-02,  avg # of iterations = 10.0

     negative rho (up, down):  4.783E+02 0.000E+00

     total cpu time spent up to now is    11578.1 secs

     WARNING: integrated charge=   176.00032213, expected=   176.00000000

     total energy              =-1138648.96462037 Ry
     Harris-Foulkes estimate   = -771212.19734438 Ry
     estimated scf accuracy    < 9182607.16624221 Ry

     iteration # 52     ecut=    80.00 Ry     beta= 0.60
     Davidson diagonalization with overlap
     ethr =  1.00E-02,  avg # of iterations = 10.3

     negative rho (up, down):  2.872E+02 0.000E+00

     total cpu time spent up to now is    11788.5 secs

     WARNING: integrated charge=   175.99991722, expected=   176.00000000

     total energy              = -465854.32918950 Ry
     Harris-Foulkes estimate   =-1139453.24621160 Ry
     estimated scf accuracy    < 9572395.39702921 Ry

     iteration # 53     ecut=    80.00 Ry     beta= 0.60
     Davidson diagonalization with overlap
     c_bands:  3 eigenvalues not converged
     c_bands:  3 eigenvalues not converged
     c_bands:  5 eigenvalues not converged
     c_bands:  2 eigenvalues not converged
     c_bands:  3 eigenvalues not converged
     c_bands:  2 eigenvalues not converged
     c_bands:  3 eigenvalues not converged
     c_bands:  3 eigenvalues not converged
     c_bands:  5 eigenvalues not converged
     c_bands:  1 eigenvalues not converged
     c_bands:  1 eigenvalues not converged
     c_bands:  2 eigenvalues not converged
     c_bands:  3 eigenvalues not converged
     c_bands:  4 eigenvalues not converged
     ethr =  1.00E-02,  avg # of iterations = 19.8

     negative rho (up, down):  3.850E+02 0.000E+00

     total cpu time spent up to now is    12134.4 secs

     WARNING: integrated charge=   175.99996814, expected=   176.00000000

     total energy              = -842535.11303643 Ry
     Harris-Foulkes estimate   = -467248.67649546 Ry
     estimated scf accuracy    < 8833406.58840618 Ry

     iteration # 54     ecut=    80.00 Ry     beta= 0.60
     Davidson diagonalization with overlap
     ethr =  1.00E-02,  avg # of iterations =  9.2

     negative rho (up, down):  3.534E+02 0.000E+00

     total cpu time spent up to now is    12336.6 secs

     WARNING: integrated charge=   175.99991076, expected=   176.00000000

     total energy              = -737317.42893100 Ry
     Harris-Foulkes estimate   = -843542.53587366 Ry
     estimated scf accuracy    < 9264793.93978247 Ry

     iteration # 55     ecut=    80.00 Ry     beta= 0.60
     Davidson diagonalization with overlap
     ethr =  1.00E-02,  avg # of iterations =  6.0

     negative rho (up, down):  2.483E+02 0.000E+00

     total cpu time spent up to now is    12465.2 secs

     WARNING: integrated charge=   175.99976846, expected=   176.00000000

     total energy              =  -70155.96387892 Ry
     Harris-Foulkes estimate   = -737590.58503068 Ry
     estimated scf accuracy    < 9150019.76705147 Ry

     iteration # 56     ecut=    80.00 Ry     beta= 0.60
     Davidson diagonalization with overlap
     ethr =  1.00E-02,  avg # of iterations =  9.1

     negative rho (up, down):  4.623E+03 0.000E+00

     total cpu time spent up to now is    12624.3 secs

     WARNING: integrated charge=   175.99698175, expected=   176.00000000

     total energy              = 6247365.95400697 Ry
     Harris-Foulkes estimate   =  -78135.49429686 Ry
     estimated scf accuracy    < 6859635.89237016 Ry

     iteration # 57     ecut=    80.00 Ry     beta= 0.60
     Davidson diagonalization with overlap
     ethr =  1.00E-02,  avg # of iterations = 17.0

     negative rho (up, down):  1.676E+03 0.000E+00

     total cpu time spent up to now is    12975.3 secs

     WARNING: integrated charge=   175.99935744, expected=   176.00000000

     total energy              =-5056792.25645055 Ry
     Harris-Foulkes estimate   =***************** Ry
     estimated scf accuracy    <24991222.32180851 Ry

     iteration # 58     ecut=    80.00 Ry     beta= 0.60
     Davidson diagonalization with overlap
     c_bands:  1 eigenvalues not converged
     c_bands:  1 eigenvalues not converged
     c_bands:  1 eigenvalues not converged
     c_bands:  1 eigenvalues not converged
     c_bands:  1 eigenvalues not converged
     ethr =  1.00E-02,  avg # of iterations = 18.6

     negative rho (up, down):  6.317E+02 0.000E+00

     total cpu time spent up to now is    13158.9 secs

     total energy              =-1730459.02436841 Ry
     Harris-Foulkes estimate   =-5062731.73155500 Ry
     estimated scf accuracy    <14448689.74998586 Ry

     iteration # 59     ecut=    80.00 Ry     beta= 0.60
     Davidson diagonalization with overlap
     ethr =  1.00E-02,  avg # of iterations = 32.5

     negative rho (up, down):  4.175E+02 0.000E+00

     total cpu time spent up to now is    13610.7 secs

     WARNING: integrated charge=   175.99998238, expected=   176.00000000

     total energy              =-1083732.14051620 Ry
     Harris-Foulkes estimate   =-1736975.40952489 Ry
     estimated scf accuracy    <11013606.97141382 Ry

     iteration # 60     ecut=    80.00 Ry     beta= 0.60
     Davidson diagonalization with overlap
     c_bands:  2 eigenvalues not converged
     c_bands:  4 eigenvalues not converged
     c_bands:  4 eigenvalues not converged
     c_bands:  4 eigenvalues not converged
     c_bands:  4 eigenvalues not converged
     c_bands:  4 eigenvalues not converged
     c_bands:  4 eigenvalues not converged
     c_bands:  4 eigenvalues not converged
     c_bands:  5 eigenvalues not converged
     c_bands:  2 eigenvalues not converged
     c_bands:  5 eigenvalues not converged
     c_bands:  4 eigenvalues not converged
     c_bands:  3 eigenvalues not converged
     c_bands:  3 eigenvalues not converged
     c_bands:  4 eigenvalues not converged
     c_bands:  5 eigenvalues not converged
     c_bands:  4 eigenvalues not converged
     c_bands:  4 eigenvalues not converged
     c_bands:  4 eigenvalues not converged
     ethr =  1.00E-02,  avg # of iterations = 20.1

     negative rho (up, down):  2.994E+02 0.000E+00

     total cpu time spent up to now is    13906.5 secs

     WARNING: integrated charge=   175.99991445, expected=   176.00000000

     total energy              = -622114.20735884 Ry
     Harris-Foulkes estimate   =-1084788.21872685 Ry
     estimated scf accuracy    <10309920.30318538 Ry

     iteration # 61     ecut=    80.00 Ry     beta= 0.60
     Davidson diagonalization with overlap
     ethr =  1.00E-02,  avg # of iterations = 12.2

     negative rho (up, down):  2.551E+02 0.000E+00

     total cpu time spent up to now is    14126.8 secs

     WARNING: integrated charge=   175.99994082, expected=   176.00000000

     total energy              = -367099.72329382 Ry
     Harris-Foulkes estimate   = -624408.61427925 Ry
     estimated scf accuracy    < 9814299.82966754 Ry

     iteration # 62     ecut=    80.00 Ry     beta= 0.60
     Davidson diagonalization with overlap
     c_bands:  5 eigenvalues not converged
     c_bands:  5 eigenvalues not converged
     c_bands:  4 eigenvalues not converged
     ethr =  1.00E-02,  avg # of iterations = 20.6

     negative rho (up, down):  2.463E+02 0.000E+00

     total cpu time spent up to now is    14431.3 secs

     WARNING: integrated charge=   175.99994208, expected=   176.00000000

     total energy              = -281865.10428826 Ry
     Harris-Foulkes estimate   = -368769.82452157 Ry
     estimated scf accuracy    < 9467276.53809275 Ry

     iteration # 63     ecut=    80.00 Ry     beta= 0.60
     Davidson diagonalization with overlap
     ethr =  1.00E-02,  avg # of iterations =  8.7

     negative rho (up, down):  2.351E+02 0.000E+00

     total cpu time spent up to now is    14589.1 secs

     WARNING: integrated charge=   175.99993180, expected=   176.00000000

     total energy              =  -26830.16167056 Ry
     Harris-Foulkes estimate   = -282217.86985910 Ry
     estimated scf accuracy    < 9287204.52775812 Ry

     iteration # 64     ecut=    80.00 Ry     beta= 0.60
     Davidson diagonalization with overlap
     ethr =  1.00E-02,  avg # of iterations = 12.9

     negative rho (up, down):  4.708E+02 0.000E+00

     total cpu time spent up to now is    14741.6 secs

     WARNING: integrated charge=   175.99994714, expected=   176.00000000

     total energy              = -603582.18108782 Ry
     Harris-Foulkes estimate   =  -67267.45784562 Ry
     estimated scf accuracy    < 6680435.59194474 Ry

     iteration # 65     ecut=    80.00 Ry     beta= 0.60
     Davidson diagonalization with overlap
     ethr =  1.00E-02,  avg # of iterations = 17.7

     negative rho (up, down):  5.666E+03 0.000E+00

     total cpu time spent up to now is    14972.4 secs

     WARNING: integrated charge=   176.00032408, expected=   176.00000000

     total energy              = 8817577.42845517 Ry
     Harris-Foulkes estimate   =-1270579.42298724 Ry
     estimated scf accuracy    <10502832.25871733 Ry

     iteration # 66     ecut=    80.00 Ry     beta= 0.60
     Davidson diagonalization with overlap
     c_bands:  1 eigenvalues not converged
     c_bands:  1 eigenvalues not converged
     c_bands:  1 eigenvalues not converged
     c_bands:  1 eigenvalues not converged
     c_bands:  1 eigenvalues not converged
     ethr =  1.00E-02,  avg # of iterations = 19.1

     negative rho (up, down):  2.570E+03 0.000E+00

     total cpu time spent up to now is    15325.8 secs

     WARNING: integrated charge=   176.00018253, expected=   176.00000000

     total energy              =-8055339.06162416 Ry
     Harris-Foulkes estimate   =***************** Ry
     estimated scf accuracy    <29223652.76798528 Ry

     iteration # 67     ecut=    80.00 Ry     beta= 0.60
     Davidson diagonalization with overlap
     ethr =  1.00E-02,  avg # of iterations =  6.8

     negative rho (up, down):  2.911E+02 0.000E+00

     total cpu time spent up to now is    15462.0 secs

     WARNING: integrated charge=   176.00002014, expected=   176.00000000

     total energy              = -484715.42209819 Ry
     Harris-Foulkes estimate   =-8056284.60214429 Ry
     estimated scf accuracy    <16649488.04529591 Ry

     iteration # 68     ecut=    80.00 Ry     beta= 0.60
     Davidson diagonalization with overlap
     ethr =  1.00E-02,  avg # of iterations = 34.5

     negative rho (up, down):  4.128E+02 0.000E+00

     total cpu time spent up to now is    15986.5 secs

     total energy              = -959065.39258491 Ry
     Harris-Foulkes estimate   = -504963.12679373 Ry
     estimated scf accuracy    < 8853764.44069127 Ry

     iteration # 69     ecut=    80.00 Ry     beta= 0.60
     Davidson diagonalization with overlap
     ethr =  1.00E-02,  avg # of iterations = 12.0

     negative rho (up, down):  3.411E+02 0.000E+00

     total cpu time spent up to now is    16266.4 secs

     total energy              = -720591.16744887 Ry
     Harris-Foulkes estimate   = -963204.86492604 Ry
     estimated scf accuracy    < 9392660.59898339 Ry

     iteration # 70     ecut=    80.00 Ry     beta= 0.60
     Davidson diagonalization with overlap
     ethr =  1.00E-02,  avg # of iterations = 17.1

     negative rho (up, down):  2.514E+02 0.000E+00

     total cpu time spent up to now is    16557.7 secs

     total energy              =  -35996.86585327 Ry
     Harris-Foulkes estimate   = -720876.72063059 Ry
     estimated scf accuracy    < 9134426.59463713 Ry

     iteration # 71     ecut=    80.00 Ry     beta= 0.60
     Davidson diagonalization with overlap
     ethr =  1.00E-02,  avg # of iterations = 10.2

     negative rho (up, down):  2.646E+02 0.000E+00

     total cpu time spent up to now is    16716.2 secs

     total energy              = -245278.91432630 Ry
     Harris-Foulkes estimate   =  -54572.78678483 Ry
     estimated scf accuracy    < 4386700.21904907 Ry

     iteration # 72     ecut=    80.00 Ry     beta= 0.60
     Davidson diagonalization with overlap
     c_bands:  1 eigenvalues not converged
     ethr =  1.00E-02,  avg # of iterations = 16.5

     negative rho (up, down):  4.162E+02 0.000E+00

     total cpu time spent up to now is    16921.6 secs

     total energy              = -955966.36972086 Ry
     Harris-Foulkes estimate   = -342008.63621281 Ry
     estimated scf accuracy    < 8646719.26240682 Ry

     iteration # 73     ecut=    80.00 Ry     beta= 0.60
     Davidson diagonalization with overlap
     c_bands:  2 eigenvalues not converged
     c_bands:  5 eigenvalues not converged
     c_bands:  2 eigenvalues not converged
     ethr =  1.00E-02,  avg # of iterations = 18.0

     negative rho (up, down):  3.445E+02 0.000E+00

     total cpu time spent up to now is    17190.2 secs

     total energy              = -718587.00332612 Ry
     Harris-Foulkes estimate   = -969645.00639798 Ry
     estimated scf accuracy    < 9400007.10114624 Ry

     iteration # 74     ecut=    80.00 Ry     beta= 0.60
     Davidson diagonalization with overlap
     ethr =  1.00E-02,  avg # of iterations = 12.6

     negative rho (up, down):  6.810E+03 0.000E+00

     total cpu time spent up to now is    17333.5 secs

     WARNING: integrated charge=   175.99980786, expected=   176.00000000

     total energy              = 8323078.08432823 Ry
     Harris-Foulkes estimate   = -721076.03420807 Ry
     estimated scf accuracy    < 9133008.02614418 Ry

     iteration # 75     ecut=    80.00 Ry     beta= 0.60
     Davidson diagonalization with overlap
     c_bands:  2 eigenvalues not converged
     c_bands:  2 eigenvalues not converged
     c_bands:  3 eigenvalues not converged
     c_bands:  2 eigenvalues not converged
     c_bands:  3 eigenvalues not converged
     c_bands:  4 eigenvalues not converged
     ethr =  1.00E-02,  avg # of iterations = 39.5

     negative rho (up, down):  2.412E+03 0.000E+00

     total cpu time spent up to now is    17841.1 secs

     WARNING: integrated charge=   175.99995611, expected=   176.00000000

     total energy              =-7822666.74202353 Ry
     Harris-Foulkes estimate   =***************** Ry
     estimated scf accuracy    <37141897.36187913 Ry

     iteration # 76     ecut=    80.00 Ry     beta= 0.60
     Davidson diagonalization with overlap
     c_bands:  2 eigenvalues not converged
     c_bands:  1 eigenvalues not converged
     c_bands:  2 eigenvalues not converged
     c_bands:  1 eigenvalues not converged
     c_bands:  2 eigenvalues not converged
     c_bands:  2 eigenvalues not converged
     c_bands:  2 eigenvalues not converged
     c_bands:  1 eigenvalues not converged
     c_bands:  1 eigenvalues not converged
     c_bands:  1 eigenvalues not converged
     c_bands:  1 eigenvalues not converged
     c_bands:  2 eigenvalues not converged
     c_bands:  1 eigenvalues not converged
     ethr =  1.00E-02,  avg # of iterations = 19.7

     negative rho (up, down):  2.149E+03 0.000E+00

     total cpu time spent up to now is    18031.5 secs

     WARNING: integrated charge=   175.99997066, expected=   176.00000000

     total energy              =-6884320.89177332 Ry
     Harris-Foulkes estimate   =-7823238.52611934 Ry
     estimated scf accuracy    <17212278.51418009 Ry

     iteration # 77     ecut=    80.00 Ry     beta= 0.60
     Davidson diagonalization with overlap
     ethr =  1.00E-02,  avg # of iterations =  6.0

     negative rho (up, down):  8.616E+02 0.000E+00

     total cpu time spent up to now is    18149.0 secs

     total energy              =-2502017.52549149 Ry
     Harris-Foulkes estimate   =-6884358.37032399 Ry
     estimated scf accuracy    <16272531.81507472 Ry

     iteration # 78     ecut=    80.00 Ry     beta= 0.60
     Davidson diagonalization with overlap
     c_bands:  1 eigenvalues not converged
     c_bands:  1 eigenvalues not converged
     c_bands:  3 eigenvalues not converged
     c_bands:  1 eigenvalues not converged
     ethr =  1.00E-02,  avg # of iterations = 36.8

     negative rho (up, down):  8.262E+02 0.000E+00

     total cpu time spent up to now is    18621.9 secs

     total energy              =-2355039.04380777 Ry
     Harris-Foulkes estimate   =-2507506.16186254 Ry
     estimated scf accuracy    <11814066.67373198 Ry

     iteration # 79     ecut=    80.00 Ry     beta= 0.60
     Davidson diagonalization with overlap
     c_bands:  2 eigenvalues not converged
     c_bands:  2 eigenvalues not converged
     c_bands:  2 eigenvalues not converged
     c_bands:  2 eigenvalues not converged
     c_bands:  2 eigenvalues not converged
     c_bands:  1 eigenvalues not converged
     c_bands:  1 eigenvalues not converged
     c_bands:  2 eigenvalues not converged
     c_bands:  2 eigenvalues not converged
     c_bands:  5 eigenvalues not converged
     c_bands:  2 eigenvalues not converged
     c_bands:  1 eigenvalues not converged
     c_bands:  1 eigenvalues not converged
     c_bands:  1 eigenvalues not converged
     c_bands:  1 eigenvalues not converged
     ethr =  1.00E-02,  avg # of iterations = 19.9

     negative rho (up, down):  3.410E+02 0.000E+00

     total cpu time spent up to now is    18905.1 secs

     total energy              = -727827.93937432 Ry
     Harris-Foulkes estimate   =-2355395.51948287 Ry
     estimated scf accuracy    <11666978.21328566 Ry

     iteration # 80     ecut=    80.00 Ry     beta= 0.60
     Davidson diagonalization with overlap
     c_bands:  1 eigenvalues not converged
     c_bands:  1 eigenvalues not converged
     c_bands:  2 eigenvalues not converged
     c_bands:  3 eigenvalues not converged
     ethr =  1.00E-02,  avg # of iterations = 18.2

     negative rho (up, down):  2.663E+02 0.000E+00

     total cpu time spent up to now is    19196.5 secs

     total energy              =  247900.93786330 Ry
     Harris-Foulkes estimate   = -739546.38536220 Ry
     estimated scf accuracy    < 9915173.31563546 Ry

     iteration # 81     ecut=    80.00 Ry     beta= 0.60
     Davidson diagonalization with overlap
     ethr =  1.00E-02,  avg # of iterations = 13.3

     negative rho (up, down):  4.360E+02 0.000E+00

     total cpu time spent up to now is    19404.1 secs

     total energy              =-1053124.67120436 Ry
     Harris-Foulkes estimate   = -204507.92477659 Ry
     estimated scf accuracy    < 8226552.84381307 Ry

     iteration # 82     ecut=    80.00 Ry     beta= 0.60
     Davidson diagonalization with overlap
     c_bands:  4 eigenvalues not converged
     c_bands:  2 eigenvalues not converged
     c_bands:  3 eigenvalues not converged
     ethr =  1.00E-02,  avg # of iterations = 20.2

     negative rho (up, down):  2.651E+02 0.000E+00

     total cpu time spent up to now is    19721.8 secs

     total energy              = -254301.92852186 Ry
     Harris-Foulkes estimate   =-1076354.27595750 Ry
     estimated scf accuracy    < 9509232.87733954 Ry

     iteration # 83     ecut=    80.00 Ry     beta= 0.60
     Davidson diagonalization with overlap
     c_bands:  5 eigenvalues not converged
     c_bands:  3 eigenvalues not converged
     c_bands:  3 eigenvalues not converged
     c_bands:  3 eigenvalues not converged
     c_bands:  3 eigenvalues not converged
     c_bands:  2 eigenvalues not converged
     c_bands:  2 eigenvalues not converged
     c_bands:  3 eigenvalues not converged
     c_bands:  5 eigenvalues not converged
     c_bands:  3 eigenvalues not converged
     c_bands:  5 eigenvalues not converged
     c_bands:  2 eigenvalues not converged
     c_bands:  4 eigenvalues not converged
     c_bands:  1 eigenvalues not converged
     c_bands:  3 eigenvalues not converged
     c_bands:  3 eigenvalues not converged
     ethr =  1.00E-02,  avg # of iterations = 20.2

     negative rho (up, down):  2.635E+02 0.000E+00

     total cpu time spent up to now is    19981.5 secs

     total energy              =  209197.94295916 Ry
     Harris-Foulkes estimate   = -258076.67005836 Ry
     estimated scf accuracy    < 8425815.26999392 Ry

     iteration # 84     ecut=    80.00 Ry     beta= 0.60
     Davidson diagonalization with overlap
     ethr =  1.00E-02,  avg # of iterations = 19.0

     negative rho (up, down):  4.724E+02 0.000E+00

     total cpu time spent up to now is    20198.9 secs

     total energy              =-1095499.03435126 Ry
     Harris-Foulkes estimate   = -210316.88598259 Ry
     estimated scf accuracy    < 8938963.50052422 Ry

     iteration # 85     ecut=    80.00 Ry     beta= 0.60
     Davidson diagonalization with overlap
     c_bands:  2 eigenvalues not converged
     c_bands:  3 eigenvalues not converged
     c_bands:  3 eigenvalues not converged
     c_bands:  4 eigenvalues not converged
     c_bands:  4 eigenvalues not converged
     c_bands:  2 eigenvalues not converged
     c_bands:  5 eigenvalues not converged
     c_bands:  4 eigenvalues not converged
     c_bands:  3 eigenvalues not converged
     c_bands:  2 eigenvalues not converged
     c_bands:  2 eigenvalues not converged
     c_bands:  2 eigenvalues not converged
     c_bands:  3 eigenvalues not converged
     c_bands:  2 eigenvalues not converged
     c_bands:  1 eigenvalues not converged
     c_bands:  4 eigenvalues not converged
     c_bands:  2 eigenvalues not converged
     c_bands:  2 eigenvalues not converged
     c_bands:  3 eigenvalues not converged
     ethr =  1.00E-02,  avg # of iterations = 20.0

     negative rho (up, down):  3.864E+02 0.000E+00

     total cpu time spent up to now is    20416.6 secs

     total energy              = -939670.23047769 Ry
     Harris-Foulkes estimate   =-1225905.55900518 Ry
     estimated scf accuracy    <10456053.75752996 Ry

     iteration # 86     ecut=    80.00 Ry     beta= 0.60
     Davidson diagonalization with overlap
     ethr =  1.00E-02,  avg # of iterations =  9.7

     negative rho (up, down):  3.276E+02 0.000E+00

     total cpu time spent up to now is    20593.7 secs

     total energy              = -698312.33550965 Ry
     Harris-Foulkes estimate   = -939958.67793248 Ry
     estimated scf accuracy    <10153272.28381627 Ry

     iteration # 87     ecut=    80.00 Ry     beta= 0.60
     Davidson diagonalization with overlap
     ethr =  1.00E-02,  avg # of iterations =  6.5

     negative rho (up, down):  3.358E+02 0.000E+00

     total cpu time spent up to now is    20708.5 secs

     total energy              = -732683.34754049 Ry
     Harris-Foulkes estimate   = -698459.80526464 Ry
     estimated scf accuracy    < 9889442.42927209 Ry

     iteration # 88     ecut=    80.00 Ry     beta= 0.60
     Davidson diagonalization with overlap
     ethr =  1.00E-02,  avg # of iterations =  7.0

     negative rho (up, down):  3.338E+02 0.000E+00

     total cpu time spent up to now is    20785.6 secs

     total energy              = -703057.85423545 Ry
     Harris-Foulkes estimate   = -732687.02575841 Ry
     estimated scf accuracy    < 9927594.20504292 Ry

     iteration # 89     ecut=    80.00 Ry     beta= 0.60
     Davidson diagonalization with overlap
     ethr =  1.00E-02,  avg # of iterations =  6.0

     negative rho (up, down):  2.614E+02 0.000E+00

     total cpu time spent up to now is    20908.4 secs

     total energy              = -197426.62395365 Ry
     Harris-Foulkes estimate   = -703085.76690511 Ry
     estimated scf accuracy    < 9895516.16047364 Ry

     iteration # 90     ecut=    80.00 Ry     beta= 0.60
     Davidson diagonalization with overlap
     ethr =  1.00E-02,  avg # of iterations = 16.8

     negative rho (up, down):  3.275E+02 0.000E+00

     total cpu time spent up to now is    21094.7 secs

     total energy              = -649060.24458872 Ry
     Harris-Foulkes estimate   = -200284.14758815 Ry
     estimated scf accuracy    < 8984583.90044198 Ry

     iteration # 91     ecut=    80.00 Ry     beta= 0.60
     Davidson diagonalization with overlap
     ethr =  1.00E-02,  avg # of iterations = 11.0

     negative rho (up, down):  3.288E+02 0.000E+00

     total cpu time spent up to now is    21289.6 secs

     total energy              = -666070.79476693 Ry
     Harris-Foulkes estimate   = -656938.21531528 Ry
     estimated scf accuracy    < 9843041.24254584 Ry

     iteration # 92     ecut=    80.00 Ry     beta= 0.60
     Davidson diagonalization with overlap
     ethr =  1.00E-02,  avg # of iterations =  5.3

     negative rho (up, down):  6.244E+03 0.000E+00

     total cpu time spent up to now is    21414.6 secs

     total energy              = 9059396.12355180 Ry
     Harris-Foulkes estimate   = -666101.74598981 Ry
     estimated scf accuracy    < 9853878.38432181 Ry

     iteration # 93     ecut=    80.00 Ry     beta= 0.60
     Davidson diagonalization with overlap
     ethr =  1.00E-02,  avg # of iterations = 16.9

     negative rho (up, down):  2.960E+03 0.000E+00

     total cpu time spent up to now is    21780.3 secs

     total energy              =-9699034.52848253 Ry
     Harris-Foulkes estimate   =***************** Ry
     estimated scf accuracy    <32523328.51460416 Ry

     iteration # 94     ecut=    80.00 Ry     beta= 0.60
     Davidson diagonalization with overlap
     ethr =  1.00E-02,  avg # of iterations =  6.0

     negative rho (up, down):  2.697E+02 0.000E+00

     total cpu time spent up to now is    21915.5 secs

     total energy              = -230992.86001019 Ry
     Harris-Foulkes estimate   =-9700136.47993523 Ry
     estimated scf accuracy    <18295061.57171091 Ry

     iteration # 95     ecut=    80.00 Ry     beta= 0.60
     Davidson diagonalization with overlap
     ethr =  1.00E-02,  avg # of iterations = 34.1

     negative rho (up, down):  3.245E+02 0.000E+00

     total cpu time spent up to now is    22464.0 secs

     total energy              =  572064.63487447 Ry
     Harris-Foulkes estimate   = -266948.43468061 Ry
     estimated scf accuracy    < 8379369.36324593 Ry

     iteration # 96     ecut=    80.00 Ry     beta= 0.60
     Davidson diagonalization with overlap
     c_bands:  5 eigenvalues not converged
     c_bands:  2 eigenvalues not converged
     ethr =  1.00E-02,  avg # of iterations = 20.4

     negative rho (up, down):  2.648E+02 0.000E+00

     total cpu time spent up to now is    22639.2 secs

     total energy              = -112644.10040331 Ry
     Harris-Foulkes estimate   = -641884.17777858 Ry
     estimated scf accuracy    < 9795015.35763260 Ry

     iteration # 97     ecut=    80.00 Ry     beta= 0.60
     Davidson diagonalization with overlap
     ethr =  1.00E-02,  avg # of iterations =  9.3

     negative rho (up, down):  6.337E+02 0.000E+00

     total cpu time spent up to now is    22767.9 secs

     total energy              = 1269798.88736527 Ry
     Harris-Foulkes estimate   = -127850.69579723 Ry
     estimated scf accuracy    < 7689187.50815870 Ry

     iteration # 98     ecut=    80.00 Ry     beta= 0.60
     Davidson diagonalization with overlap
     c_bands:  3 eigenvalues not converged
     c_bands:  2 eigenvalues not converged
     c_bands:  2 eigenvalues not converged
     c_bands:  2 eigenvalues not converged
     c_bands:  4 eigenvalues not converged
     c_bands:  3 eigenvalues not converged
     c_bands:  2 eigenvalues not converged
     c_bands:  2 eigenvalues not converged
     c_bands:  4 eigenvalues not converged
     c_bands:  5 eigenvalues not converged
     c_bands:  4 eigenvalues not converged
     ethr =  1.00E-02,  avg # of iterations = 20.5

     negative rho (up, down):  8.916E+02 0.000E+00

     total cpu time spent up to now is    23099.3 secs

     total energy              =-2522937.62266655 Ry
     Harris-Foulkes estimate   =-1690663.29755019 Ry
     estimated scf accuracy    <10143900.89099672 Ry

     iteration # 99     ecut=    80.00 Ry     beta= 0.60
     Davidson diagonalization with overlap
     ethr =  1.00E-02,  avg # of iterations = 22.0

     negative rho (up, down):  3.132E+02 0.000E+00

     total cpu time spent up to now is    23528.5 secs

     total energy              = -561799.26159827 Ry
     Harris-Foulkes estimate   =-2526298.70549696 Ry
     estimated scf accuracy    <11045975.73210466 Ry

     iteration #100     ecut=    80.00 Ry     beta= 0.60
     Davidson diagonalization with overlap
     ethr =  1.00E-02,  avg # of iterations = 21.4

     negative rho (up, down):  3.864E+02 0.000E+00

     total cpu time spent up to now is    23929.9 secs

     total energy              = -858742.87055226 Ry
     Harris-Foulkes estimate   = -571439.02097532 Ry
     estimated scf accuracy    < 8946351.43891819 Ry

     End of self-consistent calculation

     convergence NOT achieved after 100 iterations: stopping

     Writing output data file CsSnI3.save/
 
     init_run     :     26.93s CPU     28.30s WALL (       1 calls)
     electrons    :  23491.45s CPU  23896.02s WALL (       1 calls)

     Called by init_run:
     wfcinit      :     22.42s CPU     23.21s WALL (       1 calls)
     wfcinit:atom :      0.24s CPU      0.25s WALL (      20 calls)
     wfcinit:wfcr :     20.98s CPU     21.47s WALL (      20 calls)
     potinit      :      0.64s CPU      0.68s WALL (       1 calls)
     hinit0       :      1.74s CPU      1.98s WALL (       1 calls)

     Called by electrons:
     c_bands      :  22154.13s CPU  22499.77s WALL (     100 calls)
     sum_band     :   1133.75s CPU   1170.08s WALL (     100 calls)
     v_of_rho     :      3.32s CPU      3.59s WALL (     101 calls)
     v_h          :      0.23s CPU      0.24s WALL (     101 calls)
     v_xc         :      3.09s CPU      3.34s WALL (     101 calls)
     newd         :    197.82s CPU    218.06s WALL (     101 calls)
     mix_rho      :      3.79s CPU      4.68s WALL (     100 calls)

     Called by c_bands:
     init_us_2    :     35.40s CPU     35.76s WALL (    4020 calls)
     cegterg      :  21177.83s CPU  21519.36s WALL (    2387 calls)

     Called by sum_band:
     sum_band:bec :     83.19s CPU     83.65s WALL (    2000 calls)
     addusdens    :    130.05s CPU    154.05s WALL (     100 calls)

     Called by *egterg:
     h_psi        :  11491.67s CPU  11637.26s WALL (   34414 calls)
     s_psi        :   1610.78s CPU   1617.20s WALL (   34414 calls)
     g_psi        :     69.88s CPU     70.42s WALL (   32007 calls)
     cdiaghg      :   1821.73s CPU   1920.73s WALL (   34394 calls)
     cegterg:over :   2197.52s CPU   2210.43s WALL (   32007 calls)
     cegterg:upda :   2257.33s CPU   2315.14s WALL (   32007 calls)
     cegterg:last :   1458.23s CPU   1470.69s WALL (    6521 calls)
     cdiaghg:chol :    147.81s CPU    160.20s WALL (   34394 calls)
     cdiaghg:inve :    114.65s CPU    120.39s WALL (   34394 calls)
     cdiaghg:para :    160.69s CPU    190.13s WALL (   68788 calls)

     Called by h_psi:
     h_psi:pot    :  11387.72s CPU  11530.64s WALL (   34414 calls)
     h_psi:calbec :   1251.29s CPU   1275.28s WALL (   34414 calls)
     vloc_psi     :   8513.76s CPU   8623.23s WALL (   34414 calls)
     add_vuspsi   :   1622.49s CPU   1631.87s WALL (   34414 calls)

     General routines
     calbec       :   1392.23s CPU   1418.89s WALL (   36414 calls)
     fft          :      2.60s CPU      2.70s WALL (    1419 calls)
     ffts         :      0.57s CPU      0.58s WALL (     400 calls)
     fftw         :   7979.57s CPU   8064.99s WALL (12600380 calls)
     davcio       :      0.01s CPU      1.48s WALL (      38 calls)
 
     Parallel routines
     fft_scatt_xy :   1013.70s CPU   1027.46s WALL (12602199 calls)
     fft_scatt_yz :   2989.12s CPU   3030.22s WALL (12602199 calls)
 
     PWSCF        :     6h32m CPU       32h 6m WALL

      38h
 
   This run was terminated on:   3:56:53  18Feb2021            

=------------------------------------------------------------------------------=
   JOB DONE.
=------------------------------------------------------------------------------=
