
     Program PWSCF v.6.7MaX starts on 14Jan2021 at 15: 4:28 

     This program is part of the open-source Quantum ESPRESSO suite
     for quantum simulation of materials; please cite
         "P. Giannozzi et al., J. Phys.:Condens. Matter 21 395502 (2009);
         "P. Giannozzi et al., J. Phys.:Condens. Matter 29 465901 (2017);
          URL http://www.quantum-espresso.org", 
     in publications or presentations arising from this work. More details at
     http://www.quantum-espresso.org/quote

     Parallel version (MPI), running on    19 processors

     MPI processes distributed on     1 nodes
     R & G space division:  proc/nbgrp/npool/nimage =      19
     Waiting for input...
     Reading input from standard input

     Current dimensions of program PWSCF are:
     Max number of different atomic species (ntypx) = 10
     Max number of k-points (npk) =  40000
     Max angular momentum in pseudopotentials (lmaxx) =  3
     file Sn.pbe-dn-kjpaw_psl.1.0.0.UPF: wavefunction(s)  5S 5P 4D renormalized
     file I.pbe-n-kjpaw_psl.1.0.0.UPF: wavefunction(s)  5S renormalized

     Subspace diagonalization in iterative solution of the eigenvalue problem:
     a serial algorithm will be used

     Message from routine setup:
     using ibrav=0 with symmetry is DISCOURAGED, use correct ibrav instead

     Parallelization info
     --------------------
     sticks:   dense  smooth     PW     G-vecs:    dense   smooth      PW
     Min         236     236     65                 7726     7726    1115
     Max         237     237     66                 7729     7729    1117
     Sum        4501    4501   1237               146829   146829   21205


     Title: 
     SnI2tetr                                                                   


     bravais-lattice index     =            0
     lattice parameter (alat)  =      14.2167  a.u.
     unit-cell volume          =    1855.5976 (a.u.)^3
     number of atoms/cell      =            6
     number of atomic types    =            2
     number of electrons       =        56.00
     number of Kohn-Sham states=           28
     kinetic-energy cutoff     =      70.0000  Ry
     charge density cutoff     =     280.0000  Ry
     scf convergence threshold =      1.0E-06
     mixing beta               =       0.7000
     number of iterations used =            8  plain     mixing
     Exchange-correlation= SLA  PW   PBX  PBC
                           (   1   4   3   4   0   0   0)

     celldm(1)=  14.216705  celldm(2)=   0.000000  celldm(3)=   0.000000
     celldm(4)=   0.000000  celldm(5)=   0.000000  celldm(6)=   0.000000

     crystal axes: (cart. coord. in units of alat)
               a(1) = (   1.000000   0.000000   0.000000 )  
               a(2) = (   0.000000   1.000000   0.000000 )  
               a(3) = (   0.000000   0.000000   0.645783 )  

     reciprocal axes: (cart. coord. in units 2 pi/alat)
               b(1) = (  1.000000  0.000000  0.000000 )  
               b(2) = (  0.000000  1.000000  0.000000 )  
               b(3) = (  0.000000  0.000000  1.548507 )  


     PseudoPot. # 1 for Sn read from file:
     ../../../pseudo/Sn.pbe-dn-kjpaw_psl.1.0.0.UPF
     MD5 check sum: 67f11dec737d427557dc41ea34975807
     Pseudo is Projector augmented-wave + core cor, Zval = 14.0
     Generated using &quot;atomic&quot; code by A. Dal Corso  v.6.3
     Shape of augmentation charge: PSQ
     Using radial grid of 1243 points,  6 beta functions with: 
                l(1) =   0
                l(2) =   0
                l(3) =   1
                l(4) =   1
                l(5) =   2
                l(6) =   2
     Q(r) pseudized with 0 coefficients 


     PseudoPot. # 2 for I  read from file:
     ../../../pseudo/I.pbe-n-kjpaw_psl.1.0.0.UPF
     MD5 check sum: cd3d296c3308a581e1559a0c8a554cb5
     Pseudo is Projector augmented-wave + core cor, Zval =  7.0
     Generated using &quot;atomic&quot; code by A. Dal Corso  v.6.3
     Shape of augmentation charge: PSQ
     Using radial grid of 1247 points,  6 beta functions with: 
                l(1) =   0
                l(2) =   0
                l(3) =   1
                l(4) =   1
                l(5) =   2
                l(6) =   2
     Q(r) pseudized with 0 coefficients 


     atomic species   valence    mass     pseudopotential
        Sn            14.00   118.70000     Sn( 1.00)
        I              7.00   126.90000     I ( 1.00)

     16 Sym. Ops., with inversion, found ( 8 have fractional translation)


                                    s                        frac. trans.

      isym =  1     identity                                     

 cryst.   s( 1) = (     1          0          0      )
                  (     0          1          0      )
                  (     0          0          1      )

 cart.    s( 1) = (  1.0000000  0.0000000  0.0000000 )
                  (  0.0000000  1.0000000  0.0000000 )
                  (  0.0000000  0.0000000  1.0000000 )


      isym =  2     180 deg rotation - cart. axis [0,0,1]        

 cryst.   s( 2) = (    -1          0          0      )
                  (     0         -1          0      )
                  (     0          0          1      )

 cart.    s( 2) = ( -1.0000000  0.0000000  0.0000000 )
                  (  0.0000000 -1.0000000  0.0000000 )
                  (  0.0000000  0.0000000  1.0000000 )


      isym =  3     180 deg rotation - cart. axis [0,1,0]        

 cryst.   s( 3) = (    -1          0          0      )    f =(  0.5000000 )
                  (     0          1          0      )       ( -0.5000000 )
                  (     0          0         -1      )       (  0.5000000 )

 cart.    s( 3) = ( -1.0000000  0.0000000  0.0000000 )    f =(  0.5000000 )
                  (  0.0000000  1.0000000  0.0000000 )       ( -0.5000000 )
                  (  0.0000000  0.0000000 -1.0000000 )       (  0.3228917 )


      isym =  4     180 deg rotation - cart. axis [1,0,0]        

 cryst.   s( 4) = (     1          0          0      )    f =( -0.5000000 )
                  (     0         -1          0      )       (  0.5000000 )
                  (     0          0         -1      )       (  0.5000000 )

 cart.    s( 4) = (  1.0000000  0.0000000  0.0000000 )    f =( -0.5000000 )
                  (  0.0000000 -1.0000000  0.0000000 )       (  0.5000000 )
                  (  0.0000000  0.0000000 -1.0000000 )       (  0.3228917 )


      isym =  5     180 deg rotation - cart. axis [1,1,0]        

 cryst.   s( 5) = (     0          1          0      )
                  (     1          0          0      )
                  (     0          0         -1      )

 cart.    s( 5) = (  0.0000000  1.0000000  0.0000000 )
                  (  1.0000000  0.0000000  0.0000000 )
                  (  0.0000000  0.0000000 -1.0000000 )


      isym =  6     180 deg rotation - cart. axis [1,-1,0]       

 cryst.   s( 6) = (     0         -1          0      )
                  (    -1          0          0      )
                  (     0          0         -1      )

 cart.    s( 6) = (  0.0000000 -1.0000000  0.0000000 )
                  ( -1.0000000  0.0000000  0.0000000 )
                  (  0.0000000  0.0000000 -1.0000000 )


      isym =  7      90 deg rotation - cart. axis [0,0,-1]       

 cryst.   s( 7) = (     0         -1          0      )    f =( -0.5000000 )
                  (     1          0          0      )       (  0.5000000 )
                  (     0          0          1      )       ( -0.5000000 )

 cart.    s( 7) = (  0.0000000  1.0000000  0.0000000 )    f =( -0.5000000 )
                  ( -1.0000000  0.0000000  0.0000000 )       (  0.5000000 )
                  (  0.0000000  0.0000000  1.0000000 )       ( -0.3228917 )


      isym =  8      90 deg rotation - cart. axis [0,0,1]        

 cryst.   s( 8) = (     0          1          0      )    f =(  0.5000000 )
                  (    -1          0          0      )       ( -0.5000000 )
                  (     0          0          1      )       ( -0.5000000 )

 cart.    s( 8) = (  0.0000000 -1.0000000  0.0000000 )    f =(  0.5000000 )
                  (  1.0000000  0.0000000  0.0000000 )       ( -0.5000000 )
                  (  0.0000000  0.0000000  1.0000000 )       ( -0.3228917 )


      isym =  9     inversion                                    

 cryst.   s( 9) = (    -1          0          0      )
                  (     0         -1          0      )
                  (     0          0         -1      )

 cart.    s( 9) = ( -1.0000000  0.0000000  0.0000000 )
                  (  0.0000000 -1.0000000  0.0000000 )
                  (  0.0000000  0.0000000 -1.0000000 )


      isym = 10     inv. 180 deg rotation - cart. axis [0,0,1]   

 cryst.   s(10) = (     1          0          0      )
                  (     0          1          0      )
                  (     0          0         -1      )

 cart.    s(10) = (  1.0000000  0.0000000  0.0000000 )
                  (  0.0000000  1.0000000  0.0000000 )
                  (  0.0000000  0.0000000 -1.0000000 )


      isym = 11     inv. 180 deg rotation - cart. axis [0,1,0]   

 cryst.   s(11) = (     1          0          0      )    f =( -0.5000000 )
                  (     0         -1          0      )       (  0.5000000 )
                  (     0          0          1      )       ( -0.5000000 )

 cart.    s(11) = (  1.0000000  0.0000000  0.0000000 )    f =( -0.5000000 )
                  (  0.0000000 -1.0000000  0.0000000 )       (  0.5000000 )
                  (  0.0000000  0.0000000  1.0000000 )       ( -0.3228917 )


      isym = 12     inv. 180 deg rotation - cart. axis [1,0,0]   

 cryst.   s(12) = (    -1          0          0      )    f =(  0.5000000 )
                  (     0          1          0      )       ( -0.5000000 )
                  (     0          0          1      )       ( -0.5000000 )

 cart.    s(12) = ( -1.0000000  0.0000000  0.0000000 )    f =(  0.5000000 )
                  (  0.0000000  1.0000000  0.0000000 )       ( -0.5000000 )
                  (  0.0000000  0.0000000  1.0000000 )       ( -0.3228917 )


      isym = 13     inv. 180 deg rotation - cart. axis [1,1,0]   

 cryst.   s(13) = (     0         -1          0      )
                  (    -1          0          0      )
                  (     0          0          1      )

 cart.    s(13) = (  0.0000000 -1.0000000  0.0000000 )
                  ( -1.0000000  0.0000000  0.0000000 )
                  (  0.0000000  0.0000000  1.0000000 )


      isym = 14     inv. 180 deg rotation - cart. axis [1,-1,0]  

 cryst.   s(14) = (     0          1          0      )
                  (     1          0          0      )
                  (     0          0          1      )

 cart.    s(14) = (  0.0000000  1.0000000  0.0000000 )
                  (  1.0000000  0.0000000  0.0000000 )
                  (  0.0000000  0.0000000  1.0000000 )


      isym = 15     inv.  90 deg rotation - cart. axis [0,0,-1]  

 cryst.   s(15) = (     0          1          0      )    f =(  0.5000000 )
                  (    -1          0          0      )       ( -0.5000000 )
                  (     0          0         -1      )       (  0.5000000 )

 cart.    s(15) = (  0.0000000 -1.0000000  0.0000000 )    f =(  0.5000000 )
                  (  1.0000000  0.0000000  0.0000000 )       ( -0.5000000 )
                  (  0.0000000  0.0000000 -1.0000000 )       (  0.3228917 )


      isym = 16     inv.  90 deg rotation - cart. axis [0,0,1]   

 cryst.   s(16) = (     0         -1          0      )    f =( -0.5000000 )
                  (     1          0          0      )       (  0.5000000 )
                  (     0          0         -1      )       (  0.5000000 )

 cart.    s(16) = (  0.0000000  1.0000000  0.0000000 )    f =( -0.5000000 )
                  ( -1.0000000  0.0000000  0.0000000 )       (  0.5000000 )
                  (  0.0000000  0.0000000 -1.0000000 )       (  0.3228917 )


   Cartesian axes

     site n.     atom                  positions (alat units)
         1           Sn  tau(   1) = (   0.0000000   0.0000000   0.0000000  )
         2           Sn  tau(   2) = (   0.5000000   0.5000000   0.3228917  )
         3           I   tau(   3) = (   0.2985210   0.2985210   0.0000000  )
         4           I   tau(   4) = (   0.7014790   0.7014790   0.0000000  )
         5           I   tau(   5) = (   0.7985210   0.2014790   0.3228917  )
         6           I   tau(   6) = (   0.2014790   0.7985210   0.3228917  )

   Crystallographic axes

     site n.     atom                  positions (cryst. coord.)
         1           Sn  tau(   1) = (  0.0000000  0.0000000  0.0000000  )
         2           Sn  tau(   2) = (  0.5000000  0.5000000  0.5000000  )
         3           I   tau(   3) = (  0.2985210  0.2985210  0.0000000  )
         4           I   tau(   4) = (  0.7014790  0.7014790  0.0000000  )
         5           I   tau(   5) = (  0.7985210  0.2014790  0.5000000  )
         6           I   tau(   6) = (  0.2014790  0.7985210  0.5000000  )

     number of k points=    75
                       cart. coord. in units 2pi/alat
        k(    1) = (   0.0000000   0.0000000   0.0000000), wk =   0.0027435
        k(    2) = (   0.0000000   0.0000000   0.1720563), wk =   0.0054870
        k(    3) = (   0.0000000   0.0000000   0.3441126), wk =   0.0054870
        k(    4) = (   0.0000000   0.0000000   0.5161689), wk =   0.0054870
        k(    5) = (   0.0000000   0.0000000   0.6882252), wk =   0.0054870
        k(    6) = (   0.0000000   0.1111111   0.0000000), wk =   0.0109739
        k(    7) = (   0.0000000   0.1111111   0.1720563), wk =   0.0219479
        k(    8) = (   0.0000000   0.1111111   0.3441126), wk =   0.0219479
        k(    9) = (   0.0000000   0.1111111   0.5161689), wk =   0.0219479
        k(   10) = (   0.0000000   0.1111111   0.6882252), wk =   0.0219479
        k(   11) = (   0.0000000   0.2222222   0.0000000), wk =   0.0109739
        k(   12) = (   0.0000000   0.2222222   0.1720563), wk =   0.0219479
        k(   13) = (   0.0000000   0.2222222   0.3441126), wk =   0.0219479
        k(   14) = (   0.0000000   0.2222222   0.5161689), wk =   0.0219479
        k(   15) = (   0.0000000   0.2222222   0.6882252), wk =   0.0219479
        k(   16) = (   0.0000000   0.3333333   0.0000000), wk =   0.0109739
        k(   17) = (   0.0000000   0.3333333   0.1720563), wk =   0.0219479
        k(   18) = (   0.0000000   0.3333333   0.3441126), wk =   0.0219479
        k(   19) = (   0.0000000   0.3333333   0.5161689), wk =   0.0219479
        k(   20) = (   0.0000000   0.3333333   0.6882252), wk =   0.0219479
        k(   21) = (   0.0000000   0.4444444   0.0000000), wk =   0.0109739
        k(   22) = (   0.0000000   0.4444444   0.1720563), wk =   0.0219479
        k(   23) = (   0.0000000   0.4444444   0.3441126), wk =   0.0219479
        k(   24) = (   0.0000000   0.4444444   0.5161689), wk =   0.0219479
        k(   25) = (   0.0000000   0.4444444   0.6882252), wk =   0.0219479
        k(   26) = (   0.1111111   0.1111111   0.0000000), wk =   0.0109739
        k(   27) = (   0.1111111   0.1111111   0.1720563), wk =   0.0219479
        k(   28) = (   0.1111111   0.1111111   0.3441126), wk =   0.0219479
        k(   29) = (   0.1111111   0.1111111   0.5161689), wk =   0.0219479
        k(   30) = (   0.1111111   0.1111111   0.6882252), wk =   0.0219479
        k(   31) = (   0.1111111   0.2222222   0.0000000), wk =   0.0219479
        k(   32) = (   0.1111111   0.2222222   0.1720563), wk =   0.0438957
        k(   33) = (   0.1111111   0.2222222   0.3441126), wk =   0.0438957
        k(   34) = (   0.1111111   0.2222222   0.5161689), wk =   0.0438957
        k(   35) = (   0.1111111   0.2222222   0.6882252), wk =   0.0438957
        k(   36) = (   0.1111111   0.3333333   0.0000000), wk =   0.0219479
        k(   37) = (   0.1111111   0.3333333   0.1720563), wk =   0.0438957
        k(   38) = (   0.1111111   0.3333333   0.3441126), wk =   0.0438957
        k(   39) = (   0.1111111   0.3333333   0.5161689), wk =   0.0438957
        k(   40) = (   0.1111111   0.3333333   0.6882252), wk =   0.0438957
        k(   41) = (   0.1111111   0.4444444   0.0000000), wk =   0.0219479
        k(   42) = (   0.1111111   0.4444444   0.1720563), wk =   0.0438957
        k(   43) = (   0.1111111   0.4444444   0.3441126), wk =   0.0438957
        k(   44) = (   0.1111111   0.4444444   0.5161689), wk =   0.0438957
        k(   45) = (   0.1111111   0.4444444   0.6882252), wk =   0.0438957
        k(   46) = (   0.2222222   0.2222222   0.0000000), wk =   0.0109739
        k(   47) = (   0.2222222   0.2222222   0.1720563), wk =   0.0219479
        k(   48) = (   0.2222222   0.2222222   0.3441126), wk =   0.0219479
        k(   49) = (   0.2222222   0.2222222   0.5161689), wk =   0.0219479
        k(   50) = (   0.2222222   0.2222222   0.6882252), wk =   0.0219479
        k(   51) = (   0.2222222   0.3333333   0.0000000), wk =   0.0219479
        k(   52) = (   0.2222222   0.3333333   0.1720563), wk =   0.0438957
        k(   53) = (   0.2222222   0.3333333   0.3441126), wk =   0.0438957
        k(   54) = (   0.2222222   0.3333333   0.5161689), wk =   0.0438957
        k(   55) = (   0.2222222   0.3333333   0.6882252), wk =   0.0438957
        k(   56) = (   0.2222222   0.4444444   0.0000000), wk =   0.0219479
        k(   57) = (   0.2222222   0.4444444   0.1720563), wk =   0.0438957
        k(   58) = (   0.2222222   0.4444444   0.3441126), wk =   0.0438957
        k(   59) = (   0.2222222   0.4444444   0.5161689), wk =   0.0438957
        k(   60) = (   0.2222222   0.4444444   0.6882252), wk =   0.0438957
        k(   61) = (   0.3333333   0.3333333   0.0000000), wk =   0.0109739
        k(   62) = (   0.3333333   0.3333333   0.1720563), wk =   0.0219479
        k(   63) = (   0.3333333   0.3333333   0.3441126), wk =   0.0219479
        k(   64) = (   0.3333333   0.3333333   0.5161689), wk =   0.0219479
        k(   65) = (   0.3333333   0.3333333   0.6882252), wk =   0.0219479
        k(   66) = (   0.3333333   0.4444444   0.0000000), wk =   0.0219479
        k(   67) = (   0.3333333   0.4444444   0.1720563), wk =   0.0438957
        k(   68) = (   0.3333333   0.4444444   0.3441126), wk =   0.0438957
        k(   69) = (   0.3333333   0.4444444   0.5161689), wk =   0.0438957
        k(   70) = (   0.3333333   0.4444444   0.6882252), wk =   0.0438957
        k(   71) = (   0.4444444   0.4444444   0.0000000), wk =   0.0109739
        k(   72) = (   0.4444444   0.4444444   0.1720563), wk =   0.0219479
        k(   73) = (   0.4444444   0.4444444   0.3441126), wk =   0.0219479
        k(   74) = (   0.4444444   0.4444444   0.5161689), wk =   0.0219479
        k(   75) = (   0.4444444   0.4444444   0.6882252), wk =   0.0219479

                       cryst. coord.
        k(    1) = (   0.0000000   0.0000000   0.0000000), wk =   0.0027435
        k(    2) = (   0.0000000   0.0000000   0.1111111), wk =   0.0054870
        k(    3) = (   0.0000000   0.0000000   0.2222222), wk =   0.0054870
        k(    4) = (   0.0000000   0.0000000   0.3333333), wk =   0.0054870
        k(    5) = (   0.0000000   0.0000000   0.4444444), wk =   0.0054870
        k(    6) = (   0.0000000   0.1111111   0.0000000), wk =   0.0109739
        k(    7) = (   0.0000000   0.1111111   0.1111111), wk =   0.0219479
        k(    8) = (   0.0000000   0.1111111   0.2222222), wk =   0.0219479
        k(    9) = (   0.0000000   0.1111111   0.3333333), wk =   0.0219479
        k(   10) = (   0.0000000   0.1111111   0.4444444), wk =   0.0219479
        k(   11) = (   0.0000000   0.2222222   0.0000000), wk =   0.0109739
        k(   12) = (   0.0000000   0.2222222   0.1111111), wk =   0.0219479
        k(   13) = (   0.0000000   0.2222222   0.2222222), wk =   0.0219479
        k(   14) = (   0.0000000   0.2222222   0.3333333), wk =   0.0219479
        k(   15) = (   0.0000000   0.2222222   0.4444444), wk =   0.0219479
        k(   16) = (   0.0000000   0.3333333   0.0000000), wk =   0.0109739
        k(   17) = (   0.0000000   0.3333333   0.1111111), wk =   0.0219479
        k(   18) = (   0.0000000   0.3333333   0.2222222), wk =   0.0219479
        k(   19) = (   0.0000000   0.3333333   0.3333333), wk =   0.0219479
        k(   20) = (   0.0000000   0.3333333   0.4444444), wk =   0.0219479
        k(   21) = (   0.0000000   0.4444444   0.0000000), wk =   0.0109739
        k(   22) = (   0.0000000   0.4444444   0.1111111), wk =   0.0219479
        k(   23) = (   0.0000000   0.4444444   0.2222222), wk =   0.0219479
        k(   24) = (   0.0000000   0.4444444   0.3333333), wk =   0.0219479
        k(   25) = (   0.0000000   0.4444444   0.4444444), wk =   0.0219479
        k(   26) = (   0.1111111   0.1111111   0.0000000), wk =   0.0109739
        k(   27) = (   0.1111111   0.1111111   0.1111111), wk =   0.0219479
        k(   28) = (   0.1111111   0.1111111   0.2222222), wk =   0.0219479
        k(   29) = (   0.1111111   0.1111111   0.3333333), wk =   0.0219479
        k(   30) = (   0.1111111   0.1111111   0.4444444), wk =   0.0219479
        k(   31) = (   0.1111111   0.2222222   0.0000000), wk =   0.0219479
        k(   32) = (   0.1111111   0.2222222   0.1111111), wk =   0.0438957
        k(   33) = (   0.1111111   0.2222222   0.2222222), wk =   0.0438957
        k(   34) = (   0.1111111   0.2222222   0.3333333), wk =   0.0438957
        k(   35) = (   0.1111111   0.2222222   0.4444444), wk =   0.0438957
        k(   36) = (   0.1111111   0.3333333   0.0000000), wk =   0.0219479
        k(   37) = (   0.1111111   0.3333333   0.1111111), wk =   0.0438957
        k(   38) = (   0.1111111   0.3333333   0.2222222), wk =   0.0438957
        k(   39) = (   0.1111111   0.3333333   0.3333333), wk =   0.0438957
        k(   40) = (   0.1111111   0.3333333   0.4444444), wk =   0.0438957
        k(   41) = (   0.1111111   0.4444444   0.0000000), wk =   0.0219479
        k(   42) = (   0.1111111   0.4444444   0.1111111), wk =   0.0438957
        k(   43) = (   0.1111111   0.4444444   0.2222222), wk =   0.0438957
        k(   44) = (   0.1111111   0.4444444   0.3333333), wk =   0.0438957
        k(   45) = (   0.1111111   0.4444444   0.4444444), wk =   0.0438957
        k(   46) = (   0.2222222   0.2222222   0.0000000), wk =   0.0109739
        k(   47) = (   0.2222222   0.2222222   0.1111111), wk =   0.0219479
        k(   48) = (   0.2222222   0.2222222   0.2222222), wk =   0.0219479
        k(   49) = (   0.2222222   0.2222222   0.3333333), wk =   0.0219479
        k(   50) = (   0.2222222   0.2222222   0.4444444), wk =   0.0219479
        k(   51) = (   0.2222222   0.3333333   0.0000000), wk =   0.0219479
        k(   52) = (   0.2222222   0.3333333   0.1111111), wk =   0.0438957
        k(   53) = (   0.2222222   0.3333333   0.2222222), wk =   0.0438957
        k(   54) = (   0.2222222   0.3333333   0.3333333), wk =   0.0438957
        k(   55) = (   0.2222222   0.3333333   0.4444444), wk =   0.0438957
        k(   56) = (   0.2222222   0.4444444   0.0000000), wk =   0.0219479
        k(   57) = (   0.2222222   0.4444444   0.1111111), wk =   0.0438957
        k(   58) = (   0.2222222   0.4444444   0.2222222), wk =   0.0438957
        k(   59) = (   0.2222222   0.4444444   0.3333333), wk =   0.0438957
        k(   60) = (   0.2222222   0.4444444   0.4444444), wk =   0.0438957
        k(   61) = (   0.3333333   0.3333333   0.0000000), wk =   0.0109739
        k(   62) = (   0.3333333   0.3333333   0.1111111), wk =   0.0219479
        k(   63) = (   0.3333333   0.3333333   0.2222222), wk =   0.0219479
        k(   64) = (   0.3333333   0.3333333   0.3333333), wk =   0.0219479
        k(   65) = (   0.3333333   0.3333333   0.4444444), wk =   0.0219479
        k(   66) = (   0.3333333   0.4444444   0.0000000), wk =   0.0219479
        k(   67) = (   0.3333333   0.4444444   0.1111111), wk =   0.0438957
        k(   68) = (   0.3333333   0.4444444   0.2222222), wk =   0.0438957
        k(   69) = (   0.3333333   0.4444444   0.3333333), wk =   0.0438957
        k(   70) = (   0.3333333   0.4444444   0.4444444), wk =   0.0438957
        k(   71) = (   0.4444444   0.4444444   0.0000000), wk =   0.0109739
        k(   72) = (   0.4444444   0.4444444   0.1111111), wk =   0.0219479
        k(   73) = (   0.4444444   0.4444444   0.2222222), wk =   0.0219479
        k(   74) = (   0.4444444   0.4444444   0.3333333), wk =   0.0219479
        k(   75) = (   0.4444444   0.4444444   0.4444444), wk =   0.0219479

     Dense  grid:   146829 G-vectors     FFT dimensions: (  80,  80,  50)

     Dynamical RAM for                 wfc:       0.41 MB

     Dynamical RAM for     wfc (w. buffer):      31.33 MB

     Dynamical RAM for           str. fact:       0.24 MB

     Dynamical RAM for           local pot:       0.00 MB

     Dynamical RAM for          nlocal pot:       1.59 MB

     Dynamical RAM for                qrad:       2.69 MB

     Dynamical RAM for          rho,v,vnew:       0.79 MB

     Dynamical RAM for               rhoin:       0.26 MB

     Dynamical RAM for            rho*nmix:       1.89 MB

     Dynamical RAM for           G-vectors:       0.50 MB

     Dynamical RAM for          h,s,v(r/c):       0.14 MB

     Dynamical RAM for          <psi|beta>:       0.05 MB

     Dynamical RAM for                 psi:       0.82 MB

     Dynamical RAM for                hpsi:       0.82 MB

     Dynamical RAM for                spsi:       0.82 MB

     Dynamical RAM for      wfcinit/wfcrot:       1.03 MB

     Dynamical RAM for           addusdens:      22.41 MB

     Dynamical RAM for          addusforce:      23.19 MB

     Dynamical RAM for         addusstress:      23.70 MB

     Estimated static dynamical RAM per process >      40.38 MB

     Estimated max dynamical RAM per process >      64.08 MB

     Estimated total dynamical RAM >       1.19 GB

     Initial potential from superposition of free atoms

     starting charge   55.99693, renormalised to   56.00000
     Starting wfcs are   34 randomized atomic wfcs
     Checking if some PAW data can be deallocated... 
       PAW data deallocated on   12 nodes for type:  1
       PAW data deallocated on    7 nodes for type:  2

     total cpu time spent up to now is       15.0 secs

     Self-consistent Calculation

     iteration #  1     ecut=    70.00 Ry     beta= 0.70
     Davidson diagonalization with overlap
     ethr =  1.00E-02,  avg # of iterations =  1.1

     Threshold (ethr) on eigenvalues was too large:
     Diagonalizing with lowered threshold

     Davidson diagonalization with overlap
     ethr =  2.43E-04,  avg # of iterations =  2.3

     total cpu time spent up to now is       56.3 secs

     total energy              =   -2399.93877034 Ry
     estimated scf accuracy    <       0.12295753 Ry

     iteration #  2     ecut=    70.00 Ry     beta= 0.70
     Davidson diagonalization with overlap
     ethr =  2.20E-04,  avg # of iterations =  3.9

     total cpu time spent up to now is       84.0 secs

     total energy              =   -2399.97928753 Ry
     estimated scf accuracy    <       0.05127759 Ry

     iteration #  3     ecut=    70.00 Ry     beta= 0.70
     Davidson diagonalization with overlap
     ethr =  9.16E-05,  avg # of iterations =  2.2

     total cpu time spent up to now is      107.0 secs

     total energy              =   -2399.98781562 Ry
     estimated scf accuracy    <       0.00119326 Ry

     iteration #  4     ecut=    70.00 Ry     beta= 0.70
     Davidson diagonalization with overlap
     ethr =  2.13E-06,  avg # of iterations =  6.0

     total cpu time spent up to now is      144.8 secs

     total energy              =   -2399.98887298 Ry
     estimated scf accuracy    <       0.00093958 Ry

     iteration #  5     ecut=    70.00 Ry     beta= 0.70
     Davidson diagonalization with overlap
     ethr =  1.68E-06,  avg # of iterations =  2.0

     total cpu time spent up to now is      167.0 secs

     total energy              =   -2399.98893702 Ry
     estimated scf accuracy    <       0.00007782 Ry

     iteration #  6     ecut=    70.00 Ry     beta= 0.70
     Davidson diagonalization with overlap
     ethr =  1.39E-07,  avg # of iterations =  5.2

     total cpu time spent up to now is      199.7 secs

     total energy              =   -2399.98898301 Ry
     estimated scf accuracy    <       0.00002409 Ry

     iteration #  7     ecut=    70.00 Ry     beta= 0.70
     Davidson diagonalization with overlap
     ethr =  4.30E-08,  avg # of iterations =  2.1

     total cpu time spent up to now is      223.5 secs

     total energy              =   -2399.98898468 Ry
     estimated scf accuracy    <       0.00000189 Ry

     iteration #  8     ecut=    70.00 Ry     beta= 0.70
     Davidson diagonalization with overlap
     ethr =  3.37E-09,  avg # of iterations =  5.3

     total cpu time spent up to now is      255.4 secs

     End of self-consistent calculation

          k = 0.0000 0.0000 0.0000 ( 18341 PWs)   bands (ev):

   -18.3814 -18.3791 -18.3748 -18.3748 -18.3731 -18.3730 -18.3728 -18.3721
   -18.3643 -18.3643  -9.3579  -8.8453  -8.8453  -8.7170  -4.1493  -2.2716
    -0.0908  -0.0908   0.2434   0.7194   1.1184   1.2581   1.4757   1.4757
     1.9914   1.9914   2.3368   2.7031

     occupation numbers 
     1.0000   1.0000   1.0000   1.0000   1.0000   1.0000   1.0000   1.0000
     1.0000   1.0000   1.0000   1.0000   1.0000   1.0000   1.0000   1.0000
     1.0000   1.0000   1.0000   1.0000   1.0000   1.0000   1.0000   1.0000
     1.0000   1.0000   1.0000   1.0000

          k = 0.0000 0.0000 0.1721 ( 18341 PWs)   bands (ev):

   -18.3813 -18.3792 -18.3752 -18.3752 -18.3730 -18.3729 -18.3727 -18.3716
   -18.3643 -18.3643  -9.3288  -8.8347  -8.8347  -8.7212  -4.1405  -2.3970
    -0.0504  -0.0504   0.1404   0.7644   0.7705   1.2376   1.2376   1.6273
     1.9744   1.9744   2.2875   2.8202

     occupation numbers 
     1.0000   1.0000   1.0000   1.0000   1.0000   1.0000   1.0000   1.0000
     1.0000   1.0000   1.0000   1.0000   1.0000   1.0000   1.0000   1.0000
     1.0000   1.0000   1.0000   1.0000   1.0000   1.0000   1.0000   1.0000
     1.0000   1.0000   1.0000   1.0000

          k = 0.0000 0.0000 0.3441 ( 18341 PWs)   bands (ev):

   -18.3810 -18.3792 -18.3762 -18.3762 -18.3729 -18.3729 -18.3714 -18.3706
   -18.3645 -18.3645  -9.2466  -8.8075  -8.8075  -8.7397  -4.1045  -2.7256
    -0.0382   0.0573   0.0573   0.4832   0.7896   0.7896   0.8955   1.8822
     1.8822   1.9076   2.1435   2.9463

     occupation numbers 
     1.0000   1.0000   1.0000   1.0000   1.0000   1.0000   1.0000   1.0000
     1.0000   1.0000   1.0000   1.0000   1.0000   1.0000   1.0000   1.0000
     1.0000   1.0000   1.0000   1.0000   1.0000   1.0000   1.0000   1.0000
     1.0000   1.0000   1.0000   1.0000

          k = 0.0000 0.0000 0.5162 ( 18380 PWs)   bands (ev):

   -18.3806 -18.3795 -18.3773 -18.3773 -18.3730 -18.3728 -18.3702 -18.3696
   -18.3648 -18.3648  -9.1266  -8.7866  -8.7759  -8.7759  -4.0130  -3.1421
    -0.1258   0.1539   0.1539   0.2736   0.4548   0.4548   1.1014   1.7304
     1.7304   1.9203   2.0550   2.8229

     occupation numbers 
     1.0000   1.0000   1.0000   1.0000   1.0000   1.0000   1.0000   1.0000
     1.0000   1.0000   1.0000   1.0000   1.0000   1.0000   1.0000   1.0000
     1.0000   1.0000   1.0000   1.0000   1.0000   1.0000   1.0000   1.0000
     1.0000   1.0000   1.0000   1.0000

          k = 0.0000 0.0000 0.6882 ( 18308 PWs)   bands (ev):

   -18.3801 -18.3797 -18.3780 -18.3780 -18.3729 -18.3728 -18.3692 -18.3690
   -18.3649 -18.3649  -8.9928  -8.8725  -8.7550  -8.7550  -3.8293  -3.5327
    -0.0743   0.0725   0.0725   0.0806   0.4467   0.4467   1.3617   1.5985
     1.5985   1.6471   2.2419   2.5282

     occupation numbers 
     1.0000   1.0000   1.0000   1.0000   1.0000   1.0000   1.0000   1.0000
     1.0000   1.0000   1.0000   1.0000   1.0000   1.0000   1.0000   1.0000
     1.0000   1.0000   1.0000   1.0000   1.0000   1.0000   1.0000   1.0000
     1.0000   1.0000   1.0000   1.0000

          k = 0.0000 0.1111 0.0000 ( 18346 PWs)   bands (ev):

   -18.3813 -18.3792 -18.3748 -18.3748 -18.3731 -18.3730 -18.3728 -18.3721
   -18.3643 -18.3643  -9.3460  -8.8709  -8.8398  -8.7131  -4.1073  -2.3683
    -0.0671  -0.0030   0.2629   0.7446   1.1027   1.1803   1.4831   1.5186
     1.9644   1.9938   2.3016   2.6533

     occupation numbers 
     1.0000   1.0000   1.0000   1.0000   1.0000   1.0000   1.0000   1.0000
     1.0000   1.0000   1.0000   1.0000   1.0000   1.0000   1.0000   1.0000
     1.0000   1.0000   1.0000   1.0000   1.0000   1.0000   1.0000   1.0000
     1.0000   1.0000   1.0000   1.0000

          k = 0.0000 0.1111 0.1721 ( 18351 PWs)   bands (ev):

   -18.3812 -18.3793 -18.3752 -18.3752 -18.3730 -18.3729 -18.3726 -18.3717
   -18.3644 -18.3643  -9.3172  -8.8597  -8.8296  -8.7166  -4.1002  -2.4799
    -0.0853  -0.0071   0.2216   0.7607   0.7805   1.2533   1.2721   1.5965
     1.9430   1.9730   2.2651   2.7736

     occupation numbers 
     1.0000   1.0000   1.0000   1.0000   1.0000   1.0000   1.0000   1.0000
     1.0000   1.0000   1.0000   1.0000   1.0000   1.0000   1.0000   1.0000
     1.0000   1.0000   1.0000   1.0000   1.0000   1.0000   1.0000   1.0000
     1.0000   1.0000   1.0000   1.0000

          k = 0.0000 0.1111 0.3441 ( 18351 PWs)   bands (ev):

   -18.3809 -18.3793 -18.3762 -18.3762 -18.3730 -18.3729 -18.3714 -18.3707
   -18.3646 -18.3645  -9.2363  -8.8318  -8.8037  -8.7321  -4.0698  -2.7801
    -0.1841  -0.0099   0.2517   0.4913   0.7382   0.9036   0.9789   1.8396
     1.8723   1.9095   2.1374   2.9136

     occupation numbers 
     1.0000   1.0000   1.0000   1.0000   1.0000   1.0000   1.0000   1.0000
     1.0000   1.0000   1.0000   1.0000   1.0000   1.0000   1.0000   1.0000
     1.0000   1.0000   1.0000   1.0000   1.0000   1.0000   1.0000   1.0000
     1.0000   1.0000   1.0000   1.0000

          k = 0.0000 0.1111 0.5162 ( 18327 PWs)   bands (ev):

   -18.3805 -18.3795 -18.3773 -18.3773 -18.3729 -18.3728 -18.3701 -18.3696
   -18.3647 -18.3647  -9.1184  -8.8119  -8.7745  -8.7617  -3.9882  -3.1700
    -0.2587  -0.0177   0.2278   0.2693   0.5086   0.7077   1.1408   1.7027
     1.7112   1.9268   2.0807   2.8209

     occupation numbers 
     1.0000   1.0000   1.0000   1.0000   1.0000   1.0000   1.0000   1.0000
     1.0000   1.0000   1.0000   1.0000   1.0000   1.0000   1.0000   1.0000
     1.0000   1.0000   1.0000   1.0000   1.0000   1.0000   1.0000   1.0000
     1.0000   1.0000   1.0000   1.0000

          k = 0.0000 0.1111 0.6882 ( 18315 PWs)   bands (ev):

   -18.3802 -18.3798 -18.3780 -18.3779 -18.3728 -18.3728 -18.3691 -18.3690
   -18.3649 -18.3648  -8.9879  -8.8733  -8.7580  -8.7564  -3.8184  -3.5394
    -0.2268  -0.1131   0.0811   0.1046   0.6041   0.6613   1.3825   1.5667
     1.5792   1.6730   2.2793   2.5552

     occupation numbers 
     1.0000   1.0000   1.0000   1.0000   1.0000   1.0000   1.0000   1.0000
     1.0000   1.0000   1.0000   1.0000   1.0000   1.0000   1.0000   1.0000
     1.0000   1.0000   1.0000   1.0000   1.0000   1.0000   1.0000   1.0000
     1.0000   1.0000   1.0000   1.0000

          k = 0.0000 0.2222 0.0000 ( 18352 PWs)   bands (ev):

   -18.3811 -18.3794 -18.3748 -18.3748 -18.3731 -18.3730 -18.3729 -18.3722
   -18.3643 -18.3643  -9.3110  -8.9331  -8.8239  -8.7121  -3.9843  -2.6108
     0.0011   0.1901   0.3208   0.8170   1.0281   1.0743   1.5039   1.5721
     1.8910   2.0006   2.2226   2.5107

     occupation numbers 
     1.0000   1.0000   1.0000   1.0000   1.0000   1.0000   1.0000   1.0000
     1.0000   1.0000   1.0000   1.0000   1.0000   1.0000   1.0000   1.0000
     1.0000   1.0000   1.0000   1.0000   1.0000   1.0000   1.0000   1.0000
     1.0000   1.0000   1.0000   1.0000

          k = 0.0000 0.2222 0.1721 ( 18353 PWs)   bands (ev):

   -18.3810 -18.3794 -18.3752 -18.3752 -18.3731 -18.3729 -18.3726 -18.3718
   -18.3643 -18.3643  -9.2834  -8.9197  -8.8151  -8.7144  -3.9824  -2.6941
    -0.1192   0.0569   0.3906   0.7813   0.8255   1.2981   1.3358   1.5191
     1.8689   1.9706   2.2050   2.6383

     occupation numbers 
     1.0000   1.0000   1.0000   1.0000   1.0000   1.0000   1.0000   1.0000
     1.0000   1.0000   1.0000   1.0000   1.0000   1.0000   1.0000   1.0000
     1.0000   1.0000   1.0000   1.0000   1.0000   1.0000   1.0000   1.0000
     1.0000   1.0000   1.0000   1.0000

          k = 0.0000 0.2222 0.3441 ( 18334 PWs)   bands (ev):

   -18.3808 -18.3795 -18.3762 -18.3761 -18.3730 -18.3728 -18.3714 -18.3707
   -18.3645 -18.3645  -9.2060  -8.8857  -8.7931  -8.7259  -3.9685  -2.9289
    -0.3144  -0.1442   0.5179   0.5282   0.6918   1.1183   1.1325   1.7939
     1.8497   1.8564   2.1093   2.8127

     occupation numbers 
     1.0000   1.0000   1.0000   1.0000   1.0000   1.0000   1.0000   1.0000
     1.0000   1.0000   1.0000   1.0000   1.0000   1.0000   1.0000   1.0000
     1.0000   1.0000   1.0000   1.0000   1.0000   1.0000   1.0000   1.0000
     1.0000   1.0000   1.0000   1.0000

          k = 0.0000 0.2222 0.5162 ( 18350 PWs)   bands (ev):

   -18.3805 -18.3797 -18.3772 -18.3772 -18.3729 -18.3728 -18.3701 -18.3696
   -18.3648 -18.3648  -9.0946  -8.8525  -8.7704  -8.7524  -3.9162  -3.2498
    -0.4288  -0.2648   0.2386   0.3126   0.7490   1.0151   1.2342   1.6741
     1.6781   1.9343   2.1238   2.8004

     occupation numbers 
     1.0000   1.0000   1.0000   1.0000   1.0000   1.0000   1.0000   1.0000
     1.0000   1.0000   1.0000   1.0000   1.0000   1.0000   1.0000   1.0000
     1.0000   1.0000   1.0000   1.0000   1.0000   1.0000   1.0000   1.0000
     1.0000   1.0000   1.0000   1.0000

          k = 0.0000 0.2222 0.6882 ( 18325 PWs)   bands (ev):

   -18.3803 -18.3800 -18.3778 -18.3778 -18.3729 -18.3728 -18.3691 -18.3690
   -18.3649 -18.3649  -8.9740  -8.8771  -8.7651  -8.7602  -3.7877  -3.5593
    -0.4313  -0.3581   0.0840   0.1092   0.9012   0.9578   1.4059   1.5393
     1.5820   1.7276   2.3617   2.6118

     occupation numbers 
     1.0000   1.0000   1.0000   1.0000   1.0000   1.0000   1.0000   1.0000
     1.0000   1.0000   1.0000   1.0000   1.0000   1.0000   1.0000   1.0000
     1.0000   1.0000   1.0000   1.0000   1.0000   1.0000   1.0000   1.0000
     1.0000   1.0000   1.0000   1.0000

          k = 0.0000 0.3333 0.0000 ( 18346 PWs)   bands (ev):

   -18.3807 -18.3797 -18.3748 -18.3748 -18.3730 -18.3729 -18.3729 -18.3724
   -18.3643 -18.3643  -9.2554  -9.0135  -8.8001  -8.7229  -3.7892  -2.9188
     0.1048   0.3336   0.4145   0.8580   0.9262   1.0864   1.5339   1.5956
     1.8096   2.0091   2.1470   2.2984

     occupation numbers 
     1.0000   1.0000   1.0000   1.0000   1.0000   1.0000   1.0000   1.0000
     1.0000   1.0000   1.0000   1.0000   1.0000   1.0000   1.0000   1.0000
     1.0000   1.0000   1.0000   1.0000   1.0000   1.0000   1.0000   1.0000
     1.0000   1.0000   1.0000   1.0000

          k = 0.0000 0.3333 0.1721 ( 18343 PWs)   bands (ev):

   -18.3807 -18.3797 -18.3752 -18.3752 -18.3730 -18.3729 -18.3724 -18.3719
   -18.3643 -18.3643  -9.2297  -8.9969  -8.7932  -8.7235  -3.7958  -2.9752
    -0.1158   0.0500   0.5987   0.8650   0.8888   1.2751   1.3644   1.5105
     1.8181   1.9730   2.1273   2.4294

     occupation numbers 
     1.0000   1.0000   1.0000   1.0000   1.0000   1.0000   1.0000   1.0000
     1.0000   1.0000   1.0000   1.0000   1.0000   1.0000   1.0000   1.0000
     1.0000   1.0000   1.0000   1.0000   1.0000   1.0000   1.0000   1.0000
     1.0000   1.0000   1.0000   1.0000

          k = 0.0000 0.3333 0.3441 ( 18327 PWs)   bands (ev):

   -18.3806 -18.3798 -18.3761 -18.3761 -18.3730 -18.3729 -18.3713 -18.3708
   -18.3645 -18.3645  -9.1582  -8.9533  -8.7774  -8.7297  -3.8092  -3.1388
    -0.3876  -0.2712   0.5742   0.6358   0.8421   1.2600   1.3115   1.6853
     1.8372   1.8936   2.0448   2.6394

     occupation numbers 
     1.0000   1.0000   1.0000   1.0000   1.0000   1.0000   1.0000   1.0000
     1.0000   1.0000   1.0000   1.0000   1.0000   1.0000   1.0000   1.0000
     1.0000   1.0000   1.0000   1.0000   1.0000   1.0000   1.0000   1.0000
     1.0000   1.0000   1.0000   1.0000

          k = 0.0000 0.3333 0.5162 ( 18346 PWs)   bands (ev):

   -18.3804 -18.3800 -18.3772 -18.3771 -18.3729 -18.3729 -18.3700 -18.3697
   -18.3648 -18.3648  -9.0571  -8.9020  -8.7645  -8.7500  -3.8047  -3.3702
    -0.5447  -0.4506   0.2574   0.3021   1.0570   1.1941   1.3214   1.6788
     1.7096   1.9198   2.1874   2.7290

     occupation numbers 
     1.0000   1.0000   1.0000   1.0000   1.0000   1.0000   1.0000   1.0000
     1.0000   1.0000   1.0000   1.0000   1.0000   1.0000   1.0000   1.0000
     1.0000   1.0000   1.0000   1.0000   1.0000   1.0000   1.0000   1.0000
     1.0000   1.0000   1.0000   1.0000

          k = 0.0000 0.3333 0.6882 ( 18361 PWs)   bands (ev):

   -18.3804 -18.3802 -18.3778 -18.3777 -18.3729 -18.3729 -18.3691 -18.3690
   -18.3649 -18.3649  -8.9530  -8.8868  -8.7718  -8.7656  -3.7421  -3.5924
    -0.5822  -0.5418   0.0889   0.1042   1.1136   1.1263   1.4522   1.6198
     1.6658   1.7811   2.4564   2.6537

     occupation numbers 
     1.0000   1.0000   1.0000   1.0000   1.0000   1.0000   1.0000   1.0000
     1.0000   1.0000   1.0000   1.0000   1.0000   1.0000   1.0000   1.0000
     1.0000   1.0000   1.0000   1.0000   1.0000   1.0000   1.0000   1.0000
     1.0000   1.0000   1.0000   1.0000

          k = 0.0000 0.4444 0.0000 ( 18350 PWs)   bands (ev):

   -18.3804 -18.3800 -18.3748 -18.3748 -18.3730 -18.3730 -18.3728 -18.3726
   -18.3643 -18.3643  -9.1831  -9.1000  -8.7720  -8.7445  -3.5349  -3.2376
     0.2254   0.3263   0.5401   0.6909   1.0459   1.1144   1.5660   1.5903
     1.8267   1.9762   2.0973   2.1032

     occupation numbers 
     1.0000   1.0000   1.0000   1.0000   1.0000   1.0000   1.0000   1.0000
     1.0000   1.0000   1.0000   1.0000   1.0000   1.0000   1.0000   1.0000
     1.0000   1.0000   1.0000   1.0000   1.0000   1.0000   1.0000   1.0000
     1.0000   1.0000   1.0000   1.0000

          k = 0.0000 0.4444 0.1721 ( 18353 PWs)   bands (ev):

   -18.3804 -18.3800 -18.3752 -18.3752 -18.3730 -18.3729 -18.3723 -18.3721
   -18.3643 -18.3643  -9.1600  -9.0800  -8.7676  -8.7427  -3.5536  -3.2726
    -0.0755  -0.0108   0.8174   0.9208   0.9544   1.0886   1.4404   1.5064
     1.9129   1.9862   2.0650   2.1821

     occupation numbers 
     1.0000   1.0000   1.0000   1.0000   1.0000   1.0000   1.0000   1.0000
     1.0000   1.0000   1.0000   1.0000   1.0000   1.0000   1.0000   1.0000
     1.0000   1.0000   1.0000   1.0000   1.0000   1.0000   1.0000   1.0000
     1.0000   1.0000   1.0000   1.0000

          k = 0.0000 0.4444 0.3441 ( 18351 PWs)   bands (ev):

   -18.3803 -18.3801 -18.3761 -18.3761 -18.3730 -18.3729 -18.3711 -18.3710
   -18.3645 -18.3645  -9.0964  -9.0260  -8.7592  -8.7420  -3.6051  -3.3740
    -0.4023  -0.3614   0.6076   0.6252   1.1319   1.3311   1.3705   1.4887
     1.8680   1.9505   2.1228   2.3991

     occupation numbers 
     1.0000   1.0000   1.0000   1.0000   1.0000   1.0000   1.0000   1.0000
     1.0000   1.0000   1.0000   1.0000   1.0000   1.0000   1.0000   1.0000
     1.0000   1.0000   1.0000   1.0000   1.0000   1.0000   1.0000   1.0000
     1.0000   1.0000   1.0000   1.0000

          k = 0.0000 0.4444 0.5162 ( 18374 PWs)   bands (ev):

   -18.3804 -18.3802 -18.3771 -18.3771 -18.3729 -18.3729 -18.3699 -18.3698
   -18.3648 -18.3648  -9.0095  -8.9560  -8.7580  -8.7526  -3.6658  -3.5150
    -0.5906  -0.5600   0.2746   0.2885   1.2483   1.2487   1.4423   1.6417
     1.7639   1.8648   2.3624   2.5786

     occupation numbers 
     1.0000   1.0000   1.0000   1.0000   1.0000   1.0000   1.0000   1.0000
     1.0000   1.0000   1.0000   1.0000   1.0000   1.0000   1.0000   1.0000
     1.0000   1.0000   1.0000   1.0000   1.0000   1.0000   1.0000   1.0000
     1.0000   1.0000   1.0000   1.0000

          k = 0.0000 0.4444 0.6882 ( 18358 PWs)   bands (ev):

   -18.3804 -18.3804 -18.3777 -18.3777 -18.3729 -18.3728 -18.3690 -18.3690
   -18.3649 -18.3649  -8.9284  -8.9047  -8.7738  -8.7709  -3.6892  -3.6371
    -0.6562  -0.6433   0.0943   0.0992   1.1431   1.1566   1.6204   1.7034
     1.7576   1.7980   2.5627   2.6434

     occupation numbers 
     1.0000   1.0000   1.0000   1.0000   1.0000   1.0000   1.0000   1.0000
     1.0000   1.0000   1.0000   1.0000   1.0000   1.0000   1.0000   1.0000
     1.0000   1.0000   1.0000   1.0000   1.0000   1.0000   1.0000   1.0000
     1.0000   1.0000   1.0000   1.0000

          k = 0.1111 0.1111 0.0000 ( 18369 PWs)   bands (ev):

   -18.3812 -18.3793 -18.3748 -18.3748 -18.3731 -18.3731 -18.3729 -18.3722
   -18.3643 -18.3643  -9.3342  -8.8810  -8.8471  -8.7115  -4.0667  -2.4500
    -0.0738   0.0949   0.2820   0.7690   1.0903   1.1296   1.4721   1.5526
     1.9622   1.9725   2.2655   2.6093

     occupation numbers 
     1.0000   1.0000   1.0000   1.0000   1.0000   1.0000   1.0000   1.0000
     1.0000   1.0000   1.0000   1.0000   1.0000   1.0000   1.0000   1.0000
     1.0000   1.0000   1.0000   1.0000   1.0000   1.0000   1.0000   1.0000
     1.0000   1.0000   1.0000   1.0000

          k = 0.1111 0.1111 0.1721 ( 18351 PWs)   bands (ev):

   -18.3811 -18.3793 -18.3752 -18.3752 -18.3731 -18.3729 -18.3726 -18.3717
   -18.3643 -18.3643  -9.3059  -8.8700  -8.8364  -8.7144  -4.0615  -2.5520
    -0.0501  -0.0332   0.2758   0.7745   0.7947   1.2455   1.3179   1.5649
     1.9376   1.9484   2.2436   2.7306

     occupation numbers 
     1.0000   1.0000   1.0000   1.0000   1.0000   1.0000   1.0000   1.0000
     1.0000   1.0000   1.0000   1.0000   1.0000   1.0000   1.0000   1.0000
     1.0000   1.0000   1.0000   1.0000   1.0000   1.0000   1.0000   1.0000
     1.0000   1.0000   1.0000   1.0000

          k = 0.1111 0.1111 0.3441 ( 18352 PWs)   bands (ev):

   -18.3809 -18.3794 -18.3762 -18.3762 -18.3730 -18.3729 -18.3714 -18.3707
   -18.3646 -18.3645  -9.2262  -8.8432  -8.8091  -8.7281  -4.0368  -2.8302
    -0.2583   0.0744   0.1799   0.5581   0.6876   1.0245   1.0272   1.8077
     1.8691   1.8985   2.1327   2.8739

     occupation numbers 
     1.0000   1.0000   1.0000   1.0000   1.0000   1.0000   1.0000   1.0000
     1.0000   1.0000   1.0000   1.0000   1.0000   1.0000   1.0000   1.0000
     1.0000   1.0000   1.0000   1.0000   1.0000   1.0000   1.0000   1.0000
     1.0000   1.0000   1.0000   1.0000

          k = 0.1111 0.1111 0.5162 ( 18328 PWs)   bands (ev):

   -18.3805 -18.3796 -18.3773 -18.3772 -18.3729 -18.3729 -18.3701 -18.3696
   -18.3647 -18.3647  -9.1105  -8.8241  -8.7775  -8.7555  -3.9653  -3.1973
    -0.3699   0.0476   0.1531   0.3381   0.4144   0.9186   1.1774   1.6466
     1.7346   1.9337   2.1002   2.8061

     occupation numbers 
     1.0000   1.0000   1.0000   1.0000   1.0000   1.0000   1.0000   1.0000
     1.0000   1.0000   1.0000   1.0000   1.0000   1.0000   1.0000   1.0000
     1.0000   1.0000   1.0000   1.0000   1.0000   1.0000   1.0000   1.0000
     1.0000   1.0000   1.0000   1.0000

          k = 0.1111 0.1111 0.6882 ( 18306 PWs)   bands (ev):

   -18.3802 -18.3798 -18.3780 -18.3778 -18.3728 -18.3728 -18.3691 -18.3690
   -18.3649 -18.3648  -8.9834  -8.8743  -8.7616  -8.7565  -3.8098  -3.5465
    -0.3797  -0.0979   0.0381   0.2356   0.4474   0.9275   1.4071   1.4970
     1.6048   1.6974   2.3118   2.5737

     occupation numbers 
     1.0000   1.0000   1.0000   1.0000   1.0000   1.0000   1.0000   1.0000
     1.0000   1.0000   1.0000   1.0000   1.0000   1.0000   1.0000   1.0000
     1.0000   1.0000   1.0000   1.0000   1.0000   1.0000   1.0000   1.0000
     1.0000   1.0000   1.0000   1.0000

          k = 0.1111 0.2222 0.0000 ( 18360 PWs)   bands (ev):

   -18.3810 -18.3795 -18.3748 -18.3748 -18.3731 -18.3730 -18.3729 -18.3722
   -18.3643 -18.3643  -9.2999  -8.9337  -8.8363  -8.7143  -3.9482  -2.6617
    -0.0253   0.2591   0.3385   0.8396   1.0063   1.0738   1.4822   1.5877
     1.8941   1.9776   2.1836   2.4825

     occupation numbers 
     1.0000   1.0000   1.0000   1.0000   1.0000   1.0000   1.0000   1.0000
     1.0000   1.0000   1.0000   1.0000   1.0000   1.0000   1.0000   1.0000
     1.0000   1.0000   1.0000   1.0000   1.0000   1.0000   1.0000   1.0000
     1.0000   1.0000   1.0000   1.0000

          k = 0.1111 0.2222 0.1721 ( 18371 PWs)   bands (ev):

   -18.3809 -18.3795 -18.3752 -18.3752 -18.3731 -18.3729 -18.3726 -18.3718
   -18.3644 -18.3643  -9.2727  -8.9207  -8.8266  -8.7161  -3.9483  -2.7421
    -0.0827   0.0378   0.3777   0.8276   0.8444   1.2779   1.3629   1.4973
     1.8727   1.9448   2.1852   2.6066

     occupation numbers 
     1.0000   1.0000   1.0000   1.0000   1.0000   1.0000   1.0000   1.0000
     1.0000   1.0000   1.0000   1.0000   1.0000   1.0000   1.0000   1.0000
     1.0000   1.0000   1.0000   1.0000   1.0000   1.0000   1.0000   1.0000
     1.0000   1.0000   1.0000   1.0000

          k = 0.1111 0.2222 0.3441 ( 18338 PWs)   bands (ev):

   -18.3807 -18.3796 -18.3762 -18.3761 -18.3730 -18.3728 -18.3714 -18.3707
   -18.3645 -18.3645  -9.1966  -8.8882  -8.8024  -8.7260  -3.9408  -2.9677
    -0.3403  -0.0544   0.3436   0.6400   0.6493   1.1436   1.2354   1.7781
     1.8287   1.8600   2.1080   2.7621

     occupation numbers 
     1.0000   1.0000   1.0000   1.0000   1.0000   1.0000   1.0000   1.0000
     1.0000   1.0000   1.0000   1.0000   1.0000   1.0000   1.0000   1.0000
     1.0000   1.0000   1.0000   1.0000   1.0000   1.0000   1.0000   1.0000
     1.0000   1.0000   1.0000   1.0000

          k = 0.1111 0.2222 0.5162 ( 18339 PWs)   bands (ev):

   -18.3805 -18.3797 -18.3773 -18.3772 -18.3729 -18.3728 -18.3700 -18.3696
   -18.3648 -18.3647  -9.0873  -8.8572  -8.7757  -8.7504  -3.8991  -3.2746
    -0.4985  -0.1406   0.1890   0.3370   0.5989   1.1727   1.2669   1.6138
     1.7302   1.9423   2.1383   2.7527

     occupation numbers 
     1.0000   1.0000   1.0000   1.0000   1.0000   1.0000   1.0000   1.0000
     1.0000   1.0000   1.0000   1.0000   1.0000   1.0000   1.0000   1.0000
     1.0000   1.0000   1.0000   1.0000   1.0000   1.0000   1.0000   1.0000
     1.0000   1.0000   1.0000   1.0000

          k = 0.1111 0.2222 0.6882 ( 18329 PWs)   bands (ev):

   -18.3803 -18.3799 -18.3780 -18.3777 -18.3729 -18.3728 -18.3691 -18.3690
   -18.3649 -18.3649  -8.9703  -8.8783  -8.7680  -8.7594  -3.7850  -3.5680
    -0.5416  -0.2288   0.0166   0.2051   0.6741   1.1780   1.4040   1.4996
     1.6237   1.7463   2.3806   2.6071

     occupation numbers 
     1.0000   1.0000   1.0000   1.0000   1.0000   1.0000   1.0000   1.0000
     1.0000   1.0000   1.0000   1.0000   1.0000   1.0000   1.0000   1.0000
     1.0000   1.0000   1.0000   1.0000   1.0000   1.0000   1.0000   1.0000
     1.0000   1.0000   1.0000   1.0000

          k = 0.1111 0.3333 0.0000 ( 18338 PWs)   bands (ev):

   -18.3807 -18.3797 -18.3748 -18.3748 -18.3730 -18.3729 -18.3729 -18.3724
   -18.3643 -18.3642  -9.2453  -9.0098  -8.8121  -8.7285  -3.7608  -2.9407
     0.0733   0.3521   0.4297   0.8528   0.9463   1.1028   1.5114   1.5964
     1.8148   1.9895   2.1007   2.2950

     occupation numbers 
     1.0000   1.0000   1.0000   1.0000   1.0000   1.0000   1.0000   1.0000
     1.0000   1.0000   1.0000   1.0000   1.0000   1.0000   1.0000   1.0000
     1.0000   1.0000   1.0000   1.0000   1.0000   1.0000   1.0000   1.0000
     1.0000   1.0000   1.0000   1.0000

          k = 0.1111 0.3333 0.1721 ( 18345 PWs)   bands (ev):

   -18.3807 -18.3797 -18.3752 -18.3752 -18.3730 -18.3729 -18.3724 -18.3719
   -18.3643 -18.3643  -9.2200  -8.9937  -8.8045  -8.7284  -3.7698  -2.9981
    -0.0876   0.0503   0.5364   0.8787   0.9389   1.2433   1.3575   1.5232
     1.8267   1.9542   2.1088   2.4158

     occupation numbers 
     1.0000   1.0000   1.0000   1.0000   1.0000   1.0000   1.0000   1.0000
     1.0000   1.0000   1.0000   1.0000   1.0000   1.0000   1.0000   1.0000
     1.0000   1.0000   1.0000   1.0000   1.0000   1.0000   1.0000   1.0000
     1.0000   1.0000   1.0000   1.0000

          k = 0.1111 0.3333 0.3441 ( 18345 PWs)   bands (ev):

   -18.3805 -18.3798 -18.3762 -18.3761 -18.3730 -18.3729 -18.3713 -18.3709
   -18.3645 -18.3645  -9.1498  -8.9515  -8.7864  -8.7329  -3.7902  -3.1622
    -0.3806  -0.2040   0.5026   0.6194   0.8057   1.2790   1.3732   1.6607
     1.8244   1.9141   2.0476   2.5939

     occupation numbers 
     1.0000   1.0000   1.0000   1.0000   1.0000   1.0000   1.0000   1.0000
     1.0000   1.0000   1.0000   1.0000   1.0000   1.0000   1.0000   1.0000
     1.0000   1.0000   1.0000   1.0000   1.0000   1.0000   1.0000   1.0000
     1.0000   1.0000   1.0000   1.0000

          k = 0.1111 0.3333 0.5162 ( 18348 PWs)   bands (ev):

   -18.3804 -18.3799 -18.3772 -18.3771 -18.3730 -18.3729 -18.3700 -18.3697
   -18.3647 -18.3647  -9.0511  -8.9026  -8.7697  -8.7507  -3.7963  -3.3899
    -0.5655  -0.3402   0.2056   0.3052   0.9208   1.2980   1.3511   1.6467
     1.7302   1.9287   2.1985   2.6508

     occupation numbers 
     1.0000   1.0000   1.0000   1.0000   1.0000   1.0000   1.0000   1.0000
     1.0000   1.0000   1.0000   1.0000   1.0000   1.0000   1.0000   1.0000
     1.0000   1.0000   1.0000   1.0000   1.0000   1.0000   1.0000   1.0000
     1.0000   1.0000   1.0000   1.0000

          k = 0.1111 0.3333 0.6882 ( 18361 PWs)   bands (ev):

   -18.3804 -18.3801 -18.3779 -18.3777 -18.3729 -18.3729 -18.3691 -18.3690
   -18.3649 -18.3649  -8.9508  -8.8882  -8.7730  -8.7645  -3.7464  -3.6031
    -0.6288  -0.4088   0.0178   0.1440   0.9866   1.2665   1.3897   1.6208
     1.6910   1.7932   2.4384   2.6061

     occupation numbers 
     1.0000   1.0000   1.0000   1.0000   1.0000   1.0000   1.0000   1.0000
     1.0000   1.0000   1.0000   1.0000   1.0000   1.0000   1.0000   1.0000
     1.0000   1.0000   1.0000   1.0000   1.0000   1.0000   1.0000   1.0000
     1.0000   1.0000   1.0000   1.0000

          k = 0.1111 0.4444 0.0000 ( 18331 PWs)   bands (ev):

   -18.3804 -18.3800 -18.3748 -18.3748 -18.3730 -18.3729 -18.3727 -18.3726
   -18.3642 -18.3642  -9.1745  -9.0934  -8.7825  -8.7528  -3.5179  -3.2370
     0.1973   0.3112   0.5511   0.6957   1.0638   1.1333   1.5476   1.5798
     1.8270   1.9536   2.0587   2.1208

     occupation numbers 
     1.0000   1.0000   1.0000   1.0000   1.0000   1.0000   1.0000   1.0000
     1.0000   1.0000   1.0000   1.0000   1.0000   1.0000   1.0000   1.0000
     1.0000   1.0000   1.0000   1.0000   1.0000   1.0000   1.0000   1.0000
     1.0000   1.0000   1.0000   1.0000

          k = 0.1111 0.4444 0.1721 ( 18338 PWs)   bands (ev):

   -18.3803 -18.3800 -18.3752 -18.3752 -18.3730 -18.3729 -18.3723 -18.3721
   -18.3643 -18.3643  -9.1518  -9.0739  -8.7774  -8.7503  -3.5394  -3.2745
    -0.0556   0.0006   0.7468   0.8969   0.9956   1.0675   1.4398   1.5157
     1.9121   1.9779   2.0514   2.1893

     occupation numbers 
     1.0000   1.0000   1.0000   1.0000   1.0000   1.0000   1.0000   1.0000
     1.0000   1.0000   1.0000   1.0000   1.0000   1.0000   1.0000   1.0000
     1.0000   1.0000   1.0000   1.0000   1.0000   1.0000   1.0000   1.0000
     1.0000   1.0000   1.0000   1.0000

          k = 0.1111 0.4444 0.3441 ( 18336 PWs)   bands (ev):

   -18.3803 -18.3801 -18.3761 -18.3761 -18.3729 -18.3729 -18.3711 -18.3710
   -18.3645 -18.3645  -9.0896  -9.0213  -8.7669  -8.7477  -3.5981  -3.3815
    -0.3723  -0.3129   0.5662   0.5998   1.0686   1.3183   1.3950   1.4909
     1.8656   1.9504   2.1356   2.3798

     occupation numbers 
     1.0000   1.0000   1.0000   1.0000   1.0000   1.0000   1.0000   1.0000
     1.0000   1.0000   1.0000   1.0000   1.0000   1.0000   1.0000   1.0000
     1.0000   1.0000   1.0000   1.0000   1.0000   1.0000   1.0000   1.0000
     1.0000   1.0000   1.0000   1.0000

          k = 0.1111 0.4444 0.5162 ( 18360 PWs)   bands (ev):

   -18.3803 -18.3802 -18.3772 -18.3771 -18.3729 -18.3729 -18.3699 -18.3698
   -18.3648 -18.3647  -9.0051  -8.9538  -8.7622  -8.7552  -3.6676  -3.5267
    -0.5612  -0.4847   0.2309   0.2674   1.2078   1.3174   1.4195   1.6024
     1.7595   1.8659   2.3415   2.5095

     occupation numbers 
     1.0000   1.0000   1.0000   1.0000   1.0000   1.0000   1.0000   1.0000
     1.0000   1.0000   1.0000   1.0000   1.0000   1.0000   1.0000   1.0000
     1.0000   1.0000   1.0000   1.0000   1.0000   1.0000   1.0000   1.0000
     1.0000   1.0000   1.0000   1.0000

          k = 0.1111 0.4444 0.6882 ( 18367 PWs)   bands (ev):

   -18.3804 -18.3803 -18.3777 -18.3777 -18.3729 -18.3729 -18.3690 -18.3690
   -18.3649 -18.3649  -8.9277  -8.9054  -8.7736  -8.7700  -3.6988  -3.6486
    -0.6316  -0.5536   0.0436   0.0889   1.1594   1.2323   1.5339   1.6789
     1.7558   1.8044   2.4825   2.5459

     occupation numbers 
     1.0000   1.0000   1.0000   1.0000   1.0000   1.0000   1.0000   1.0000
     1.0000   1.0000   1.0000   1.0000   1.0000   1.0000   1.0000   1.0000
     1.0000   1.0000   1.0000   1.0000   1.0000   1.0000   1.0000   1.0000
     1.0000   1.0000   1.0000   1.0000

          k = 0.2222 0.2222 0.0000 ( 18373 PWs)   bands (ev):

   -18.3809 -18.3796 -18.3748 -18.3748 -18.3731 -18.3730 -18.3729 -18.3723
   -18.3643 -18.3643  -9.2673  -8.9506  -8.8516  -8.7246  -3.8432  -2.8030
    -0.0264   0.3491   0.3905   0.9049   0.9387   1.0939   1.4631   1.5969
     1.8824   1.9377   2.0939   2.3961

     occupation numbers 
     1.0000   1.0000   1.0000   1.0000   1.0000   1.0000   1.0000   1.0000
     1.0000   1.0000   1.0000   1.0000   1.0000   1.0000   1.0000   1.0000
     1.0000   1.0000   1.0000   1.0000   1.0000   1.0000   1.0000   1.0000
     1.0000   1.0000   1.0000   1.0000

          k = 0.2222 0.2222 0.1721 ( 18358 PWs)   bands (ev):

   -18.3808 -18.3796 -18.3752 -18.3752 -18.3731 -18.3729 -18.3725 -18.3719
   -18.3643 -18.3643  -9.2413  -8.9378  -8.8408  -8.7251  -3.8495  -2.8748
    -0.0092   0.0142   0.3715   0.8576   0.9452   1.2914   1.3070   1.5098
     1.8765   1.8950   2.1299   2.5157

     occupation numbers 
     1.0000   1.0000   1.0000   1.0000   1.0000   1.0000   1.0000   1.0000
     1.0000   1.0000   1.0000   1.0000   1.0000   1.0000   1.0000   1.0000
     1.0000   1.0000   1.0000   1.0000   1.0000   1.0000   1.0000   1.0000
     1.0000   1.0000   1.0000   1.0000

          k = 0.2222 0.2222 0.3441 ( 18349 PWs)   bands (ev):

   -18.3806 -18.3797 -18.3762 -18.3761 -18.3730 -18.3729 -18.3713 -18.3708
   -18.3645 -18.3645  -9.1689  -8.9059  -8.8133  -8.7310  -3.8606  -3.0745
    -0.3566   0.1205   0.1671   0.5721   0.7053   1.2313   1.3898   1.7413
     1.8245   1.8321   2.0933   2.6401

     occupation numbers 
     1.0000   1.0000   1.0000   1.0000   1.0000   1.0000   1.0000   1.0000
     1.0000   1.0000   1.0000   1.0000   1.0000   1.0000   1.0000   1.0000
     1.0000   1.0000   1.0000   1.0000   1.0000   1.0000   1.0000   1.0000
     1.0000   1.0000   1.0000   1.0000

          k = 0.2222 0.2222 0.5162 ( 18343 PWs)   bands (ev):

   -18.3805 -18.3798 -18.3773 -18.3771 -18.3729 -18.3728 -18.3700 -18.3697
   -18.3647 -18.3647  -9.0663  -8.8746  -8.7814  -8.7505  -3.8493  -3.3436
    -0.5462  -0.0303   0.1311   0.3612   0.4786   1.3407   1.3518   1.6052
     1.7475   1.9542   2.1652   2.6228

     occupation numbers 
     1.0000   1.0000   1.0000   1.0000   1.0000   1.0000   1.0000   1.0000
     1.0000   1.0000   1.0000   1.0000   1.0000   1.0000   1.0000   1.0000
     1.0000   1.0000   1.0000   1.0000   1.0000   1.0000   1.0000   1.0000
     1.0000   1.0000   1.0000   1.0000

          k = 0.2222 0.2222 0.6882 ( 18355 PWs)   bands (ev):

   -18.3804 -18.3799 -18.3780 -18.3777 -18.3729 -18.3729 -18.3691 -18.3690
   -18.3649 -18.3649  -8.9599  -8.8830  -8.7723  -8.7603  -3.7751  -3.5936
    -0.6065  -0.1756  -0.0431   0.4021   0.4540   1.3258   1.4424   1.5186
     1.6550   1.7856   2.4043   2.5565

     occupation numbers 
     1.0000   1.0000   1.0000   1.0000   1.0000   1.0000   1.0000   1.0000
     1.0000   1.0000   1.0000   1.0000   1.0000   1.0000   1.0000   1.0000
     1.0000   1.0000   1.0000   1.0000   1.0000   1.0000   1.0000   1.0000
     1.0000   1.0000   1.0000   1.0000

          k = 0.2222 0.3333 0.0000 ( 18364 PWs)   bands (ev):

   -18.3806 -18.3798 -18.3748 -18.3748 -18.3731 -18.3729 -18.3728 -18.3725
   -18.3643 -18.3642  -9.2158  -9.0039  -8.8394  -8.7462  -3.6792  -3.0064
     0.0332   0.3496   0.4737   0.8321   1.0040   1.1563   1.4730   1.5815
     1.8171   1.9512   2.0017   2.2620

     occupation numbers 
     1.0000   1.0000   1.0000   1.0000   1.0000   1.0000   1.0000   1.0000
     1.0000   1.0000   1.0000   1.0000   1.0000   1.0000   1.0000   1.0000
     1.0000   1.0000   1.0000   1.0000   1.0000   1.0000   1.0000   1.0000
     1.0000   1.0000   1.0000   1.0000

          k = 0.2222 0.3333 0.1721 ( 18344 PWs)   bands (ev):

   -18.3806 -18.3798 -18.3752 -18.3752 -18.3730 -18.3729 -18.3724 -18.3720
   -18.3643 -18.3643  -9.1918  -8.9889  -8.8299  -8.7445  -3.6953  -3.0650
    -0.0159   0.0536   0.4505   0.8858   1.0115   1.1417   1.3587   1.5713
     1.8317   1.9317   2.0547   2.3745

     occupation numbers 
     1.0000   1.0000   1.0000   1.0000   1.0000   1.0000   1.0000   1.0000
     1.0000   1.0000   1.0000   1.0000   1.0000   1.0000   1.0000   1.0000
     1.0000   1.0000   1.0000   1.0000   1.0000   1.0000   1.0000   1.0000
     1.0000   1.0000   1.0000   1.0000

          k = 0.2222 0.3333 0.3441 ( 18362 PWs)   bands (ev):

   -18.3805 -18.3798 -18.3762 -18.3761 -18.3730 -18.3729 -18.3712 -18.3709
   -18.3645 -18.3645  -9.1255  -8.9501  -8.8060  -8.7443  -3.7356  -3.2275
    -0.3371  -0.0354   0.3638   0.5430   0.7384   1.3512   1.3924   1.6401
     1.8169   1.9532   2.0474   2.4961

     occupation numbers 
     1.0000   1.0000   1.0000   1.0000   1.0000   1.0000   1.0000   1.0000
     1.0000   1.0000   1.0000   1.0000   1.0000   1.0000   1.0000   1.0000
     1.0000   1.0000   1.0000   1.0000   1.0000   1.0000   1.0000   1.0000
     1.0000   1.0000   1.0000   1.0000

          k = 0.2222 0.3333 0.5162 ( 18354 PWs)   bands (ev):

   -18.3804 -18.3799 -18.3773 -18.3771 -18.3730 -18.3729 -18.3700 -18.3697
   -18.3647 -18.3647  -9.0337  -8.9068  -8.7797  -8.7551  -3.7709  -3.4433
    -0.5251  -0.1428   0.1284   0.2901   0.6866   1.4044   1.4429   1.6125
     1.7408   1.9419   2.1976   2.4785

     occupation numbers 
     1.0000   1.0000   1.0000   1.0000   1.0000   1.0000   1.0000   1.0000
     1.0000   1.0000   1.0000   1.0000   1.0000   1.0000   1.0000   1.0000
     1.0000   1.0000   1.0000   1.0000   1.0000   1.0000   1.0000   1.0000
     1.0000   1.0000   1.0000   1.0000

          k = 0.2222 0.3333 0.6882 ( 18368 PWs)   bands (ev):

   -18.3804 -18.3800 -18.3780 -18.3777 -18.3729 -18.3729 -18.3691 -18.3690
   -18.3649 -18.3649  -8.9443  -8.8927  -8.7743  -8.7636  -3.7545  -3.6328
    -0.5878  -0.2462  -0.0669   0.2139   0.7584   1.3624   1.4449   1.6200
     1.7025   1.8211   2.3830   2.4278

     occupation numbers 
     1.0000   1.0000   1.0000   1.0000   1.0000   1.0000   1.0000   1.0000
     1.0000   1.0000   1.0000   1.0000   1.0000   1.0000   1.0000   1.0000
     1.0000   1.0000   1.0000   1.0000   1.0000   1.0000   1.0000   1.0000
     1.0000   1.0000   1.0000   1.0000

          k = 0.2222 0.4444 0.0000 ( 18355 PWs)   bands (ev):

   -18.3803 -18.3801 -18.3748 -18.3748 -18.3730 -18.3730 -18.3727 -18.3726
   -18.3643 -18.3642  -9.1499  -9.0760  -8.8102  -8.7766  -3.4713  -3.2389
     0.1394   0.2607   0.5822   0.7065   1.1147   1.1848   1.5060   1.5471
     1.8103   1.8907   2.0202   2.1197

     occupation numbers 
     1.0000   1.0000   1.0000   1.0000   1.0000   1.0000   1.0000   1.0000
     1.0000   1.0000   1.0000   1.0000   1.0000   1.0000   1.0000   1.0000
     1.0000   1.0000   1.0000   1.0000   1.0000   1.0000   1.0000   1.0000
     1.0000   1.0000   1.0000   1.0000

          k = 0.2222 0.4444 0.1721 ( 18342 PWs)   bands (ev):

   -18.3803 -18.3800 -18.3752 -18.3752 -18.3730 -18.3730 -18.3723 -18.3721
   -18.3643 -18.3643  -9.1285  -9.0577  -8.8031  -8.7723  -3.5001  -3.2825
    -0.0016   0.0329   0.6362   0.8400   1.0052   1.0162   1.4555   1.5494
     1.8783   1.9560   2.0442   2.2014

     occupation numbers 
     1.0000   1.0000   1.0000   1.0000   1.0000   1.0000   1.0000   1.0000
     1.0000   1.0000   1.0000   1.0000   1.0000   1.0000   1.0000   1.0000
     1.0000   1.0000   1.0000   1.0000   1.0000   1.0000   1.0000   1.0000
     1.0000   1.0000   1.0000   1.0000

          k = 0.2222 0.4444 0.3441 ( 18341 PWs)   bands (ev):

   -18.3803 -18.3800 -18.3762 -18.3761 -18.3730 -18.3729 -18.3711 -18.3710
   -18.3645 -18.3645  -9.0702  -9.0091  -8.7867  -8.7643  -3.5779  -3.4025
    -0.2785  -0.1780   0.4857   0.5306   0.8980   1.1723   1.4701   1.5657
     1.8622   1.9505   2.1587   2.3397

     occupation numbers 
     1.0000   1.0000   1.0000   1.0000   1.0000   1.0000   1.0000   1.0000
     1.0000   1.0000   1.0000   1.0000   1.0000   1.0000   1.0000   1.0000
     1.0000   1.0000   1.0000   1.0000   1.0000   1.0000   1.0000   1.0000
     1.0000   1.0000   1.0000   1.0000

          k = 0.2222 0.4444 0.5162 ( 18356 PWs)   bands (ev):

   -18.3802 -18.3801 -18.3772 -18.3772 -18.3729 -18.3729 -18.3699 -18.3698
   -18.3648 -18.3647  -8.9928  -8.9486  -8.7724  -8.7632  -3.6705  -3.5572
    -0.4406  -0.3054   0.1506   0.2080   1.0194   1.3166   1.4876   1.5635
     1.7688   1.8721   2.2815   2.3764

     occupation numbers 
     1.0000   1.0000   1.0000   1.0000   1.0000   1.0000   1.0000   1.0000
     1.0000   1.0000   1.0000   1.0000   1.0000   1.0000   1.0000   1.0000
     1.0000   1.0000   1.0000   1.0000   1.0000   1.0000   1.0000   1.0000
     1.0000   1.0000   1.0000   1.0000

          k = 0.2222 0.4444 0.6882 ( 18367 PWs)   bands (ev):

   -18.3803 -18.3801 -18.3779 -18.3778 -18.3729 -18.3729 -18.3690 -18.3690
   -18.3649 -18.3649  -8.9258  -8.9076  -8.7726  -8.7684  -3.7213  -3.6784
    -0.4989  -0.3708  -0.0392   0.0530   1.1040   1.3333   1.4509   1.5954
     1.7612   1.8185   2.3185   2.3522

     occupation numbers 
     1.0000   1.0000   1.0000   1.0000   1.0000   1.0000   1.0000   1.0000
     1.0000   1.0000   1.0000   1.0000   1.0000   1.0000   1.0000   1.0000
     1.0000   1.0000   1.0000   1.0000   1.0000   1.0000   1.0000   1.0000
     1.0000   1.0000   1.0000   1.0000

          k = 0.3333 0.3333 0.0000 ( 18333 PWs)   bands (ev):

   -18.3805 -18.3799 -18.3748 -18.3748 -18.3730 -18.3729 -18.3728 -18.3725
   -18.3642 -18.3642  -9.1701  -9.0143  -8.8566  -8.7753  -3.5556  -3.1133
     0.0363   0.2863   0.5420   0.7859   1.0915   1.2276   1.4529   1.5461
     1.7793   1.8929   1.9618   2.1919

     occupation numbers 
     1.0000   1.0000   1.0000   1.0000   1.0000   1.0000   1.0000   1.0000
     1.0000   1.0000   1.0000   1.0000   1.0000   1.0000   1.0000   1.0000
     1.0000   1.0000   1.0000   1.0000   1.0000   1.0000   1.0000   1.0000
     1.0000   1.0000   1.0000   1.0000

          k = 0.3333 0.3333 0.1721 ( 18360 PWs)   bands (ev):

   -18.3804 -18.3799 -18.3752 -18.3752 -18.3730 -18.3729 -18.3723 -18.3721
   -18.3643 -18.3643  -9.1481  -8.9996  -8.8458  -8.7713  -3.5821  -3.1699
     0.0408   0.0757   0.4392   0.8978   0.9682   1.0202   1.4147   1.6379
     1.7834   1.9756   1.9867   2.3028

     occupation numbers 
     1.0000   1.0000   1.0000   1.0000   1.0000   1.0000   1.0000   1.0000
     1.0000   1.0000   1.0000   1.0000   1.0000   1.0000   1.0000   1.0000
     1.0000   1.0000   1.0000   1.0000   1.0000   1.0000   1.0000   1.0000
     1.0000   1.0000   1.0000   1.0000

          k = 0.3333 0.3333 0.3441 ( 18350 PWs)   bands (ev):

   -18.3803 -18.3799 -18.3762 -18.3761 -18.3730 -18.3729 -18.3712 -18.3710
   -18.3645 -18.3645  -9.0879  -8.9620  -8.8180  -8.7639  -3.6516  -3.3227
    -0.2498   0.1784   0.2132   0.4854   0.6600   1.2020   1.4582   1.7064
     1.7824   2.0120   2.0592   2.3990

     occupation numbers 
     1.0000   1.0000   1.0000   1.0000   1.0000   1.0000   1.0000   1.0000
     1.0000   1.0000   1.0000   1.0000   1.0000   1.0000   1.0000   1.0000
     1.0000   1.0000   1.0000   1.0000   1.0000   1.0000   1.0000   1.0000
     1.0000   1.0000   1.0000   1.0000

          k = 0.3333 0.3333 0.5162 ( 18359 PWs)   bands (ev):

   -18.3803 -18.3799 -18.3773 -18.3771 -18.3730 -18.3729 -18.3699 -18.3698
   -18.3648 -18.3647  -9.0072  -8.9199  -8.7859  -8.7638  -3.7281  -3.5169
    -0.4057  -0.0240   0.0769   0.3585   0.4569   1.3510   1.5535   1.5981
     1.7650   1.9444   2.1629   2.3494

     occupation numbers 
     1.0000   1.0000   1.0000   1.0000   1.0000   1.0000   1.0000   1.0000
     1.0000   1.0000   1.0000   1.0000   1.0000   1.0000   1.0000   1.0000
     1.0000   1.0000   1.0000   1.0000   1.0000   1.0000   1.0000   1.0000
     1.0000   1.0000   1.0000   1.0000

          k = 0.3333 0.3333 0.6882 ( 18365 PWs)   bands (ev):

   -18.3803 -18.3799 -18.3780 -18.3778 -18.3729 -18.3729 -18.3691 -18.3690
   -18.3649 -18.3649  -8.9345  -8.9004  -8.7735  -8.7645  -3.7561  -3.6736
    -0.4511  -0.1924  -0.1260   0.4193   0.4659   1.4109   1.4760   1.6512
     1.7352   1.8468   2.1755   2.3225

     occupation numbers 
     1.0000   1.0000   1.0000   1.0000   1.0000   1.0000   1.0000   1.0000
     1.0000   1.0000   1.0000   1.0000   1.0000   1.0000   1.0000   1.0000
     1.0000   1.0000   1.0000   1.0000   1.0000   1.0000   1.0000   1.0000
     1.0000   1.0000   1.0000   1.0000

          k = 0.3333 0.4444 0.0000 ( 18374 PWs)   bands (ev):

   -18.3803 -18.3801 -18.3748 -18.3748 -18.3730 -18.3730 -18.3727 -18.3726
   -18.3643 -18.3642  -9.1136  -9.0559  -8.8431  -8.8108  -3.4066  -3.2523
     0.0926   0.1868   0.6262   0.7131   1.1890   1.2506   1.4646   1.5014
     1.7543   1.8029   2.0203   2.1036

     occupation numbers 
     1.0000   1.0000   1.0000   1.0000   1.0000   1.0000   1.0000   1.0000
     1.0000   1.0000   1.0000   1.0000   1.0000   1.0000   1.0000   1.0000
     1.0000   1.0000   1.0000   1.0000   1.0000   1.0000   1.0000   1.0000
     1.0000   1.0000   1.0000   1.0000

          k = 0.3333 0.4444 0.1721 ( 18349 PWs)   bands (ev):

   -18.3803 -18.3801 -18.3752 -18.3752 -18.3730 -18.3730 -18.3722 -18.3722
   -18.3643 -18.3643  -9.0942  -9.0393  -8.8336  -8.8039  -3.4451  -3.3017
     0.0624   0.0827   0.5560   0.7522   0.9354   0.9817   1.5106   1.6124
     1.8026   1.8872   2.0890   2.2029

     occupation numbers 
     1.0000   1.0000   1.0000   1.0000   1.0000   1.0000   1.0000   1.0000
     1.0000   1.0000   1.0000   1.0000   1.0000   1.0000   1.0000   1.0000
     1.0000   1.0000   1.0000   1.0000   1.0000   1.0000   1.0000   1.0000
     1.0000   1.0000   1.0000   1.0000

          k = 0.3333 0.4444 0.3441 ( 18345 PWs)   bands (ev):

   -18.3802 -18.3801 -18.3762 -18.3762 -18.3730 -18.3729 -18.3711 -18.3710
   -18.3645 -18.3645  -9.0421  -8.9959  -8.8097  -8.7881  -3.5474  -3.4337
    -0.1259   0.0256   0.3996   0.4638   0.6755   0.9187   1.5720   1.6725
     1.8389   1.9367   2.1888   2.3033

     occupation numbers 
     1.0000   1.0000   1.0000   1.0000   1.0000   1.0000   1.0000   1.0000
     1.0000   1.0000   1.0000   1.0000   1.0000   1.0000   1.0000   1.0000
     1.0000   1.0000   1.0000   1.0000   1.0000   1.0000   1.0000   1.0000
     1.0000   1.0000   1.0000   1.0000

          k = 0.3333 0.4444 0.5162 ( 18365 PWs)   bands (ev):

   -18.3801 -18.3800 -18.3773 -18.3772 -18.3730 -18.3729 -18.3699 -18.3698
   -18.3648 -18.3648  -8.9756  -8.9442  -8.7834  -8.7745  -3.6686  -3.5959
    -0.2325  -0.0764   0.0784   0.1784   0.7083   1.0591   1.6262   1.6669
     1.7887   1.8867   2.1964   2.2709

     occupation numbers 
     1.0000   1.0000   1.0000   1.0000   1.0000   1.0000   1.0000   1.0000
     1.0000   1.0000   1.0000   1.0000   1.0000   1.0000   1.0000   1.0000
     1.0000   1.0000   1.0000   1.0000   1.0000   1.0000   1.0000   1.0000
     1.0000   1.0000   1.0000   1.0000

          k = 0.3333 0.4444 0.6882 ( 18384 PWs)   bands (ev):

   -18.3801 -18.3800 -18.3780 -18.3779 -18.3729 -18.3729 -18.3691 -18.3691
   -18.3649 -18.3649  -8.9228  -8.9109  -8.7707  -8.7672  -3.7432  -3.7139
    -0.2749  -0.2109  -0.1054   0.1226   0.7952   1.1595   1.5746   1.6630
     1.7780   1.8331   2.1238   2.2207

     occupation numbers 
     1.0000   1.0000   1.0000   1.0000   1.0000   1.0000   1.0000   1.0000
     1.0000   1.0000   1.0000   1.0000   1.0000   1.0000   1.0000   1.0000
     1.0000   1.0000   1.0000   1.0000   1.0000   1.0000   1.0000   1.0000
     1.0000   1.0000   1.0000   1.0000

          k = 0.4444 0.4444 0.0000 ( 18360 PWs)   bands (ev):

   -18.3803 -18.3802 -18.3748 -18.3748 -18.3730 -18.3730 -18.3727 -18.3727
   -18.3643 -18.3642  -9.0748  -9.0510  -8.8599  -8.8447  -3.3397  -3.2855
     0.0833   0.1187   0.6713   0.7031   1.2640   1.2921   1.4462   1.4613
     1.7031   1.7238   2.0469   2.0778

     occupation numbers 
     1.0000   1.0000   1.0000   1.0000   1.0000   1.0000   1.0000   1.0000
     1.0000   1.0000   1.0000   1.0000   1.0000   1.0000   1.0000   1.0000
     1.0000   1.0000   1.0000   1.0000   1.0000   1.0000   1.0000   1.0000
     1.0000   1.0000   1.0000   1.0000

          k = 0.4444 0.4444 0.1721 ( 18365 PWs)   bands (ev):

   -18.3802 -18.3802 -18.3752 -18.3752 -18.3730 -18.3730 -18.3722 -18.3722
   -18.3643 -18.3643  -9.0577  -9.0352  -8.8490  -8.8351  -3.3867  -3.3366
     0.1080   0.1212   0.5534   0.6390   0.9074   0.9320   1.5989   1.6872
     1.7152   1.7957   2.1437   2.1842

     occupation numbers 
     1.0000   1.0000   1.0000   1.0000   1.0000   1.0000   1.0000   1.0000
     1.0000   1.0000   1.0000   1.0000   1.0000   1.0000   1.0000   1.0000
     1.0000   1.0000   1.0000   1.0000   1.0000   1.0000   1.0000   1.0000
     1.0000   1.0000   1.0000   1.0000

          k = 0.4444 0.4444 0.3441 ( 18337 PWs)   bands (ev):

   -18.3801 -18.3801 -18.3762 -18.3762 -18.3730 -18.3729 -18.3711 -18.3711
   -18.3645 -18.3645  -9.0127  -8.9944  -8.8211  -8.8112  -3.5103  -3.4711
     0.0670   0.2198   0.3352   0.4387   0.4969   0.6319   1.6746   1.7449
     1.8122   1.8831   2.2314   2.2711

     occupation numbers 
     1.0000   1.0000   1.0000   1.0000   1.0000   1.0000   1.0000   1.0000
     1.0000   1.0000   1.0000   1.0000   1.0000   1.0000   1.0000   1.0000
     1.0000   1.0000   1.0000   1.0000   1.0000   1.0000   1.0000   1.0000
     1.0000   1.0000   1.0000   1.0000

          k = 0.4444 0.4444 0.5162 ( 18365 PWs)   bands (ev):

   -18.3800 -18.3800 -18.3773 -18.3773 -18.3729 -18.3729 -18.3699 -18.3699
   -18.3648 -18.3648  -8.9580  -8.9464  -8.7888  -8.7849  -3.6564  -3.6314
     0.0187   0.0352   0.0461   0.3637   0.3732   0.7112   1.7315   1.7776
     1.7978   1.8811   2.1507   2.1908

     occupation numbers 
     1.0000   1.0000   1.0000   1.0000   1.0000   1.0000   1.0000   1.0000
     1.0000   1.0000   1.0000   1.0000   1.0000   1.0000   1.0000   1.0000
     1.0000   1.0000   1.0000   1.0000   1.0000   1.0000   1.0000   1.0000
     1.0000   1.0000   1.0000   1.0000

          k = 0.4444 0.4444 0.6882 ( 18389 PWs)   bands (ev):

   -18.3800 -18.3799 -18.3781 -18.3780 -18.3730 -18.3729 -18.3691 -18.3691
   -18.3649 -18.3649  -8.9191  -8.9149  -8.7687  -8.7673  -3.7519  -3.7415
    -0.1844  -0.1757   0.0583   0.3624   0.4752   0.8011   1.7306   1.7686
     1.7971   1.8427   2.0176   2.0934

     occupation numbers 
     1.0000   1.0000   1.0000   1.0000   1.0000   1.0000   1.0000   1.0000
     1.0000   1.0000   1.0000   1.0000   1.0000   1.0000   1.0000   1.0000
     1.0000   1.0000   1.0000   1.0000   1.0000   1.0000   1.0000   1.0000
     1.0000   1.0000   1.0000   1.0000

     highest occupied level (ev):     2.9463

!    total energy              =   -2399.98898571 Ry

     total all-electron energy =    -81641.234333 Ry
     estimated scf accuracy    <       0.00000056 Ry

     The total energy is the sum of the following terms:
     one-electron contribution =    -202.53097444 Ry
     hartree contribution      =     129.42680229 Ry
     xc contribution           =    -159.00378797 Ry
     ewald contribution        =    -220.09145386 Ry
     one-center paw contrib.   =   -1947.78957173 Ry
      -> PAW hartree energy AE =     108.34812783 Ry
      -> PAW hartree energy PS =    -107.58146467 Ry
      -> PAW xc energy AE      =    -328.95888233 Ry
      -> PAW xc energy PS      =      47.25759273 Ry
      -> total E_H with PAW    =     130.19346545 Ry
      -> total E_XC with PAW   =    -440.70507758 Ry

     convergence has been achieved in   8 iterations

     Forces acting on atoms (cartesian axes, Ry/au):

     atom    1 type  1   force =     0.00000000    0.00000000    0.00000000
     atom    2 type  1   force =     0.00000000    0.00000000   -0.00000000
     atom    3 type  2   force =     0.00334668    0.00334668   -0.00000000
     atom    4 type  2   force =    -0.00334668   -0.00334668   -0.00000000
     atom    5 type  2   force =     0.00334668   -0.00334668    0.00000000
     atom    6 type  2   force =    -0.00334668    0.00334668    0.00000000
     The non-local contrib.  to forces
     atom    1 type  1   force =     0.00000000    0.00000000    0.00000000
     atom    2 type  1   force =     0.00000000    0.00000000   -0.00000000
     atom    3 type  2   force =     0.01206038    0.01206038    0.00000000
     atom    4 type  2   force =    -0.01206038   -0.01206038    0.00000000
     atom    5 type  2   force =     0.01206038   -0.01206038   -0.00000000
     atom    6 type  2   force =    -0.01206038    0.01206038    0.00000000
     The ionic contribution  to forces
     atom    1 type  1   force =    -0.00000000   -0.00000000    0.00000000
     atom    2 type  1   force =    -0.00000000   -0.00000000    0.00000000
     atom    3 type  2   force =    -0.62953558   -0.62953558    0.00000000
     atom    4 type  2   force =     0.62953558    0.62953558   -0.00000000
     atom    5 type  2   force =    -0.62953558    0.62953558    0.00000000
     atom    6 type  2   force =     0.62953558   -0.62953558    0.00000000
     The local contribution  to forces
     atom    1 type  1   force =     0.00000000    0.00000000    0.00000000
     atom    2 type  1   force =     0.00000000    0.00000000    0.00000000
     atom    3 type  2   force =     0.62236843    0.62236843    0.00000000
     atom    4 type  2   force =    -0.62236843   -0.62236843    0.00000000
     atom    5 type  2   force =     0.62236843   -0.62236843    0.00000000
     atom    6 type  2   force =    -0.62236843    0.62236843    0.00000000
     The core correction contribution to forces
     atom    1 type  1   force =     0.00000000    0.00000000   -0.00000000
     atom    2 type  1   force =     0.00000000    0.00000000   -0.00000000
     atom    3 type  2   force =    -0.00159118   -0.00159118    0.00000000
     atom    4 type  2   force =     0.00159118    0.00159118    0.00000000
     atom    5 type  2   force =    -0.00159118    0.00159118   -0.00000000
     atom    6 type  2   force =     0.00159118   -0.00159118   -0.00000000
     The Hubbard contrib.    to forces
     atom    1 type  1   force =     0.00000000    0.00000000    0.00000000
     atom    2 type  1   force =     0.00000000    0.00000000    0.00000000
     atom    3 type  2   force =     0.00000000    0.00000000    0.00000000
     atom    4 type  2   force =     0.00000000    0.00000000    0.00000000
     atom    5 type  2   force =     0.00000000    0.00000000    0.00000000
     atom    6 type  2   force =     0.00000000    0.00000000    0.00000000
     The SCF correction term to forces
     atom    1 type  1   force =     0.00000000   -0.00000000   -0.00000000
     atom    2 type  1   force =     0.00000000   -0.00000000   -0.00000000
     atom    3 type  2   force =     0.00004462    0.00004462   -0.00000000
     atom    4 type  2   force =    -0.00004462   -0.00004462   -0.00000000
     atom    5 type  2   force =     0.00004462   -0.00004462   -0.00000000
     atom    6 type  2   force =    -0.00004462    0.00004462   -0.00000000

     Total force =     0.009466     Total SCF correction =     0.000126


     Computing stress (Cartesian axis) and pressure

          total   stress  (Ry/bohr**3)                   (kbar)     P=       -3.69
  -0.00000790   0.00000000   0.00000000           -1.16        0.00        0.00
   0.00000000  -0.00000790   0.00000000            0.00       -1.16        0.00
   0.00000000   0.00000000  -0.00005940            0.00        0.00       -8.74

     kinetic stress (kbar)   7275.10      0.00      0.00
                                0.00   7275.10      0.00
                                0.00      0.00   7242.18

     local   stress (kbar)  -1579.31      0.00     -0.00
                                0.00  -1579.31      0.00
                               -0.00      0.00  -5431.99

     nonloc. stress (kbar)    115.73      0.00      0.00
                                0.00    115.73      0.00
                                0.00      0.00    111.57

     hartree stress (kbar)   2867.85      0.00      0.00
                                0.00   2867.85      0.00
                                0.00      0.00   4524.79

     exc-cor stress (kbar)   6126.95     -0.00      0.00
                               -0.00   6126.95      0.00
                                0.00      0.00   6127.78

     corecor stress (kbar)  -8250.51     -0.00      0.00
                               -0.00  -8250.51      0.00
                                0.00      0.00  -8248.94

     ewald   stress (kbar)  -6556.96     -0.00     -0.00
                               -0.00  -6556.96     -0.00
                               -0.00     -0.00  -4334.13

     hubbard stress (kbar)      0.00      0.00      0.00
                                0.00      0.00      0.00
                                0.00      0.00      0.00

     DFT-D   stress (kbar)      0.00      0.00      0.00
                                0.00      0.00      0.00
                                0.00      0.00      0.00

     XDM     stress (kbar)      0.00      0.00      0.00
                                0.00      0.00      0.00
                                0.00      0.00      0.00

     dft-nl  stress (kbar)      0.00      0.00      0.00
                                0.00      0.00      0.00
                                0.00      0.00      0.00

     TS-vdW  stress (kbar)      0.00      0.00      0.00
                                0.00      0.00      0.00
                                0.00      0.00      0.00



     Writing output data file ./out/SnI2tetr.save/

     init_run     :      9.90s CPU     10.62s WALL (       1 calls)
     electrons    :    230.31s CPU    240.54s WALL (       1 calls)
     forces       :      4.35s CPU      4.38s WALL (       1 calls)
     stress       :      7.74s CPU      7.76s WALL (       1 calls)

     Called by init_run:
     wfcinit      :      8.49s CPU      8.57s WALL (       1 calls)
     wfcinit:atom :      0.07s CPU      0.07s WALL (      75 calls)
     wfcinit:wfcr :      7.95s CPU      8.03s WALL (      75 calls)
     potinit      :      0.47s CPU      0.93s WALL (       1 calls)
     hinit0       :      0.60s CPU      0.60s WALL (       1 calls)

     Called by electrons:
     c_bands      :    200.47s CPU    209.90s WALL (       9 calls)
     sum_band     :     26.95s CPU     27.26s WALL (       9 calls)
     v_of_rho     :      0.27s CPU      0.28s WALL (       9 calls)
     v_h          :      0.02s CPU      0.02s WALL (       9 calls)
     v_xc         :      0.31s CPU      0.32s WALL (      11 calls)
     newd         :      1.15s CPU      1.17s WALL (       9 calls)
     PAW_pot      :      1.39s CPU      1.77s WALL (       9 calls)
     mix_rho      :      0.04s CPU      0.05s WALL (       9 calls)

     Called by c_bands:
     init_us_2    :      2.28s CPU      2.41s WALL (    1575 calls)
     cegterg      :    193.58s CPU    195.34s WALL (     675 calls)

     Called by sum_band:
     sum_band:wei :      0.00s CPU      0.00s WALL (       9 calls)
     sum_band:loo :     25.77s CPU     26.06s WALL (       9 calls)
     sum_band:buf :      0.21s CPU      0.21s WALL (     675 calls)
     sum_band:ini :      0.95s CPU      0.96s WALL (     675 calls)
     sum_band:cal :      7.05s CPU      7.07s WALL (     675 calls)
     sum_band:bec :      0.10s CPU      0.10s WALL (     675 calls)
     addusdens    :      1.06s CPU      1.08s WALL (       9 calls)
     addusd:skk   :      0.00s CPU      0.00s WALL (      18 calls)
     addusd:dgemm :      0.35s CPU      0.36s WALL (      18 calls)
     addusd:qvan2 :      0.61s CPU      0.62s WALL (      18 calls)

     Called by *egterg:
     cdiaghg      :      4.90s CPU      4.93s WALL (    2869 calls)
     cegterg:over :     12.12s CPU     12.18s WALL (    2269 calls)
     cegterg:upda :      6.26s CPU      6.29s WALL (    2269 calls)
     cegterg:last :     15.39s CPU     15.45s WALL (    1593 calls)
     h_psi        :    137.69s CPU    139.23s WALL (    3019 calls)
     s_psi        :     18.51s CPU     18.59s WALL (    3019 calls)
     g_psi        :      0.41s CPU      0.41s WALL (    2269 calls)

     Called by h_psi:
     h_psi:calbec :     22.14s CPU     22.26s WALL (    3019 calls)
     vloc_psi     :     96.90s CPU     98.24s WALL (    3019 calls)
     add_vuspsi   :     18.22s CPU     18.31s WALL (    3019 calls)

     General routines
     calbec       :     33.04s CPU     33.20s WALL (    4069 calls)
     fft          :      0.22s CPU      0.22s WALL (     125 calls)
     ffts         :      0.01s CPU      0.01s WALL (       9 calls)
     fftw         :    107.33s CPU    108.82s WALL (  131638 calls)

     Parallel routines
     fft_scatt_xy :      7.60s CPU      7.71s WALL (  131772 calls)
     fft_scatt_yz :     22.12s CPU     22.43s WALL (  131772 calls)

     PAW routines
     PAW_pot      :      1.39s CPU      1.77s WALL (       9 calls)
     PAW_symme    :      0.06s CPU      0.06s WALL (      18 calls)

     PWSCF        :   4m14.09s CPU   4m34.89s WALL


   This run was terminated on:  15: 9: 3  14Jan2021            

=------------------------------------------------------------------------------=
   JOB DONE.
=------------------------------------------------------------------------------=
