
     Program PWSCF v.6.7MaX starts on 15Jan2021 at 12:25:19 

     This program is part of the open-source Quantum ESPRESSO suite
     for quantum simulation of materials; please cite
         "P. Giannozzi et al., J. Phys.:Condens. Matter 21 395502 (2009);
         "P. Giannozzi et al., J. Phys.:Condens. Matter 29 465901 (2017);
          URL http://www.quantum-espresso.org", 
     in publications or presentations arising from this work. More details at
     http://www.quantum-espresso.org/quote

     Parallel version (MPI), running on    32 processors

     MPI processes distributed on     1 nodes
     R & G space division:  proc/nbgrp/npool/nimage =      32
     Waiting for input...
     Reading input from standard input

     Current dimensions of program PWSCF are:
     Max number of different atomic species (ntypx) = 10
     Max number of k-points (npk) =  40000
     Max angular momentum in pseudopotentials (lmaxx) =  3
     file Sn.pbe-dn-kjpaw_psl.1.0.0.UPF: wavefunction(s)  5S 5P 4D renormalized
     file I.pbe-n-kjpaw_psl.1.0.0.UPF: wavefunction(s)  5S renormalized

     Subspace diagonalization in iterative solution of the eigenvalue problem:
     a serial algorithm will be used

     Message from routine setup:
     using ibrav=0 with symmetry is DISCOURAGED, use correct ibrav instead

     Parallelization info
     --------------------
     sticks:   dense  smooth     PW     G-vecs:    dense   smooth      PW
     Min         144     144     39                 4560     4560     659
     Max         145     145     41                 4563     4563     660
     Sum        4637    4637   1281               145963   145963   21105


     Title: 
     SnI2tetr                                                                   


     bravais-lattice index     =            0
     lattice parameter (alat)  =      14.4199  a.u.
     unit-cell volume          =    1845.1511 (a.u.)^3
     number of atoms/cell      =            6
     number of atomic types    =            2
     number of electrons       =        56.00
     number of Kohn-Sham states=           28
     kinetic-energy cutoff     =      70.0000  Ry
     charge density cutoff     =     280.0000  Ry
     scf convergence threshold =      1.0E-06
     mixing beta               =       0.7000
     number of iterations used =            8  plain     mixing
     Exchange-correlation= SLA  PW   PBX  PBC
                           (   1   4   3   4   0   0   0)

     celldm(1)=  14.419944  celldm(2)=   0.000000  celldm(3)=   0.000000
     celldm(4)=   0.000000  celldm(5)=   0.000000  celldm(6)=   0.000000

     crystal axes: (cart. coord. in units of alat)
               a(1) = (   1.000000   0.000000   0.000000 )  
               a(2) = (   0.000000   1.000000   0.000000 )  
               a(3) = (   0.000000   0.000000   0.615377 )  

     reciprocal axes: (cart. coord. in units 2 pi/alat)
               b(1) = (  1.000000  0.000000  0.000000 )  
               b(2) = (  0.000000  1.000000  0.000000 )  
               b(3) = (  0.000000  0.000000  1.625020 )  


     PseudoPot. # 1 for Sn read from file:
     ../../../pseudo/Sn.pbe-dn-kjpaw_psl.1.0.0.UPF
     MD5 check sum: 67f11dec737d427557dc41ea34975807
     Pseudo is Projector augmented-wave + core cor, Zval = 14.0
     Generated using &quot;atomic&quot; code by A. Dal Corso  v.6.3
     Shape of augmentation charge: PSQ
     Using radial grid of 1243 points,  6 beta functions with: 
                l(1) =   0
                l(2) =   0
                l(3) =   1
                l(4) =   1
                l(5) =   2
                l(6) =   2
     Q(r) pseudized with 0 coefficients 


     PseudoPot. # 2 for I  read from file:
     ../../../pseudo/I.pbe-n-kjpaw_psl.1.0.0.UPF
     MD5 check sum: cd3d296c3308a581e1559a0c8a554cb5
     Pseudo is Projector augmented-wave + core cor, Zval =  7.0
     Generated using &quot;atomic&quot; code by A. Dal Corso  v.6.3
     Shape of augmentation charge: PSQ
     Using radial grid of 1247 points,  6 beta functions with: 
                l(1) =   0
                l(2) =   0
                l(3) =   1
                l(4) =   1
                l(5) =   2
                l(6) =   2
     Q(r) pseudized with 0 coefficients 


     atomic species   valence    mass     pseudopotential
        Sn            14.00   118.70000     Sn( 1.00)
        I              7.00   126.90000     I ( 1.00)

     16 Sym. Ops., with inversion, found ( 8 have fractional translation)


                                    s                        frac. trans.

      isym =  1     identity                                     

 cryst.   s( 1) = (     1          0          0      )
                  (     0          1          0      )
                  (     0          0          1      )

 cart.    s( 1) = (  1.0000000  0.0000000  0.0000000 )
                  (  0.0000000  1.0000000  0.0000000 )
                  (  0.0000000  0.0000000  1.0000000 )


      isym =  2     180 deg rotation - cart. axis [0,0,1]        

 cryst.   s( 2) = (    -1          0          0      )
                  (     0         -1          0      )
                  (     0          0          1      )

 cart.    s( 2) = ( -1.0000000  0.0000000  0.0000000 )
                  (  0.0000000 -1.0000000  0.0000000 )
                  (  0.0000000  0.0000000  1.0000000 )


      isym =  3     180 deg rotation - cart. axis [0,1,0]        

 cryst.   s( 3) = (    -1          0          0      )    f =(  0.5000000 )
                  (     0          1          0      )       ( -0.5000000 )
                  (     0          0         -1      )       (  0.5000000 )

 cart.    s( 3) = ( -1.0000000  0.0000000  0.0000000 )    f =(  0.5000000 )
                  (  0.0000000  1.0000000  0.0000000 )       ( -0.5000000 )
                  (  0.0000000  0.0000000 -1.0000000 )       (  0.3076884 )


      isym =  4     180 deg rotation - cart. axis [1,0,0]        

 cryst.   s( 4) = (     1          0          0      )    f =( -0.5000000 )
                  (     0         -1          0      )       (  0.5000000 )
                  (     0          0         -1      )       (  0.5000000 )

 cart.    s( 4) = (  1.0000000  0.0000000  0.0000000 )    f =( -0.5000000 )
                  (  0.0000000 -1.0000000  0.0000000 )       (  0.5000000 )
                  (  0.0000000  0.0000000 -1.0000000 )       (  0.3076884 )


      isym =  5     180 deg rotation - cart. axis [1,1,0]        

 cryst.   s( 5) = (     0          1          0      )
                  (     1          0          0      )
                  (     0          0         -1      )

 cart.    s( 5) = (  0.0000000  1.0000000  0.0000000 )
                  (  1.0000000  0.0000000  0.0000000 )
                  (  0.0000000  0.0000000 -1.0000000 )


      isym =  6     180 deg rotation - cart. axis [1,-1,0]       

 cryst.   s( 6) = (     0         -1          0      )
                  (    -1          0          0      )
                  (     0          0         -1      )

 cart.    s( 6) = (  0.0000000 -1.0000000  0.0000000 )
                  ( -1.0000000  0.0000000  0.0000000 )
                  (  0.0000000  0.0000000 -1.0000000 )


      isym =  7      90 deg rotation - cart. axis [0,0,-1]       

 cryst.   s( 7) = (     0         -1          0      )    f =( -0.5000000 )
                  (     1          0          0      )       (  0.5000000 )
                  (     0          0          1      )       ( -0.5000000 )

 cart.    s( 7) = (  0.0000000  1.0000000  0.0000000 )    f =( -0.5000000 )
                  ( -1.0000000  0.0000000  0.0000000 )       (  0.5000000 )
                  (  0.0000000  0.0000000  1.0000000 )       ( -0.3076884 )


      isym =  8      90 deg rotation - cart. axis [0,0,1]        

 cryst.   s( 8) = (     0          1          0      )    f =(  0.5000000 )
                  (    -1          0          0      )       ( -0.5000000 )
                  (     0          0          1      )       ( -0.5000000 )

 cart.    s( 8) = (  0.0000000 -1.0000000  0.0000000 )    f =(  0.5000000 )
                  (  1.0000000  0.0000000  0.0000000 )       ( -0.5000000 )
                  (  0.0000000  0.0000000  1.0000000 )       ( -0.3076884 )


      isym =  9     inversion                                    

 cryst.   s( 9) = (    -1          0          0      )
                  (     0         -1          0      )
                  (     0          0         -1      )

 cart.    s( 9) = ( -1.0000000  0.0000000  0.0000000 )
                  (  0.0000000 -1.0000000  0.0000000 )
                  (  0.0000000  0.0000000 -1.0000000 )


      isym = 10     inv. 180 deg rotation - cart. axis [0,0,1]   

 cryst.   s(10) = (     1          0          0      )
                  (     0          1          0      )
                  (     0          0         -1      )

 cart.    s(10) = (  1.0000000  0.0000000  0.0000000 )
                  (  0.0000000  1.0000000  0.0000000 )
                  (  0.0000000  0.0000000 -1.0000000 )


      isym = 11     inv. 180 deg rotation - cart. axis [0,1,0]   

 cryst.   s(11) = (     1          0          0      )    f =( -0.5000000 )
                  (     0         -1          0      )       (  0.5000000 )
                  (     0          0          1      )       ( -0.5000000 )

 cart.    s(11) = (  1.0000000  0.0000000  0.0000000 )    f =( -0.5000000 )
                  (  0.0000000 -1.0000000  0.0000000 )       (  0.5000000 )
                  (  0.0000000  0.0000000  1.0000000 )       ( -0.3076884 )


      isym = 12     inv. 180 deg rotation - cart. axis [1,0,0]   

 cryst.   s(12) = (    -1          0          0      )    f =(  0.5000000 )
                  (     0          1          0      )       ( -0.5000000 )
                  (     0          0          1      )       ( -0.5000000 )

 cart.    s(12) = ( -1.0000000  0.0000000  0.0000000 )    f =(  0.5000000 )
                  (  0.0000000  1.0000000  0.0000000 )       ( -0.5000000 )
                  (  0.0000000  0.0000000  1.0000000 )       ( -0.3076884 )


      isym = 13     inv. 180 deg rotation - cart. axis [1,1,0]   

 cryst.   s(13) = (     0         -1          0      )
                  (    -1          0          0      )
                  (     0          0          1      )

 cart.    s(13) = (  0.0000000 -1.0000000  0.0000000 )
                  ( -1.0000000  0.0000000  0.0000000 )
                  (  0.0000000  0.0000000  1.0000000 )


      isym = 14     inv. 180 deg rotation - cart. axis [1,-1,0]  

 cryst.   s(14) = (     0          1          0      )
                  (     1          0          0      )
                  (     0          0          1      )

 cart.    s(14) = (  0.0000000  1.0000000  0.0000000 )
                  (  1.0000000  0.0000000  0.0000000 )
                  (  0.0000000  0.0000000  1.0000000 )


      isym = 15     inv.  90 deg rotation - cart. axis [0,0,-1]  

 cryst.   s(15) = (     0          1          0      )    f =(  0.5000000 )
                  (    -1          0          0      )       ( -0.5000000 )
                  (     0          0         -1      )       (  0.5000000 )

 cart.    s(15) = (  0.0000000 -1.0000000  0.0000000 )    f =(  0.5000000 )
                  (  1.0000000  0.0000000  0.0000000 )       ( -0.5000000 )
                  (  0.0000000  0.0000000 -1.0000000 )       (  0.3076884 )


      isym = 16     inv.  90 deg rotation - cart. axis [0,0,1]   

 cryst.   s(16) = (     0         -1          0      )    f =( -0.5000000 )
                  (     1          0          0      )       (  0.5000000 )
                  (     0          0         -1      )       (  0.5000000 )

 cart.    s(16) = (  0.0000000  1.0000000  0.0000000 )    f =( -0.5000000 )
                  ( -1.0000000  0.0000000  0.0000000 )       (  0.5000000 )
                  (  0.0000000  0.0000000 -1.0000000 )       (  0.3076884 )


   Cartesian axes

     site n.     atom                  positions (alat units)
         1           Sn  tau(   1) = (   0.0000000   0.0000000   0.0000000  )
         2           Sn  tau(   2) = (   0.5000000   0.5000000   0.3076884  )
         3           I   tau(   3) = (   0.2985210   0.2985210   0.0000000  )
         4           I   tau(   4) = (   0.7014790   0.7014790   0.0000000  )
         5           I   tau(   5) = (   0.7985210   0.2014790   0.3076884  )
         6           I   tau(   6) = (   0.2014790   0.7985210   0.3076884  )

   Crystallographic axes

     site n.     atom                  positions (cryst. coord.)
         1           Sn  tau(   1) = (  0.0000000  0.0000000  0.0000000  )
         2           Sn  tau(   2) = (  0.5000000  0.5000000  0.5000000  )
         3           I   tau(   3) = (  0.2985210  0.2985210  0.0000000  )
         4           I   tau(   4) = (  0.7014790  0.7014790  0.0000000  )
         5           I   tau(   5) = (  0.7985210  0.2014790  0.5000000  )
         6           I   tau(   6) = (  0.2014790  0.7985210  0.5000000  )

     number of k points=    75
                       cart. coord. in units 2pi/alat
        k(    1) = (   0.0000000   0.0000000   0.0000000), wk =   0.0027435
        k(    2) = (   0.0000000   0.0000000   0.1805578), wk =   0.0054870
        k(    3) = (   0.0000000   0.0000000   0.3611157), wk =   0.0054870
        k(    4) = (   0.0000000   0.0000000   0.5416735), wk =   0.0054870
        k(    5) = (   0.0000000   0.0000000   0.7222313), wk =   0.0054870
        k(    6) = (   0.0000000   0.1111111   0.0000000), wk =   0.0109739
        k(    7) = (   0.0000000   0.1111111   0.1805578), wk =   0.0219479
        k(    8) = (   0.0000000   0.1111111   0.3611157), wk =   0.0219479
        k(    9) = (   0.0000000   0.1111111   0.5416735), wk =   0.0219479
        k(   10) = (   0.0000000   0.1111111   0.7222313), wk =   0.0219479
        k(   11) = (   0.0000000   0.2222222   0.0000000), wk =   0.0109739
        k(   12) = (   0.0000000   0.2222222   0.1805578), wk =   0.0219479
        k(   13) = (   0.0000000   0.2222222   0.3611157), wk =   0.0219479
        k(   14) = (   0.0000000   0.2222222   0.5416735), wk =   0.0219479
        k(   15) = (   0.0000000   0.2222222   0.7222313), wk =   0.0219479
        k(   16) = (   0.0000000   0.3333333   0.0000000), wk =   0.0109739
        k(   17) = (   0.0000000   0.3333333   0.1805578), wk =   0.0219479
        k(   18) = (   0.0000000   0.3333333   0.3611157), wk =   0.0219479
        k(   19) = (   0.0000000   0.3333333   0.5416735), wk =   0.0219479
        k(   20) = (   0.0000000   0.3333333   0.7222313), wk =   0.0219479
        k(   21) = (   0.0000000   0.4444444   0.0000000), wk =   0.0109739
        k(   22) = (   0.0000000   0.4444444   0.1805578), wk =   0.0219479
        k(   23) = (   0.0000000   0.4444444   0.3611157), wk =   0.0219479
        k(   24) = (   0.0000000   0.4444444   0.5416735), wk =   0.0219479
        k(   25) = (   0.0000000   0.4444444   0.7222313), wk =   0.0219479
        k(   26) = (   0.1111111   0.1111111   0.0000000), wk =   0.0109739
        k(   27) = (   0.1111111   0.1111111   0.1805578), wk =   0.0219479
        k(   28) = (   0.1111111   0.1111111   0.3611157), wk =   0.0219479
        k(   29) = (   0.1111111   0.1111111   0.5416735), wk =   0.0219479
        k(   30) = (   0.1111111   0.1111111   0.7222313), wk =   0.0219479
        k(   31) = (   0.1111111   0.2222222   0.0000000), wk =   0.0219479
        k(   32) = (   0.1111111   0.2222222   0.1805578), wk =   0.0438957
        k(   33) = (   0.1111111   0.2222222   0.3611157), wk =   0.0438957
        k(   34) = (   0.1111111   0.2222222   0.5416735), wk =   0.0438957
        k(   35) = (   0.1111111   0.2222222   0.7222313), wk =   0.0438957
        k(   36) = (   0.1111111   0.3333333   0.0000000), wk =   0.0219479
        k(   37) = (   0.1111111   0.3333333   0.1805578), wk =   0.0438957
        k(   38) = (   0.1111111   0.3333333   0.3611157), wk =   0.0438957
        k(   39) = (   0.1111111   0.3333333   0.5416735), wk =   0.0438957
        k(   40) = (   0.1111111   0.3333333   0.7222313), wk =   0.0438957
        k(   41) = (   0.1111111   0.4444444   0.0000000), wk =   0.0219479
        k(   42) = (   0.1111111   0.4444444   0.1805578), wk =   0.0438957
        k(   43) = (   0.1111111   0.4444444   0.3611157), wk =   0.0438957
        k(   44) = (   0.1111111   0.4444444   0.5416735), wk =   0.0438957
        k(   45) = (   0.1111111   0.4444444   0.7222313), wk =   0.0438957
        k(   46) = (   0.2222222   0.2222222   0.0000000), wk =   0.0109739
        k(   47) = (   0.2222222   0.2222222   0.1805578), wk =   0.0219479
        k(   48) = (   0.2222222   0.2222222   0.3611157), wk =   0.0219479
        k(   49) = (   0.2222222   0.2222222   0.5416735), wk =   0.0219479
        k(   50) = (   0.2222222   0.2222222   0.7222313), wk =   0.0219479
        k(   51) = (   0.2222222   0.3333333   0.0000000), wk =   0.0219479
        k(   52) = (   0.2222222   0.3333333   0.1805578), wk =   0.0438957
        k(   53) = (   0.2222222   0.3333333   0.3611157), wk =   0.0438957
        k(   54) = (   0.2222222   0.3333333   0.5416735), wk =   0.0438957
        k(   55) = (   0.2222222   0.3333333   0.7222313), wk =   0.0438957
        k(   56) = (   0.2222222   0.4444444   0.0000000), wk =   0.0219479
        k(   57) = (   0.2222222   0.4444444   0.1805578), wk =   0.0438957
        k(   58) = (   0.2222222   0.4444444   0.3611157), wk =   0.0438957
        k(   59) = (   0.2222222   0.4444444   0.5416735), wk =   0.0438957
        k(   60) = (   0.2222222   0.4444444   0.7222313), wk =   0.0438957
        k(   61) = (   0.3333333   0.3333333   0.0000000), wk =   0.0109739
        k(   62) = (   0.3333333   0.3333333   0.1805578), wk =   0.0219479
        k(   63) = (   0.3333333   0.3333333   0.3611157), wk =   0.0219479
        k(   64) = (   0.3333333   0.3333333   0.5416735), wk =   0.0219479
        k(   65) = (   0.3333333   0.3333333   0.7222313), wk =   0.0219479
        k(   66) = (   0.3333333   0.4444444   0.0000000), wk =   0.0219479
        k(   67) = (   0.3333333   0.4444444   0.1805578), wk =   0.0438957
        k(   68) = (   0.3333333   0.4444444   0.3611157), wk =   0.0438957
        k(   69) = (   0.3333333   0.4444444   0.5416735), wk =   0.0438957
        k(   70) = (   0.3333333   0.4444444   0.7222313), wk =   0.0438957
        k(   71) = (   0.4444444   0.4444444   0.0000000), wk =   0.0109739
        k(   72) = (   0.4444444   0.4444444   0.1805578), wk =   0.0219479
        k(   73) = (   0.4444444   0.4444444   0.3611157), wk =   0.0219479
        k(   74) = (   0.4444444   0.4444444   0.5416735), wk =   0.0219479
        k(   75) = (   0.4444444   0.4444444   0.7222313), wk =   0.0219479

                       cryst. coord.
        k(    1) = (   0.0000000   0.0000000   0.0000000), wk =   0.0027435
        k(    2) = (   0.0000000   0.0000000   0.1111111), wk =   0.0054870
        k(    3) = (   0.0000000   0.0000000   0.2222222), wk =   0.0054870
        k(    4) = (   0.0000000   0.0000000   0.3333333), wk =   0.0054870
        k(    5) = (   0.0000000   0.0000000   0.4444444), wk =   0.0054870
        k(    6) = (   0.0000000   0.1111111   0.0000000), wk =   0.0109739
        k(    7) = (   0.0000000   0.1111111   0.1111111), wk =   0.0219479
        k(    8) = (   0.0000000   0.1111111   0.2222222), wk =   0.0219479
        k(    9) = (   0.0000000   0.1111111   0.3333333), wk =   0.0219479
        k(   10) = (   0.0000000   0.1111111   0.4444444), wk =   0.0219479
        k(   11) = (   0.0000000   0.2222222   0.0000000), wk =   0.0109739
        k(   12) = (   0.0000000   0.2222222   0.1111111), wk =   0.0219479
        k(   13) = (   0.0000000   0.2222222   0.2222222), wk =   0.0219479
        k(   14) = (   0.0000000   0.2222222   0.3333333), wk =   0.0219479
        k(   15) = (   0.0000000   0.2222222   0.4444444), wk =   0.0219479
        k(   16) = (   0.0000000   0.3333333   0.0000000), wk =   0.0109739
        k(   17) = (   0.0000000   0.3333333   0.1111111), wk =   0.0219479
        k(   18) = (   0.0000000   0.3333333   0.2222222), wk =   0.0219479
        k(   19) = (   0.0000000   0.3333333   0.3333333), wk =   0.0219479
        k(   20) = (   0.0000000   0.3333333   0.4444444), wk =   0.0219479
        k(   21) = (   0.0000000   0.4444444   0.0000000), wk =   0.0109739
        k(   22) = (   0.0000000   0.4444444   0.1111111), wk =   0.0219479
        k(   23) = (   0.0000000   0.4444444   0.2222222), wk =   0.0219479
        k(   24) = (   0.0000000   0.4444444   0.3333333), wk =   0.0219479
        k(   25) = (   0.0000000   0.4444444   0.4444444), wk =   0.0219479
        k(   26) = (   0.1111111   0.1111111   0.0000000), wk =   0.0109739
        k(   27) = (   0.1111111   0.1111111   0.1111111), wk =   0.0219479
        k(   28) = (   0.1111111   0.1111111   0.2222222), wk =   0.0219479
        k(   29) = (   0.1111111   0.1111111   0.3333333), wk =   0.0219479
        k(   30) = (   0.1111111   0.1111111   0.4444444), wk =   0.0219479
        k(   31) = (   0.1111111   0.2222222   0.0000000), wk =   0.0219479
        k(   32) = (   0.1111111   0.2222222   0.1111111), wk =   0.0438957
        k(   33) = (   0.1111111   0.2222222   0.2222222), wk =   0.0438957
        k(   34) = (   0.1111111   0.2222222   0.3333333), wk =   0.0438957
        k(   35) = (   0.1111111   0.2222222   0.4444444), wk =   0.0438957
        k(   36) = (   0.1111111   0.3333333   0.0000000), wk =   0.0219479
        k(   37) = (   0.1111111   0.3333333   0.1111111), wk =   0.0438957
        k(   38) = (   0.1111111   0.3333333   0.2222222), wk =   0.0438957
        k(   39) = (   0.1111111   0.3333333   0.3333333), wk =   0.0438957
        k(   40) = (   0.1111111   0.3333333   0.4444444), wk =   0.0438957
        k(   41) = (   0.1111111   0.4444444   0.0000000), wk =   0.0219479
        k(   42) = (   0.1111111   0.4444444   0.1111111), wk =   0.0438957
        k(   43) = (   0.1111111   0.4444444   0.2222222), wk =   0.0438957
        k(   44) = (   0.1111111   0.4444444   0.3333333), wk =   0.0438957
        k(   45) = (   0.1111111   0.4444444   0.4444444), wk =   0.0438957
        k(   46) = (   0.2222222   0.2222222   0.0000000), wk =   0.0109739
        k(   47) = (   0.2222222   0.2222222   0.1111111), wk =   0.0219479
        k(   48) = (   0.2222222   0.2222222   0.2222222), wk =   0.0219479
        k(   49) = (   0.2222222   0.2222222   0.3333333), wk =   0.0219479
        k(   50) = (   0.2222222   0.2222222   0.4444444), wk =   0.0219479
        k(   51) = (   0.2222222   0.3333333   0.0000000), wk =   0.0219479
        k(   52) = (   0.2222222   0.3333333   0.1111111), wk =   0.0438957
        k(   53) = (   0.2222222   0.3333333   0.2222222), wk =   0.0438957
        k(   54) = (   0.2222222   0.3333333   0.3333333), wk =   0.0438957
        k(   55) = (   0.2222222   0.3333333   0.4444444), wk =   0.0438957
        k(   56) = (   0.2222222   0.4444444   0.0000000), wk =   0.0219479
        k(   57) = (   0.2222222   0.4444444   0.1111111), wk =   0.0438957
        k(   58) = (   0.2222222   0.4444444   0.2222222), wk =   0.0438957
        k(   59) = (   0.2222222   0.4444444   0.3333333), wk =   0.0438957
        k(   60) = (   0.2222222   0.4444444   0.4444444), wk =   0.0438957
        k(   61) = (   0.3333333   0.3333333   0.0000000), wk =   0.0109739
        k(   62) = (   0.3333333   0.3333333   0.1111111), wk =   0.0219479
        k(   63) = (   0.3333333   0.3333333   0.2222222), wk =   0.0219479
        k(   64) = (   0.3333333   0.3333333   0.3333333), wk =   0.0219479
        k(   65) = (   0.3333333   0.3333333   0.4444444), wk =   0.0219479
        k(   66) = (   0.3333333   0.4444444   0.0000000), wk =   0.0219479
        k(   67) = (   0.3333333   0.4444444   0.1111111), wk =   0.0438957
        k(   68) = (   0.3333333   0.4444444   0.2222222), wk =   0.0438957
        k(   69) = (   0.3333333   0.4444444   0.3333333), wk =   0.0438957
        k(   70) = (   0.3333333   0.4444444   0.4444444), wk =   0.0438957
        k(   71) = (   0.4444444   0.4444444   0.0000000), wk =   0.0109739
        k(   72) = (   0.4444444   0.4444444   0.1111111), wk =   0.0219479
        k(   73) = (   0.4444444   0.4444444   0.2222222), wk =   0.0219479
        k(   74) = (   0.4444444   0.4444444   0.3333333), wk =   0.0219479
        k(   75) = (   0.4444444   0.4444444   0.4444444), wk =   0.0219479

     Dense  grid:   145963 G-vectors     FFT dimensions: (  80,  80,  48)

     Dynamical RAM for                 wfc:       0.24 MB

     Dynamical RAM for     wfc (w. buffer):      18.51 MB

     Dynamical RAM for           str. fact:       0.14 MB

     Dynamical RAM for           local pot:       0.00 MB

     Dynamical RAM for          nlocal pot:       0.94 MB

     Dynamical RAM for                qrad:       2.69 MB

     Dynamical RAM for          rho,v,vnew:       0.50 MB

     Dynamical RAM for               rhoin:       0.17 MB

     Dynamical RAM for            rho*nmix:       1.11 MB

     Dynamical RAM for           G-vectors:       0.30 MB

     Dynamical RAM for          h,s,v(r/c):       0.14 MB

     Dynamical RAM for          <psi|beta>:       0.05 MB

     Dynamical RAM for                 psi:       0.49 MB

     Dynamical RAM for                hpsi:       0.49 MB

     Dynamical RAM for                spsi:       0.49 MB

     Dynamical RAM for      wfcinit/wfcrot:       0.62 MB

     Dynamical RAM for           addusdens:      13.23 MB

     Dynamical RAM for          addusforce:      13.70 MB

     Dynamical RAM for         addusstress:      13.99 MB

     Estimated static dynamical RAM per process >      25.05 MB

     Estimated max dynamical RAM per process >      39.04 MB

     Estimated total dynamical RAM >       1.22 GB

     Initial potential from superposition of free atoms

     starting charge   55.99693, renormalised to   56.00000
     Starting wfcs are   34 randomized atomic wfcs
     Checking if some PAW data can be deallocated... 
       PAW data deallocated on   20 nodes for type:  1
       PAW data deallocated on   12 nodes for type:  2

     total cpu time spent up to now is        7.7 secs

     Self-consistent Calculation

     iteration #  1     ecut=    70.00 Ry     beta= 0.70
     Davidson diagonalization with overlap
     ethr =  1.00E-02,  avg # of iterations =  1.1

     Threshold (ethr) on eigenvalues was too large:
     Diagonalizing with lowered threshold

     Davidson diagonalization with overlap
     ethr =  2.36E-04,  avg # of iterations =  2.4

     total cpu time spent up to now is       36.1 secs

     total energy              =   -2399.94202830 Ry
     estimated scf accuracy    <       0.11835942 Ry

     iteration #  2     ecut=    70.00 Ry     beta= 0.70
     Davidson diagonalization with overlap
     ethr =  2.11E-04,  avg # of iterations =  3.8

     total cpu time spent up to now is       54.5 secs

     total energy              =   -2399.98113886 Ry
     estimated scf accuracy    <       0.04958845 Ry

     iteration #  3     ecut=    70.00 Ry     beta= 0.70
     Davidson diagonalization with overlap
     ethr =  8.86E-05,  avg # of iterations =  2.3

     total cpu time spent up to now is       70.3 secs

     total energy              =   -2399.98933855 Ry
     estimated scf accuracy    <       0.00116480 Ry

     iteration #  4     ecut=    70.00 Ry     beta= 0.70
     Davidson diagonalization with overlap
     ethr =  2.08E-06,  avg # of iterations =  6.0

     total cpu time spent up to now is       96.8 secs

     total energy              =   -2399.99036279 Ry
     estimated scf accuracy    <       0.00087979 Ry

     iteration #  5     ecut=    70.00 Ry     beta= 0.70
     Davidson diagonalization with overlap
     ethr =  1.57E-06,  avg # of iterations =  2.0

     total cpu time spent up to now is      112.2 secs

     total energy              =   -2399.99042556 Ry
     estimated scf accuracy    <       0.00007052 Ry

     iteration #  6     ecut=    70.00 Ry     beta= 0.70
     Davidson diagonalization with overlap
     ethr =  1.26E-07,  avg # of iterations =  5.3

     total cpu time spent up to now is      133.9 secs

     total energy              =   -2399.99046767 Ry
     estimated scf accuracy    <       0.00002320 Ry

     iteration #  7     ecut=    70.00 Ry     beta= 0.70
     Davidson diagonalization with overlap
     ethr =  4.14E-08,  avg # of iterations =  2.0

     total cpu time spent up to now is      149.3 secs

     total energy              =   -2399.99046913 Ry
     estimated scf accuracy    <       0.00000197 Ry

     iteration #  8     ecut=    70.00 Ry     beta= 0.70
     Davidson diagonalization with overlap
     ethr =  3.52E-09,  avg # of iterations =  5.3

     total cpu time spent up to now is      170.4 secs

     End of self-consistent calculation

          k = 0.0000 0.0000 0.0000 ( 18231 PWs)   bands (ev):

   -18.3191 -18.3162 -18.3087 -18.3083 -18.3053 -18.3053 -18.3050 -18.3050
   -18.3046 -18.3046  -9.3440  -8.8365  -8.8365  -8.7178  -4.1157  -2.2594
    -0.1084  -0.1084   0.4263   0.7347   1.2464   1.3476   1.5941   1.5941
     2.0023   2.0023   2.3755   2.8709

     occupation numbers 
     1.0000   1.0000   1.0000   1.0000   1.0000   1.0000   1.0000   1.0000
     1.0000   1.0000   1.0000   1.0000   1.0000   1.0000   1.0000   1.0000
     1.0000   1.0000   1.0000   1.0000   1.0000   1.0000   1.0000   1.0000
     1.0000   1.0000   1.0000   1.0000

          k = 0.0000 0.0000 0.1806 ( 18279 PWs)   bands (ev):

   -18.3188 -18.3160 -18.3086 -18.3084 -18.3059 -18.3059 -18.3048 -18.3048
   -18.3047 -18.3046  -9.3118  -8.8226  -8.8226  -8.7169  -4.1055  -2.3728
    -0.0634  -0.0634   0.2765   0.7828   0.8051   1.3148   1.3148   1.7702
     2.0008   2.0008   2.3308   3.0016

     occupation numbers 
     1.0000   1.0000   1.0000   1.0000   1.0000   1.0000   1.0000   1.0000
     1.0000   1.0000   1.0000   1.0000   1.0000   1.0000   1.0000   1.0000
     1.0000   1.0000   1.0000   1.0000   1.0000   1.0000   1.0000   1.0000
     1.0000   1.0000   1.0000   1.0000

          k = 0.0000 0.0000 0.3611 ( 18228 PWs)   bands (ev):

   -18.3179 -18.3156 -18.3085 -18.3083 -18.3072 -18.3072 -18.3051 -18.3051
   -18.3035 -18.3034  -9.2215  -8.7869  -8.7869  -8.7225  -4.0676  -2.6842
     0.0152   0.0544   0.0544   0.4560   0.8102   0.8102   0.9229   1.9232
     1.9232   2.0131   2.1973   3.0991

     occupation numbers 
     1.0000   1.0000   1.0000   1.0000   1.0000   1.0000   1.0000   1.0000
     1.0000   1.0000   1.0000   1.0000   1.0000   1.0000   1.0000   1.0000
     1.0000   1.0000   1.0000   1.0000   1.0000   1.0000   1.0000   1.0000
     1.0000   1.0000   1.0000   1.0000

          k = 0.0000 0.0000 0.5417 ( 18276 PWs)   bands (ev):

   -18.3168 -18.3154 -18.3088 -18.3088 -18.3085 -18.3083 -18.3054 -18.3054
   -18.3022 -18.3022  -9.0914  -8.7544  -8.7453  -8.7453  -3.9770  -3.0982
    -0.1341   0.1299   0.1299   0.2262   0.4700   0.4700   1.1414   1.7765
     1.7765   1.9821   2.0853   2.8922

     occupation numbers 
     1.0000   1.0000   1.0000   1.0000   1.0000   1.0000   1.0000   1.0000
     1.0000   1.0000   1.0000   1.0000   1.0000   1.0000   1.0000   1.0000
     1.0000   1.0000   1.0000   1.0000   1.0000   1.0000   1.0000   1.0000
     1.0000   1.0000   1.0000   1.0000

          k = 0.0000 0.0000 0.7222 ( 18180 PWs)   bands (ev):

   -18.3160 -18.3154 -18.3097 -18.3097 -18.3083 -18.3083 -18.3056 -18.3056
   -18.3013 -18.3012  -8.9502  -8.8305  -8.7176  -8.7176  -3.7946  -3.4948
    -0.1126  -0.0007  -0.0007   0.0335   0.5058   0.5058   1.4148   1.6385
     1.6385   1.7087   2.2297   2.5316

     occupation numbers 
     1.0000   1.0000   1.0000   1.0000   1.0000   1.0000   1.0000   1.0000
     1.0000   1.0000   1.0000   1.0000   1.0000   1.0000   1.0000   1.0000
     1.0000   1.0000   1.0000   1.0000   1.0000   1.0000   1.0000   1.0000
     1.0000   1.0000   1.0000   1.0000

          k = 0.0000 0.1111 0.0000 ( 18261 PWs)   bands (ev):

   -18.3190 -18.3163 -18.3087 -18.3084 -18.3054 -18.3054 -18.3050 -18.3050
   -18.3046 -18.3046  -9.3323  -8.8631  -8.8310  -8.7123  -4.0747  -2.3572
    -0.0791  -0.0070   0.4446   0.7599   1.2065   1.2834   1.6006   1.6269
     1.9820   2.0036   2.3399   2.8035

     occupation numbers 
     1.0000   1.0000   1.0000   1.0000   1.0000   1.0000   1.0000   1.0000
     1.0000   1.0000   1.0000   1.0000   1.0000   1.0000   1.0000   1.0000
     1.0000   1.0000   1.0000   1.0000   1.0000   1.0000   1.0000   1.0000
     1.0000   1.0000   1.0000   1.0000

          k = 0.0000 0.1111 0.1806 ( 18264 PWs)   bands (ev):

   -18.3187 -18.3161 -18.3086 -18.3084 -18.3059 -18.3059 -18.3048 -18.3047
   -18.3046 -18.3046  -9.3006  -8.8486  -8.8175  -8.7108  -4.0661  -2.4575
    -0.0707   0.0008   0.3331   0.7793   0.8002   1.3285   1.3493   1.7296
     1.9735   2.0000   2.3080   2.9368

     occupation numbers 
     1.0000   1.0000   1.0000   1.0000   1.0000   1.0000   1.0000   1.0000
     1.0000   1.0000   1.0000   1.0000   1.0000   1.0000   1.0000   1.0000
     1.0000   1.0000   1.0000   1.0000   1.0000   1.0000   1.0000   1.0000
     1.0000   1.0000   1.0000   1.0000

          k = 0.0000 0.1111 0.3611 ( 18233 PWs)   bands (ev):

   -18.3178 -18.3157 -18.3085 -18.3083 -18.3072 -18.3072 -18.3051 -18.3050
   -18.3035 -18.3034  -9.2115  -8.8122  -8.7831  -8.7137  -4.0334  -2.7406
    -0.1439   0.0094   0.2619   0.4586   0.7640   0.9106   1.0018   1.8910
     1.9156   2.0016   2.1891   3.0515

     occupation numbers 
     1.0000   1.0000   1.0000   1.0000   1.0000   1.0000   1.0000   1.0000
     1.0000   1.0000   1.0000   1.0000   1.0000   1.0000   1.0000   1.0000
     1.0000   1.0000   1.0000   1.0000   1.0000   1.0000   1.0000   1.0000
     1.0000   1.0000   1.0000   1.0000

          k = 0.0000 0.1111 0.5417 ( 18246 PWs)   bands (ev):

   -18.3169 -18.3154 -18.3087 -18.3087 -18.3084 -18.3083 -18.3054 -18.3054
   -18.3022 -18.3022  -9.0835  -8.7814  -8.7437  -8.7292  -3.9524  -3.1272
    -0.2534  -0.0108   0.1785   0.2234   0.5348   0.6966   1.1776   1.7476
     1.7588   1.9848   2.1105   2.8826

     occupation numbers 
     1.0000   1.0000   1.0000   1.0000   1.0000   1.0000   1.0000   1.0000
     1.0000   1.0000   1.0000   1.0000   1.0000   1.0000   1.0000   1.0000
     1.0000   1.0000   1.0000   1.0000   1.0000   1.0000   1.0000   1.0000
     1.0000   1.0000   1.0000   1.0000

          k = 0.0000 0.1111 0.7222 ( 18221 PWs)   bands (ev):

   -18.3160 -18.3155 -18.3097 -18.3097 -18.3084 -18.3083 -18.3056 -18.3056
   -18.3013 -18.3013  -8.9457  -8.8318  -8.7200  -8.7187  -3.7840  -3.5020
    -0.2452  -0.1330   0.0192   0.0356   0.6407   0.6832   1.4327   1.6077
     1.6187   1.7289   2.2677   2.5567

     occupation numbers 
     1.0000   1.0000   1.0000   1.0000   1.0000   1.0000   1.0000   1.0000
     1.0000   1.0000   1.0000   1.0000   1.0000   1.0000   1.0000   1.0000
     1.0000   1.0000   1.0000   1.0000   1.0000   1.0000   1.0000   1.0000
     1.0000   1.0000   1.0000   1.0000

          k = 0.0000 0.2222 0.0000 ( 18290 PWs)   bands (ev):

   -18.3188 -18.3165 -18.3087 -18.3084 -18.3054 -18.3054 -18.3050 -18.3050
   -18.3046 -18.3046  -9.2982  -8.9261  -8.8153  -8.7089  -3.9547  -2.6004
     0.0062   0.2314   0.4985   0.8319   1.1076   1.1491   1.6187   1.6723
     1.9177   2.0048   2.2639   2.6218

     occupation numbers 
     1.0000   1.0000   1.0000   1.0000   1.0000   1.0000   1.0000   1.0000
     1.0000   1.0000   1.0000   1.0000   1.0000   1.0000   1.0000   1.0000
     1.0000   1.0000   1.0000   1.0000   1.0000   1.0000   1.0000   1.0000
     1.0000   1.0000   1.0000   1.0000

          k = 0.0000 0.2222 0.1806 ( 18240 PWs)   bands (ev):

   -18.3185 -18.3163 -18.3086 -18.3084 -18.3058 -18.3058 -18.3048 -18.3047
   -18.3046 -18.3046  -9.2676  -8.9093  -8.8031  -8.7065  -3.9507  -2.6743
    -0.0711   0.1196   0.4782   0.7626   0.8479   1.3676   1.4170   1.6160
     1.9080   1.9982   2.2495   2.7586

     occupation numbers 
     1.0000   1.0000   1.0000   1.0000   1.0000   1.0000   1.0000   1.0000
     1.0000   1.0000   1.0000   1.0000   1.0000   1.0000   1.0000   1.0000
     1.0000   1.0000   1.0000   1.0000   1.0000   1.0000   1.0000   1.0000
     1.0000   1.0000   1.0000   1.0000

          k = 0.0000 0.2222 0.3611 ( 18228 PWs)   bands (ev):

   -18.3177 -18.3159 -18.3085 -18.3084 -18.3072 -18.3072 -18.3051 -18.3050
   -18.3035 -18.3035  -9.1820  -8.8667  -8.7723  -8.7060  -3.9335  -2.8933
    -0.2660  -0.0971   0.4986   0.5146   0.7275   1.1214   1.1389   1.8204
     1.8977   1.9600   2.1550   2.9131

     occupation numbers 
     1.0000   1.0000   1.0000   1.0000   1.0000   1.0000   1.0000   1.0000
     1.0000   1.0000   1.0000   1.0000   1.0000   1.0000   1.0000   1.0000
     1.0000   1.0000   1.0000   1.0000   1.0000   1.0000   1.0000   1.0000
     1.0000   1.0000   1.0000   1.0000

          k = 0.0000 0.2222 0.5417 ( 18238 PWs)   bands (ev):

   -18.3168 -18.3156 -18.3087 -18.3087 -18.3084 -18.3083 -18.3054 -18.3054
   -18.3022 -18.3022  -9.0603  -8.8226  -8.7391  -8.7190  -3.8812  -3.2097
    -0.4097  -0.2421   0.1936   0.2705   0.7632   0.9990   1.2657   1.7107
     1.7228   1.9815   2.1540   2.8427

     occupation numbers 
     1.0000   1.0000   1.0000   1.0000   1.0000   1.0000   1.0000   1.0000
     1.0000   1.0000   1.0000   1.0000   1.0000   1.0000   1.0000   1.0000
     1.0000   1.0000   1.0000   1.0000   1.0000   1.0000   1.0000   1.0000
     1.0000   1.0000   1.0000   1.0000

          k = 0.0000 0.2222 0.7222 ( 18250 PWs)   bands (ev):

   -18.3161 -18.3157 -18.3097 -18.3097 -18.3084 -18.3083 -18.3056 -18.3056
   -18.3013 -18.3013  -8.9326  -8.8370  -8.7256  -8.7217  -3.7541  -3.5235
    -0.4284  -0.3525   0.0240   0.0476   0.9149   0.9612   1.4486   1.5725
     1.6176   1.7736   2.3504   2.6081

     occupation numbers 
     1.0000   1.0000   1.0000   1.0000   1.0000   1.0000   1.0000   1.0000
     1.0000   1.0000   1.0000   1.0000   1.0000   1.0000   1.0000   1.0000
     1.0000   1.0000   1.0000   1.0000   1.0000   1.0000   1.0000   1.0000
     1.0000   1.0000   1.0000   1.0000

          k = 0.0000 0.3333 0.0000 ( 18248 PWs)   bands (ev):

   -18.3184 -18.3169 -18.3086 -18.3085 -18.3053 -18.3053 -18.3050 -18.3050
   -18.3046 -18.3046  -9.2438  -9.0061  -8.7919  -8.7177  -3.7639  -2.9068
     0.1383   0.4459   0.5857   0.9375   0.9948   1.0294   1.6445   1.6943
     1.8236   1.9910   2.2012   2.3821

     occupation numbers 
     1.0000   1.0000   1.0000   1.0000   1.0000   1.0000   1.0000   1.0000
     1.0000   1.0000   1.0000   1.0000   1.0000   1.0000   1.0000   1.0000
     1.0000   1.0000   1.0000   1.0000   1.0000   1.0000   1.0000   1.0000
     1.0000   1.0000   1.0000   1.0000

          k = 0.0000 0.3333 0.1806 ( 18233 PWs)   bands (ev):

   -18.3181 -18.3167 -18.3085 -18.3084 -18.3058 -18.3058 -18.3047 -18.3047
   -18.3046 -18.3046  -9.2150  -8.9862  -8.7814  -8.7139  -3.7676  -2.9559
    -0.0429   0.1520   0.6784   0.8416   0.9112   1.3719   1.4268   1.5487
     1.8498   1.9954   2.1822   2.5073

     occupation numbers 
     1.0000   1.0000   1.0000   1.0000   1.0000   1.0000   1.0000   1.0000
     1.0000   1.0000   1.0000   1.0000   1.0000   1.0000   1.0000   1.0000
     1.0000   1.0000   1.0000   1.0000   1.0000   1.0000   1.0000   1.0000
     1.0000   1.0000   1.0000   1.0000

          k = 0.0000 0.3333 0.3611 ( 18234 PWs)   bands (ev):

   -18.3174 -18.3162 -18.3085 -18.3084 -18.3071 -18.3071 -18.3050 -18.3050
   -18.3035 -18.3035  -9.1352  -8.9339  -8.7564  -8.7089  -3.7760  -3.1064
    -0.3311  -0.2104   0.5574   0.6363   0.8701   1.2824   1.3171   1.6889
     1.8860   1.9736   2.0860   2.6972

     occupation numbers 
     1.0000   1.0000   1.0000   1.0000   1.0000   1.0000   1.0000   1.0000
     1.0000   1.0000   1.0000   1.0000   1.0000   1.0000   1.0000   1.0000
     1.0000   1.0000   1.0000   1.0000   1.0000   1.0000   1.0000   1.0000
     1.0000   1.0000   1.0000   1.0000

          k = 0.0000 0.3333 0.5417 ( 18261 PWs)   bands (ev):

   -18.3167 -18.3159 -18.3086 -18.3086 -18.3084 -18.3084 -18.3054 -18.3054
   -18.3022 -18.3022  -9.0239  -8.8719  -8.7325  -8.7163  -3.7704  -3.3331
    -0.5158  -0.4184   0.2173   0.2670   1.0630   1.2059   1.3513   1.7072
     1.7195   1.9546   2.2128   2.7474

     occupation numbers 
     1.0000   1.0000   1.0000   1.0000   1.0000   1.0000   1.0000   1.0000
     1.0000   1.0000   1.0000   1.0000   1.0000   1.0000   1.0000   1.0000
     1.0000   1.0000   1.0000   1.0000   1.0000   1.0000   1.0000   1.0000
     1.0000   1.0000   1.0000   1.0000

          k = 0.0000 0.3333 0.7222 ( 18280 PWs)   bands (ev):

   -18.3161 -18.3159 -18.3096 -18.3096 -18.3084 -18.3084 -18.3056 -18.3056
   -18.3013 -18.3013  -8.9128  -8.8482  -8.7307  -8.7259  -3.7094  -3.5584
    -0.5661  -0.5234   0.0318   0.0473   1.1320   1.1473   1.4689   1.6235
     1.6937   1.8154   2.4434   2.6425

     occupation numbers 
     1.0000   1.0000   1.0000   1.0000   1.0000   1.0000   1.0000   1.0000
     1.0000   1.0000   1.0000   1.0000   1.0000   1.0000   1.0000   1.0000
     1.0000   1.0000   1.0000   1.0000   1.0000   1.0000   1.0000   1.0000
     1.0000   1.0000   1.0000   1.0000

          k = 0.0000 0.4444 0.0000 ( 18242 PWs)   bands (ev):

   -18.3179 -18.3174 -18.3085 -18.3085 -18.3053 -18.3053 -18.3050 -18.3050
   -18.3046 -18.3046  -9.1731  -9.0914  -8.7644  -8.7378  -3.5145  -3.2219
     0.2988   0.4438   0.7022   0.8415   1.0410   1.0626   1.6717   1.6915
     1.7919   1.9052   2.1730   2.2060

     occupation numbers 
     1.0000   1.0000   1.0000   1.0000   1.0000   1.0000   1.0000   1.0000
     1.0000   1.0000   1.0000   1.0000   1.0000   1.0000   1.0000   1.0000
     1.0000   1.0000   1.0000   1.0000   1.0000   1.0000   1.0000   1.0000
     1.0000   1.0000   1.0000   1.0000

          k = 0.0000 0.4444 0.1806 ( 18237 PWs)   bands (ev):

   -18.3177 -18.3172 -18.3085 -18.3085 -18.3058 -18.3058 -18.3048 -18.3048
   -18.3046 -18.3046  -9.1468  -9.0682  -8.7562  -8.7320  -3.5292  -3.2515
     0.0163   0.0935   0.9106   0.9411   0.9591   1.1543   1.4962   1.5532
     1.8919   1.9796   2.1487   2.2544

     occupation numbers 
     1.0000   1.0000   1.0000   1.0000   1.0000   1.0000   1.0000   1.0000
     1.0000   1.0000   1.0000   1.0000   1.0000   1.0000   1.0000   1.0000
     1.0000   1.0000   1.0000   1.0000   1.0000   1.0000   1.0000   1.0000
     1.0000   1.0000   1.0000   1.0000

          k = 0.0000 0.4444 0.3611 ( 18241 PWs)   bands (ev):

   -18.3170 -18.3166 -18.3085 -18.3085 -18.3071 -18.3071 -18.3051 -18.3050
   -18.3035 -18.3035  -9.0748  -9.0056  -8.7380  -8.7208  -3.5735  -3.3429
    -0.3398  -0.2967   0.6030   0.6283   1.1573   1.3761   1.3945   1.4878
     1.9090   1.9816   2.1611   2.4293

     occupation numbers 
     1.0000   1.0000   1.0000   1.0000   1.0000   1.0000   1.0000   1.0000
     1.0000   1.0000   1.0000   1.0000   1.0000   1.0000   1.0000   1.0000
     1.0000   1.0000   1.0000   1.0000   1.0000   1.0000   1.0000   1.0000
     1.0000   1.0000   1.0000   1.0000

          k = 0.0000 0.4444 0.5417 ( 18266 PWs)   bands (ev):

   -18.3164 -18.3162 -18.3086 -18.3086 -18.3084 -18.3084 -18.3054 -18.3054
   -18.3022 -18.3022  -8.9775  -8.9252  -8.7252  -8.7192  -3.6317  -3.4801
    -0.5558  -0.5239   0.2385   0.2546   1.2872   1.2889   1.4386   1.6261
     1.7926   1.8918   2.3675   2.5800

     occupation numbers 
     1.0000   1.0000   1.0000   1.0000   1.0000   1.0000   1.0000   1.0000
     1.0000   1.0000   1.0000   1.0000   1.0000   1.0000   1.0000   1.0000
     1.0000   1.0000   1.0000   1.0000   1.0000   1.0000   1.0000   1.0000
     1.0000   1.0000   1.0000   1.0000

          k = 0.0000 0.4444 0.7222 ( 18291 PWs)   bands (ev):

   -18.3161 -18.3160 -18.3096 -18.3095 -18.3084 -18.3084 -18.3056 -18.3056
   -18.3013 -18.3013  -8.8894  -8.8665  -8.7322  -8.7300  -3.6570  -3.6044
    -0.6331  -0.6194   0.0393   0.0444   1.1785   1.1952   1.6083   1.6873
     1.7799   1.8232   2.5447   2.6251

     occupation numbers 
     1.0000   1.0000   1.0000   1.0000   1.0000   1.0000   1.0000   1.0000
     1.0000   1.0000   1.0000   1.0000   1.0000   1.0000   1.0000   1.0000
     1.0000   1.0000   1.0000   1.0000   1.0000   1.0000   1.0000   1.0000
     1.0000   1.0000   1.0000   1.0000

          k = 0.1111 0.1111 0.0000 ( 18269 PWs)   bands (ev):

   -18.3190 -18.3163 -18.3086 -18.3084 -18.3054 -18.3054 -18.3050 -18.3050
   -18.3046 -18.3046  -9.3209  -8.8742  -8.8380  -8.7094  -4.0351  -2.4389
    -0.0917   0.1162   0.4623   0.7845   1.1683   1.2388   1.5912   1.6560
     1.9712   1.9978   2.3026   2.7473

     occupation numbers 
     1.0000   1.0000   1.0000   1.0000   1.0000   1.0000   1.0000   1.0000
     1.0000   1.0000   1.0000   1.0000   1.0000   1.0000   1.0000   1.0000
     1.0000   1.0000   1.0000   1.0000   1.0000   1.0000   1.0000   1.0000
     1.0000   1.0000   1.0000   1.0000

          k = 0.1111 0.1111 0.1806 ( 18258 PWs)   bands (ev):

   -18.3186 -18.3162 -18.3086 -18.3084 -18.3059 -18.3058 -18.3047 -18.3047
   -18.3046 -18.3046  -9.2895  -8.8598  -8.8241  -8.7076  -4.0280  -2.5303
    -0.0465   0.0121   0.3847   0.7752   0.8162   1.3204   1.3940   1.6877
     1.9715   1.9768   2.2855   2.8812

     occupation numbers 
     1.0000   1.0000   1.0000   1.0000   1.0000   1.0000   1.0000   1.0000
     1.0000   1.0000   1.0000   1.0000   1.0000   1.0000   1.0000   1.0000
     1.0000   1.0000   1.0000   1.0000   1.0000   1.0000   1.0000   1.0000
     1.0000   1.0000   1.0000   1.0000

          k = 0.1111 0.1111 0.3611 ( 18239 PWs)   bands (ev):

   -18.3178 -18.3158 -18.3085 -18.3083 -18.3072 -18.3072 -18.3051 -18.3051
   -18.3035 -18.3035  -9.2016  -8.8242  -8.7883  -8.7089  -4.0008  -2.7919
    -0.2069   0.0715   0.2097   0.5265   0.7155   1.0240   1.0489   1.8673
     1.9062   1.9865   2.1825   2.9993

     occupation numbers 
     1.0000   1.0000   1.0000   1.0000   1.0000   1.0000   1.0000   1.0000
     1.0000   1.0000   1.0000   1.0000   1.0000   1.0000   1.0000   1.0000
     1.0000   1.0000   1.0000   1.0000   1.0000   1.0000   1.0000   1.0000
     1.0000   1.0000   1.0000   1.0000

          k = 0.1111 0.1111 0.5417 ( 18229 PWs)   bands (ev):

   -18.3168 -18.3155 -18.3087 -18.3087 -18.3084 -18.3083 -18.3054 -18.3054
   -18.3022 -18.3022  -9.0758  -8.7939  -8.7466  -8.7226  -3.9297  -3.1553
    -0.3496   0.0262   0.1262   0.2883   0.4401   0.9075   1.2115   1.6956
     1.7782   1.9891   2.1288   2.8599

     occupation numbers 
     1.0000   1.0000   1.0000   1.0000   1.0000   1.0000   1.0000   1.0000
     1.0000   1.0000   1.0000   1.0000   1.0000   1.0000   1.0000   1.0000
     1.0000   1.0000   1.0000   1.0000   1.0000   1.0000   1.0000   1.0000
     1.0000   1.0000   1.0000   1.0000

          k = 0.1111 0.1111 0.7222 ( 18214 PWs)   bands (ev):

   -18.3160 -18.3155 -18.3097 -18.3096 -18.3084 -18.3083 -18.3056 -18.3056
   -18.3013 -18.3012  -8.9414  -8.8333  -8.7228  -8.7189  -3.7755  -3.5097
    -0.3706  -0.1465  -0.0285   0.1662   0.5070   0.9348   1.4546   1.5369
     1.6478   1.7479   2.3000   2.5722

     occupation numbers 
     1.0000   1.0000   1.0000   1.0000   1.0000   1.0000   1.0000   1.0000
     1.0000   1.0000   1.0000   1.0000   1.0000   1.0000   1.0000   1.0000
     1.0000   1.0000   1.0000   1.0000   1.0000   1.0000   1.0000   1.0000
     1.0000   1.0000   1.0000   1.0000

          k = 0.1111 0.2222 0.0000 ( 18257 PWs)   bands (ev):

   -18.3187 -18.3166 -18.3086 -18.3084 -18.3054 -18.3053 -18.3050 -18.3050
   -18.3046 -18.3046  -9.2873  -8.9272  -8.8274  -8.7104  -3.9191  -2.6500
    -0.0348   0.3334   0.5149   0.8552   1.0792   1.1285   1.5999   1.6869
     1.9147   1.9981   2.2216   2.5920

     occupation numbers 
     1.0000   1.0000   1.0000   1.0000   1.0000   1.0000   1.0000   1.0000
     1.0000   1.0000   1.0000   1.0000   1.0000   1.0000   1.0000   1.0000
     1.0000   1.0000   1.0000   1.0000   1.0000   1.0000   1.0000   1.0000
     1.0000   1.0000   1.0000   1.0000

          k = 0.1111 0.2222 0.1806 ( 18248 PWs)   bands (ev):

   -18.3184 -18.3164 -18.3086 -18.3084 -18.3059 -18.3058 -18.3048 -18.3047
   -18.3046 -18.3046  -9.2571  -8.9109  -8.8144  -8.7076  -3.9170  -2.7214
    -0.0446   0.1023   0.4791   0.8143   0.8604   1.3476   1.4490   1.5779
     1.9106   1.9790   2.2271   2.7270

     occupation numbers 
     1.0000   1.0000   1.0000   1.0000   1.0000   1.0000   1.0000   1.0000
     1.0000   1.0000   1.0000   1.0000   1.0000   1.0000   1.0000   1.0000
     1.0000   1.0000   1.0000   1.0000   1.0000   1.0000   1.0000   1.0000
     1.0000   1.0000   1.0000   1.0000

          k = 0.1111 0.2222 0.3611 ( 18229 PWs)   bands (ev):

   -18.3176 -18.3160 -18.3085 -18.3084 -18.3072 -18.3071 -18.3051 -18.3050
   -18.3035 -18.3035  -9.1727  -8.8694  -8.7814  -8.7058  -3.9058  -2.9318
    -0.2802  -0.0255   0.3399   0.6262   0.6771   1.1623   1.2285   1.8058
     1.8858   1.9468   2.1526   2.8589

     occupation numbers 
     1.0000   1.0000   1.0000   1.0000   1.0000   1.0000   1.0000   1.0000
     1.0000   1.0000   1.0000   1.0000   1.0000   1.0000   1.0000   1.0000
     1.0000   1.0000   1.0000   1.0000   1.0000   1.0000   1.0000   1.0000
     1.0000   1.0000   1.0000   1.0000

          k = 0.1111 0.2222 0.5417 ( 18248 PWs)   bands (ev):

   -18.3168 -18.3157 -18.3087 -18.3086 -18.3084 -18.3083 -18.3054 -18.3054
   -18.3022 -18.3022  -9.0533  -8.8273  -8.7444  -8.7169  -3.8638  -3.2345
    -0.4669  -0.1401   0.1511   0.3058   0.5999   1.1664   1.2964   1.6558
     1.7678   1.9885   2.1668   2.7879

     occupation numbers 
     1.0000   1.0000   1.0000   1.0000   1.0000   1.0000   1.0000   1.0000
     1.0000   1.0000   1.0000   1.0000   1.0000   1.0000   1.0000   1.0000
     1.0000   1.0000   1.0000   1.0000   1.0000   1.0000   1.0000   1.0000
     1.0000   1.0000   1.0000   1.0000

          k = 0.1111 0.2222 0.7222 ( 18260 PWs)   bands (ev):

   -18.3161 -18.3157 -18.3097 -18.3096 -18.3084 -18.3084 -18.3056 -18.3056
   -18.3013 -18.3013  -8.9291  -8.8386  -8.7278  -8.7212  -3.7508  -3.5324
    -0.5194  -0.2571  -0.0426   0.1571   0.6896   1.1794   1.4460   1.5342
     1.6611   1.7883   2.3709   2.5971

     occupation numbers 
     1.0000   1.0000   1.0000   1.0000   1.0000   1.0000   1.0000   1.0000
     1.0000   1.0000   1.0000   1.0000   1.0000   1.0000   1.0000   1.0000
     1.0000   1.0000   1.0000   1.0000   1.0000   1.0000   1.0000   1.0000
     1.0000   1.0000   1.0000   1.0000

          k = 0.1111 0.3333 0.0000 ( 18247 PWs)   bands (ev):

   -18.3184 -18.3169 -18.3086 -18.3085 -18.3054 -18.3053 -18.3050 -18.3050
   -18.3046 -18.3046  -9.2340  -9.0028  -8.8037  -8.7229  -3.7354  -2.9269
     0.0881   0.4795   0.5996   0.9599   0.9892   1.0361   1.6249   1.6958
     1.8273   1.9863   2.1555   2.3819

     occupation numbers 
     1.0000   1.0000   1.0000   1.0000   1.0000   1.0000   1.0000   1.0000
     1.0000   1.0000   1.0000   1.0000   1.0000   1.0000   1.0000   1.0000
     1.0000   1.0000   1.0000   1.0000   1.0000   1.0000   1.0000   1.0000
     1.0000   1.0000   1.0000   1.0000

          k = 0.1111 0.3333 0.1806 ( 18243 PWs)   bands (ev):

   -18.3181 -18.3167 -18.3085 -18.3085 -18.3058 -18.3058 -18.3048 -18.3047
   -18.3046 -18.3046  -9.2056  -8.9833  -8.7926  -8.7186  -3.7413  -2.9771
    -0.0242   0.1446   0.6051   0.9124   0.9324   1.3297   1.4180   1.5632
     1.8557   1.9885   2.1593   2.5060

     occupation numbers 
     1.0000   1.0000   1.0000   1.0000   1.0000   1.0000   1.0000   1.0000
     1.0000   1.0000   1.0000   1.0000   1.0000   1.0000   1.0000   1.0000
     1.0000   1.0000   1.0000   1.0000   1.0000   1.0000   1.0000   1.0000
     1.0000   1.0000   1.0000   1.0000

          k = 0.1111 0.3333 0.3611 ( 18237 PWs)   bands (ev):

   -18.3174 -18.3163 -18.3085 -18.3084 -18.3072 -18.3071 -18.3051 -18.3050
   -18.3035 -18.3035  -9.1270  -8.9322  -8.7653  -8.7120  -3.7564  -3.1286
    -0.3178  -0.1569   0.4901   0.6330   0.8157   1.2994   1.3886   1.6616
     1.8762   1.9854   2.0902   2.6616

     occupation numbers 
     1.0000   1.0000   1.0000   1.0000   1.0000   1.0000   1.0000   1.0000
     1.0000   1.0000   1.0000   1.0000   1.0000   1.0000   1.0000   1.0000
     1.0000   1.0000   1.0000   1.0000   1.0000   1.0000   1.0000   1.0000
     1.0000   1.0000   1.0000   1.0000

          k = 0.1111 0.3333 0.5417 ( 18258 PWs)   bands (ev):

   -18.3166 -18.3159 -18.3087 -18.3086 -18.3084 -18.3084 -18.3054 -18.3054
   -18.3022 -18.3022  -9.0180  -8.8725  -8.7377  -8.7170  -3.7611  -3.3520
    -0.5295  -0.3227   0.1726   0.2751   0.9091   1.3199   1.3805   1.6632
     1.7519   1.9632   2.2259   2.6696

     occupation numbers 
     1.0000   1.0000   1.0000   1.0000   1.0000   1.0000   1.0000   1.0000
     1.0000   1.0000   1.0000   1.0000   1.0000   1.0000   1.0000   1.0000
     1.0000   1.0000   1.0000   1.0000   1.0000   1.0000   1.0000   1.0000
     1.0000   1.0000   1.0000   1.0000

          k = 0.1111 0.3333 0.7222 ( 18278 PWs)   bands (ev):

   -18.3161 -18.3158 -18.3097 -18.3096 -18.3084 -18.3084 -18.3057 -18.3056
   -18.3013 -18.3013  -8.9106  -8.8497  -8.7316  -8.7252  -3.7125  -3.5687
    -0.6024  -0.4112  -0.0347   0.0967   0.9855   1.2847   1.4215   1.6322
     1.7131   1.8253   2.4342   2.5887

     occupation numbers 
     1.0000   1.0000   1.0000   1.0000   1.0000   1.0000   1.0000   1.0000
     1.0000   1.0000   1.0000   1.0000   1.0000   1.0000   1.0000   1.0000
     1.0000   1.0000   1.0000   1.0000   1.0000   1.0000   1.0000   1.0000
     1.0000   1.0000   1.0000   1.0000

          k = 0.1111 0.4444 0.0000 ( 18241 PWs)   bands (ev):

   -18.3179 -18.3174 -18.3085 -18.3085 -18.3053 -18.3053 -18.3050 -18.3050
   -18.3046 -18.3046  -9.1647  -9.0851  -8.7747  -8.7459  -3.4967  -3.2199
     0.2509   0.4142   0.7121   0.8454   1.0655   1.0931   1.6559   1.6829
     1.8003   1.9044   2.1451   2.2110

     occupation numbers 
     1.0000   1.0000   1.0000   1.0000   1.0000   1.0000   1.0000   1.0000
     1.0000   1.0000   1.0000   1.0000   1.0000   1.0000   1.0000   1.0000
     1.0000   1.0000   1.0000   1.0000   1.0000   1.0000   1.0000   1.0000
     1.0000   1.0000   1.0000   1.0000

          k = 0.1111 0.4444 0.1806 ( 18253 PWs)   bands (ev):

   -18.3177 -18.3172 -18.3085 -18.3085 -18.3058 -18.3058 -18.3048 -18.3048
   -18.3046 -18.3046  -9.1388  -9.0623  -8.7659  -8.7395  -3.5140  -3.2519
     0.0275   0.0969   0.8019   0.9407   1.0207   1.1267   1.4931   1.5630
     1.8983   1.9808   2.1401   2.2733

     occupation numbers 
     1.0000   1.0000   1.0000   1.0000   1.0000   1.0000   1.0000   1.0000
     1.0000   1.0000   1.0000   1.0000   1.0000   1.0000   1.0000   1.0000
     1.0000   1.0000   1.0000   1.0000   1.0000   1.0000   1.0000   1.0000
     1.0000   1.0000   1.0000   1.0000

          k = 0.1111 0.4444 0.3611 ( 18246 PWs)   bands (ev):

   -18.3170 -18.3166 -18.3085 -18.3084 -18.3071 -18.3071 -18.3051 -18.3051
   -18.3035 -18.3035  -9.0681  -9.0010  -8.7456  -8.7265  -3.5652  -3.3488
    -0.3105  -0.2557   0.5665   0.6076   1.0774   1.3406   1.4208   1.5053
     1.9061   1.9827   2.1868   2.4286

     occupation numbers 
     1.0000   1.0000   1.0000   1.0000   1.0000   1.0000   1.0000   1.0000
     1.0000   1.0000   1.0000   1.0000   1.0000   1.0000   1.0000   1.0000
     1.0000   1.0000   1.0000   1.0000   1.0000   1.0000   1.0000   1.0000
     1.0000   1.0000   1.0000   1.0000

          k = 0.1111 0.4444 0.5417 ( 18260 PWs)   bands (ev):

   -18.3164 -18.3162 -18.3086 -18.3086 -18.3084 -18.3084 -18.3054 -18.3054
   -18.3022 -18.3022  -8.9732  -8.9230  -8.7295  -8.7218  -3.6322  -3.4904
    -0.5264  -0.4562   0.2016   0.2383   1.2053   1.3482   1.4413   1.5899
     1.7905   1.8932   2.3594   2.5231

     occupation numbers 
     1.0000   1.0000   1.0000   1.0000   1.0000   1.0000   1.0000   1.0000
     1.0000   1.0000   1.0000   1.0000   1.0000   1.0000   1.0000   1.0000
     1.0000   1.0000   1.0000   1.0000   1.0000   1.0000   1.0000   1.0000
     1.0000   1.0000   1.0000   1.0000

          k = 0.1111 0.4444 0.7222 ( 18262 PWs)   bands (ev):

   -18.3161 -18.3160 -18.3096 -18.3095 -18.3084 -18.3084 -18.3056 -18.3056
   -18.3013 -18.3013  -8.8887  -8.8671  -8.7321  -8.7294  -3.6651  -3.6149
    -0.6078  -0.5392  -0.0052   0.0413   1.1778   1.2598   1.5301   1.6646
     1.7796   1.8288   2.4797   2.5340

     occupation numbers 
     1.0000   1.0000   1.0000   1.0000   1.0000   1.0000   1.0000   1.0000
     1.0000   1.0000   1.0000   1.0000   1.0000   1.0000   1.0000   1.0000
     1.0000   1.0000   1.0000   1.0000   1.0000   1.0000   1.0000   1.0000
     1.0000   1.0000   1.0000   1.0000

          k = 0.2222 0.2222 0.0000 ( 18259 PWs)   bands (ev):

   -18.3186 -18.3168 -18.3086 -18.3085 -18.3054 -18.3053 -18.3050 -18.3050
   -18.3047 -18.3045  -9.2555  -8.9452  -8.8418  -8.7193  -3.8156  -2.7882
    -0.0450   0.4742   0.5631   0.9222   1.0398   1.0659   1.5839   1.6961
     1.8861   1.9949   2.1247   2.5002

     occupation numbers 
     1.0000   1.0000   1.0000   1.0000   1.0000   1.0000   1.0000   1.0000
     1.0000   1.0000   1.0000   1.0000   1.0000   1.0000   1.0000   1.0000
     1.0000   1.0000   1.0000   1.0000   1.0000   1.0000   1.0000   1.0000
     1.0000   1.0000   1.0000   1.0000

          k = 0.2222 0.2222 0.1806 ( 18254 PWs)   bands (ev):

   -18.3182 -18.3166 -18.3086 -18.3084 -18.3059 -18.3058 -18.3048 -18.3047
   -18.3046 -18.3046  -9.2264  -8.9288  -8.8278  -8.7155  -3.8190  -2.8520
     0.0004   0.1017   0.4776   0.8925   0.9318   1.3550   1.3973   1.5588
     1.8907   1.9661   2.1680   2.6345

     occupation numbers 
     1.0000   1.0000   1.0000   1.0000   1.0000   1.0000   1.0000   1.0000
     1.0000   1.0000   1.0000   1.0000   1.0000   1.0000   1.0000   1.0000
     1.0000   1.0000   1.0000   1.0000   1.0000   1.0000   1.0000   1.0000
     1.0000   1.0000   1.0000   1.0000

          k = 0.2222 0.2222 0.3611 ( 18240 PWs)   bands (ev):

   -18.3175 -18.3161 -18.3085 -18.3084 -18.3072 -18.3071 -18.3051 -18.3050
   -18.3035 -18.3035  -9.1457  -8.8875  -8.7918  -8.7102  -3.8254  -3.0382
    -0.2890   0.1174   0.1881   0.6074   0.6904   1.2491   1.3932   1.7418
     1.8587   1.9463   2.1339   2.7328

     occupation numbers 
     1.0000   1.0000   1.0000   1.0000   1.0000   1.0000   1.0000   1.0000
     1.0000   1.0000   1.0000   1.0000   1.0000   1.0000   1.0000   1.0000
     1.0000   1.0000   1.0000   1.0000   1.0000   1.0000   1.0000   1.0000
     1.0000   1.0000   1.0000   1.0000

          k = 0.2222 0.2222 0.5417 ( 18243 PWs)   bands (ev):

   -18.3167 -18.3158 -18.3088 -18.3086 -18.3084 -18.3083 -18.3054 -18.3054
   -18.3022 -18.3022  -9.0328  -8.8447  -8.7500  -8.7167  -3.8130  -3.3036
    -0.5079  -0.0550   0.1033   0.4012   0.4221   1.3505   1.3768   1.6284
     1.7834   1.9952   2.1967   2.6476

     occupation numbers 
     1.0000   1.0000   1.0000   1.0000   1.0000   1.0000   1.0000   1.0000
     1.0000   1.0000   1.0000   1.0000   1.0000   1.0000   1.0000   1.0000
     1.0000   1.0000   1.0000   1.0000   1.0000   1.0000   1.0000   1.0000
     1.0000   1.0000   1.0000   1.0000

          k = 0.2222 0.2222 0.7222 ( 18250 PWs)   bands (ev):

   -18.3161 -18.3157 -18.3097 -18.3095 -18.3084 -18.3083 -18.3056 -18.3056
   -18.3013 -18.3013  -8.9192  -8.8440  -8.7311  -8.7220  -3.7395  -3.5582
    -0.5765  -0.2225  -0.0951   0.3223   0.5134   1.3422   1.4545   1.5541
     1.6938   1.8204   2.4029   2.5360

     occupation numbers 
     1.0000   1.0000   1.0000   1.0000   1.0000   1.0000   1.0000   1.0000
     1.0000   1.0000   1.0000   1.0000   1.0000   1.0000   1.0000   1.0000
     1.0000   1.0000   1.0000   1.0000   1.0000   1.0000   1.0000   1.0000
     1.0000   1.0000   1.0000   1.0000

          k = 0.2222 0.3333 0.0000 ( 18247 PWs)   bands (ev):

   -18.3183 -18.3171 -18.3085 -18.3085 -18.3054 -18.3053 -18.3050 -18.3050
   -18.3046 -18.3046  -9.2053  -8.9979  -8.8300  -8.7396  -3.6536  -2.9884
     0.0235   0.4665   0.6399   0.9685   1.0227   1.0972   1.5924   1.6842
     1.8207   1.9796   2.0602   2.3601

     occupation numbers 
     1.0000   1.0000   1.0000   1.0000   1.0000   1.0000   1.0000   1.0000
     1.0000   1.0000   1.0000   1.0000   1.0000   1.0000   1.0000   1.0000
     1.0000   1.0000   1.0000   1.0000   1.0000   1.0000   1.0000   1.0000
     1.0000   1.0000   1.0000   1.0000

          k = 0.2222 0.3333 0.1806 ( 18246 PWs)   bands (ev):

   -18.3180 -18.3169 -18.3085 -18.3085 -18.3059 -18.3058 -18.3048 -18.3047
   -18.3046 -18.3046  -9.1781  -8.9793  -8.8171  -8.7339  -3.6661  -3.0402
     0.0213   0.1303   0.5308   0.9311   1.0232   1.2133   1.4118   1.6131
     1.8431   2.0061   2.0993   2.4891

     occupation numbers 
     1.0000   1.0000   1.0000   1.0000   1.0000   1.0000   1.0000   1.0000
     1.0000   1.0000   1.0000   1.0000   1.0000   1.0000   1.0000   1.0000
     1.0000   1.0000   1.0000   1.0000   1.0000   1.0000   1.0000   1.0000
     1.0000   1.0000   1.0000   1.0000

          k = 0.2222 0.3333 0.3611 ( 18240 PWs)   bands (ev):

   -18.3172 -18.3164 -18.3085 -18.3084 -18.3072 -18.3071 -18.3051 -18.3050
   -18.3035 -18.3035  -9.1032  -8.9312  -8.7844  -8.7231  -3.7001  -3.1910
    -0.2727  -0.0106   0.3587   0.5775   0.7336   1.3682   1.4025   1.6473
     1.8457   2.0413   2.0911   2.5873

     occupation numbers 
     1.0000   1.0000   1.0000   1.0000   1.0000   1.0000   1.0000   1.0000
     1.0000   1.0000   1.0000   1.0000   1.0000   1.0000   1.0000   1.0000
     1.0000   1.0000   1.0000   1.0000   1.0000   1.0000   1.0000   1.0000
     1.0000   1.0000   1.0000   1.0000

          k = 0.2222 0.3333 0.5417 ( 18250 PWs)   bands (ev):

   -18.3165 -18.3159 -18.3087 -18.3086 -18.3084 -18.3084 -18.3054 -18.3054
   -18.3022 -18.3022  -9.0010  -8.8766  -8.7478  -8.7214  -3.7334  -3.4034
    -0.4886  -0.1488   0.1043   0.2818   0.6640   1.4247   1.4625   1.6126
     1.7733   1.9742   2.2411   2.5055

     occupation numbers 
     1.0000   1.0000   1.0000   1.0000   1.0000   1.0000   1.0000   1.0000
     1.0000   1.0000   1.0000   1.0000   1.0000   1.0000   1.0000   1.0000
     1.0000   1.0000   1.0000   1.0000   1.0000   1.0000   1.0000   1.0000
     1.0000   1.0000   1.0000   1.0000

          k = 0.2222 0.3333 0.7222 ( 18260 PWs)   bands (ev):

   -18.3161 -18.3158 -18.3097 -18.3095 -18.3084 -18.3084 -18.3056 -18.3056
   -18.3013 -18.3013  -8.9042  -8.8541  -8.7327  -8.7247  -3.7177  -3.5971
    -0.5599  -0.2779  -0.1116   0.1873   0.7506   1.3899   1.4505   1.6340
     1.7319   1.8482   2.3959   2.4119

     occupation numbers 
     1.0000   1.0000   1.0000   1.0000   1.0000   1.0000   1.0000   1.0000
     1.0000   1.0000   1.0000   1.0000   1.0000   1.0000   1.0000   1.0000
     1.0000   1.0000   1.0000   1.0000   1.0000   1.0000   1.0000   1.0000
     1.0000   1.0000   1.0000   1.0000

          k = 0.2222 0.4444 0.0000 ( 18227 PWs)   bands (ev):

   -18.3179 -18.3175 -18.3085 -18.3085 -18.3053 -18.3053 -18.3050 -18.3050
   -18.3046 -18.3046  -9.1408  -9.0685  -8.8016  -8.7689  -3.4480  -3.2182
     0.1573   0.3242   0.7398   0.8538   1.1290   1.1724   1.6205   1.6554
     1.7989   1.8806   2.1110   2.2156

     occupation numbers 
     1.0000   1.0000   1.0000   1.0000   1.0000   1.0000   1.0000   1.0000
     1.0000   1.0000   1.0000   1.0000   1.0000   1.0000   1.0000   1.0000
     1.0000   1.0000   1.0000   1.0000   1.0000   1.0000   1.0000   1.0000
     1.0000   1.0000   1.0000   1.0000

          k = 0.2222 0.4444 0.1806 ( 18238 PWs)   bands (ev):

   -18.3176 -18.3172 -18.3085 -18.3085 -18.3058 -18.3058 -18.3048 -18.3047
   -18.3046 -18.3046  -9.1161  -9.0468  -8.7909  -8.7608  -3.4723  -3.2560
     0.0562   0.1050   0.6907   0.8864   1.0428   1.0772   1.5016   1.5934
     1.8821   1.9729   2.1516   2.3125

     occupation numbers 
     1.0000   1.0000   1.0000   1.0000   1.0000   1.0000   1.0000   1.0000
     1.0000   1.0000   1.0000   1.0000   1.0000   1.0000   1.0000   1.0000
     1.0000   1.0000   1.0000   1.0000   1.0000   1.0000   1.0000   1.0000
     1.0000   1.0000   1.0000   1.0000

          k = 0.2222 0.4444 0.3611 ( 18241 PWs)   bands (ev):

   -18.3170 -18.3167 -18.3085 -18.3084 -18.3072 -18.3071 -18.3051 -18.3050
   -18.3035 -18.3035  -9.0492  -8.9892  -8.7652  -8.7428  -3.5419  -3.3661
    -0.2239  -0.1369   0.4910   0.5504   0.8941   1.1665   1.4919   1.5903
     1.8952   1.9851   2.2429   2.4271

     occupation numbers 
     1.0000   1.0000   1.0000   1.0000   1.0000   1.0000   1.0000   1.0000
     1.0000   1.0000   1.0000   1.0000   1.0000   1.0000   1.0000   1.0000
     1.0000   1.0000   1.0000   1.0000   1.0000   1.0000   1.0000   1.0000
     1.0000   1.0000   1.0000   1.0000

          k = 0.2222 0.4444 0.5417 ( 18255 PWs)   bands (ev):

   -18.3163 -18.3161 -18.3087 -18.3086 -18.3084 -18.3084 -18.3054 -18.3054
   -18.3022 -18.3022  -8.9611  -8.9177  -8.7398  -8.7299  -3.6318  -3.5177
    -0.4127  -0.2916   0.1315   0.1916   0.9896   1.2916   1.5228   1.5859
     1.8003   1.8995   2.3257   2.4130

     occupation numbers 
     1.0000   1.0000   1.0000   1.0000   1.0000   1.0000   1.0000   1.0000
     1.0000   1.0000   1.0000   1.0000   1.0000   1.0000   1.0000   1.0000
     1.0000   1.0000   1.0000   1.0000   1.0000   1.0000   1.0000   1.0000
     1.0000   1.0000   1.0000   1.0000

          k = 0.2222 0.4444 0.7222 ( 18250 PWs)   bands (ev):

   -18.3160 -18.3159 -18.3097 -18.3096 -18.3084 -18.3084 -18.3056 -18.3056
   -18.3013 -18.3013  -8.8865  -8.8689  -8.7316  -8.7284  -3.6843  -3.6419
    -0.4829  -0.3766  -0.0765   0.0236   1.0792   1.3206   1.4809   1.6031
     1.7866   1.8409   2.3315   2.3626

     occupation numbers 
     1.0000   1.0000   1.0000   1.0000   1.0000   1.0000   1.0000   1.0000
     1.0000   1.0000   1.0000   1.0000   1.0000   1.0000   1.0000   1.0000
     1.0000   1.0000   1.0000   1.0000   1.0000   1.0000   1.0000   1.0000
     1.0000   1.0000   1.0000   1.0000

          k = 0.3333 0.3333 0.0000 ( 18241 PWs)   bands (ev):

   -18.3181 -18.3173 -18.3085 -18.3085 -18.3054 -18.3053 -18.3050 -18.3050
   -18.3046 -18.3045  -9.1607  -9.0089  -8.8462  -8.7676  -3.5297  -3.0912
     0.0170   0.3542   0.7024   0.9249   1.1154   1.2085   1.5756   1.6546
     1.7763   1.9116   2.0527   2.3033

     occupation numbers 
     1.0000   1.0000   1.0000   1.0000   1.0000   1.0000   1.0000   1.0000
     1.0000   1.0000   1.0000   1.0000   1.0000   1.0000   1.0000   1.0000
     1.0000   1.0000   1.0000   1.0000   1.0000   1.0000   1.0000   1.0000
     1.0000   1.0000   1.0000   1.0000

          k = 0.3333 0.3333 0.1806 ( 18226 PWs)   bands (ev):

   -18.3178 -18.3171 -18.3085 -18.3085 -18.3059 -18.3058 -18.3047 -18.3047
   -18.3046 -18.3046  -9.1354  -8.9906  -8.8321  -8.7597  -3.5519  -3.1413
     0.0616   0.1247   0.5297   0.9548   0.9923   1.0893   1.4580   1.6842
     1.7867   2.0098   2.0979   2.4366

     occupation numbers 
     1.0000   1.0000   1.0000   1.0000   1.0000   1.0000   1.0000   1.0000
     1.0000   1.0000   1.0000   1.0000   1.0000   1.0000   1.0000   1.0000
     1.0000   1.0000   1.0000   1.0000   1.0000   1.0000   1.0000   1.0000
     1.0000   1.0000   1.0000   1.0000

          k = 0.3333 0.3333 0.3611 ( 18262 PWs)   bands (ev):

   -18.3171 -18.3165 -18.3085 -18.3085 -18.3072 -18.3072 -18.3051 -18.3051
   -18.3035 -18.3035  -9.0665  -8.9433  -8.7959  -8.7423  -3.6139  -3.2835
    -0.1944   0.1753   0.2286   0.5275   0.6591   1.1920   1.4725   1.7349
     1.7964   2.0432   2.1724   2.5108

     occupation numbers 
     1.0000   1.0000   1.0000   1.0000   1.0000   1.0000   1.0000   1.0000
     1.0000   1.0000   1.0000   1.0000   1.0000   1.0000   1.0000   1.0000
     1.0000   1.0000   1.0000   1.0000   1.0000   1.0000   1.0000   1.0000
     1.0000   1.0000   1.0000   1.0000

          k = 0.3333 0.3333 0.5417 ( 18246 PWs)   bands (ev):

   -18.3164 -18.3160 -18.3088 -18.3086 -18.3084 -18.3084 -18.3054 -18.3054
   -18.3022 -18.3022  -8.9751  -8.8893  -8.7537  -8.7303  -3.6878  -3.4750
    -0.3764  -0.0453   0.0592   0.3991   0.4022   1.3203   1.5715   1.6282
     1.7899   1.9711   2.2335   2.3888

     occupation numbers 
     1.0000   1.0000   1.0000   1.0000   1.0000   1.0000   1.0000   1.0000
     1.0000   1.0000   1.0000   1.0000   1.0000   1.0000   1.0000   1.0000
     1.0000   1.0000   1.0000   1.0000   1.0000   1.0000   1.0000   1.0000
     1.0000   1.0000   1.0000   1.0000

          k = 0.3333 0.3333 0.7222 ( 18261 PWs)   bands (ev):

   -18.3160 -18.3157 -18.3098 -18.3096 -18.3084 -18.3084 -18.3056 -18.3056
   -18.3013 -18.3013  -8.8947  -8.8616  -8.7323  -8.7256  -3.7167  -3.6359
    -0.4293  -0.2329  -0.1646   0.3390   0.5243   1.3817   1.4967   1.6751
     1.7658   1.8682   2.1932   2.3356

     occupation numbers 
     1.0000   1.0000   1.0000   1.0000   1.0000   1.0000   1.0000   1.0000
     1.0000   1.0000   1.0000   1.0000   1.0000   1.0000   1.0000   1.0000
     1.0000   1.0000   1.0000   1.0000   1.0000   1.0000   1.0000   1.0000
     1.0000   1.0000   1.0000   1.0000

          k = 0.3333 0.4444 0.0000 ( 18230 PWs)   bands (ev):

   -18.3178 -18.3175 -18.3085 -18.3085 -18.3053 -18.3053 -18.3050 -18.3050
   -18.3046 -18.3045  -9.1057  -9.0496  -8.8332  -8.8019  -3.3807  -3.2275
     0.0831   0.2072   0.7791   0.8581   1.2165   1.2681   1.5856   1.6168
     1.7496   1.8085   2.1285   2.2201

     occupation numbers 
     1.0000   1.0000   1.0000   1.0000   1.0000   1.0000   1.0000   1.0000
     1.0000   1.0000   1.0000   1.0000   1.0000   1.0000   1.0000   1.0000
     1.0000   1.0000   1.0000   1.0000   1.0000   1.0000   1.0000   1.0000
     1.0000   1.0000   1.0000   1.0000

          k = 0.3333 0.4444 0.1806 ( 18219 PWs)   bands (ev):

   -18.3175 -18.3173 -18.3085 -18.3085 -18.3058 -18.3058 -18.3047 -18.3047
   -18.3046 -18.3046  -9.0828  -9.0294  -8.8203  -8.7914  -3.4141  -3.2711
     0.0875   0.1128   0.6293   0.8027   0.9970   1.0450   1.5469   1.6500
     1.8204   1.9163   2.2198   2.3426

     occupation numbers 
     1.0000   1.0000   1.0000   1.0000   1.0000   1.0000   1.0000   1.0000
     1.0000   1.0000   1.0000   1.0000   1.0000   1.0000   1.0000   1.0000
     1.0000   1.0000   1.0000   1.0000   1.0000   1.0000   1.0000   1.0000
     1.0000   1.0000   1.0000   1.0000

          k = 0.3333 0.4444 0.3611 ( 18255 PWs)   bands (ev):

   -18.3169 -18.3167 -18.3085 -18.3085 -18.3072 -18.3072 -18.3051 -18.3051
   -18.3035 -18.3035  -9.0217  -8.9766  -8.7875  -8.7662  -3.5077  -3.3933
    -0.0865   0.0464   0.4059   0.4953   0.6775   0.9081   1.5870   1.6917
     1.8658   1.9664   2.3088   2.4240

     occupation numbers 
     1.0000   1.0000   1.0000   1.0000   1.0000   1.0000   1.0000   1.0000
     1.0000   1.0000   1.0000   1.0000   1.0000   1.0000   1.0000   1.0000
     1.0000   1.0000   1.0000   1.0000   1.0000   1.0000   1.0000   1.0000
     1.0000   1.0000   1.0000   1.0000

          k = 0.3333 0.4444 0.5417 ( 18261 PWs)   bands (ev):

   -18.3162 -18.3161 -18.3087 -18.3087 -18.3084 -18.3084 -18.3054 -18.3054
   -18.3022 -18.3022  -8.9440  -8.9132  -8.7509  -8.7415  -3.6263  -3.5529
    -0.2175  -0.0839   0.0667   0.1749   0.6861   1.0246   1.6492   1.6922
     1.8147   1.9118   2.2654   2.3254

     occupation numbers 
     1.0000   1.0000   1.0000   1.0000   1.0000   1.0000   1.0000   1.0000
     1.0000   1.0000   1.0000   1.0000   1.0000   1.0000   1.0000   1.0000
     1.0000   1.0000   1.0000   1.0000   1.0000   1.0000   1.0000   1.0000
     1.0000   1.0000   1.0000   1.0000

          k = 0.3333 0.4444 0.7222 ( 18264 PWs)   bands (ev):

   -18.3159 -18.3158 -18.3097 -18.3097 -18.3084 -18.3084 -18.3056 -18.3056
   -18.3013 -18.3013  -8.8833  -8.8717  -8.7304  -8.7278  -3.7028  -3.6742
    -0.2790  -0.2425  -0.1283   0.1059   0.7837   1.1262   1.5987   1.6850
     1.8033   1.8530   2.1508   2.2411

     occupation numbers 
     1.0000   1.0000   1.0000   1.0000   1.0000   1.0000   1.0000   1.0000
     1.0000   1.0000   1.0000   1.0000   1.0000   1.0000   1.0000   1.0000
     1.0000   1.0000   1.0000   1.0000   1.0000   1.0000   1.0000   1.0000
     1.0000   1.0000   1.0000   1.0000

          k = 0.4444 0.4444 0.0000 ( 18220 PWs)   bands (ev):

   -18.3177 -18.3176 -18.3085 -18.3085 -18.3053 -18.3053 -18.3050 -18.3050
   -18.3045 -18.3045  -9.0683  -9.0454  -8.8490  -8.8345  -3.3119  -3.2579
     0.0637   0.1094   0.8192   0.8479   1.3042   1.3322   1.5702   1.5830
     1.6954   1.7224   2.1752   2.2099

     occupation numbers 
     1.0000   1.0000   1.0000   1.0000   1.0000   1.0000   1.0000   1.0000
     1.0000   1.0000   1.0000   1.0000   1.0000   1.0000   1.0000   1.0000
     1.0000   1.0000   1.0000   1.0000   1.0000   1.0000   1.0000   1.0000
     1.0000   1.0000   1.0000   1.0000

          k = 0.4444 0.4444 0.1806 ( 18224 PWs)   bands (ev):

   -18.3174 -18.3174 -18.3085 -18.3085 -18.3059 -18.3058 -18.3047 -18.3047
   -18.3046 -18.3046  -9.0476  -9.0260  -8.8349  -8.8216  -3.3535  -3.3034
     0.1071   0.1149   0.6398   0.7099   0.9780   1.0022   1.6273   1.7112
     1.7497   1.8292   2.2953   2.3397

     occupation numbers 
     1.0000   1.0000   1.0000   1.0000   1.0000   1.0000   1.0000   1.0000
     1.0000   1.0000   1.0000   1.0000   1.0000   1.0000   1.0000   1.0000
     1.0000   1.0000   1.0000   1.0000   1.0000   1.0000   1.0000   1.0000
     1.0000   1.0000   1.0000   1.0000

          k = 0.4444 0.4444 0.3611 ( 18264 PWs)   bands (ev):

   -18.3168 -18.3167 -18.3085 -18.3085 -18.3072 -18.3072 -18.3051 -18.3051
   -18.3035 -18.3035  -8.9931  -8.9753  -8.7985  -8.7888  -3.4680  -3.4284
     0.0855   0.2168   0.3476   0.4848   0.5006   0.6351   1.6849   1.7504
     1.8457   1.9104   2.3700   2.4092

     occupation numbers 
     1.0000   1.0000   1.0000   1.0000   1.0000   1.0000   1.0000   1.0000
     1.0000   1.0000   1.0000   1.0000   1.0000   1.0000   1.0000   1.0000
     1.0000   1.0000   1.0000   1.0000   1.0000   1.0000   1.0000   1.0000
     1.0000   1.0000   1.0000   1.0000

          k = 0.4444 0.4444 0.5417 ( 18269 PWs)   bands (ev):

   -18.3162 -18.3161 -18.3088 -18.3087 -18.3085 -18.3084 -18.3054 -18.3054
   -18.3022 -18.3022  -8.9267  -8.9153  -8.7562  -8.7521  -3.6117  -3.5864
     0.0050   0.0254   0.0468   0.3053   0.4119   0.6904   1.7466   1.7941
     1.8212   1.8989   2.2319   2.2619

     occupation numbers 
     1.0000   1.0000   1.0000   1.0000   1.0000   1.0000   1.0000   1.0000
     1.0000   1.0000   1.0000   1.0000   1.0000   1.0000   1.0000   1.0000
     1.0000   1.0000   1.0000   1.0000   1.0000   1.0000   1.0000   1.0000
     1.0000   1.0000   1.0000   1.0000

          k = 0.4444 0.4444 0.7222 ( 18275 PWs)   bands (ev):

   -18.3158 -18.3158 -18.3098 -18.3097 -18.3084 -18.3084 -18.3056 -18.3056
   -18.3013 -18.3013  -8.8794  -8.8754  -8.7290  -8.7280  -3.7097  -3.6996
    -0.2163  -0.2069   0.0434   0.2811   0.5328   0.7904   1.7449   1.7852
     1.8210   1.8570   2.0521   2.1198

     occupation numbers 
     1.0000   1.0000   1.0000   1.0000   1.0000   1.0000   1.0000   1.0000
     1.0000   1.0000   1.0000   1.0000   1.0000   1.0000   1.0000   1.0000
     1.0000   1.0000   1.0000   1.0000   1.0000   1.0000   1.0000   1.0000
     1.0000   1.0000   1.0000   1.0000

     highest occupied level (ev):     3.0991

!    total energy              =   -2399.99047017 Ry

     total all-electron energy =    -81641.235818 Ry
     estimated scf accuracy    <       0.00000047 Ry

     The total energy is the sum of the following terms:
     one-electron contribution =    -203.79296456 Ry
     hartree contribution      =     130.15778724 Ry
     xc contribution           =    -159.02123048 Ry
     ewald contribution        =    -219.54274839 Ry
     one-center paw contrib.   =   -1947.79131398 Ry
      -> PAW hartree energy AE =     108.41624098 Ry
      -> PAW hartree energy PS =    -107.65008276 Ry
      -> PAW xc energy AE      =    -328.96376836 Ry
      -> PAW xc energy PS      =      47.26246576 Ry
      -> total E_H with PAW    =     130.92394545 Ry
      -> total E_XC with PAW   =    -440.72253308 Ry

     convergence has been achieved in   8 iterations

     Forces acting on atoms (cartesian axes, Ry/au):

     atom    1 type  1   force =     0.00000000    0.00000000    0.00000000
     atom    2 type  1   force =     0.00000000    0.00000000    0.00000000
     atom    3 type  2   force =    -0.00021052   -0.00021052   -0.00000000
     atom    4 type  2   force =     0.00021052    0.00021052   -0.00000000
     atom    5 type  2   force =    -0.00021052    0.00021052    0.00000000
     atom    6 type  2   force =     0.00021052   -0.00021052    0.00000000
     The non-local contrib.  to forces
     atom    1 type  1   force =     0.00000000    0.00000000    0.00000000
     atom    2 type  1   force =     0.00000000    0.00000000    0.00000000
     atom    3 type  2   force =     0.01430104    0.01430104    0.00000000
     atom    4 type  2   force =    -0.01430104   -0.01430104    0.00000000
     atom    5 type  2   force =     0.01430104   -0.01430104    0.00000000
     atom    6 type  2   force =    -0.01430104    0.01430104    0.00000000
     The ionic contribution  to forces
     atom    1 type  1   force =    -0.00000000   -0.00000000    0.00000000
     atom    2 type  1   force =    -0.00000000   -0.00000000   -0.00000000
     atom    3 type  2   force =    -0.90990984   -0.90990984   -0.00000000
     atom    4 type  2   force =     0.90990984    0.90990984   -0.00000000
     atom    5 type  2   force =    -0.90990984    0.90990984   -0.00000000
     atom    6 type  2   force =     0.90990984   -0.90990984    0.00000000
     The local contribution  to forces
     atom    1 type  1   force =     0.00000000    0.00000000    0.00000000
     atom    2 type  1   force =     0.00000000    0.00000000    0.00000000
     atom    3 type  2   force =     0.89714449    0.89714449    0.00000000
     atom    4 type  2   force =    -0.89714449   -0.89714449    0.00000000
     atom    5 type  2   force =     0.89714449   -0.89714449    0.00000000
     atom    6 type  2   force =    -0.89714449    0.89714449    0.00000000
     The core correction contribution to forces
     atom    1 type  1   force =     0.00000000    0.00000000    0.00000000
     atom    2 type  1   force =     0.00000000    0.00000000    0.00000000
     atom    3 type  2   force =    -0.00181383   -0.00181383    0.00000000
     atom    4 type  2   force =     0.00181383    0.00181383    0.00000000
     atom    5 type  2   force =    -0.00181383    0.00181383    0.00000000
     atom    6 type  2   force =     0.00181383   -0.00181383    0.00000000
     The Hubbard contrib.    to forces
     atom    1 type  1   force =     0.00000000    0.00000000    0.00000000
     atom    2 type  1   force =     0.00000000    0.00000000    0.00000000
     atom    3 type  2   force =     0.00000000    0.00000000    0.00000000
     atom    4 type  2   force =     0.00000000    0.00000000    0.00000000
     atom    5 type  2   force =     0.00000000    0.00000000    0.00000000
     atom    6 type  2   force =     0.00000000    0.00000000    0.00000000
     The SCF correction term to forces
     atom    1 type  1   force =     0.00000000   -0.00000000    0.00000000
     atom    2 type  1   force =     0.00000000    0.00000000   -0.00000000
     atom    3 type  2   force =     0.00006760    0.00006760    0.00000000
     atom    4 type  2   force =    -0.00006760   -0.00006760   -0.00000000
     atom    5 type  2   force =     0.00006760   -0.00006760    0.00000000
     atom    6 type  2   force =    -0.00006760    0.00006760   -0.00000000

     Total force =     0.000595     Total SCF correction =     0.000191
     SCF correction compared to forces is large: reduce conv_thr to get better values


     Computing stress (Cartesian axis) and pressure

          total   stress  (Ry/bohr**3)                   (kbar)     P=       -1.99
  -0.00001484   0.00000000   0.00000000           -2.18        0.00        0.00
   0.00000000  -0.00001484   0.00000000            0.00       -2.18        0.00
   0.00000000   0.00000000  -0.00001093            0.00        0.00       -1.61

     kinetic stress (kbar)   7315.34      0.00      0.00
                                0.00   7315.34      0.00
                                0.00      0.00   7289.20

     local   stress (kbar)  -1446.28     -0.00     -0.00
                               -0.00  -1446.28      0.00
                               -0.00      0.00  -5849.25

     nonloc. stress (kbar)    116.12      0.00      0.00
                                0.00    116.12      0.00
                                0.00      0.00    115.43

     hartree stress (kbar)   2829.28      0.00     -0.00
                                0.00   2829.28     -0.00
                               -0.00     -0.00   4718.29

     exc-cor stress (kbar)   6161.24      0.00     -0.00
                                0.00   6161.24     -0.00
                               -0.00     -0.00   6162.29

     corecor stress (kbar)  -8297.12      0.00      0.00
                                0.00  -8297.12      0.00
                                0.00      0.00  -8296.00

     ewald   stress (kbar)  -6680.77     -0.00     -0.00
                               -0.00  -6680.77     -0.00
                               -0.00     -0.00  -4141.56

     hubbard stress (kbar)      0.00      0.00      0.00
                                0.00      0.00      0.00
                                0.00      0.00      0.00

     DFT-D   stress (kbar)      0.00      0.00      0.00
                                0.00      0.00      0.00
                                0.00      0.00      0.00

     XDM     stress (kbar)      0.00      0.00      0.00
                                0.00      0.00      0.00
                                0.00      0.00      0.00

     dft-nl  stress (kbar)      0.00      0.00      0.00
                                0.00      0.00      0.00
                                0.00      0.00      0.00

     TS-vdW  stress (kbar)      0.00      0.00      0.00
                                0.00      0.00      0.00
                                0.00      0.00      0.00



     Writing output data file ./out/SnI2tetr.save/

     init_run     :      6.79s CPU      6.92s WALL (       1 calls)
     electrons    :    160.01s CPU    162.78s WALL (       1 calls)
     forces       :      3.11s CPU      3.12s WALL (       1 calls)
     stress       :      5.08s CPU      5.10s WALL (       1 calls)

     Called by init_run:
     wfcinit      :      5.85s CPU      5.92s WALL (       1 calls)
     wfcinit:atom :      0.06s CPU      0.06s WALL (      75 calls)
     wfcinit:wfcr :      5.45s CPU      5.52s WALL (      75 calls)
     potinit      :      0.32s CPU      0.33s WALL (       1 calls)
     hinit0       :      0.39s CPU      0.40s WALL (       1 calls)

     Called by electrons:
     c_bands      :    138.94s CPU    141.39s WALL (       9 calls)
     sum_band     :     18.90s CPU     19.17s WALL (       9 calls)
     v_of_rho     :      0.21s CPU      0.21s WALL (       9 calls)
     v_h          :      0.02s CPU      0.02s WALL (       9 calls)
     v_xc         :      0.23s CPU      0.24s WALL (      11 calls)
     newd         :      0.91s CPU      0.93s WALL (       9 calls)
     PAW_pot      :      1.23s CPU      1.25s WALL (       9 calls)
     mix_rho      :      0.04s CPU      0.04s WALL (       9 calls)

     Called by c_bands:
     init_us_2    :      2.20s CPU      2.33s WALL (    1575 calls)
     cegterg      :    134.13s CPU    135.63s WALL (     675 calls)

     Called by sum_band:
     sum_band:wei :      0.00s CPU      0.00s WALL (       9 calls)
     sum_band:loo :     18.05s CPU     18.30s WALL (       9 calls)
     sum_band:buf :      0.21s CPU      0.22s WALL (     675 calls)
     sum_band:ini :      0.91s CPU      0.94s WALL (     675 calls)
     sum_band:cal :      4.60s CPU      4.62s WALL (     675 calls)
     sum_band:bec :      0.11s CPU      0.11s WALL (     675 calls)
     addusdens    :      0.76s CPU      0.78s WALL (       9 calls)
     addusd:skk   :      0.00s CPU      0.00s WALL (      18 calls)
     addusd:dgemm :      0.32s CPU      0.33s WALL (      18 calls)
     addusd:qvan2 :      0.38s CPU      0.38s WALL (      18 calls)

     Called by *egterg:
     cdiaghg      :      5.18s CPU      5.20s WALL (    2871 calls)
     cegterg:over :      7.73s CPU      7.77s WALL (    2271 calls)
     cegterg:upda :      4.04s CPU      4.06s WALL (    2271 calls)
     cegterg:last :     10.09s CPU     10.12s WALL (    1591 calls)
     h_psi        :     95.92s CPU     97.31s WALL (    3021 calls)
     s_psi        :     12.34s CPU     12.41s WALL (    3021 calls)
     g_psi        :      0.25s CPU      0.25s WALL (    2271 calls)

     Called by h_psi:
     h_psi:calbec :     15.01s CPU     15.06s WALL (    3021 calls)
     vloc_psi     :     68.23s CPU     69.50s WALL (    3021 calls)
     add_vuspsi   :     12.28s CPU     12.33s WALL (    3021 calls)

     General routines
     calbec       :     21.97s CPU     22.06s WALL (    4071 calls)
     fft          :      0.16s CPU      0.16s WALL (     125 calls)
     ffts         :      0.01s CPU      0.01s WALL (       9 calls)
     fftw         :     75.52s CPU     76.88s WALL (  131588 calls)

     Parallel routines
     fft_scatt_xy :      5.44s CPU      5.52s WALL (  131722 calls)
     fft_scatt_yz :     17.52s CPU     17.92s WALL (  131722 calls)

     PAW routines
     PAW_pot      :      1.23s CPU      1.25s WALL (       9 calls)
     PAW_symme    :      0.02s CPU      0.02s WALL (      18 calls)

     PWSCF        :   2m57.37s CPU   3m 2.07s WALL


   This run was terminated on:  12:28:22  15Jan2021            

=------------------------------------------------------------------------------=
   JOB DONE.
=------------------------------------------------------------------------------=
