
     Program PWSCF v.6.4.1 starts on 24Jan2021 at 20:16: 9 

     This program is part of the open-source Quantum ESPRESSO suite
     for quantum simulation of materials; please cite
         "P. Giannozzi et al., J. Phys.:Condens. Matter 21 395502 (2009);
         "P. Giannozzi et al., J. Phys.:Condens. Matter 29 465901 (2017);
          URL http://www.quantum-espresso.org", 
     in publications or presentations arising from this work. More details at
     http://www.quantum-espresso.org/quote

     Parallel version (MPI & OpenMP), running on      48 processor cores
     Number of MPI processes:                24
     Threads/MPI process:                     2

     MPI processes distributed on     1 nodes
     R & G space division:  proc/nbgrp/npool/nimage =      24
     Waiting for input...
     Reading input from standard input

     Current dimensions of program PWSCF are:
     Max number of different atomic species (ntypx) = 10
     Max number of k-points (npk) =  40000
     Max angular momentum in pseudopotentials (lmaxx) =  3
               file Sn.rel-pbesol-dn-kjpaw_psl.1.0.0.UPF: wavefunction(s)  5S 5P 5P 4D 4D renormalized
               file I.rel-pbesol-n-kjpaw_psl.1.0.0.UPF: wavefunction(s)  5S renormalized

     Subspace diagonalization in iterative solution of the eigenvalue problem:
     one sub-group per band group will be used
     scalapack distributed-memory algorithm (size of sub-group:  3*  3 procs)

 
     Parallelization info
     --------------------
     sticks:   dense  smooth     PW     G-vecs:    dense   smooth      PW
     Min         222     148     40                12208     6652     958
     Max         223     149     41                12211     6655     961
     Sum        5345    3569    973               293027   159699   23031
 

     Title: 
     CsIsalt                                                                    


     bravais-lattice index     =            1
     lattice parameter (alat)  =      12.6355  a.u.
     unit-cell volume          =    2017.3401 (a.u.)^3
     number of atoms/cell      =            5
     number of atomic types    =            2
     number of electrons       =        42.00
     number of Kohn-Sham states=           42
     kinetic-energy cutoff     =      70.0000  Ry
     charge density cutoff     =     420.0000  Ry
     convergence threshold     =      1.0E-06
     mixing beta               =       0.3500
     number of iterations used =            8  plain     mixing
     Exchange-correlation      = SLA PW PSX PSC ( 1  4 10  8 0 0)
     Non magnetic calculation with spin-orbit


     celldm(1)=  12.635518  celldm(2)=   0.000000  celldm(3)=   0.000000
     celldm(4)=   0.000000  celldm(5)=   0.000000  celldm(6)=   0.000000

     crystal axes: (cart. coord. in units of alat)
               a(1) = (   1.000000   0.000000   0.000000 )  
               a(2) = (   0.000000   1.000000   0.000000 )  
               a(3) = (   0.000000   0.000000   1.000000 )  

     reciprocal axes: (cart. coord. in units 2 pi/alat)
               b(1) = (  1.000000  0.000000  0.000000 )  
               b(2) = (  0.000000  1.000000  0.000000 )  
               b(3) = (  0.000000  0.000000  1.000000 )  


     PseudoPot. # 1 for Sn read from file:
     /marconi_scratch/userexternal/cmalosso/degironcoli/pseudo/Sn.rel-pbesol-dn-kjpaw_psl.1.0.0.UPF
     MD5 check sum: e69eff64f15ae39ad43ef58bacbfdf88
     Pseudo is Projector augmented-wave + core cor, Zval = 14.0
     Generated using "atomic" code by A. Dal Corso v.6.3
     Shape of augmentation charge: PSQ
     Using radial grid of 1243 points, 10 beta functions with: 
                l(1) =   0
                l(2) =   0
                l(3) =   1
                l(4) =   1
                l(5) =   1
                l(6) =   1
                l(7) =   2
                l(8) =   2
                l(9) =   2
               l(10) =   2
     Q(r) pseudized with 0 coefficients 


     PseudoPot. # 2 for I  read from file:
     /marconi_scratch/userexternal/cmalosso/degironcoli/pseudo/I.rel-pbesol-n-kjpaw_psl.1.0.0.UPF
     MD5 check sum: 4478c427bd443f303eca1937a163b991
     Pseudo is Projector augmented-wave + core cor, Zval =  7.0
     Generated using "atomic" code by A. Dal Corso v.6.3
     Shape of augmentation charge: PSQ
     Using radial grid of 1247 points, 10 beta functions with: 
                l(1) =   0
                l(2) =   0
                l(3) =   1
                l(4) =   1
                l(5) =   1
                l(6) =   1
                l(7) =   2
                l(8) =   2
                l(9) =   2
               l(10) =   2
     Q(r) pseudized with 0 coefficients 


     atomic species   valence    mass     pseudopotential
        Sn            14.00   118.70000     Sn( 1.00)
        I              7.00   126.90000     I ( 1.00)

     24 Sym. Ops. (no inversion) found


                                    s                        frac. trans.

      isym =  1     identity                                     

 cryst.   s( 1) = (     1          0          0      )
                  (     0          1          0      )
                  (     0          0          1      )

 cart.    s( 1) = (  1.0000000  0.0000000  0.0000000 )
                  (  0.0000000  1.0000000  0.0000000 )
                  (  0.0000000  0.0000000  1.0000000 )


      isym =  2     180 deg rotation - cart. axis [0,0,1]        

 cryst.   s( 2) = (    -1          0          0      )
                  (     0         -1          0      )
                  (     0          0          1      )

 cart.    s( 2) = ( -1.0000000  0.0000000  0.0000000 )
                  (  0.0000000 -1.0000000  0.0000000 )
                  (  0.0000000  0.0000000  1.0000000 )


      isym =  3     180 deg rotation - cart. axis [0,1,0]        

 cryst.   s( 3) = (    -1          0          0      )
                  (     0          1          0      )
                  (     0          0         -1      )

 cart.    s( 3) = ( -1.0000000  0.0000000  0.0000000 )
                  (  0.0000000  1.0000000  0.0000000 )
                  (  0.0000000  0.0000000 -1.0000000 )


      isym =  4     180 deg rotation - cart. axis [1,0,0]        

 cryst.   s( 4) = (     1          0          0      )
                  (     0         -1          0      )
                  (     0          0         -1      )

 cart.    s( 4) = (  1.0000000  0.0000000  0.0000000 )
                  (  0.0000000 -1.0000000  0.0000000 )
                  (  0.0000000  0.0000000 -1.0000000 )


      isym =  5     120 deg rotation - cart. axis [-1,-1,-1]     

 cryst.   s( 5) = (     0          0          1      )
                  (     1          0          0      )
                  (     0          1          0      )

 cart.    s( 5) = (  0.0000000  1.0000000  0.0000000 )
                  (  0.0000000  0.0000000  1.0000000 )
                  (  1.0000000  0.0000000  0.0000000 )


      isym =  6     120 deg rotation - cart. axis [-1,1,1]       

 cryst.   s( 6) = (     0          0         -1      )
                  (    -1          0          0      )
                  (     0          1          0      )

 cart.    s( 6) = (  0.0000000 -1.0000000  0.0000000 )
                  (  0.0000000  0.0000000  1.0000000 )
                  ( -1.0000000  0.0000000  0.0000000 )


      isym =  7     120 deg rotation - cart. axis [1,1,-1]       

 cryst.   s( 7) = (     0          0         -1      )
                  (     1          0          0      )
                  (     0         -1          0      )

 cart.    s( 7) = (  0.0000000  1.0000000  0.0000000 )
                  (  0.0000000  0.0000000 -1.0000000 )
                  ( -1.0000000  0.0000000  0.0000000 )


      isym =  8     120 deg rotation - cart. axis [1,-1,1]       

 cryst.   s( 8) = (     0          0          1      )
                  (    -1          0          0      )
                  (     0         -1          0      )

 cart.    s( 8) = (  0.0000000 -1.0000000  0.0000000 )
                  (  0.0000000  0.0000000 -1.0000000 )
                  (  1.0000000  0.0000000  0.0000000 )


      isym =  9     120 deg rotation - cart. axis [1,1,1]        

 cryst.   s( 9) = (     0          1          0      )
                  (     0          0          1      )
                  (     1          0          0      )

 cart.    s( 9) = (  0.0000000  0.0000000  1.0000000 )
                  (  1.0000000  0.0000000  0.0000000 )
                  (  0.0000000  1.0000000  0.0000000 )


      isym = 10     120 deg rotation - cart. axis [-1,1,-1]      

 cryst.   s(10) = (     0         -1          0      )
                  (     0          0         -1      )
                  (     1          0          0      )

 cart.    s(10) = (  0.0000000  0.0000000  1.0000000 )
                  ( -1.0000000  0.0000000  0.0000000 )
                  (  0.0000000 -1.0000000  0.0000000 )


      isym = 11     120 deg rotation - cart. axis [1,-1,-1]      

 cryst.   s(11) = (     0         -1          0      )
                  (     0          0          1      )
                  (    -1          0          0      )

 cart.    s(11) = (  0.0000000  0.0000000 -1.0000000 )
                  ( -1.0000000  0.0000000  0.0000000 )
                  (  0.0000000  1.0000000  0.0000000 )


      isym = 12     120 deg rotation - cart. axis [-1,-1,1]      

 cryst.   s(12) = (     0          1          0      )
                  (     0          0         -1      )
                  (    -1          0          0      )

 cart.    s(12) = (  0.0000000  0.0000000 -1.0000000 )
                  (  1.0000000  0.0000000  0.0000000 )
                  (  0.0000000 -1.0000000  0.0000000 )


      isym = 13     inv. 180 deg rotation - cart. axis [1,1,0]   

 cryst.   s(13) = (     0         -1          0      )
                  (    -1          0          0      )
                  (     0          0          1      )

 cart.    s(13) = (  0.0000000 -1.0000000  0.0000000 )
                  ( -1.0000000  0.0000000  0.0000000 )
                  (  0.0000000  0.0000000  1.0000000 )


      isym = 14     inv. 180 deg rotation - cart. axis [1,-1,0]  

 cryst.   s(14) = (     0          1          0      )
                  (     1          0          0      )
                  (     0          0          1      )

 cart.    s(14) = (  0.0000000  1.0000000  0.0000000 )
                  (  1.0000000  0.0000000  0.0000000 )
                  (  0.0000000  0.0000000  1.0000000 )


      isym = 15     inv.  90 deg rotation - cart. axis [0,0,-1]  

 cryst.   s(15) = (     0          1          0      )
                  (    -1          0          0      )
                  (     0          0         -1      )

 cart.    s(15) = (  0.0000000 -1.0000000  0.0000000 )
                  (  1.0000000  0.0000000  0.0000000 )
                  (  0.0000000  0.0000000 -1.0000000 )


      isym = 16     inv.  90 deg rotation - cart. axis [0,0,1]   

 cryst.   s(16) = (     0         -1          0      )
                  (     1          0          0      )
                  (     0          0         -1      )

 cart.    s(16) = (  0.0000000  1.0000000  0.0000000 )
                  ( -1.0000000  0.0000000  0.0000000 )
                  (  0.0000000  0.0000000 -1.0000000 )


      isym = 17     inv. 180 deg rotation - cart. axis [1,0,1]   

 cryst.   s(17) = (     0          0         -1      )
                  (     0          1          0      )
                  (    -1          0          0      )

 cart.    s(17) = (  0.0000000  0.0000000 -1.0000000 )
                  (  0.0000000  1.0000000  0.0000000 )
                  ( -1.0000000  0.0000000  0.0000000 )


      isym = 18     inv. 180 deg rotation - cart. axis [-1,0,1]  

 cryst.   s(18) = (     0          0          1      )
                  (     0          1          0      )
                  (     1          0          0      )

 cart.    s(18) = (  0.0000000  0.0000000  1.0000000 )
                  (  0.0000000  1.0000000  0.0000000 )
                  (  1.0000000  0.0000000  0.0000000 )


      isym = 19     inv.  90 deg rotation - cart. axis [0,1,0]   

 cryst.   s(19) = (     0          0          1      )
                  (     0         -1          0      )
                  (    -1          0          0      )

 cart.    s(19) = (  0.0000000  0.0000000 -1.0000000 )
                  (  0.0000000 -1.0000000  0.0000000 )
                  (  1.0000000  0.0000000  0.0000000 )


      isym = 20     inv.  90 deg rotation - cart. axis [0,-1,0]  

 cryst.   s(20) = (     0          0         -1      )
                  (     0         -1          0      )
                  (     1          0          0      )

 cart.    s(20) = (  0.0000000  0.0000000  1.0000000 )
                  (  0.0000000 -1.0000000  0.0000000 )
                  ( -1.0000000  0.0000000  0.0000000 )


      isym = 21     inv. 180 deg rotation - cart. axis [0,1,1]   

 cryst.   s(21) = (     1          0          0      )
                  (     0          0         -1      )
                  (     0         -1          0      )

 cart.    s(21) = (  1.0000000  0.0000000  0.0000000 )
                  (  0.0000000  0.0000000 -1.0000000 )
                  (  0.0000000 -1.0000000  0.0000000 )


      isym = 22     inv. 180 deg rotation - cart. axis [0,1,-1]  

 cryst.   s(22) = (     1          0          0      )
                  (     0          0          1      )
                  (     0          1          0      )

 cart.    s(22) = (  1.0000000  0.0000000  0.0000000 )
                  (  0.0000000  0.0000000  1.0000000 )
                  (  0.0000000  1.0000000  0.0000000 )


      isym = 23     inv.  90 deg rotation - cart. axis [-1,0,0]  

 cryst.   s(23) = (    -1          0          0      )
                  (     0          0          1      )
                  (     0         -1          0      )

 cart.    s(23) = ( -1.0000000  0.0000000  0.0000000 )
                  (  0.0000000  0.0000000 -1.0000000 )
                  (  0.0000000  1.0000000  0.0000000 )


      isym = 24     inv.  90 deg rotation - cart. axis [1,0,0]   

 cryst.   s(24) = (    -1          0          0      )
                  (     0          0         -1      )
                  (     0          1          0      )

 cart.    s(24) = ( -1.0000000  0.0000000  0.0000000 )
                  (  0.0000000  0.0000000  1.0000000 )
                  (  0.0000000 -1.0000000  0.0000000 )


     double point group T_d (-43m) 
     there are  8 classes and  3 irreducible representations
     the character table:

       E     -E    8C3   -8C3   3C2  6S4   -6S4  6s_d 
                               -3C2              -6s_d
G_6    2.00 -2.00  1.00 -1.00  0.00  1.41 -1.41  0.00
G_7    2.00 -2.00  1.00 -1.00  0.00 -1.41  1.41  0.00
G_8    4.00 -4.00 -1.00  1.00  0.00  0.00  0.00  0.00

     the symmetry operations in each class and the name of the first element:

     E             1
          identity                                               
     -E           -1
          identity E                                             
     8C3           5    7    8    6   12    9   10   11
          120 deg rotation - cart. axis [-1,-1,-1]               
     -8C3         -5   -7   -8   -6  -12   -9  -10  -11
          120 deg rotation - cart. axis [-1,-1,-1] E             
      3C2 -3C2     2   -2    3   -3    4   -4
          180 deg rotation - cart. axis [0,0,1]                  
     6S4          15   16   20   19   23   24
          inv.  90 deg rotation - cart. axis [0,0,-1]            
     -6S4        -15  -16  -20  -19  -23  -24
          inv.  90 deg rotation - cart. axis [0,0,-1] E          
     6s_d -6s_d   13  -13  -14   14   17  -17  -18   18   21  -21   22  -22
          inv. 180 deg rotation - cart. axis [1,1,0]             

   Cartesian axes

     site n.     atom                  positions (alat units)
         1           Sn  tau(   1) = (   0.0000000   0.0000000   0.0000000  )
         2           I   tau(   2) = (   0.2339030   0.7660970   0.7660970  )
         3           I   tau(   3) = (   0.7660970   0.2339030   0.7660970  )
         4           I   tau(   4) = (   0.7660970   0.7660970   0.2339030  )
         5           I   tau(   5) = (   0.2339030   0.2339030   0.2339030  )

   Crystallographic axes

     site n.     atom                  positions (cryst. coord.)
         1           Sn  tau(   1) = (  0.0000000  0.0000000  0.0000000  )
         2           I   tau(   2) = (  0.2339030  0.7660970  0.7660970  )
         3           I   tau(   3) = (  0.7660970  0.2339030  0.7660970  )
         4           I   tau(   4) = (  0.7660970  0.7660970  0.2339030  )
         5           I   tau(   5) = (  0.2339030  0.2339030  0.2339030  )

     number of k points=    35
                       cart. coord. in units 2pi/alat
        k(    1) = (   0.0555556   0.0555556   0.0555556), wk =   0.0109739
        k(    2) = (   0.0555556   0.0555556   0.1666667), wk =   0.0329218
        k(    3) = (   0.0555556   0.0555556   0.2777778), wk =   0.0329218
        k(    4) = (   0.0555556   0.0555556   0.3888889), wk =   0.0329218
        k(    5) = (   0.0555556   0.0555556  -0.5000000), wk =   0.0164609
        k(    6) = (   0.0555556   0.1666667   0.1666667), wk =   0.0329218
        k(    7) = (   0.0555556   0.1666667   0.2777778), wk =   0.0658436
        k(    8) = (   0.0555556   0.1666667   0.3888889), wk =   0.0658436
        k(    9) = (   0.0555556   0.1666667  -0.5000000), wk =   0.0329218
        k(   10) = (   0.0555556   0.2777778   0.2777778), wk =   0.0329218
        k(   11) = (   0.0555556   0.2777778   0.3888889), wk =   0.0658436
        k(   12) = (   0.0555556   0.2777778  -0.5000000), wk =   0.0329218
        k(   13) = (   0.0555556   0.3888889   0.3888889), wk =   0.0329218
        k(   14) = (   0.0555556   0.3888889  -0.5000000), wk =   0.0329218
        k(   15) = (   0.0555556  -0.5000000  -0.5000000), wk =   0.0082305
        k(   16) = (   0.1666667   0.1666667   0.1666667), wk =   0.0109739
        k(   17) = (   0.1666667   0.1666667   0.2777778), wk =   0.0329218
        k(   18) = (   0.1666667   0.1666667   0.3888889), wk =   0.0329218
        k(   19) = (   0.1666667   0.1666667  -0.5000000), wk =   0.0164609
        k(   20) = (   0.1666667   0.2777778   0.2777778), wk =   0.0329218
        k(   21) = (   0.1666667   0.2777778   0.3888889), wk =   0.0658436
        k(   22) = (   0.1666667   0.2777778  -0.5000000), wk =   0.0329218
        k(   23) = (   0.1666667   0.3888889   0.3888889), wk =   0.0329218
        k(   24) = (   0.1666667   0.3888889  -0.5000000), wk =   0.0329218
        k(   25) = (   0.1666667  -0.5000000  -0.5000000), wk =   0.0082305
        k(   26) = (   0.2777778   0.2777778   0.2777778), wk =   0.0109739
        k(   27) = (   0.2777778   0.2777778   0.3888889), wk =   0.0329218
        k(   28) = (   0.2777778   0.2777778  -0.5000000), wk =   0.0164609
        k(   29) = (   0.2777778   0.3888889   0.3888889), wk =   0.0329218
        k(   30) = (   0.2777778   0.3888889  -0.5000000), wk =   0.0329218
        k(   31) = (   0.2777778  -0.5000000  -0.5000000), wk =   0.0082305
        k(   32) = (   0.3888889   0.3888889   0.3888889), wk =   0.0109739
        k(   33) = (   0.3888889   0.3888889  -0.5000000), wk =   0.0164609
        k(   34) = (   0.3888889  -0.5000000  -0.5000000), wk =   0.0082305
        k(   35) = (  -0.5000000  -0.5000000  -0.5000000), wk =   0.0013717

                       cryst. coord.
        k(    1) = (   0.0555556   0.0555556   0.0555556), wk =   0.0109739
        k(    2) = (   0.0555556   0.0555556   0.1666667), wk =   0.0329218
        k(    3) = (   0.0555556   0.0555556   0.2777778), wk =   0.0329218
        k(    4) = (   0.0555556   0.0555556   0.3888889), wk =   0.0329218
        k(    5) = (   0.0555556   0.0555556  -0.5000000), wk =   0.0164609
        k(    6) = (   0.0555556   0.1666667   0.1666667), wk =   0.0329218
        k(    7) = (   0.0555556   0.1666667   0.2777778), wk =   0.0658436
        k(    8) = (   0.0555556   0.1666667   0.3888889), wk =   0.0658436
        k(    9) = (   0.0555556   0.1666667  -0.5000000), wk =   0.0329218
        k(   10) = (   0.0555556   0.2777778   0.2777778), wk =   0.0329218
        k(   11) = (   0.0555556   0.2777778   0.3888889), wk =   0.0658436
        k(   12) = (   0.0555556   0.2777778  -0.5000000), wk =   0.0329218
        k(   13) = (   0.0555556   0.3888889   0.3888889), wk =   0.0329218
        k(   14) = (   0.0555556   0.3888889  -0.5000000), wk =   0.0329218
        k(   15) = (   0.0555556  -0.5000000  -0.5000000), wk =   0.0082305
        k(   16) = (   0.1666667   0.1666667   0.1666667), wk =   0.0109739
        k(   17) = (   0.1666667   0.1666667   0.2777778), wk =   0.0329218
        k(   18) = (   0.1666667   0.1666667   0.3888889), wk =   0.0329218
        k(   19) = (   0.1666667   0.1666667  -0.5000000), wk =   0.0164609
        k(   20) = (   0.1666667   0.2777778   0.2777778), wk =   0.0329218
        k(   21) = (   0.1666667   0.2777778   0.3888889), wk =   0.0658436
        k(   22) = (   0.1666667   0.2777778  -0.5000000), wk =   0.0329218
        k(   23) = (   0.1666667   0.3888889   0.3888889), wk =   0.0329218
        k(   24) = (   0.1666667   0.3888889  -0.5000000), wk =   0.0329218
        k(   25) = (   0.1666667  -0.5000000  -0.5000000), wk =   0.0082305
        k(   26) = (   0.2777778   0.2777778   0.2777778), wk =   0.0109739
        k(   27) = (   0.2777778   0.2777778   0.3888889), wk =   0.0329218
        k(   28) = (   0.2777778   0.2777778  -0.5000000), wk =   0.0164609
        k(   29) = (   0.2777778   0.3888889   0.3888889), wk =   0.0329218
        k(   30) = (   0.2777778   0.3888889  -0.5000000), wk =   0.0329218
        k(   31) = (   0.2777778  -0.5000000  -0.5000000), wk =   0.0082305
        k(   32) = (   0.3888889   0.3888889   0.3888889), wk =   0.0109739
        k(   33) = (   0.3888889   0.3888889  -0.5000000), wk =   0.0164609
        k(   34) = (   0.3888889  -0.5000000  -0.5000000), wk =   0.0082305
        k(   35) = (  -0.5000000  -0.5000000  -0.5000000), wk =   0.0013717

     Dense  grid:   293027 G-vectors     FFT dimensions: (  90,  90,  90)

     Smooth grid:   159699 G-vectors     FFT dimensions: (  72,  72,  72)

     Dynamical RAM for                 wfc:       1.07 MB

     Dynamical RAM for     wfc (w. buffer):      38.34 MB

     Dynamical RAM for           str. fact:       0.37 MB

     Dynamical RAM for           local pot:       0.00 MB

     Dynamical RAM for          nlocal pot:       2.16 MB

     Dynamical RAM for                qrad:      17.31 MB

     Dynamical RAM for          rho,v,vnew:       5.20 MB

     Dynamical RAM for               rhoin:       1.73 MB

     Dynamical RAM for            rho*nmix:      11.92 MB

     Dynamical RAM for           G-vectors:       0.75 MB

     Dynamical RAM for          h,s,v(r/c):       0.14 MB

     Dynamical RAM for          <psi|beta>:       0.22 MB

     Dynamical RAM for                 psi:       4.26 MB

     Dynamical RAM for                hpsi:       4.26 MB

     Dynamical RAM for                spsi:       4.26 MB

     Dynamical RAM for      wfcinit/wfcrot:       1.96 MB

     Dynamical RAM for           addusdens:     114.40 MB

     Dynamical RAM for          addusforce:     116.24 MB

     Dynamical RAM for         addusstress:     117.01 MB

     Estimated static dynamical RAM per process >      80.33 MB

     Estimated max dynamical RAM per process >     197.34 MB

     Estimated total dynamical RAM >       4.63 GB

     Initial potential from superposition of free atoms

     starting charge   41.99871, renormalised to   42.00000
     Starting wfcs are   50 randomized atomic wfcs
     Checking if some PAW data can be deallocated... 
       PAW data deallocated on   19 nodes for type:  1
       PAW data deallocated on    5 nodes for type:  2

     total cpu time spent up to now is       33.1 secs

     Self-consistent Calculation

     iteration #  1     ecut=    70.00 Ry     beta= 0.35
     Davidson diagonalization with overlap
     ethr =  1.00E-02,  avg # of iterations =  1.2

     Threshold (ethr) on eigenvalues was too large:
     Diagonalizing with lowered threshold

     Davidson diagonalization with overlap
     ethr =  3.85E-04,  avg # of iterations =  2.0

     total cpu time spent up to now is      197.0 secs

     total energy              =   -1933.72938836 Ry
     Harris-Foulkes estimate   =   -1933.78585830 Ry
     estimated scf accuracy    <       0.12691974 Ry

     iteration #  2     ecut=    70.00 Ry     beta= 0.35
     Davidson diagonalization with overlap
     ethr =  3.02E-04,  avg # of iterations =  2.1

     total cpu time spent up to now is      295.9 secs

     total energy              =   -1933.74519651 Ry
     Harris-Foulkes estimate   =   -1933.75172284 Ry
     estimated scf accuracy    <       0.02253381 Ry

     iteration #  3     ecut=    70.00 Ry     beta= 0.35
     Davidson diagonalization with overlap
     ethr =  5.37E-05,  avg # of iterations =  2.0

     total cpu time spent up to now is      390.3 secs

     total energy              =   -1933.74527508 Ry
     Harris-Foulkes estimate   =   -1933.74685315 Ry
     estimated scf accuracy    <       0.00534877 Ry

     iteration #  4     ecut=    70.00 Ry     beta= 0.35
     Davidson diagonalization with overlap
     ethr =  1.27E-05,  avg # of iterations =  2.8

     total cpu time spent up to now is      493.2 secs

     total energy              =   -1933.74561631 Ry
     Harris-Foulkes estimate   =   -1933.74593404 Ry
     estimated scf accuracy    <       0.00073375 Ry

     iteration #  5     ecut=    70.00 Ry     beta= 0.35
     Davidson diagonalization with overlap
     ethr =  1.75E-06,  avg # of iterations =  3.0

     total cpu time spent up to now is      600.1 secs

     total energy              =   -1933.74575380 Ry
     Harris-Foulkes estimate   =   -1933.74594662 Ry
     estimated scf accuracy    <       0.00045939 Ry

     iteration #  6     ecut=    70.00 Ry     beta= 0.35
     Davidson diagonalization with overlap
     ethr =  1.09E-06,  avg # of iterations =  2.0

     total cpu time spent up to now is      693.3 secs

     total energy              =   -1933.74582930 Ry
     Harris-Foulkes estimate   =   -1933.74583029 Ry
     estimated scf accuracy    <       0.00000682 Ry

     iteration #  7     ecut=    70.00 Ry     beta= 0.35
     Davidson diagonalization with overlap
     ethr =  1.62E-08,  avg # of iterations =  4.0

     total cpu time spent up to now is      816.7 secs

     WARNING: integrated charge=    42.00038396, expected=    42.00000000

     total energy              =   -1933.74582114 Ry
     Harris-Foulkes estimate   =   -1933.74583406 Ry
     estimated scf accuracy    <       0.00003487 Ry

     iteration #  8     ecut=    70.00 Ry     beta= 0.35
     Davidson diagonalization with overlap
     ethr =  1.62E-08,  avg # of iterations =  1.3

     total cpu time spent up to now is      901.2 secs

     WARNING: integrated charge=    42.00047696, expected=    42.00000000

     total energy              =   -1933.74582751 Ry
     Harris-Foulkes estimate   =   -1933.74581846 Ry
     estimated scf accuracy    <       0.00000258 Ry

     iteration #  9     ecut=    70.00 Ry     beta= 0.35
     Davidson diagonalization with overlap
     ethr =  6.14E-09,  avg # of iterations =  2.0

     total cpu time spent up to now is      993.7 secs

     WARNING: integrated charge=    42.00054309, expected=    42.00000000

     total energy              =   -1933.74583088 Ry
     Harris-Foulkes estimate   =   -1933.74582788 Ry
     estimated scf accuracy    <       0.00000157 Ry

     iteration # 10     ecut=    70.00 Ry     beta= 0.35
     Davidson diagonalization with overlap
     ethr =  3.73E-09,  avg # of iterations =  3.0

     total cpu time spent up to now is     1098.3 secs

     End of self-consistent calculation

          k = 0.0556 0.0556 0.0556 ( 19918 PWs)   bands (ev):

   -21.8012 -21.8012 -21.8012 -21.8012 -20.7886 -20.7886 -20.7511 -20.7511
   -20.7510 -20.7510 -11.9273 -11.9273 -11.2094 -11.2094 -11.2012 -11.2012
   -11.2003 -11.2002  -6.3699  -6.3699  -2.6879  -2.6879  -2.6857  -2.6815
    -2.5010  -2.5010  -1.4132  -1.4132  -1.4028  -1.3797  -1.0241  -1.0241
    -0.9482  -0.9482  -0.3770  -0.3658  -0.3482  -0.3482  -0.0494  -0.0494
    -0.0137  -0.0001

     occupation numbers 
     1.0000   1.0000   1.0000   1.0000   1.0000   1.0000   1.0000   1.0000
     1.0000   1.0000   1.0000   1.0000   1.0000   1.0000   1.0000   1.0000
     1.0000   1.0000   1.0000   1.0000   1.0000   1.0000   1.0000   1.0000
     1.0000   1.0000   1.0000   1.0000   1.0000   1.0000   1.0000   1.0000
     1.0000   1.0000   1.0000   1.0000   1.0000   1.0000   1.0000   1.0000
     1.0000   1.0000

          k = 0.0556 0.0556 0.1667 ( 19931 PWs)   bands (ev):

   -21.8012 -21.8012 -21.8012 -21.8012 -20.7886 -20.7886 -20.7511 -20.7511
   -20.7510 -20.7510 -11.9161 -11.9161 -11.2209 -11.2200 -11.2054 -11.2044
   -11.2003 -11.2002  -6.3578  -6.3576  -2.7157  -2.7068  -2.6859  -2.6846
    -2.5211  -2.5084  -1.4098  -1.4094  -1.3692  -1.3339  -1.0655  -1.0349
    -0.9419  -0.9211  -0.4180  -0.3987  -0.3438  -0.3425  -0.1347  -0.1264
    -0.0301  -0.0118

     occupation numbers 
     1.0000   1.0000   1.0000   1.0000   1.0000   1.0000   1.0000   1.0000
     1.0000   1.0000   1.0000   1.0000   1.0000   1.0000   1.0000   1.0000
     1.0000   1.0000   1.0000   1.0000   1.0000   1.0000   1.0000   1.0000
     1.0000   1.0000   1.0000   1.0000   1.0000   1.0000   1.0000   1.0000
     1.0000   1.0000   1.0000   1.0000   1.0000   1.0000   1.0000   1.0000
     1.0000   1.0000

          k = 0.0556 0.0556 0.2778 ( 19937 PWs)   bands (ev):

   -21.8012 -21.8012 -21.8012 -21.8012 -20.7886 -20.7886 -20.7511 -20.7511
   -20.7510 -20.7510 -11.8980 -11.8980 -11.2448 -11.2439 -11.2055 -11.2046
   -11.1997 -11.1996  -6.3392  -6.3387  -2.7586  -2.7384  -2.6888  -2.6842
    -2.5503  -2.5193  -1.4045  -1.3901  -1.3085  -1.2801  -1.0827  -1.0312
    -0.9584  -0.9175  -0.4725  -0.4568  -0.3576  -0.3417  -0.2247  -0.2115
    -0.0680  -0.0506

     occupation numbers 
     1.0000   1.0000   1.0000   1.0000   1.0000   1.0000   1.0000   1.0000
     1.0000   1.0000   1.0000   1.0000   1.0000   1.0000   1.0000   1.0000
     1.0000   1.0000   1.0000   1.0000   1.0000   1.0000   1.0000   1.0000
     1.0000   1.0000   1.0000   1.0000   1.0000   1.0000   1.0000   1.0000
     1.0000   1.0000   1.0000   1.0000   1.0000   1.0000   1.0000   1.0000
     1.0000   1.0000

          k = 0.0556 0.0556 0.3889 ( 19963 PWs)   bands (ev):

   -21.8012 -21.8012 -21.8012 -21.8012 -20.7886 -20.7886 -20.7511 -20.7511
   -20.7511 -20.7511 -11.8810 -11.8809 -11.2673 -11.2665 -11.2052 -11.2042
   -11.1992 -11.1991  -6.3227  -6.3219  -2.7960  -2.7673  -2.6928  -2.6820
    -2.5748  -2.5286  -1.4009  -1.3784  -1.2321  -1.2218  -1.0791  -1.0297
    -0.9865  -0.9303  -0.5254  -0.5138  -0.4270  -0.3677  -0.2395  -0.2193
    -0.1202  -0.1031

     occupation numbers 
     1.0000   1.0000   1.0000   1.0000   1.0000   1.0000   1.0000   1.0000
     1.0000   1.0000   1.0000   1.0000   1.0000   1.0000   1.0000   1.0000
     1.0000   1.0000   1.0000   1.0000   1.0000   1.0000   1.0000   1.0000
     1.0000   1.0000   1.0000   1.0000   1.0000   1.0000   1.0000   1.0000
     1.0000   1.0000   1.0000   1.0000   1.0000   1.0000   1.0000   1.0000
     1.0000   1.0000

          k = 0.0556 0.0556-0.5000 ( 19992 PWs)   bands (ev):

   -21.8012 -21.8012 -21.8012 -21.8012 -20.7886 -20.7886 -20.7511 -20.7511
   -20.7511 -20.7511 -11.8739 -11.8739 -11.2766 -11.2757 -11.2050 -11.2041
   -11.1990 -11.1989  -6.3161  -6.3153  -2.8106  -2.7790  -2.6944  -2.6809
    -2.5844  -2.5322  -1.3996  -1.3770  -1.1830  -1.1819  -1.0895  -1.0580
    -0.9843  -0.9334  -0.5588  -0.5232  -0.4740  -0.3861  -0.2186  -0.1820
    -0.1707  -0.1378

     occupation numbers 
     1.0000   1.0000   1.0000   1.0000   1.0000   1.0000   1.0000   1.0000
     1.0000   1.0000   1.0000   1.0000   1.0000   1.0000   1.0000   1.0000
     1.0000   1.0000   1.0000   1.0000   1.0000   1.0000   1.0000   1.0000
     1.0000   1.0000   1.0000   1.0000   1.0000   1.0000   1.0000   1.0000
     1.0000   1.0000   1.0000   1.0000   1.0000   1.0000   1.0000   1.0000
     1.0000   1.0000

          k = 0.0556 0.1667 0.1667 ( 19939 PWs)   bands (ev):

   -21.8012 -21.8012 -21.8012 -21.8012 -20.7886 -20.7886 -20.7511 -20.7511
   -20.7511 -20.7510 -11.9055 -11.9055 -11.2243 -11.2223 -11.2140 -11.2132
   -11.2031 -11.2017  -6.3484  -6.3479  -2.7422  -2.7182  -2.6996  -2.6889
    -2.5380  -2.5095  -1.4426  -1.4221  -1.3255  -1.2710  -1.0854  -1.0210
    -0.9418  -0.8999  -0.4591  -0.4270  -0.3428  -0.3177  -0.2149  -0.1907
    -0.0335  -0.0054

     occupation numbers 
     1.0000   1.0000   1.0000   1.0000   1.0000   1.0000   1.0000   1.0000
     1.0000   1.0000   1.0000   1.0000   1.0000   1.0000   1.0000   1.0000
     1.0000   1.0000   1.0000   1.0000   1.0000   1.0000   1.0000   1.0000
     1.0000   1.0000   1.0000   1.0000   1.0000   1.0000   1.0000   1.0000
     1.0000   1.0000   1.0000   1.0000   1.0000   1.0000   1.0000   1.0000
     1.0000   1.0000

          k = 0.0556 0.1667 0.2778 ( 19934 PWs)   bands (ev):

   -21.8012 -21.8012 -21.8012 -21.8012 -20.7886 -20.7886 -20.7511 -20.7511
   -20.7510 -20.7510 -11.8883 -11.8882 -11.2436 -11.2417 -11.2161 -11.2144
   -11.2041 -11.2022  -6.3338  -6.3328  -2.7866  -2.7487  -2.7051  -2.6901
    -2.5655  -2.5122  -1.4647  -1.4347  -1.2617  -1.2021  -1.0830  -1.0033
    -0.9475  -0.8869  -0.5090  -0.4744  -0.3789  -0.3091  -0.2819  -0.2338
    -0.0630  -0.0295

     occupation numbers 
     1.0000   1.0000   1.0000   1.0000   1.0000   1.0000   1.0000   1.0000
     1.0000   1.0000   1.0000   1.0000   1.0000   1.0000   1.0000   1.0000
     1.0000   1.0000   1.0000   1.0000   1.0000   1.0000   1.0000   1.0000
     1.0000   1.0000   1.0000   1.0000   1.0000   1.0000   1.0000   1.0000
     1.0000   1.0000   1.0000   1.0000   1.0000   1.0000   1.0000   1.0000
     1.0000   1.0000

          k = 0.0556 0.1667 0.3889 ( 19954 PWs)   bands (ev):

   -21.8012 -21.8012 -21.8012 -21.8012 -20.7886 -20.7886 -20.7511 -20.7511
   -20.7511 -20.7510 -11.8721 -11.8721 -11.2644 -11.2625 -11.2149 -11.2132
   -11.2046 -11.2030  -6.3209  -6.3195  -2.8251  -2.7762  -2.7098  -2.6869
    -2.5910  -2.5155  -1.4750  -1.4497  -1.1917  -1.1444  -1.0585  -1.0100
    -0.9415  -0.8861  -0.5517  -0.5340  -0.4581  -0.3450  -0.2581  -0.2163
    -0.1119  -0.0724

     occupation numbers 
     1.0000   1.0000   1.0000   1.0000   1.0000   1.0000   1.0000   1.0000
     1.0000   1.0000   1.0000   1.0000   1.0000   1.0000   1.0000   1.0000
     1.0000   1.0000   1.0000   1.0000   1.0000   1.0000   1.0000   1.0000
     1.0000   1.0000   1.0000   1.0000   1.0000   1.0000   1.0000   1.0000
     1.0000   1.0000   1.0000   1.0000   1.0000   1.0000   1.0000   1.0000
     1.0000   1.0000

          k = 0.0556 0.1667-0.5000 ( 19960 PWs)   bands (ev):

   -21.8012 -21.8012 -21.8012 -21.8012 -20.7886 -20.7886 -20.7511 -20.7511
   -20.7511 -20.7511 -11.8655 -11.8654 -11.2730 -11.2711 -11.2141 -11.2128
   -11.2046 -11.2035  -6.3158  -6.3142  -2.8400  -2.7870  -2.7119  -2.6844
    -2.6018  -2.5169  -1.4774  -1.4574  -1.1458  -1.1269  -1.0527  -1.0168
    -0.9390  -0.8833  -0.5820  -0.5379  -0.5110  -0.3554  -0.2389  -0.1801
    -0.1564  -0.0989

     occupation numbers 
     1.0000   1.0000   1.0000   1.0000   1.0000   1.0000   1.0000   1.0000
     1.0000   1.0000   1.0000   1.0000   1.0000   1.0000   1.0000   1.0000
     1.0000   1.0000   1.0000   1.0000   1.0000   1.0000   1.0000   1.0000
     1.0000   1.0000   1.0000   1.0000   1.0000   1.0000   1.0000   1.0000
     1.0000   1.0000   1.0000   1.0000   1.0000   1.0000   1.0000   1.0000
     1.0000   1.0000

          k = 0.0556 0.2778 0.2778 ( 19955 PWs)   bands (ev):

   -21.8012 -21.8012 -21.8012 -21.8012 -20.7886 -20.7886 -20.7511 -20.7511
   -20.7511 -20.7510 -11.8726 -11.8726 -11.2452 -11.2420 -11.2310 -11.2301
   -11.2074 -11.2049  -6.3254  -6.3239  -2.8253  -2.7817  -2.7175  -2.6938
    -2.5781  -2.5142  -1.5117  -1.4848  -1.2024  -1.1278  -1.0598  -1.0155
    -0.8828  -0.8558  -0.5490  -0.5010  -0.4221  -0.3869  -0.2397  -0.2385
    -0.0749  -0.0269

     occupation numbers 
     1.0000   1.0000   1.0000   1.0000   1.0000   1.0000   1.0000   1.0000
     1.0000   1.0000   1.0000   1.0000   1.0000   1.0000   1.0000   1.0000
     1.0000   1.0000   1.0000   1.0000   1.0000   1.0000   1.0000   1.0000
     1.0000   1.0000   1.0000   1.0000   1.0000   1.0000   1.0000   1.0000
     1.0000   1.0000   1.0000   1.0000   1.0000   1.0000   1.0000   1.0000
     1.0000   1.0000

          k = 0.0556 0.2778 0.3889 ( 19932 PWs)   bands (ev):

   -21.8012 -21.8012 -21.8012 -21.8012 -20.7886 -20.7886 -20.7511 -20.7510
   -20.7510 -20.7510 -11.8580 -11.8579 -11.2589 -11.2561 -11.2320 -11.2304
   -11.2106 -11.2080  -6.3178  -6.3161  -2.8585  -2.8136  -2.7232  -2.6952
    -2.5892  -2.5184  -1.5385  -1.5240  -1.1475  -1.0925  -1.0280  -1.0129
    -0.8309  -0.8212  -0.5781  -0.5512  -0.4957  -0.4097  -0.2267  -0.1907
    -0.1067  -0.0447

     occupation numbers 
     1.0000   1.0000   1.0000   1.0000   1.0000   1.0000   1.0000   1.0000
     1.0000   1.0000   1.0000   1.0000   1.0000   1.0000   1.0000   1.0000
     1.0000   1.0000   1.0000   1.0000   1.0000   1.0000   1.0000   1.0000
     1.0000   1.0000   1.0000   1.0000   1.0000   1.0000   1.0000   1.0000
     1.0000   1.0000   1.0000   1.0000   1.0000   1.0000   1.0000   1.0000
     1.0000   1.0000

          k = 0.0556 0.2778-0.5000 ( 19958 PWs)   bands (ev):

   -21.8012 -21.8012 -21.8012 -21.8012 -20.7886 -20.7886 -20.7511 -20.7511
   -20.7511 -20.7511 -11.8520 -11.8519 -11.2660 -11.2634 -11.2302 -11.2291
   -11.2119 -11.2098  -6.3149  -6.3131  -2.8716  -2.8257  -2.7253  -2.6954
    -2.5940  -2.5201  -1.5467  -1.5393  -1.1171  -1.0987  -1.0133  -1.0004
    -0.8098  -0.8020  -0.5855  -0.5761  -0.5443  -0.4060  -0.2163  -0.1544
    -0.1395  -0.0588

     occupation numbers 
     1.0000   1.0000   1.0000   1.0000   1.0000   1.0000   1.0000   1.0000
     1.0000   1.0000   1.0000   1.0000   1.0000   1.0000   1.0000   1.0000
     1.0000   1.0000   1.0000   1.0000   1.0000   1.0000   1.0000   1.0000
     1.0000   1.0000   1.0000   1.0000   1.0000   1.0000   1.0000   1.0000
     1.0000   1.0000   1.0000   1.0000   1.0000   1.0000   1.0000   1.0000
     1.0000   1.0000

          k = 0.0556 0.3889 0.3889 ( 19955 PWs)   bands (ev):

   -21.8012 -21.8012 -21.8012 -21.8012 -20.7886 -20.7886 -20.7511 -20.7511
   -20.7511 -20.7511 -11.8449 -11.8448 -11.2550 -11.2517 -11.2451 -11.2443
   -11.2167 -11.2140  -6.3149  -6.3134  -2.8836  -2.8530  -2.7273  -2.7046
    -2.5804  -2.5292  -1.5787  -1.5749  -1.1135  -1.0907  -0.9943  -0.9922
    -0.7596  -0.7278  -0.6014  -0.5778  -0.5013  -0.4978  -0.2063  -0.1594
    -0.0983  -0.0343

     occupation numbers 
     1.0000   1.0000   1.0000   1.0000   1.0000   1.0000   1.0000   1.0000
     1.0000   1.0000   1.0000   1.0000   1.0000   1.0000   1.0000   1.0000
     1.0000   1.0000   1.0000   1.0000   1.0000   1.0000   1.0000   1.0000
     1.0000   1.0000   1.0000   1.0000   1.0000   1.0000   1.0000   1.0000
     1.0000   1.0000   1.0000   1.0000   1.0000   1.0000   1.0000   1.0000
     1.0000   1.0000

          k = 0.0556 0.3889-0.5000 ( 19948 PWs)   bands (ev):

   -21.8012 -21.8012 -21.8012 -21.8012 -20.7886 -20.7886 -20.7511 -20.7511
   -20.7510 -20.7510 -11.8395 -11.8395 -11.2580 -11.2553 -11.2450 -11.2440
   -11.2195 -11.2175  -6.3136  -6.3124  -2.8926  -2.8689  -2.7274  -2.7094
    -2.5752  -2.5353  -1.5928  -1.5925  -1.0999  -1.0953  -0.9849  -0.9786
    -0.7158  -0.6884  -0.6060  -0.5800  -0.5736  -0.4914  -0.1949  -0.1586
    -0.0840  -0.0364

     occupation numbers 
     1.0000   1.0000   1.0000   1.0000   1.0000   1.0000   1.0000   1.0000
     1.0000   1.0000   1.0000   1.0000   1.0000   1.0000   1.0000   1.0000
     1.0000   1.0000   1.0000   1.0000   1.0000   1.0000   1.0000   1.0000
     1.0000   1.0000   1.0000   1.0000   1.0000   1.0000   1.0000   1.0000
     1.0000   1.0000   1.0000   1.0000   1.0000   1.0000   1.0000   1.0000
     1.0000   1.0000

          k = 0.0556-0.5000-0.5000 ( 19952 PWs)   bands (ev):

   -21.8012 -21.8012 -21.8012 -21.8012 -20.7886 -20.7886 -20.7511 -20.7511
   -20.7511 -20.7511 -11.8344 -11.8344 -11.2544 -11.2544 -11.2485 -11.2485
   -11.2226 -11.2226  -6.3126  -6.3126  -2.8931  -2.8931  -2.7214  -2.7214
    -2.5547  -2.5547  -1.6099  -1.6099  -1.0949  -1.0949  -0.9727  -0.9727
    -0.6460  -0.6460  -0.5982  -0.5982  -0.5691  -0.5691  -0.1742  -0.1742
    -0.0446  -0.0446

     occupation numbers 
     1.0000   1.0000   1.0000   1.0000   1.0000   1.0000   1.0000   1.0000
     1.0000   1.0000   1.0000   1.0000   1.0000   1.0000   1.0000   1.0000
     1.0000   1.0000   1.0000   1.0000   1.0000   1.0000   1.0000   1.0000
     1.0000   1.0000   1.0000   1.0000   1.0000   1.0000   1.0000   1.0000
     1.0000   1.0000   1.0000   1.0000   1.0000   1.0000   1.0000   1.0000
     1.0000   1.0000

          k = 0.1667 0.1667 0.1667 ( 19945 PWs)   bands (ev):

   -21.8012 -21.8012 -21.8012 -21.8012 -20.7886 -20.7886 -20.7511 -20.7511
   -20.7511 -20.7510 -11.8954 -11.8954 -11.2261 -11.2261 -11.2149 -11.2149
   -11.2110 -11.2108  -6.3412  -6.3412  -2.7440  -2.7440  -2.7143  -2.7065
    -2.5305  -2.5305  -1.4692  -1.4692  -1.2707  -1.2098  -1.0432  -1.0432
    -0.9079  -0.9079  -0.4890  -0.4572  -0.3222  -0.3222  -0.2496  -0.2496
    -0.0304   0.0029

     occupation numbers 
     1.0000   1.0000   1.0000   1.0000   1.0000   1.0000   1.0000   1.0000
     1.0000   1.0000   1.0000   1.0000   1.0000   1.0000   1.0000   1.0000
     1.0000   1.0000   1.0000   1.0000   1.0000   1.0000   1.0000   1.0000
     1.0000   1.0000   1.0000   1.0000   1.0000   1.0000   1.0000   1.0000
     1.0000   1.0000   1.0000   1.0000   1.0000   1.0000   1.0000   1.0000
     1.0000   1.0000

          k = 0.1667 0.1667 0.2778 ( 19949 PWs)   bands (ev):

   -21.8012 -21.8012 -21.8012 -21.8012 -20.7886 -20.7886 -20.7511 -20.7511
   -20.7511 -20.7510 -11.8791 -11.8791 -11.2430 -11.2405 -11.2200 -11.2172
   -11.2120 -11.2115  -6.3308  -6.3301  -2.7913  -2.7624  -2.7191  -2.7191
    -2.5631  -2.5244  -1.5088  -1.4985  -1.1973  -1.1357  -1.0341  -1.0050
    -0.9163  -0.8839  -0.5281  -0.4981  -0.3896  -0.3502  -0.2596  -0.2350
    -0.0514  -0.0131

     occupation numbers 
     1.0000   1.0000   1.0000   1.0000   1.0000   1.0000   1.0000   1.0000
     1.0000   1.0000   1.0000   1.0000   1.0000   1.0000   1.0000   1.0000
     1.0000   1.0000   1.0000   1.0000   1.0000   1.0000   1.0000   1.0000
     1.0000   1.0000   1.0000   1.0000   1.0000   1.0000   1.0000   1.0000
     1.0000   1.0000   1.0000   1.0000   1.0000   1.0000   1.0000   1.0000
     1.0000   1.0000

          k = 0.1667 0.1667 0.3889 ( 19941 PWs)   bands (ev):

   -21.8012 -21.8012 -21.8012 -21.8012 -20.7886 -20.7886 -20.7511 -20.7510
   -20.7510 -20.7510 -11.8639 -11.8638 -11.2619 -11.2593 -11.2203 -11.2173
   -11.2116 -11.2110  -6.3217  -6.3203  -2.8311  -2.7863  -2.7288  -2.7129
    -2.5927  -2.5212  -1.5311  -1.5223  -1.1219  -1.0791  -0.9990  -0.9957
    -0.9155  -0.8758  -0.5569  -0.5564  -0.4672  -0.3705  -0.2333  -0.1993
    -0.0952  -0.0500

     occupation numbers 
     1.0000   1.0000   1.0000   1.0000   1.0000   1.0000   1.0000   1.0000
     1.0000   1.0000   1.0000   1.0000   1.0000   1.0000   1.0000   1.0000
     1.0000   1.0000   1.0000   1.0000   1.0000   1.0000   1.0000   1.0000
     1.0000   1.0000   1.0000   1.0000   1.0000   1.0000   1.0000   1.0000
     1.0000   1.0000   1.0000   1.0000   1.0000   1.0000   1.0000   1.0000
     1.0000   1.0000

          k = 0.1667 0.1667-0.5000 ( 19978 PWs)   bands (ev):

   -21.8012 -21.8012 -21.8012 -21.8012 -20.7886 -20.7886 -20.7511 -20.7511
   -20.7511 -20.7511 -11.8576 -11.8576 -11.2698 -11.2673 -11.2202 -11.2172
   -11.2114 -11.2108  -6.3181  -6.3164  -2.8462  -2.7961  -2.7327  -2.7091
    -2.6051  -2.5203  -1.5381  -1.5319  -1.0859  -1.0522  -0.9990  -0.9811
    -0.9192  -0.8725  -0.5869  -0.5602  -0.5081  -0.3725  -0.2156  -0.1651
    -0.1348  -0.0737

     occupation numbers 
     1.0000   1.0000   1.0000   1.0000   1.0000   1.0000   1.0000   1.0000
     1.0000   1.0000   1.0000   1.0000   1.0000   1.0000   1.0000   1.0000
     1.0000   1.0000   1.0000   1.0000   1.0000   1.0000   1.0000   1.0000
     1.0000   1.0000   1.0000   1.0000   1.0000   1.0000   1.0000   1.0000
     1.0000   1.0000   1.0000   1.0000   1.0000   1.0000   1.0000   1.0000
     1.0000   1.0000

          k = 0.1667 0.2778 0.2778 ( 19965 PWs)   bands (ev):

   -21.8012 -21.8012 -21.8012 -21.8012 -20.7886 -20.7886 -20.7511 -20.7511
   -20.7511 -20.7511 -11.8644 -11.8644 -11.2451 -11.2425 -11.2307 -11.2298
   -11.2165 -11.2146  -6.3264  -6.3256  -2.8169  -2.7869  -2.7421  -2.7317
    -2.5718  -2.5358  -1.5583  -1.5525  -1.1235  -1.0551  -0.9973  -0.9953
    -0.8663  -0.8659  -0.5532  -0.5194  -0.4329  -0.4163  -0.2129  -0.2127
    -0.0552  -0.0093

     occupation numbers 
     1.0000   1.0000   1.0000   1.0000   1.0000   1.0000   1.0000   1.0000
     1.0000   1.0000   1.0000   1.0000   1.0000   1.0000   1.0000   1.0000
     1.0000   1.0000   1.0000   1.0000   1.0000   1.0000   1.0000   1.0000
     1.0000   1.0000   1.0000   1.0000   1.0000   1.0000   1.0000   1.0000
     1.0000   1.0000   1.0000   1.0000   1.0000   1.0000   1.0000   1.0000
     1.0000   1.0000

          k = 0.1667 0.2778 0.3889 ( 19941 PWs)   bands (ev):

   -21.8012 -21.8012 -21.8012 -21.8012 -20.7886 -20.7886 -20.7511 -20.7510
   -20.7510 -20.7510 -11.8507 -11.8507 -11.2575 -11.2543 -11.2338 -11.2310
   -11.2184 -11.2163  -6.3228  -6.3215  -2.8493  -2.8129  -2.7514  -2.7346
    -2.5901  -2.5369  -1.5898  -1.5888  -1.0621  -1.0068  -0.9892  -0.9555
    -0.8478  -0.8172  -0.5715  -0.5565  -0.4944  -0.4314  -0.1854  -0.1652
    -0.0815  -0.0257

     occupation numbers 
     1.0000   1.0000   1.0000   1.0000   1.0000   1.0000   1.0000   1.0000
     1.0000   1.0000   1.0000   1.0000   1.0000   1.0000   1.0000   1.0000
     1.0000   1.0000   1.0000   1.0000   1.0000   1.0000   1.0000   1.0000
     1.0000   1.0000   1.0000   1.0000   1.0000   1.0000   1.0000   1.0000
     1.0000   1.0000   1.0000   1.0000   1.0000   1.0000   1.0000   1.0000
     1.0000   1.0000

          k = 0.1667 0.2778-0.5000 ( 19964 PWs)   bands (ev):

   -21.8012 -21.8012 -21.8012 -21.8012 -20.7886 -20.7886 -20.7511 -20.7511
   -20.7511 -20.7511 -11.8451 -11.8451 -11.2640 -11.2607 -11.2333 -11.2303
   -11.2190 -11.2173  -6.3213  -6.3198  -2.8627  -2.8235  -2.7556  -2.7336
    -2.5985  -2.5362  -1.6028  -1.5994  -1.0475  -0.9887  -0.9641  -0.9507
    -0.8297  -0.8072  -0.5797  -0.5739  -0.5263  -0.4266  -0.1701  -0.1338
    -0.1089  -0.0397

     occupation numbers 
     1.0000   1.0000   1.0000   1.0000   1.0000   1.0000   1.0000   1.0000
     1.0000   1.0000   1.0000   1.0000   1.0000   1.0000   1.0000   1.0000
     1.0000   1.0000   1.0000   1.0000   1.0000   1.0000   1.0000   1.0000
     1.0000   1.0000   1.0000   1.0000   1.0000   1.0000   1.0000   1.0000
     1.0000   1.0000   1.0000   1.0000   1.0000   1.0000   1.0000   1.0000
     1.0000   1.0000

          k = 0.1667 0.3889 0.3889 ( 19957 PWs)   bands (ev):

   -21.8012 -21.8012 -21.8012 -21.8012 -20.7886 -20.7886 -20.7511 -20.7511
   -20.7511 -20.7511 -11.8386 -11.8385 -11.2545 -11.2515 -11.2447 -11.2438
   -11.2234 -11.2210  -6.3236  -6.3225  -2.8710  -2.8463  -2.7599  -2.7465
    -2.5869  -2.5515  -1.6316  -1.6275  -1.0102  -1.0100  -0.9484  -0.9368
    -0.7903  -0.7294  -0.5784  -0.5607  -0.5024  -0.5014  -0.1566  -0.1248
    -0.0740  -0.0158

     occupation numbers 
     1.0000   1.0000   1.0000   1.0000   1.0000   1.0000   1.0000   1.0000
     1.0000   1.0000   1.0000   1.0000   1.0000   1.0000   1.0000   1.0000
     1.0000   1.0000   1.0000   1.0000   1.0000   1.0000   1.0000   1.0000
     1.0000   1.0000   1.0000   1.0000   1.0000   1.0000   1.0000   1.0000
     1.0000   1.0000   1.0000   1.0000   1.0000   1.0000   1.0000   1.0000
     1.0000   1.0000

          k = 0.1667 0.3889-0.5000 ( 19958 PWs)   bands (ev):

   -21.8012 -21.8012 -21.8012 -21.8012 -20.7886 -20.7886 -20.7511 -20.7511
   -20.7511 -20.7510 -11.8336 -11.8336 -11.2573 -11.2539 -11.2460 -11.2436
   -11.2256 -11.2237  -6.3239  -6.3230  -2.8801  -2.8604  -2.7625  -2.7500
    -2.5863  -2.5562  -1.6458  -1.6406  -1.0156  -0.9778  -0.9445  -0.9341
    -0.7486  -0.7009  -0.5780  -0.5665  -0.5426  -0.4955  -0.1432  -0.1184
    -0.0627  -0.0179

     occupation numbers 
     1.0000   1.0000   1.0000   1.0000   1.0000   1.0000   1.0000   1.0000
     1.0000   1.0000   1.0000   1.0000   1.0000   1.0000   1.0000   1.0000
     1.0000   1.0000   1.0000   1.0000   1.0000   1.0000   1.0000   1.0000
     1.0000   1.0000   1.0000   1.0000   1.0000   1.0000   1.0000   1.0000
     1.0000   1.0000   1.0000   1.0000   1.0000   1.0000   1.0000   1.0000
     1.0000   1.0000

          k = 0.1667-0.5000-0.5000 ( 19920 PWs)   bands (ev):

   -21.8012 -21.8012 -21.8012 -21.8012 -20.7886 -20.7886 -20.7510 -20.7510
   -20.7510 -20.7510 -11.8289 -11.8289 -11.2541 -11.2541 -11.2480 -11.2480
   -11.2282 -11.2282  -6.3246  -6.3246  -2.8818  -2.8818  -2.7598  -2.7598
    -2.5726  -2.5726  -1.6573  -1.6573  -0.9897  -0.9897  -0.9351  -0.9351
    -0.6810  -0.6810  -0.5649  -0.5649  -0.5450  -0.5450  -0.1258  -0.1258
    -0.0250  -0.0250

     occupation numbers 
     1.0000   1.0000   1.0000   1.0000   1.0000   1.0000   1.0000   1.0000
     1.0000   1.0000   1.0000   1.0000   1.0000   1.0000   1.0000   1.0000
     1.0000   1.0000   1.0000   1.0000   1.0000   1.0000   1.0000   1.0000
     1.0000   1.0000   1.0000   1.0000   1.0000   1.0000   1.0000   1.0000
     1.0000   1.0000   1.0000   1.0000   1.0000   1.0000   1.0000   1.0000
     1.0000   1.0000

          k = 0.2778 0.2778 0.2778 ( 19939 PWs)   bands (ev):

   -21.8012 -21.8012 -21.8012 -21.8012 -20.7886 -20.7886 -20.7511 -20.7510
   -20.7510 -20.7510 -11.8513 -11.8513 -11.2459 -11.2459 -11.2314 -11.2314
   -11.2271 -11.2268  -6.3281  -6.3281  -2.8095  -2.8095  -2.7733  -2.7683
    -2.5678  -2.5678  -1.6103  -1.6103  -1.0376  -0.9691  -0.9547  -0.9547
    -0.8386  -0.8386  -0.5580  -0.5324  -0.4619  -0.4619  -0.1683  -0.1683
    -0.0427   0.0041

     occupation numbers 
     1.0000   1.0000   1.0000   1.0000   1.0000   1.0000   1.0000   1.0000
     1.0000   1.0000   1.0000   1.0000   1.0000   1.0000   1.0000   1.0000
     1.0000   1.0000   1.0000   1.0000   1.0000   1.0000   1.0000   1.0000
     1.0000   1.0000   1.0000   1.0000   1.0000   1.0000   1.0000   1.0000
     1.0000   1.0000   1.0000   1.0000   1.0000   1.0000   1.0000   1.0000
     1.0000   1.0000

          k = 0.2778 0.2778 0.3889 ( 19951 PWs)   bands (ev):

   -21.8012 -21.8012 -21.8012 -21.8012 -20.7886 -20.7886 -20.7511 -20.7511
   -20.7510 -20.7510 -11.8392 -11.8392 -11.2551 -11.2516 -11.2384 -11.2344
   -11.2284 -11.2278  -6.3302  -6.3295  -2.8428  -2.8220  -2.7853  -2.7817
    -2.5938  -2.5646  -1.6469  -1.6424  -0.9892  -0.9268  -0.9157  -0.8942
    -0.8208  -0.7977  -0.5602  -0.5531  -0.5024  -0.4699  -0.1247  -0.1234
    -0.0525  -0.0005

     occupation numbers 
     1.0000   1.0000   1.0000   1.0000   1.0000   1.0000   1.0000   1.0000
     1.0000   1.0000   1.0000   1.0000   1.0000   1.0000   1.0000   1.0000
     1.0000   1.0000   1.0000   1.0000   1.0000   1.0000   1.0000   1.0000
     1.0000   1.0000   1.0000   1.0000   1.0000   1.0000   1.0000   1.0000
     1.0000   1.0000   1.0000   1.0000   1.0000   1.0000   1.0000   1.0000
     1.0000   1.0000

          k = 0.2778 0.2778-0.5000 ( 19974 PWs)   bands (ev):

   -21.8012 -21.8012 -21.8012 -21.8012 -20.7886 -20.7886 -20.7511 -20.7511
   -20.7511 -20.7511 -11.8343 -11.8342 -11.2602 -11.2562 -11.2395 -11.2350
   -11.2283 -11.2276  -6.3311  -6.3300  -2.8567  -2.8316  -2.7912  -2.7806
    -2.6032  -2.5630  -1.6600  -1.6523  -0.9912  -0.8974  -0.8802  -0.8471
    -0.8347  -0.8018  -0.5652  -0.5603  -0.5180  -0.4642  -0.1037  -0.0968
    -0.0697  -0.0096

     occupation numbers 
     1.0000   1.0000   1.0000   1.0000   1.0000   1.0000   1.0000   1.0000
     1.0000   1.0000   1.0000   1.0000   1.0000   1.0000   1.0000   1.0000
     1.0000   1.0000   1.0000   1.0000   1.0000   1.0000   1.0000   1.0000
     1.0000   1.0000   1.0000   1.0000   1.0000   1.0000   1.0000   1.0000
     1.0000   1.0000   1.0000   1.0000   1.0000   1.0000   1.0000   1.0000
     1.0000   1.0000

          k = 0.2778 0.3889 0.3889 ( 19972 PWs)   bands (ev):

   -21.8012 -21.8012 -21.8012 -21.8012 -20.7886 -20.7886 -20.7511 -20.7511
   -20.7511 -20.7511 -11.8286 -11.8286 -11.2537 -11.2514 -11.2440 -11.2432
   -11.2336 -11.2320  -6.3368  -6.3363  -2.8564  -2.8431  -2.8058  -2.8010
    -2.5987  -2.5832  -1.6798  -1.6753  -0.9318  -0.9178  -0.8628  -0.8342
    -0.8043  -0.7246  -0.5483  -0.5460  -0.5087  -0.5076  -0.0850  -0.0711
    -0.0364   0.0133

     occupation numbers 
     1.0000   1.0000   1.0000   1.0000   1.0000   1.0000   1.0000   1.0000
     1.0000   1.0000   1.0000   1.0000   1.0000   1.0000   1.0000   1.0000
     1.0000   1.0000   1.0000   1.0000   1.0000   1.0000   1.0000   1.0000
     1.0000   1.0000   1.0000   1.0000   1.0000   1.0000   1.0000   1.0000
     1.0000   1.0000   1.0000   1.0000   1.0000   1.0000   1.0000   1.0000
     1.0000   1.0000

          k = 0.2778 0.3889-0.5000 ( 19960 PWs)   bands (ev):

   -21.8012 -21.8012 -21.8012 -21.8012 -20.7886 -20.7886 -20.7511 -20.7511
   -20.7510 -20.7510 -11.8243 -11.8243 -11.2559 -11.2520 -11.2472 -11.2436
   -11.2349 -11.2335  -6.3394  -6.3389  -2.8667  -2.8548  -2.8108  -2.8044
    -2.6032  -2.5863  -1.6907  -1.6853  -0.9345  -0.8795  -0.8501  -0.8320
    -0.7712  -0.7094  -0.5485  -0.5434  -0.5173  -0.5058  -0.0665  -0.0557
    -0.0268   0.0133

     occupation numbers 
     1.0000   1.0000   1.0000   1.0000   1.0000   1.0000   1.0000   1.0000
     1.0000   1.0000   1.0000   1.0000   1.0000   1.0000   1.0000   1.0000
     1.0000   1.0000   1.0000   1.0000   1.0000   1.0000   1.0000   1.0000
     1.0000   1.0000   1.0000   1.0000   1.0000   1.0000   1.0000   1.0000
     1.0000   1.0000   1.0000   1.0000   1.0000   1.0000   1.0000   1.0000
     1.0000   1.0000

          k = 0.2778-0.5000-0.5000 ( 19968 PWs)   bands (ev):

   -21.8012 -21.8012 -21.8012 -21.8012 -20.7886 -20.7886 -20.7511 -20.7511
   -20.7511 -20.7511 -11.8203 -11.8203 -11.2537 -11.2537 -11.2472 -11.2472
   -11.2367 -11.2367  -6.3425  -6.3425  -2.8713  -2.8713  -2.8127  -2.8127
    -2.5986  -2.5986  -1.6978  -1.6978  -0.8916  -0.8916  -0.8435  -0.8435
    -0.7002  -0.7002  -0.5418  -0.5418  -0.5173  -0.5173  -0.0500  -0.0500
     0.0094   0.0094

     occupation numbers 
     1.0000   1.0000   1.0000   1.0000   1.0000   1.0000   1.0000   1.0000
     1.0000   1.0000   1.0000   1.0000   1.0000   1.0000   1.0000   1.0000
     1.0000   1.0000   1.0000   1.0000   1.0000   1.0000   1.0000   1.0000
     1.0000   1.0000   1.0000   1.0000   1.0000   1.0000   1.0000   1.0000
     1.0000   1.0000   1.0000   1.0000   1.0000   1.0000   1.0000   1.0000
     1.0000   1.0000

          k = 0.3889 0.3889 0.3889 ( 19931 PWs)   bands (ev):

   -21.8012 -21.8012 -21.8012 -21.8012 -20.7886 -20.7886 -20.7511 -20.7510
   -20.7510 -20.7510 -11.8196 -11.8196 -11.2528 -11.2528 -11.2440 -11.2440
   -11.2409 -11.2407  -6.3482  -6.3482  -2.8516  -2.8516  -2.8408  -2.8393
    -2.6069  -2.6069  -1.7029  -1.7029  -0.8572  -0.8572  -0.8309  -0.8079
    -0.7186  -0.7186  -0.5382  -0.5211  -0.5134  -0.5134  -0.0220  -0.0220
    -0.0060   0.0357

     occupation numbers 
     1.0000   1.0000   1.0000   1.0000   1.0000   1.0000   1.0000   1.0000
     1.0000   1.0000   1.0000   1.0000   1.0000   1.0000   1.0000   1.0000
     1.0000   1.0000   1.0000   1.0000   1.0000   1.0000   1.0000   1.0000
     1.0000   1.0000   1.0000   1.0000   1.0000   1.0000   1.0000   1.0000
     1.0000   1.0000   1.0000   1.0000   1.0000   1.0000   1.0000   1.0000
     1.0000   1.0000

          k = 0.3889 0.3889-0.5000 ( 19954 PWs)   bands (ev):

   -21.8012 -21.8012 -21.8012 -21.8012 -20.7886 -20.7886 -20.7511 -20.7511
   -20.7510 -20.7510 -11.8159 -11.8159 -11.2545 -11.2523 -11.2474 -11.2448
   -11.2420 -11.2415  -6.3528  -6.3526  -2.8635  -2.8601  -2.8467  -2.8454
    -2.6150  -2.6093  -1.7113  -1.7087  -0.8598  -0.8156  -0.7948  -0.7925
    -0.7271  -0.7005  -0.5283  -0.5181  -0.5165  -0.5048  -0.0036   0.0059
     0.0061   0.0407

     occupation numbers 
     1.0000   1.0000   1.0000   1.0000   1.0000   1.0000   1.0000   1.0000
     1.0000   1.0000   1.0000   1.0000   1.0000   1.0000   1.0000   1.0000
     1.0000   1.0000   1.0000   1.0000   1.0000   1.0000   1.0000   1.0000
     1.0000   1.0000   1.0000   1.0000   1.0000   1.0000   1.0000   1.0000
     1.0000   1.0000   1.0000   1.0000   1.0000   1.0000   1.0000   1.0000
     1.0000   1.0000

          k = 0.3889-0.5000-0.5000 ( 19960 PWs)   bands (ev):

   -21.8012 -21.8012 -21.8012 -21.8012 -20.7886 -20.7886 -20.7511 -20.7511
   -20.7510 -20.7510 -11.8125 -11.8125 -11.2539 -11.2539 -11.2465 -11.2465
   -11.2439 -11.2439  -6.3580  -6.3580  -2.8695  -2.8695  -2.8550  -2.8550
    -2.6178  -2.6178  -1.7156  -1.7156  -0.8134  -0.8134  -0.7772  -0.7772
    -0.7026  -0.7026  -0.5193  -0.5193  -0.5025  -0.5025   0.0187   0.0187
     0.0423   0.0423

     occupation numbers 
     1.0000   1.0000   1.0000   1.0000   1.0000   1.0000   1.0000   1.0000
     1.0000   1.0000   1.0000   1.0000   1.0000   1.0000   1.0000   1.0000
     1.0000   1.0000   1.0000   1.0000   1.0000   1.0000   1.0000   1.0000
     1.0000   1.0000   1.0000   1.0000   1.0000   1.0000   1.0000   1.0000
     1.0000   1.0000   1.0000   1.0000   1.0000   1.0000   1.0000   1.0000
     1.0000   1.0000

          k =-0.5000-0.5000-0.5000 ( 19952 PWs)   bands (ev):

   -21.8012 -21.8012 -21.8012 -21.8012 -20.7886 -20.7886 -20.7511 -20.7511
   -20.7511 -20.7511 -11.8093 -11.8093 -11.2546 -11.2546 -11.2462 -11.2462
   -11.2462 -11.2462  -6.3641  -6.3641  -2.8708  -2.8708  -2.8708  -2.8708
    -2.6243  -2.6243  -1.7195  -1.7195  -0.7651  -0.7651  -0.7651  -0.7651
    -0.7117  -0.7117  -0.5021  -0.5021  -0.5021  -0.5021   0.0511   0.0511
     0.0511   0.0511

     occupation numbers 
     1.0000   1.0000   1.0000   1.0000   1.0000   1.0000   1.0000   1.0000
     1.0000   1.0000   1.0000   1.0000   1.0000   1.0000   1.0000   1.0000
     1.0000   1.0000   1.0000   1.0000   1.0000   1.0000   1.0000   1.0000
     1.0000   1.0000   1.0000   1.0000   1.0000   1.0000   1.0000   1.0000
     1.0000   1.0000   1.0000   1.0000   1.0000   1.0000   1.0000   1.0000
     1.0000   1.0000

     highest occupied level (ev):     0.0511

!    total energy              =   -1933.74583307 Ry
     Harris-Foulkes estimate   =   -1933.74583156 Ry
     estimated scf accuracy    <       0.00000053 Ry

     total all-electron energy =    -69281.863097 Ry

     The total energy is the sum of the following terms:

     one-electron contribution =    -155.34377709 Ry
     hartree contribution      =      94.83012931 Ry
     xc contribution           =    -110.25297891 Ry
     ewald contribution        =    -119.43299744 Ry
     one-center paw contrib.   =   -1643.54620894 Ry
      -> PAW hartree energy AE =     109.93467793 Ry
      -> PAW hartree energy PS =    -109.18481487 Ry
      -> PAW xc energy AE      =    -324.42083733 Ry
      -> PAW xc energy PS      =      46.78699905 Ry
      -> total E_H with PAW    =      95.57999238 Ry
      -> total E_XC with PAW   =    -387.88681720 Ry

     convergence has been achieved in  10 iterations

     Forces acting on atoms (cartesian axes, Ry/au):

     atom    1 type  1   force =     0.00000000    0.00000000    0.00000000
     atom    2 type  2   force =    -0.00381938    0.00381938    0.00381938
     atom    3 type  2   force =     0.00381938   -0.00381938    0.00381938
     atom    4 type  2   force =     0.00381938    0.00381938   -0.00381938
     atom    5 type  2   force =    -0.00381938   -0.00381938   -0.00381938
     The non-local contrib.  to forces
     atom    1 type  1   force =     0.00000000    0.00000000    0.00000000
     atom    2 type  2   force =    -0.08593174    0.08593174    0.08593174
     atom    3 type  2   force =     0.08593174   -0.08593174    0.08593174
     atom    4 type  2   force =     0.08593174    0.08593174   -0.08593174
     atom    5 type  2   force =    -0.08593174   -0.08593174   -0.08593174
     The ionic contribution  to forces
     atom    1 type  1   force =     0.00000000    0.00000000   -0.00000000
     atom    2 type  2   force =     3.79412126   -3.79412126   -3.79412126
     atom    3 type  2   force =    -3.79412126    3.79412126   -3.79412126
     atom    4 type  2   force =    -3.79412126   -3.79412126    3.79412126
     atom    5 type  2   force =     3.79412126    3.79412126    3.79412126
     The local contribution  to forces
     atom    1 type  1   force =     0.00000000    0.00000000   -0.00000000
     atom    2 type  2   force =    -3.71993869    3.71993869    3.71993869
     atom    3 type  2   force =     3.71993869   -3.71993869    3.71993869
     atom    4 type  2   force =     3.71993869    3.71993869   -3.71993869
     atom    5 type  2   force =    -3.71993869   -3.71993869   -3.71993869
     The core correction contribution to forces
     atom    1 type  1   force =     0.00000000    0.00000000    0.00000000
     atom    2 type  2   force =     0.00750862   -0.00750862   -0.00750862
     atom    3 type  2   force =    -0.00750862    0.00750862   -0.00750862
     atom    4 type  2   force =    -0.00750862   -0.00750862    0.00750862
     atom    5 type  2   force =     0.00750862    0.00750862    0.00750862
     The Hubbard contrib.    to forces
     atom    1 type  1   force =     0.00000000    0.00000000    0.00000000
     atom    2 type  2   force =     0.00000000    0.00000000    0.00000000
     atom    3 type  2   force =     0.00000000    0.00000000    0.00000000
     atom    4 type  2   force =     0.00000000    0.00000000    0.00000000
     atom    5 type  2   force =     0.00000000    0.00000000    0.00000000
     The SCF correction term to forces
     atom    1 type  1   force =     0.00000000    0.00000000   -0.00000000
     atom    2 type  2   force =     0.00042116   -0.00042116   -0.00042116
     atom    3 type  2   force =    -0.00042116    0.00042116   -0.00042116
     atom    4 type  2   force =    -0.00042116   -0.00042116    0.00042116
     atom    5 type  2   force =     0.00042116    0.00042116    0.00042116

     Total force =     0.013231     Total SCF correction =     0.001459
     SCF correction compared to forces is large: reduce conv_thr to get better values


     Computing stress (Cartesian axis) and pressure

     Message from routine stres:
     noncollinear stress + GGA not implemented

     Writing output data file CsIsalt.save/
 
     init_run     :     18.38s CPU     28.18s WALL (       1 calls)
     electrons    :    655.96s CPU   1065.35s WALL (       1 calls)
     forces       :      6.83s CPU      9.46s WALL (       1 calls)

     Called by init_run:
     wfcinit      :     16.21s CPU     25.15s WALL (       1 calls)
     wfcinit:atom :      0.04s CPU      0.04s WALL (      35 calls)
     wfcinit:wfcr :     15.95s CPU     24.81s WALL (      35 calls)
     potinit      :      0.85s CPU      1.26s WALL (       1 calls)
     hinit0       :      0.41s CPU      0.61s WALL (       1 calls)

     Called by electrons:
     c_bands      :    513.05s CPU    818.88s WALL (      11 calls)
     sum_band     :    128.90s CPU    226.44s WALL (      11 calls)
     v_of_rho     :      1.68s CPU      2.51s WALL (      11 calls)
     v_h          :      0.13s CPU      0.23s WALL (      11 calls)
     v_xc         :      1.86s CPU      2.83s WALL (      12 calls)
     newd         :      5.73s CPU      7.58s WALL (      11 calls)
     PAW_pot      :      2.76s CPU      3.96s WALL (      11 calls)
     mix_rho      :      2.96s CPU      4.78s WALL (      11 calls)

     Called by c_bands:
     init_us_2    :      1.57s CPU      2.38s WALL (     840 calls)
     cegterg      :    490.96s CPU    793.17s WALL (     385 calls)

     Called by sum_band:
     sum_band:bec :      3.37s CPU      4.63s WALL (     385 calls)
     addusdens    :      4.24s CPU      5.50s WALL (      11 calls)

     Called by *egterg:
     h_psi        :    322.07s CPU    565.80s WALL (    1308 calls)
     s_psi        :      4.19s CPU      5.12s WALL (    1308 calls)
     g_psi        :      0.42s CPU      0.44s WALL (     888 calls)
     cdiaghg      :     29.13s CPU     44.21s WALL (    1238 calls)
     cegterg:over :     46.78s CPU     63.50s WALL (     888 calls)
     cegterg:upda :     51.95s CPU     68.63s WALL (     888 calls)
     cegterg:last :     12.84s CPU     16.82s WALL (     387 calls)
     cdiaghg:chol :      1.88s CPU      3.24s WALL (    1238 calls)
     cdiaghg:inve :      1.46s CPU      2.16s WALL (    1238 calls)
     cdiaghg:para :      8.34s CPU     12.21s WALL (    2476 calls)

     Called by h_psi:
     h_psi:pot    :    321.17s CPU    564.76s WALL (    1308 calls)
     h_psi:calbec :      6.49s CPU      7.86s WALL (    1308 calls)
     vloc_psi     :    310.18s CPU    551.23s WALL (    1308 calls)
     add_vuspsi   :      4.49s CPU      5.65s WALL (    1308 calls)

     General routines
     calbec       :     12.81s CPU     16.28s WALL (    1833 calls)
     fft          :      4.97s CPU      8.34s WALL (     243 calls)
     ffts         :      0.87s CPU      1.68s WALL (      88 calls)
     fftw         :    416.64s CPU    748.40s WALL (  205136 calls)
     interpolate  :      0.28s CPU      0.50s WALL (      44 calls)
 
     Parallel routines
     fft_scatt_xy :     10.69s CPU     12.77s WALL (  205467 calls)
     fft_scatt_yz :    367.05s CPU    689.87s WALL (  205467 calls)

     PAW routines
     PAW_pot      :      2.76s CPU      3.96s WALL (      11 calls)
     PAW_symme    :      0.19s CPU      0.28s WALL (      22 calls)
 
     PWSCF        :  11m31.02s CPU  18m37.35s WALL

 
   This run was terminated on:  20:34:46  24Jan2021            

=------------------------------------------------------------------------------=
   JOB DONE.
=------------------------------------------------------------------------------=
