
     Program PWSCF v.6.4.1 starts on 24Jan2021 at 20:15:59 

     This program is part of the open-source Quantum ESPRESSO suite
     for quantum simulation of materials; please cite
         "P. Giannozzi et al., J. Phys.:Condens. Matter 21 395502 (2009);
         "P. Giannozzi et al., J. Phys.:Condens. Matter 29 465901 (2017);
          URL http://www.quantum-espresso.org", 
     in publications or presentations arising from this work. More details at
     http://www.quantum-espresso.org/quote

     Parallel version (MPI & OpenMP), running on      48 processor cores
     Number of MPI processes:                24
     Threads/MPI process:                     2

     MPI processes distributed on     1 nodes
     R & G space division:  proc/nbgrp/npool/nimage =      24
     Waiting for input...
     Reading input from standard input

     Current dimensions of program PWSCF are:
     Max number of different atomic species (ntypx) = 10
     Max number of k-points (npk) =  40000
     Max angular momentum in pseudopotentials (lmaxx) =  3
               file Sn.rel-pbesol-dn-kjpaw_psl.1.0.0.UPF: wavefunction(s)  5S 5P 5P 4D 4D renormalized
               file I.rel-pbesol-n-kjpaw_psl.1.0.0.UPF: wavefunction(s)  5S renormalized

     Subspace diagonalization in iterative solution of the eigenvalue problem:
     one sub-group per band group will be used
     scalapack distributed-memory algorithm (size of sub-group:  3*  3 procs)

 
     Parallelization info
     --------------------
     sticks:   dense  smooth     PW     G-vecs:    dense   smooth      PW
     Min         222     148     40                12208     6652     958
     Max         223     149     41                12211     6655     961
     Sum        5345    3569    973               293027   159699   23031
 

     Title: 
     CsIsalt                                                                    


     bravais-lattice index     =            1
     lattice parameter (alat)  =      12.6355  a.u.
     unit-cell volume          =    2017.3401 (a.u.)^3
     number of atoms/cell      =            5
     number of atomic types    =            2
     number of electrons       =        42.00
     number of Kohn-Sham states=           42
     kinetic-energy cutoff     =      70.0000  Ry
     charge density cutoff     =     420.0000  Ry
     convergence threshold     =      1.0E-06
     mixing beta               =       0.3500
     number of iterations used =            8  plain     mixing
     Exchange-correlation      = SLA PW PSX PSC ( 1  4 10  8 0 0)
     Non magnetic calculation with spin-orbit


     celldm(1)=  12.635518  celldm(2)=   0.000000  celldm(3)=   0.000000
     celldm(4)=   0.000000  celldm(5)=   0.000000  celldm(6)=   0.000000

     crystal axes: (cart. coord. in units of alat)
               a(1) = (   1.000000   0.000000   0.000000 )  
               a(2) = (   0.000000   1.000000   0.000000 )  
               a(3) = (   0.000000   0.000000   1.000000 )  

     reciprocal axes: (cart. coord. in units 2 pi/alat)
               b(1) = (  1.000000  0.000000  0.000000 )  
               b(2) = (  0.000000  1.000000  0.000000 )  
               b(3) = (  0.000000  0.000000  1.000000 )  


     PseudoPot. # 1 for Sn read from file:
     /marconi_scratch/userexternal/cmalosso/degironcoli/pseudo/Sn.rel-pbesol-dn-kjpaw_psl.1.0.0.UPF
     MD5 check sum: e69eff64f15ae39ad43ef58bacbfdf88
     Pseudo is Projector augmented-wave + core cor, Zval = 14.0
     Generated using "atomic" code by A. Dal Corso v.6.3
     Shape of augmentation charge: PSQ
     Using radial grid of 1243 points, 10 beta functions with: 
                l(1) =   0
                l(2) =   0
                l(3) =   1
                l(4) =   1
                l(5) =   1
                l(6) =   1
                l(7) =   2
                l(8) =   2
                l(9) =   2
               l(10) =   2
     Q(r) pseudized with 0 coefficients 


     PseudoPot. # 2 for I  read from file:
     /marconi_scratch/userexternal/cmalosso/degironcoli/pseudo/I.rel-pbesol-n-kjpaw_psl.1.0.0.UPF
     MD5 check sum: 4478c427bd443f303eca1937a163b991
     Pseudo is Projector augmented-wave + core cor, Zval =  7.0
     Generated using "atomic" code by A. Dal Corso v.6.3
     Shape of augmentation charge: PSQ
     Using radial grid of 1247 points, 10 beta functions with: 
                l(1) =   0
                l(2) =   0
                l(3) =   1
                l(4) =   1
                l(5) =   1
                l(6) =   1
                l(7) =   2
                l(8) =   2
                l(9) =   2
               l(10) =   2
     Q(r) pseudized with 0 coefficients 


     atomic species   valence    mass     pseudopotential
        Sn            14.00   118.70000     Sn( 1.00)
        I              7.00   126.90000     I ( 1.00)

     24 Sym. Ops. (no inversion) found


                                    s                        frac. trans.

      isym =  1     identity                                     

 cryst.   s( 1) = (     1          0          0      )
                  (     0          1          0      )
                  (     0          0          1      )

 cart.    s( 1) = (  1.0000000  0.0000000  0.0000000 )
                  (  0.0000000  1.0000000  0.0000000 )
                  (  0.0000000  0.0000000  1.0000000 )


      isym =  2     180 deg rotation - cart. axis [0,0,1]        

 cryst.   s( 2) = (    -1          0          0      )
                  (     0         -1          0      )
                  (     0          0          1      )

 cart.    s( 2) = ( -1.0000000  0.0000000  0.0000000 )
                  (  0.0000000 -1.0000000  0.0000000 )
                  (  0.0000000  0.0000000  1.0000000 )


      isym =  3     180 deg rotation - cart. axis [0,1,0]        

 cryst.   s( 3) = (    -1          0          0      )
                  (     0          1          0      )
                  (     0          0         -1      )

 cart.    s( 3) = ( -1.0000000  0.0000000  0.0000000 )
                  (  0.0000000  1.0000000  0.0000000 )
                  (  0.0000000  0.0000000 -1.0000000 )


      isym =  4     180 deg rotation - cart. axis [1,0,0]        

 cryst.   s( 4) = (     1          0          0      )
                  (     0         -1          0      )
                  (     0          0         -1      )

 cart.    s( 4) = (  1.0000000  0.0000000  0.0000000 )
                  (  0.0000000 -1.0000000  0.0000000 )
                  (  0.0000000  0.0000000 -1.0000000 )


      isym =  5     120 deg rotation - cart. axis [-1,-1,-1]     

 cryst.   s( 5) = (     0          0          1      )
                  (     1          0          0      )
                  (     0          1          0      )

 cart.    s( 5) = (  0.0000000  1.0000000  0.0000000 )
                  (  0.0000000  0.0000000  1.0000000 )
                  (  1.0000000  0.0000000  0.0000000 )


      isym =  6     120 deg rotation - cart. axis [-1,1,1]       

 cryst.   s( 6) = (     0          0         -1      )
                  (    -1          0          0      )
                  (     0          1          0      )

 cart.    s( 6) = (  0.0000000 -1.0000000  0.0000000 )
                  (  0.0000000  0.0000000  1.0000000 )
                  ( -1.0000000  0.0000000  0.0000000 )


      isym =  7     120 deg rotation - cart. axis [1,1,-1]       

 cryst.   s( 7) = (     0          0         -1      )
                  (     1          0          0      )
                  (     0         -1          0      )

 cart.    s( 7) = (  0.0000000  1.0000000  0.0000000 )
                  (  0.0000000  0.0000000 -1.0000000 )
                  ( -1.0000000  0.0000000  0.0000000 )


      isym =  8     120 deg rotation - cart. axis [1,-1,1]       

 cryst.   s( 8) = (     0          0          1      )
                  (    -1          0          0      )
                  (     0         -1          0      )

 cart.    s( 8) = (  0.0000000 -1.0000000  0.0000000 )
                  (  0.0000000  0.0000000 -1.0000000 )
                  (  1.0000000  0.0000000  0.0000000 )


      isym =  9     120 deg rotation - cart. axis [1,1,1]        

 cryst.   s( 9) = (     0          1          0      )
                  (     0          0          1      )
                  (     1          0          0      )

 cart.    s( 9) = (  0.0000000  0.0000000  1.0000000 )
                  (  1.0000000  0.0000000  0.0000000 )
                  (  0.0000000  1.0000000  0.0000000 )


      isym = 10     120 deg rotation - cart. axis [-1,1,-1]      

 cryst.   s(10) = (     0         -1          0      )
                  (     0          0         -1      )
                  (     1          0          0      )

 cart.    s(10) = (  0.0000000  0.0000000  1.0000000 )
                  ( -1.0000000  0.0000000  0.0000000 )
                  (  0.0000000 -1.0000000  0.0000000 )


      isym = 11     120 deg rotation - cart. axis [1,-1,-1]      

 cryst.   s(11) = (     0         -1          0      )
                  (     0          0          1      )
                  (    -1          0          0      )

 cart.    s(11) = (  0.0000000  0.0000000 -1.0000000 )
                  ( -1.0000000  0.0000000  0.0000000 )
                  (  0.0000000  1.0000000  0.0000000 )


      isym = 12     120 deg rotation - cart. axis [-1,-1,1]      

 cryst.   s(12) = (     0          1          0      )
                  (     0          0         -1      )
                  (    -1          0          0      )

 cart.    s(12) = (  0.0000000  0.0000000 -1.0000000 )
                  (  1.0000000  0.0000000  0.0000000 )
                  (  0.0000000 -1.0000000  0.0000000 )


      isym = 13     inv. 180 deg rotation - cart. axis [1,1,0]   

 cryst.   s(13) = (     0         -1          0      )
                  (    -1          0          0      )
                  (     0          0          1      )

 cart.    s(13) = (  0.0000000 -1.0000000  0.0000000 )
                  ( -1.0000000  0.0000000  0.0000000 )
                  (  0.0000000  0.0000000  1.0000000 )


      isym = 14     inv. 180 deg rotation - cart. axis [1,-1,0]  

 cryst.   s(14) = (     0          1          0      )
                  (     1          0          0      )
                  (     0          0          1      )

 cart.    s(14) = (  0.0000000  1.0000000  0.0000000 )
                  (  1.0000000  0.0000000  0.0000000 )
                  (  0.0000000  0.0000000  1.0000000 )


      isym = 15     inv.  90 deg rotation - cart. axis [0,0,-1]  

 cryst.   s(15) = (     0          1          0      )
                  (    -1          0          0      )
                  (     0          0         -1      )

 cart.    s(15) = (  0.0000000 -1.0000000  0.0000000 )
                  (  1.0000000  0.0000000  0.0000000 )
                  (  0.0000000  0.0000000 -1.0000000 )


      isym = 16     inv.  90 deg rotation - cart. axis [0,0,1]   

 cryst.   s(16) = (     0         -1          0      )
                  (     1          0          0      )
                  (     0          0         -1      )

 cart.    s(16) = (  0.0000000  1.0000000  0.0000000 )
                  ( -1.0000000  0.0000000  0.0000000 )
                  (  0.0000000  0.0000000 -1.0000000 )


      isym = 17     inv. 180 deg rotation - cart. axis [1,0,1]   

 cryst.   s(17) = (     0          0         -1      )
                  (     0          1          0      )
                  (    -1          0          0      )

 cart.    s(17) = (  0.0000000  0.0000000 -1.0000000 )
                  (  0.0000000  1.0000000  0.0000000 )
                  ( -1.0000000  0.0000000  0.0000000 )


      isym = 18     inv. 180 deg rotation - cart. axis [-1,0,1]  

 cryst.   s(18) = (     0          0          1      )
                  (     0          1          0      )
                  (     1          0          0      )

 cart.    s(18) = (  0.0000000  0.0000000  1.0000000 )
                  (  0.0000000  1.0000000  0.0000000 )
                  (  1.0000000  0.0000000  0.0000000 )


      isym = 19     inv.  90 deg rotation - cart. axis [0,1,0]   

 cryst.   s(19) = (     0          0          1      )
                  (     0         -1          0      )
                  (    -1          0          0      )

 cart.    s(19) = (  0.0000000  0.0000000 -1.0000000 )
                  (  0.0000000 -1.0000000  0.0000000 )
                  (  1.0000000  0.0000000  0.0000000 )


      isym = 20     inv.  90 deg rotation - cart. axis [0,-1,0]  

 cryst.   s(20) = (     0          0         -1      )
                  (     0         -1          0      )
                  (     1          0          0      )

 cart.    s(20) = (  0.0000000  0.0000000  1.0000000 )
                  (  0.0000000 -1.0000000  0.0000000 )
                  ( -1.0000000  0.0000000  0.0000000 )


      isym = 21     inv. 180 deg rotation - cart. axis [0,1,1]   

 cryst.   s(21) = (     1          0          0      )
                  (     0          0         -1      )
                  (     0         -1          0      )

 cart.    s(21) = (  1.0000000  0.0000000  0.0000000 )
                  (  0.0000000  0.0000000 -1.0000000 )
                  (  0.0000000 -1.0000000  0.0000000 )


      isym = 22     inv. 180 deg rotation - cart. axis [0,1,-1]  

 cryst.   s(22) = (     1          0          0      )
                  (     0          0          1      )
                  (     0          1          0      )

 cart.    s(22) = (  1.0000000  0.0000000  0.0000000 )
                  (  0.0000000  0.0000000  1.0000000 )
                  (  0.0000000  1.0000000  0.0000000 )


      isym = 23     inv.  90 deg rotation - cart. axis [-1,0,0]  

 cryst.   s(23) = (    -1          0          0      )
                  (     0          0          1      )
                  (     0         -1          0      )

 cart.    s(23) = ( -1.0000000  0.0000000  0.0000000 )
                  (  0.0000000  0.0000000 -1.0000000 )
                  (  0.0000000  1.0000000  0.0000000 )


      isym = 24     inv.  90 deg rotation - cart. axis [1,0,0]   

 cryst.   s(24) = (    -1          0          0      )
                  (     0          0         -1      )
                  (     0          1          0      )

 cart.    s(24) = ( -1.0000000  0.0000000  0.0000000 )
                  (  0.0000000  0.0000000  1.0000000 )
                  (  0.0000000 -1.0000000  0.0000000 )


     double point group T_d (-43m) 
     there are  8 classes and  3 irreducible representations
     the character table:

       E     -E    8C3   -8C3   3C2  6S4   -6S4  6s_d 
                               -3C2              -6s_d
G_6    2.00 -2.00  1.00 -1.00  0.00  1.41 -1.41  0.00
G_7    2.00 -2.00  1.00 -1.00  0.00 -1.41  1.41  0.00
G_8    4.00 -4.00 -1.00  1.00  0.00  0.00  0.00  0.00

     the symmetry operations in each class and the name of the first element:

     E             1
          identity                                               
     -E           -1
          identity E                                             
     8C3           5    7    8    6   12    9   10   11
          120 deg rotation - cart. axis [-1,-1,-1]               
     -8C3         -5   -7   -8   -6  -12   -9  -10  -11
          120 deg rotation - cart. axis [-1,-1,-1] E             
      3C2 -3C2     2   -2    3   -3    4   -4
          180 deg rotation - cart. axis [0,0,1]                  
     6S4          15   16   20   19   23   24
          inv.  90 deg rotation - cart. axis [0,0,-1]            
     -6S4        -15  -16  -20  -19  -23  -24
          inv.  90 deg rotation - cart. axis [0,0,-1] E          
     6s_d -6s_d   13  -13  -14   14   17  -17  -18   18   21  -21   22  -22
          inv. 180 deg rotation - cart. axis [1,1,0]             

   Cartesian axes

     site n.     atom                  positions (alat units)
         1           Sn  tau(   1) = (   0.0000000   0.0000000   0.0000000  )
         2           I   tau(   2) = (   0.2339030   0.7660970   0.7660970  )
         3           I   tau(   3) = (   0.7660970   0.2339030   0.7660970  )
         4           I   tau(   4) = (   0.7660970   0.7660970   0.2339030  )
         5           I   tau(   5) = (   0.2339030   0.2339030   0.2339030  )

   Crystallographic axes

     site n.     atom                  positions (cryst. coord.)
         1           Sn  tau(   1) = (  0.0000000  0.0000000  0.0000000  )
         2           I   tau(   2) = (  0.2339030  0.7660970  0.7660970  )
         3           I   tau(   3) = (  0.7660970  0.2339030  0.7660970  )
         4           I   tau(   4) = (  0.7660970  0.7660970  0.2339030  )
         5           I   tau(   5) = (  0.2339030  0.2339030  0.2339030  )

     number of k points=    20
                       cart. coord. in units 2pi/alat
        k(    1) = (   0.0714286   0.0714286   0.0714286), wk =   0.0233236
        k(    2) = (   0.0714286   0.0714286   0.2142857), wk =   0.0699708
        k(    3) = (   0.0714286   0.0714286   0.3571429), wk =   0.0699708
        k(    4) = (   0.0714286   0.0714286  -0.5000000), wk =   0.0349854
        k(    5) = (   0.0714286   0.2142857   0.2142857), wk =   0.0699708
        k(    6) = (   0.0714286   0.2142857   0.3571429), wk =   0.1399417
        k(    7) = (   0.0714286   0.2142857  -0.5000000), wk =   0.0699708
        k(    8) = (   0.0714286   0.3571429   0.3571429), wk =   0.0699708
        k(    9) = (   0.0714286   0.3571429  -0.5000000), wk =   0.0699708
        k(   10) = (   0.0714286  -0.5000000  -0.5000000), wk =   0.0174927
        k(   11) = (   0.2142857   0.2142857   0.2142857), wk =   0.0233236
        k(   12) = (   0.2142857   0.2142857   0.3571429), wk =   0.0699708
        k(   13) = (   0.2142857   0.2142857  -0.5000000), wk =   0.0349854
        k(   14) = (   0.2142857   0.3571429   0.3571429), wk =   0.0699708
        k(   15) = (   0.2142857   0.3571429  -0.5000000), wk =   0.0699708
        k(   16) = (   0.2142857  -0.5000000  -0.5000000), wk =   0.0174927
        k(   17) = (   0.3571429   0.3571429   0.3571429), wk =   0.0233236
        k(   18) = (   0.3571429   0.3571429  -0.5000000), wk =   0.0349854
        k(   19) = (   0.3571429  -0.5000000  -0.5000000), wk =   0.0174927
        k(   20) = (  -0.5000000  -0.5000000  -0.5000000), wk =   0.0029155

                       cryst. coord.
        k(    1) = (   0.0714286   0.0714286   0.0714286), wk =   0.0233236
        k(    2) = (   0.0714286   0.0714286   0.2142857), wk =   0.0699708
        k(    3) = (   0.0714286   0.0714286   0.3571429), wk =   0.0699708
        k(    4) = (   0.0714286   0.0714286  -0.5000000), wk =   0.0349854
        k(    5) = (   0.0714286   0.2142857   0.2142857), wk =   0.0699708
        k(    6) = (   0.0714286   0.2142857   0.3571429), wk =   0.1399417
        k(    7) = (   0.0714286   0.2142857  -0.5000000), wk =   0.0699708
        k(    8) = (   0.0714286   0.3571429   0.3571429), wk =   0.0699708
        k(    9) = (   0.0714286   0.3571429  -0.5000000), wk =   0.0699708
        k(   10) = (   0.0714286  -0.5000000  -0.5000000), wk =   0.0174927
        k(   11) = (   0.2142857   0.2142857   0.2142857), wk =   0.0233236
        k(   12) = (   0.2142857   0.2142857   0.3571429), wk =   0.0699708
        k(   13) = (   0.2142857   0.2142857  -0.5000000), wk =   0.0349854
        k(   14) = (   0.2142857   0.3571429   0.3571429), wk =   0.0699708
        k(   15) = (   0.2142857   0.3571429  -0.5000000), wk =   0.0699708
        k(   16) = (   0.2142857  -0.5000000  -0.5000000), wk =   0.0174927
        k(   17) = (   0.3571429   0.3571429   0.3571429), wk =   0.0233236
        k(   18) = (   0.3571429   0.3571429  -0.5000000), wk =   0.0349854
        k(   19) = (   0.3571429  -0.5000000  -0.5000000), wk =   0.0174927
        k(   20) = (  -0.5000000  -0.5000000  -0.5000000), wk =   0.0029155

     Dense  grid:   293027 G-vectors     FFT dimensions: (  90,  90,  90)

     Smooth grid:   159699 G-vectors     FFT dimensions: (  72,  72,  72)

     Dynamical RAM for                 wfc:       1.07 MB

     Dynamical RAM for     wfc (w. buffer):      22.37 MB

     Dynamical RAM for           str. fact:       0.37 MB

     Dynamical RAM for           local pot:       0.00 MB

     Dynamical RAM for          nlocal pot:       2.16 MB

     Dynamical RAM for                qrad:      17.31 MB

     Dynamical RAM for          rho,v,vnew:       5.20 MB

     Dynamical RAM for               rhoin:       1.73 MB

     Dynamical RAM for            rho*nmix:      11.92 MB

     Dynamical RAM for           G-vectors:       0.75 MB

     Dynamical RAM for          h,s,v(r/c):       0.14 MB

     Dynamical RAM for          <psi|beta>:       0.22 MB

     Dynamical RAM for                 psi:       4.26 MB

     Dynamical RAM for                hpsi:       4.26 MB

     Dynamical RAM for                spsi:       4.26 MB

     Dynamical RAM for      wfcinit/wfcrot:       1.96 MB

     Dynamical RAM for           addusdens:     114.40 MB

     Dynamical RAM for          addusforce:     116.24 MB

     Dynamical RAM for         addusstress:     117.01 MB

     Estimated static dynamical RAM per process >      64.35 MB

     Estimated max dynamical RAM per process >     181.36 MB

     Estimated total dynamical RAM >       4.25 GB

     Initial potential from superposition of free atoms

     starting charge   41.99871, renormalised to   42.00000
     Starting wfcs are   50 randomized atomic wfcs
     Checking if some PAW data can be deallocated... 
       PAW data deallocated on   19 nodes for type:  1
       PAW data deallocated on    5 nodes for type:  2

     total cpu time spent up to now is       26.5 secs

     Self-consistent Calculation

     iteration #  1     ecut=    70.00 Ry     beta= 0.35
     Davidson diagonalization with overlap
     ethr =  1.00E-02,  avg # of iterations =  1.1

     Threshold (ethr) on eigenvalues was too large:
     Diagonalizing with lowered threshold

     Davidson diagonalization with overlap
     ethr =  3.86E-04,  avg # of iterations =  2.0

     total cpu time spent up to now is      125.4 secs

     total energy              =   -1933.72936092 Ry
     Harris-Foulkes estimate   =   -1933.78585857 Ry
     estimated scf accuracy    <       0.12697621 Ry

     iteration #  2     ecut=    70.00 Ry     beta= 0.35
     Davidson diagonalization with overlap
     ethr =  3.02E-04,  avg # of iterations =  2.1

     total cpu time spent up to now is      184.8 secs

     total energy              =   -1933.74520417 Ry
     Harris-Foulkes estimate   =   -1933.75172315 Ry
     estimated scf accuracy    <       0.02252030 Ry

     iteration #  3     ecut=    70.00 Ry     beta= 0.35
     Davidson diagonalization with overlap
     ethr =  5.36E-05,  avg # of iterations =  2.0

     total cpu time spent up to now is      239.9 secs

     total energy              =   -1933.74527570 Ry
     Harris-Foulkes estimate   =   -1933.74685535 Ry
     estimated scf accuracy    <       0.00535002 Ry

     iteration #  4     ecut=    70.00 Ry     beta= 0.35
     Davidson diagonalization with overlap
     ethr =  1.27E-05,  avg # of iterations =  2.6

     total cpu time spent up to now is      302.9 secs

     total energy              =   -1933.74561563 Ry
     Harris-Foulkes estimate   =   -1933.74593531 Ry
     estimated scf accuracy    <       0.00073416 Ry

     iteration #  5     ecut=    70.00 Ry     beta= 0.35
     Davidson diagonalization with overlap
     ethr =  1.75E-06,  avg # of iterations =  3.0

     total cpu time spent up to now is      369.1 secs

     total energy              =   -1933.74575430 Ry
     Harris-Foulkes estimate   =   -1933.74595043 Ry
     estimated scf accuracy    <       0.00046734 Ry

     iteration #  6     ecut=    70.00 Ry     beta= 0.35
     Davidson diagonalization with overlap
     ethr =  1.11E-06,  avg # of iterations =  2.0

     total cpu time spent up to now is      425.4 secs

     total energy              =   -1933.74583079 Ry
     Harris-Foulkes estimate   =   -1933.74583190 Ry
     estimated scf accuracy    <       0.00000700 Ry

     iteration #  7     ecut=    70.00 Ry     beta= 0.35
     Davidson diagonalization with overlap
     ethr =  1.67E-08,  avg # of iterations =  4.0

     total cpu time spent up to now is      503.5 secs

     total energy              =   -1933.74583480 Ry
     Harris-Foulkes estimate   =   -1933.74583576 Ry
     estimated scf accuracy    <       0.00000234 Ry

     iteration #  8     ecut=    70.00 Ry     beta= 0.35
     Davidson diagonalization with overlap
     ethr =  5.58E-09,  avg # of iterations =  2.0

     total cpu time spent up to now is      559.2 secs

     total energy              =   -1933.74583466 Ry
     Harris-Foulkes estimate   =   -1933.74583531 Ry
     estimated scf accuracy    <       0.00000130 Ry

     iteration #  9     ecut=    70.00 Ry     beta= 0.35
     Davidson diagonalization with overlap
     ethr =  3.09E-09,  avg # of iterations =  3.0

     total cpu time spent up to now is      619.1 secs

     End of self-consistent calculation

          k = 0.0714 0.0714 0.0714 ( 19918 PWs)   bands (ev):

   -21.8004 -21.8004 -21.8004 -21.8003 -20.7877 -20.7877 -20.7502 -20.7502
   -20.7502 -20.7502 -11.9245 -11.9245 -11.2110 -11.2110 -11.2030 -11.2030
   -11.2015 -11.2014  -6.3664  -6.3664  -2.6926  -2.6926  -2.6881  -2.6830
    -2.5045  -2.5045  -1.4153  -1.4153  -1.3930  -1.3637  -1.0344  -1.0344
    -0.9405  -0.9405  -0.3900  -0.3755  -0.3452  -0.3452  -0.0747  -0.0747
    -0.0158   0.0012

     occupation numbers 
     1.0000   1.0000   1.0000   1.0000   1.0000   1.0000   1.0000   1.0000
     1.0000   1.0000   1.0000   1.0000   1.0000   1.0000   1.0000   1.0000
     1.0000   1.0000   1.0000   1.0000   1.0000   1.0000   1.0000   1.0000
     1.0000   1.0000   1.0000   1.0000   1.0000   1.0000   1.0000   1.0000
     1.0000   1.0000   1.0000   1.0000   1.0000   1.0000   1.0000   1.0000
     1.0000   1.0000

          k = 0.0714 0.0714 0.2143 ( 19944 PWs)   bands (ev):

   -21.8004 -21.8004 -21.8004 -21.8004 -20.7878 -20.7878 -20.7502 -20.7502
   -20.7502 -20.7502 -11.9071 -11.9071 -11.2307 -11.2296 -11.2072 -11.2060
   -11.2015 -11.2013  -6.3485  -6.3481  -2.7376  -2.7210  -2.6886  -2.6880
    -2.5362  -2.5121  -1.4188  -1.4098  -1.3357  -1.2951  -1.0796  -1.0320
    -0.9452  -0.9116  -0.4497  -0.4260  -0.3416  -0.3362  -0.1923  -0.1800
    -0.0426  -0.0207

     occupation numbers 
     1.0000   1.0000   1.0000   1.0000   1.0000   1.0000   1.0000   1.0000
     1.0000   1.0000   1.0000   1.0000   1.0000   1.0000   1.0000   1.0000
     1.0000   1.0000   1.0000   1.0000   1.0000   1.0000   1.0000   1.0000
     1.0000   1.0000   1.0000   1.0000   1.0000   1.0000   1.0000   1.0000
     1.0000   1.0000   1.0000   1.0000   1.0000   1.0000   1.0000   1.0000
     1.0000   1.0000

          k = 0.0714 0.0714 0.3571 ( 19953 PWs)   bands (ev):

   -21.8004 -21.8004 -21.8004 -21.8004 -20.7878 -20.7878 -20.7502 -20.7502
   -20.7502 -20.7502 -11.8837 -11.8837 -11.2617 -11.2605 -11.2069 -11.2057
   -11.2008 -11.2006  -6.3259  -6.3251  -2.7928  -2.7604  -2.6951  -2.6838
    -2.5740  -2.5222  -1.4191  -1.3960  -1.2422  -1.2214  -1.0761  -1.0124
    -0.9863  -0.9187  -0.5124  -0.5112  -0.4086  -0.3492  -0.2522  -0.2262
    -0.1027  -0.0815

     occupation numbers 
     1.0000   1.0000   1.0000   1.0000   1.0000   1.0000   1.0000   1.0000
     1.0000   1.0000   1.0000   1.0000   1.0000   1.0000   1.0000   1.0000
     1.0000   1.0000   1.0000   1.0000   1.0000   1.0000   1.0000   1.0000
     1.0000   1.0000   1.0000   1.0000   1.0000   1.0000   1.0000   1.0000
     1.0000   1.0000   1.0000   1.0000   1.0000   1.0000   1.0000   1.0000
     1.0000   1.0000

          k = 0.0714 0.0714-0.5000 ( 19972 PWs)   bands (ev):

   -21.8004 -21.8004 -21.8004 -21.8004 -20.7878 -20.7878 -20.7502 -20.7502
   -20.7502 -20.7502 -11.8725 -11.8725 -11.2763 -11.2752 -11.2067 -11.2054
   -11.2005 -11.2003  -6.3158  -6.3147  -2.8168  -2.7784  -2.6981  -2.6809
    -2.5910  -2.5268  -1.4184  -1.3951  -1.1718  -1.1676  -1.0805  -1.0464
    -0.9853  -0.9240  -0.5655  -0.5247  -0.4827  -0.3746  -0.2267  -0.1839
    -0.1665  -0.1293

     occupation numbers 
     1.0000   1.0000   1.0000   1.0000   1.0000   1.0000   1.0000   1.0000
     1.0000   1.0000   1.0000   1.0000   1.0000   1.0000   1.0000   1.0000
     1.0000   1.0000   1.0000   1.0000   1.0000   1.0000   1.0000   1.0000
     1.0000   1.0000   1.0000   1.0000   1.0000   1.0000   1.0000   1.0000
     1.0000   1.0000   1.0000   1.0000   1.0000   1.0000   1.0000   1.0000
     1.0000   1.0000

          k = 0.0714 0.2143 0.2143 ( 19935 PWs)   bands (ev):

   -21.8004 -21.8004 -21.8004 -21.8004 -20.7877 -20.7877 -20.7502 -20.7502
   -20.7502 -20.7502 -11.8911 -11.8911 -11.2340 -11.2315 -11.2213 -11.2205
   -11.2056 -11.2037  -6.3368  -6.3359  -2.7775  -2.7430  -2.7093  -2.6946
    -2.5569  -2.5127  -1.4742  -1.4472  -1.2672  -1.2018  -1.0828  -1.0066
    -0.9351  -0.8835  -0.5024  -0.4618  -0.3630  -0.3055  -0.2814  -0.2353
    -0.0478  -0.0126

     occupation numbers 
     1.0000   1.0000   1.0000   1.0000   1.0000   1.0000   1.0000   1.0000
     1.0000   1.0000   1.0000   1.0000   1.0000   1.0000   1.0000   1.0000
     1.0000   1.0000   1.0000   1.0000   1.0000   1.0000   1.0000   1.0000
     1.0000   1.0000   1.0000   1.0000   1.0000   1.0000   1.0000   1.0000
     1.0000   1.0000   1.0000   1.0000   1.0000   1.0000   1.0000   1.0000
     1.0000   1.0000

          k = 0.0714 0.2143 0.3571 ( 19983 PWs)   bands (ev):

   -21.8004 -21.8004 -21.8004 -21.8004 -20.7878 -20.7878 -20.7502 -20.7502
   -20.7502 -20.7502 -11.8696 -11.8696 -11.2576 -11.2552 -11.2229 -11.2210
   -11.2078 -11.2056  -6.3221  -6.3206  -2.8305  -2.7832  -2.7178  -2.6943
    -2.5864  -2.5153  -1.5069  -1.4850  -1.1807  -1.1201  -1.0471  -1.0132
    -0.8982  -0.8660  -0.5543  -0.5296  -0.4529  -0.3648  -0.2491  -0.2195
    -0.0933  -0.0470

     occupation numbers 
     1.0000   1.0000   1.0000   1.0000   1.0000   1.0000   1.0000   1.0000
     1.0000   1.0000   1.0000   1.0000   1.0000   1.0000   1.0000   1.0000
     1.0000   1.0000   1.0000   1.0000   1.0000   1.0000   1.0000   1.0000
     1.0000   1.0000   1.0000   1.0000   1.0000   1.0000   1.0000   1.0000
     1.0000   1.0000   1.0000   1.0000   1.0000   1.0000   1.0000   1.0000
     1.0000   1.0000

          k = 0.0714 0.2143-0.5000 ( 19930 PWs)   bands (ev):

   -21.8004 -21.8004 -21.8003 -21.8003 -20.7878 -20.7877 -20.7502 -20.7502
   -20.7502 -20.7502 -11.8594 -11.8594 -11.2704 -11.2681 -11.2212 -11.2198
   -11.2086 -11.2070  -6.3155  -6.3137  -2.8538  -2.8009  -2.7217  -2.6914
    -2.6013  -2.5166  -1.5158  -1.5030  -1.1238  -1.1000  -1.0323  -1.0079
    -0.8834  -0.8543  -0.5864  -0.5565  -0.5229  -0.3705  -0.2283  -0.1691
    -0.1494  -0.0790

     occupation numbers 
     1.0000   1.0000   1.0000   1.0000   1.0000   1.0000   1.0000   1.0000
     1.0000   1.0000   1.0000   1.0000   1.0000   1.0000   1.0000   1.0000
     1.0000   1.0000   1.0000   1.0000   1.0000   1.0000   1.0000   1.0000
     1.0000   1.0000   1.0000   1.0000   1.0000   1.0000   1.0000   1.0000
     1.0000   1.0000   1.0000   1.0000   1.0000   1.0000   1.0000   1.0000
     1.0000   1.0000

          k = 0.0714 0.3571 0.3571 ( 19951 PWs)   bands (ev):

   -21.8004 -21.8004 -21.8004 -21.8004 -20.7878 -20.7878 -20.7502 -20.7502
   -20.7502 -20.7502 -11.8509 -11.8509 -11.2540 -11.2506 -11.2421 -11.2413
   -11.2146 -11.2118  -6.3169  -6.3153  -2.8703  -2.8339  -2.7287  -2.7042
    -2.5839  -2.5256  -1.5670  -1.5596  -1.1206  -1.0792  -1.0049  -1.0036
    -0.7986  -0.7722  -0.5900  -0.5577  -0.4804  -0.4741  -0.2126  -0.1713
    -0.0991  -0.0331

     occupation numbers 
     1.0000   1.0000   1.0000   1.0000   1.0000   1.0000   1.0000   1.0000
     1.0000   1.0000   1.0000   1.0000   1.0000   1.0000   1.0000   1.0000
     1.0000   1.0000   1.0000   1.0000   1.0000   1.0000   1.0000   1.0000
     1.0000   1.0000   1.0000   1.0000   1.0000   1.0000   1.0000   1.0000
     1.0000   1.0000   1.0000   1.0000   1.0000   1.0000   1.0000   1.0000
     1.0000   1.0000

          k = 0.0714 0.3571-0.5000 ( 19936 PWs)   bands (ev):

   -21.8004 -21.8004 -21.8004 -21.8003 -20.7878 -20.7878 -20.7502 -20.7502
   -20.7502 -20.7502 -11.8421 -11.8421 -11.2604 -11.2575 -11.2420 -11.2407
   -11.2183 -11.2161  -6.3145  -6.3131  -2.8871  -2.8571  -2.7309  -2.7091
    -2.5816  -2.5320  -1.5877  -1.5875  -1.0941  -1.0849  -0.9877  -0.9808
    -0.7466  -0.7172  -0.5987  -0.5786  -0.5642  -0.4668  -0.1965  -0.1529
    -0.0979  -0.0388

     occupation numbers 
     1.0000   1.0000   1.0000   1.0000   1.0000   1.0000   1.0000   1.0000
     1.0000   1.0000   1.0000   1.0000   1.0000   1.0000   1.0000   1.0000
     1.0000   1.0000   1.0000   1.0000   1.0000   1.0000   1.0000   1.0000
     1.0000   1.0000   1.0000   1.0000   1.0000   1.0000   1.0000   1.0000
     1.0000   1.0000   1.0000   1.0000   1.0000   1.0000   1.0000   1.0000
     1.0000   1.0000

          k = 0.0714-0.5000-0.5000 ( 19964 PWs)   bands (ev):

   -21.8004 -21.8004 -21.8004 -21.8004 -20.7878 -20.7878 -20.7502 -20.7502
   -20.7502 -20.7502 -11.8340 -11.8340 -11.2547 -11.2547 -11.2488 -11.2488
   -11.2234 -11.2234  -6.3134  -6.3134  -2.8919  -2.8919  -2.7249  -2.7249
    -2.5562  -2.5562  -1.6153  -1.6153  -1.0844  -1.0844  -0.9700  -0.9700
    -0.6518  -0.6518  -0.5925  -0.5925  -0.5674  -0.5674  -0.1702  -0.1702
    -0.0432  -0.0432

     occupation numbers 
     1.0000   1.0000   1.0000   1.0000   1.0000   1.0000   1.0000   1.0000
     1.0000   1.0000   1.0000   1.0000   1.0000   1.0000   1.0000   1.0000
     1.0000   1.0000   1.0000   1.0000   1.0000   1.0000   1.0000   1.0000
     1.0000   1.0000   1.0000   1.0000   1.0000   1.0000   1.0000   1.0000
     1.0000   1.0000   1.0000   1.0000   1.0000   1.0000   1.0000   1.0000
     1.0000   1.0000

          k = 0.2143 0.2143 0.2143 ( 19966 PWs)   bands (ev):

   -21.8004 -21.8004 -21.8004 -21.8004 -20.7878 -20.7878 -20.7502 -20.7502
   -20.7502 -20.7502 -11.8765 -11.8765 -11.2359 -11.2359 -11.2222 -11.2222
   -11.2179 -11.2177  -6.3308  -6.3308  -2.7750  -2.7750  -2.7361  -2.7290
    -2.5449  -2.5449  -1.5268  -1.5268  -1.1775  -1.1077  -1.0092  -1.0092
    -0.8905  -0.8905  -0.5313  -0.4969  -0.3813  -0.3813  -0.2389  -0.2389
    -0.0387   0.0010

     occupation numbers 
     1.0000   1.0000   1.0000   1.0000   1.0000   1.0000   1.0000   1.0000
     1.0000   1.0000   1.0000   1.0000   1.0000   1.0000   1.0000   1.0000
     1.0000   1.0000   1.0000   1.0000   1.0000   1.0000   1.0000   1.0000
     1.0000   1.0000   1.0000   1.0000   1.0000   1.0000   1.0000   1.0000
     1.0000   1.0000   1.0000   1.0000   1.0000   1.0000   1.0000   1.0000
     1.0000   1.0000

          k = 0.2143 0.2143 0.3571 ( 19954 PWs)   bands (ev):

   -21.8004 -21.8004 -21.8004 -21.8004 -20.7878 -20.7878 -20.7502 -20.7502
   -20.7502 -20.7502 -11.8570 -11.8570 -11.2550 -11.2519 -11.2288 -11.2252
   -11.2191 -11.2184  -6.3244  -6.3234  -2.8294  -2.7962  -2.7485  -2.7421
    -2.5851  -2.5370  -1.5774  -1.5759  -1.0800  -1.0203  -0.9829  -0.9589
    -0.8682  -0.8611  -0.5617  -0.5463  -0.4697  -0.4143  -0.1988  -0.1847
    -0.0676  -0.0197

     occupation numbers 
     1.0000   1.0000   1.0000   1.0000   1.0000   1.0000   1.0000   1.0000
     1.0000   1.0000   1.0000   1.0000   1.0000   1.0000   1.0000   1.0000
     1.0000   1.0000   1.0000   1.0000   1.0000   1.0000   1.0000   1.0000
     1.0000   1.0000   1.0000   1.0000   1.0000   1.0000   1.0000   1.0000
     1.0000   1.0000   1.0000   1.0000   1.0000   1.0000   1.0000   1.0000
     1.0000   1.0000

          k = 0.2143 0.2143-0.5000 ( 19972 PWs)   bands (ev):

   -21.8004 -21.8004 -21.8004 -21.8004 -20.7878 -20.7878 -20.7502 -20.7502
   -20.7502 -20.7502 -11.8478 -11.8478 -11.2659 -11.2627 -11.2291 -11.2254
   -11.2188 -11.2181  -6.3216  -6.3200  -2.8531  -2.8113  -2.7564  -2.7380
    -2.6029  -2.5339  -1.5959  -1.5930  -1.0469  -0.9838  -0.9538  -0.9210
    -0.8715  -0.8561  -0.5828  -0.5689  -0.5163  -0.4110  -0.1716  -0.1409
    -0.1107  -0.0458

     occupation numbers 
     1.0000   1.0000   1.0000   1.0000   1.0000   1.0000   1.0000   1.0000
     1.0000   1.0000   1.0000   1.0000   1.0000   1.0000   1.0000   1.0000
     1.0000   1.0000   1.0000   1.0000   1.0000   1.0000   1.0000   1.0000
     1.0000   1.0000   1.0000   1.0000   1.0000   1.0000   1.0000   1.0000
     1.0000   1.0000   1.0000   1.0000   1.0000   1.0000   1.0000   1.0000
     1.0000   1.0000

          k = 0.2143 0.3571 0.3571 ( 19937 PWs)   bands (ev):

   -21.8004 -21.8004 -21.8003 -21.8003 -20.7878 -20.7878 -20.7502 -20.7502
   -20.7502 -20.7502 -11.8404 -11.8403 -11.2532 -11.2504 -11.2415 -11.2406
   -11.2260 -11.2239  -6.3274  -6.3266  -2.8526  -2.8291  -2.7747  -2.7654
    -2.5893  -2.5596  -1.6387  -1.6347  -0.9928  -0.9780  -0.9326  -0.9000
    -0.8329  -0.7637  -0.5666  -0.5498  -0.4926  -0.4879  -0.1433  -0.1256
    -0.0598  -0.0048

     occupation numbers 
     1.0000   1.0000   1.0000   1.0000   1.0000   1.0000   1.0000   1.0000
     1.0000   1.0000   1.0000   1.0000   1.0000   1.0000   1.0000   1.0000
     1.0000   1.0000   1.0000   1.0000   1.0000   1.0000   1.0000   1.0000
     1.0000   1.0000   1.0000   1.0000   1.0000   1.0000   1.0000   1.0000
     1.0000   1.0000   1.0000   1.0000   1.0000   1.0000   1.0000   1.0000
     1.0000   1.0000

          k = 0.2143 0.3571-0.5000 ( 19958 PWs)   bands (ev):

   -21.8004 -21.8004 -21.8004 -21.8004 -20.7878 -20.7878 -20.7502 -20.7502
   -20.7502 -20.7502 -11.8326 -11.8326 -11.2586 -11.2547 -11.2442 -11.2409
   -11.2282 -11.2264  -6.3288  -6.3279  -2.8697  -2.8480  -2.7817  -2.7691
    -2.5959  -2.5633  -1.6604  -1.6536  -0.9918  -0.9202  -0.9152  -0.8994
    -0.7861  -0.7298  -0.5666  -0.5618  -0.5284  -0.4832  -0.1183  -0.0968
    -0.0624  -0.0096

     occupation numbers 
     1.0000   1.0000   1.0000   1.0000   1.0000   1.0000   1.0000   1.0000
     1.0000   1.0000   1.0000   1.0000   1.0000   1.0000   1.0000   1.0000
     1.0000   1.0000   1.0000   1.0000   1.0000   1.0000   1.0000   1.0000
     1.0000   1.0000   1.0000   1.0000   1.0000   1.0000   1.0000   1.0000
     1.0000   1.0000   1.0000   1.0000   1.0000   1.0000   1.0000   1.0000
     1.0000   1.0000

          k = 0.2143-0.5000-0.5000 ( 19948 PWs)   bands (ev):

   -21.8004 -21.8004 -21.8004 -21.8004 -20.7878 -20.7878 -20.7502 -20.7502
   -20.7502 -20.7502 -11.8255 -11.8255 -11.2541 -11.2541 -11.2480 -11.2480
   -11.2320 -11.2320  -6.3317  -6.3317  -2.8764  -2.8764  -2.7824  -2.7824
    -2.5836  -2.5836  -1.6776  -1.6776  -0.9415  -0.9415  -0.9022  -0.9022
    -0.6917  -0.6917  -0.5549  -0.5549  -0.5319  -0.5319  -0.0950  -0.0950
    -0.0117  -0.0117

     occupation numbers 
     1.0000   1.0000   1.0000   1.0000   1.0000   1.0000   1.0000   1.0000
     1.0000   1.0000   1.0000   1.0000   1.0000   1.0000   1.0000   1.0000
     1.0000   1.0000   1.0000   1.0000   1.0000   1.0000   1.0000   1.0000
     1.0000   1.0000   1.0000   1.0000   1.0000   1.0000   1.0000   1.0000
     1.0000   1.0000   1.0000   1.0000   1.0000   1.0000   1.0000   1.0000
     1.0000   1.0000

          k = 0.3571 0.3571 0.3571 ( 19967 PWs)   bands (ev):

   -21.8004 -21.8004 -21.8004 -21.8004 -20.7878 -20.7878 -20.7502 -20.7502
   -20.7502 -20.7502 -11.8266 -11.8266 -11.2523 -11.2523 -11.2417 -11.2417
   -11.2379 -11.2377  -6.3404  -6.3404  -2.8412  -2.8412  -2.8234  -2.8210
    -2.5969  -2.5969  -1.6865  -1.6865  -0.8888  -0.8888  -0.8781  -0.8396
    -0.7456  -0.7456  -0.5440  -0.5377  -0.5095  -0.5095  -0.0621  -0.0621
    -0.0232   0.0239

     occupation numbers 
     1.0000   1.0000   1.0000   1.0000   1.0000   1.0000   1.0000   1.0000
     1.0000   1.0000   1.0000   1.0000   1.0000   1.0000   1.0000   1.0000
     1.0000   1.0000   1.0000   1.0000   1.0000   1.0000   1.0000   1.0000
     1.0000   1.0000   1.0000   1.0000   1.0000   1.0000   1.0000   1.0000
     1.0000   1.0000   1.0000   1.0000   1.0000   1.0000   1.0000   1.0000
     1.0000   1.0000

          k = 0.3571 0.3571-0.5000 ( 19962 PWs)   bands (ev):

   -21.8004 -21.8004 -21.8004 -21.8004 -20.7878 -20.7878 -20.7502 -20.7502
   -20.7502 -20.7502 -11.8202 -11.8202 -11.2557 -11.2518 -11.2477 -11.2434
   -11.2392 -11.2386  -6.3464  -6.3460  -2.8607  -2.8533  -2.8328  -2.8298
    -2.6107  -2.5987  -1.7034  -1.6989  -0.9001  -0.8317  -0.8133  -0.8103
    -0.7513  -0.7185  -0.5375  -0.5302  -0.5115  -0.5094  -0.0302  -0.0220
    -0.0148   0.0288

     occupation numbers 
     1.0000   1.0000   1.0000   1.0000   1.0000   1.0000   1.0000   1.0000
     1.0000   1.0000   1.0000   1.0000   1.0000   1.0000   1.0000   1.0000
     1.0000   1.0000   1.0000   1.0000   1.0000   1.0000   1.0000   1.0000
     1.0000   1.0000   1.0000   1.0000   1.0000   1.0000   1.0000   1.0000
     1.0000   1.0000   1.0000   1.0000   1.0000   1.0000   1.0000   1.0000
     1.0000   1.0000

          k = 0.3571-0.5000-0.5000 ( 19992 PWs)   bands (ev):

   -21.8004 -21.8004 -21.8004 -21.8004 -20.7878 -20.7878 -20.7502 -20.7502
   -20.7502 -20.7502 -11.8145 -11.8145 -11.2540 -11.2540 -11.2470 -11.2470
   -11.2425 -11.2425  -6.3540  -6.3540  -2.8692  -2.8692  -2.8451  -2.8451
    -2.6135  -2.6135  -1.7127  -1.7127  -0.8352  -0.8352  -0.7888  -0.7888
    -0.7027  -0.7027  -0.5260  -0.5260  -0.5057  -0.5057   0.0016   0.0016
     0.0342   0.0342

     occupation numbers 
     1.0000   1.0000   1.0000   1.0000   1.0000   1.0000   1.0000   1.0000
     1.0000   1.0000   1.0000   1.0000   1.0000   1.0000   1.0000   1.0000
     1.0000   1.0000   1.0000   1.0000   1.0000   1.0000   1.0000   1.0000
     1.0000   1.0000   1.0000   1.0000   1.0000   1.0000   1.0000   1.0000
     1.0000   1.0000   1.0000   1.0000   1.0000   1.0000   1.0000   1.0000
     1.0000   1.0000

          k =-0.5000-0.5000-0.5000 ( 19952 PWs)   bands (ev):

   -21.8004 -21.8004 -21.8004 -21.8004 -20.7878 -20.7878 -20.7502 -20.7502
   -20.7502 -20.7502 -11.8094 -11.8094 -11.2548 -11.2548 -11.2465 -11.2465
   -11.2465 -11.2465  -6.3638  -6.3638  -2.8707  -2.8707  -2.8707  -2.8707
    -2.6242  -2.6242  -1.7197  -1.7197  -0.7652  -0.7652  -0.7652  -0.7652
    -0.7119  -0.7119  -0.5023  -0.5023  -0.5023  -0.5023   0.0509   0.0509
     0.0509   0.0509

     occupation numbers 
     1.0000   1.0000   1.0000   1.0000   1.0000   1.0000   1.0000   1.0000
     1.0000   1.0000   1.0000   1.0000   1.0000   1.0000   1.0000   1.0000
     1.0000   1.0000   1.0000   1.0000   1.0000   1.0000   1.0000   1.0000
     1.0000   1.0000   1.0000   1.0000   1.0000   1.0000   1.0000   1.0000
     1.0000   1.0000   1.0000   1.0000   1.0000   1.0000   1.0000   1.0000
     1.0000   1.0000

     highest occupied level (ev):     0.0509

!    total energy              =   -1933.74583496 Ry
     Harris-Foulkes estimate   =   -1933.74583507 Ry
     estimated scf accuracy    <       0.00000014 Ry

     total all-electron energy =    -69281.863099 Ry

     The total energy is the sum of the following terms:

     one-electron contribution =    -155.34139220 Ry
     hartree contribution      =      94.82815110 Ry
     xc contribution           =    -110.25323898 Ry
     ewald contribution        =    -119.43299744 Ry
     one-center paw contrib.   =   -1643.54635743 Ry
      -> PAW hartree energy AE =     109.93097602 Ry
      -> PAW hartree energy PS =    -109.18110706 Ry
      -> PAW xc energy AE      =    -324.42055651 Ry
      -> PAW xc energy PS      =      46.78672401 Ry
      -> total E_H with PAW    =      95.57802005 Ry
      -> total E_XC with PAW   =    -387.88707148 Ry

     convergence has been achieved in   9 iterations

     Forces acting on atoms (cartesian axes, Ry/au):

     atom    1 type  1   force =     0.00000000    0.00000000    0.00000000
     atom    2 type  2   force =    -0.00379319    0.00379319    0.00379319
     atom    3 type  2   force =     0.00379319   -0.00379319    0.00379319
     atom    4 type  2   force =     0.00379319    0.00379319   -0.00379319
     atom    5 type  2   force =    -0.00379319   -0.00379319   -0.00379319
     The non-local contrib.  to forces
     atom    1 type  1   force =     0.00000000    0.00000000    0.00000000
     atom    2 type  2   force =    -0.08594650    0.08594650    0.08594650
     atom    3 type  2   force =     0.08594650   -0.08594650    0.08594650
     atom    4 type  2   force =     0.08594650    0.08594650   -0.08594650
     atom    5 type  2   force =    -0.08594650   -0.08594650   -0.08594650
     The ionic contribution  to forces
     atom    1 type  1   force =     0.00000000    0.00000000   -0.00000000
     atom    2 type  2   force =     3.79412126   -3.79412126   -3.79412126
     atom    3 type  2   force =    -3.79412126    3.79412126   -3.79412126
     atom    4 type  2   force =    -3.79412126   -3.79412126    3.79412126
     atom    5 type  2   force =     3.79412126    3.79412126    3.79412126
     The local contribution  to forces
     atom    1 type  1   force =     0.00000000    0.00000000   -0.00000000
     atom    2 type  2   force =    -3.71971415    3.71971415    3.71971415
     atom    3 type  2   force =     3.71971415   -3.71971415    3.71971415
     atom    4 type  2   force =     3.71971415    3.71971415   -3.71971415
     atom    5 type  2   force =    -3.71971415   -3.71971415   -3.71971415
     The core correction contribution to forces
     atom    1 type  1   force =     0.00000000    0.00000000    0.00000000
     atom    2 type  2   force =     0.00751518   -0.00751518   -0.00751518
     atom    3 type  2   force =    -0.00751518    0.00751518   -0.00751518
     atom    4 type  2   force =    -0.00751518   -0.00751518    0.00751518
     atom    5 type  2   force =     0.00751518    0.00751518    0.00751518
     The Hubbard contrib.    to forces
     atom    1 type  1   force =     0.00000000    0.00000000    0.00000000
     atom    2 type  2   force =     0.00000000    0.00000000    0.00000000
     atom    3 type  2   force =     0.00000000    0.00000000    0.00000000
     atom    4 type  2   force =     0.00000000    0.00000000    0.00000000
     atom    5 type  2   force =     0.00000000    0.00000000    0.00000000
     The SCF correction term to forces
     atom    1 type  1   force =    -0.00000000   -0.00000000   -0.00000000
     atom    2 type  2   force =     0.00023101   -0.00023101   -0.00023101
     atom    3 type  2   force =    -0.00023101    0.00023101   -0.00023101
     atom    4 type  2   force =    -0.00023101   -0.00023101    0.00023101
     atom    5 type  2   force =     0.00023101    0.00023101    0.00023101

     Total force =     0.013140     Total SCF correction =     0.000800


     Computing stress (Cartesian axis) and pressure

     Message from routine stres:
     noncollinear stress + GGA not implemented

     Writing output data file CsIsalt.save/
 
     init_run     :     17.29s CPU     21.47s WALL (       1 calls)
     electrons    :    484.85s CPU    592.68s WALL (       1 calls)
     forces       :      3.28s CPU      4.12s WALL (       1 calls)

     Called by init_run:
     wfcinit      :     15.00s CPU     18.62s WALL (       1 calls)
     wfcinit:atom :      0.02s CPU      0.02s WALL (      20 calls)
     wfcinit:wfcr :     14.87s CPU     18.45s WALL (      20 calls)
     potinit      :      0.89s CPU      1.10s WALL (       1 calls)
     hinit0       :      0.53s CPU      0.65s WALL (       1 calls)

     Called by electrons:
     c_bands      :    374.54s CPU    461.15s WALL (      10 calls)
     sum_band     :     97.89s CPU    116.14s WALL (      10 calls)
     v_of_rho     :      1.56s CPU      1.80s WALL (      10 calls)
     v_h          :      0.02s CPU      0.03s WALL (      10 calls)
     v_xc         :      1.74s CPU      1.99s WALL (      11 calls)
     newd         :      5.28s CPU      6.80s WALL (      10 calls)
     PAW_pot      :      2.70s CPU      3.23s WALL (      10 calls)
     mix_rho      :      1.12s CPU      1.39s WALL (      10 calls)

     Called by c_bands:
     init_us_2    :      1.01s CPU      1.72s WALL (     440 calls)
     cegterg      :    363.24s CPU    448.35s WALL (     200 calls)

     Called by sum_band:
     sum_band:bec :      1.91s CPU      2.61s WALL (     200 calls)
     addusdens    :      3.53s CPU      4.60s WALL (      10 calls)

     Called by *egterg:
     h_psi        :    262.12s CPU    308.77s WALL (     698 calls)
     s_psi        :      2.50s CPU      3.02s WALL (     698 calls)
     g_psi        :      0.12s CPU      0.12s WALL (     478 calls)
     cdiaghg      :     22.74s CPU     30.06s WALL (     658 calls)
     cegterg:over :     31.51s CPU     43.13s WALL (     478 calls)
     cegterg:upda :     31.02s CPU     42.02s WALL (     478 calls)
     cegterg:last :      8.26s CPU     11.99s WALL (     200 calls)
     cdiaghg:chol :      1.93s CPU      2.19s WALL (     658 calls)
     cdiaghg:inve :      0.74s CPU      0.87s WALL (     658 calls)
     cdiaghg:para :      8.18s CPU     10.87s WALL (    1316 calls)

     Called by h_psi:
     h_psi:pot    :    261.78s CPU    308.35s WALL (     698 calls)
     h_psi:calbec :      4.40s CPU      5.32s WALL (     698 calls)
     vloc_psi     :    254.55s CPU    299.50s WALL (     698 calls)
     add_vuspsi   :      2.82s CPU      3.53s WALL (     698 calls)

     General routines
     calbec       :      7.61s CPU      9.18s WALL (     978 calls)
     fft          :      3.71s CPU      4.63s WALL (     221 calls)
     ffts         :      2.28s CPU      2.63s WALL (      80 calls)
     fftw         :    336.65s CPU    396.28s WALL (  108288 calls)
     interpolate  :      1.86s CPU      2.35s WALL (      40 calls)
 
     Parallel routines
     fft_scatt_xy :      2.39s CPU      3.66s WALL (  108589 calls)
     fft_scatt_yz :    326.48s CPU    380.26s WALL (  108589 calls)

     PAW routines
     PAW_pot      :      2.70s CPU      3.23s WALL (      10 calls)
     PAW_symme    :      0.20s CPU      0.23s WALL (      20 calls)
 
     PWSCF        :   8m32.57s CPU  10m27.76s WALL

 
   This run was terminated on:  20:26:26  24Jan2021            

=------------------------------------------------------------------------------=
   JOB DONE.
=------------------------------------------------------------------------------=
