
     Program PWSCF v.6.6 starts on 14Jan2021 at 18:30:52 

     This program is part of the open-source Quantum ESPRESSO suite
     for quantum simulation of materials; please cite
         "P. Giannozzi et al., J. Phys.:Condens. Matter 21 395502 (2009);
         "P. Giannozzi et al., J. Phys.:Condens. Matter 29 465901 (2017);
          URL http://www.quantum-espresso.org", 
     in publications or presentations arising from this work. More details at
     http://www.quantum-espresso.org/quote

     Parallel version (MPI), running on    64 processors

     MPI processes distributed on     2 nodes
     R & G space division:  proc/nbgrp/npool/nimage =      64
     Fft bands division:     nmany     =       1
     Waiting for input...
     Reading input from standard input

     Current dimensions of program PWSCF are:
     Max number of different atomic species (ntypx) = 10
     Max number of k-points (npk) =  40000
     Max angular momentum in pseudopotentials (lmaxx) =  3

     File ./CsSnI3.bfgs deleted, as requested
     file Cs.pbe-spn-kjpaw_psl.1.0.0.UPF: wavefunction(s)  5S 6S renormalized
     file Sn.pbe-dn-kjpaw_psl.1.0.0.UPF: wavefunction(s)  5S 5P 4D renormalized
     file I.pbe-n-kjpaw_psl.1.0.0.UPF: wavefunction(s)  5S renormalized

     Subspace diagonalization in iterative solution of the eigenvalue problem:
     a serial algorithm will be used

 
     Parallelization info
     --------------------
     sticks:   dense  smooth     PW     G-vecs:    dense   smooth      PW
     Min          97      64     17                14461     7868    1121
     Max          98      65     18                14477     7883    1136
     Sum        6211    4145   1133               925941   504115   72215
 

     Title: 
     CsSnI3                                                                     


     bravais-lattice index     =            8
     lattice parameter (alat)  =       9.1317  a.u.
     unit-cell volume          =    6370.5385 (a.u.)^3
     number of atoms/cell      =           20
     number of atomic types    =            3
     number of electrons       =       176.00
     number of Kohn-Sham states=           88
     kinetic-energy cutoff     =      70.0000  Ry
     charge density cutoff     =     420.0000  Ry
     convergence threshold     =      1.0E-07
     mixing beta               =       0.6000
     number of iterations used =            8  plain     mixing
     Exchange-correlation= SLA PW PBX PBC
                           (   1   4   3   4   0   0   0)
     nstep                     =           50


     celldm(1)=   9.131705  celldm(2)=   2.227728  celldm(3)=   3.755420
     celldm(4)=   0.000000  celldm(5)=   0.000000  celldm(6)=   0.000000

     crystal axes: (cart. coord. in units of alat)
               a(1) = (   1.000000   0.000000   0.000000 )  
               a(2) = (   0.000000   2.227728   0.000000 )  
               a(3) = (   0.000000   0.000000   3.755420 )  

     reciprocal axes: (cart. coord. in units 2 pi/alat)
               b(1) = (  1.000000  0.000000  0.000000 )  
               b(2) = (  0.000000  0.448888  0.000000 )  
               b(3) = (  0.000000  0.000000  0.266282 )  


     PseudoPot. # 1 for Cs read from file:
     /scratch/gtenti/degironcoli/pseudo/Cs.pbe-spn-kjpaw_psl.1.0.0.UPF
     MD5 check sum: b82c75cc2e1f4ff73b6412cffeb9c584
     Pseudo is Projector augmented-wave + core cor, Zval =  9.0
     Generated using "atomic" code by A. Dal Corso v.6.4.1
     Shape of augmentation charge: PSQ
     Using radial grid of 1251 points,  9 beta functions with: 
                l(1) =   0
                l(2) =   0
                l(3) =   0
                l(4) =   1
                l(5) =   1
                l(6) =   2
                l(7) =   2
                l(8) =   3
                l(9) =   3
     Q(r) pseudized with 0 coefficients 


     PseudoPot. # 2 for Sn read from file:
     /scratch/gtenti/degironcoli/pseudo/Sn.pbe-dn-kjpaw_psl.1.0.0.UPF
     MD5 check sum: 67f11dec737d427557dc41ea34975807
     Pseudo is Projector augmented-wave + core cor, Zval = 14.0
     Generated using "atomic" code by A. Dal Corso v.6.3
     Shape of augmentation charge: PSQ
     Using radial grid of 1243 points,  6 beta functions with: 
                l(1) =   0
                l(2) =   0
                l(3) =   1
                l(4) =   1
                l(5) =   2
                l(6) =   2
     Q(r) pseudized with 0 coefficients 


     PseudoPot. # 3 for I  read from file:
     /scratch/gtenti/degironcoli/pseudo/I.pbe-n-kjpaw_psl.1.0.0.UPF
     MD5 check sum: cd3d296c3308a581e1559a0c8a554cb5
     Pseudo is Projector augmented-wave + core cor, Zval =  7.0
     Generated using "atomic" code by A. Dal Corso v.6.3
     Shape of augmentation charge: PSQ
     Using radial grid of 1247 points,  6 beta functions with: 
                l(1) =   0
                l(2) =   0
                l(3) =   1
                l(4) =   1
                l(5) =   2
                l(6) =   2
     Q(r) pseudized with 0 coefficients 


     atomic species   valence    mass     pseudopotential
        Cs             9.00   132.90000     Cs( 1.00)
        Sn            14.00   118.70000     Sn( 1.00)
        I              7.00   126.90000     I ( 1.00)

      8 Sym. Ops., with inversion, found ( 6 have fractional translation)


                                    s                        frac. trans.

      isym =  1     identity                                     

 cryst.   s( 1) = (     1          0          0      )
                  (     0          1          0      )
                  (     0          0          1      )

 cart.    s( 1) = (  1.0000000  0.0000000  0.0000000 )
                  (  0.0000000  1.0000000  0.0000000 )
                  (  0.0000000  0.0000000  1.0000000 )


      isym =  2     180 deg rotation - cart. axis [0,0,1]        

 cryst.   s( 2) = (    -1          0          0      )    f =(  0.0000000 )
                  (     0         -1          0      )       (  0.5000000 )
                  (     0          0          1      )       (  0.5000000 )

 cart.    s( 2) = ( -1.0000000  0.0000000  0.0000000 )    f =(  0.0000000 )
                  (  0.0000000 -1.0000000  0.0000000 )       (  1.1138638 )
                  (  0.0000000  0.0000000  1.0000000 )       (  1.8777098 )


      isym =  3     180 deg rotation - cart. axis [0,1,0]        

 cryst.   s( 3) = (    -1          0          0      )    f =(  0.5000000 )
                  (     0          1          0      )       ( -0.5000000 )
                  (     0          0         -1      )       ( -0.5000000 )

 cart.    s( 3) = ( -1.0000000  0.0000000  0.0000000 )    f =(  0.5000000 )
                  (  0.0000000  1.0000000  0.0000000 )       ( -1.1138638 )
                  (  0.0000000  0.0000000 -1.0000000 )       ( -1.8777098 )


      isym =  4     180 deg rotation - cart. axis [1,0,0]        

 cryst.   s( 4) = (     1          0          0      )    f =( -0.5000000 )
                  (     0         -1          0      )       (  0.0000000 )
                  (     0          0         -1      )       (  0.0000000 )

 cart.    s( 4) = (  1.0000000  0.0000000  0.0000000 )    f =( -0.5000000 )
                  (  0.0000000 -1.0000000  0.0000000 )       (  0.0000000 )
                  (  0.0000000  0.0000000 -1.0000000 )       (  0.0000000 )


      isym =  5     inversion                                    

 cryst.   s( 5) = (    -1          0          0      )
                  (     0         -1          0      )
                  (     0          0         -1      )

 cart.    s( 5) = ( -1.0000000  0.0000000  0.0000000 )
                  (  0.0000000 -1.0000000  0.0000000 )
                  (  0.0000000  0.0000000 -1.0000000 )


      isym =  6     inv. 180 deg rotation - cart. axis [0,0,1]   

 cryst.   s( 6) = (     1          0          0      )    f =(  0.0000000 )
                  (     0          1          0      )       ( -0.5000000 )
                  (     0          0         -1      )       ( -0.5000000 )

 cart.    s( 6) = (  1.0000000  0.0000000  0.0000000 )    f =(  0.0000000 )
                  (  0.0000000  1.0000000  0.0000000 )       ( -1.1138638 )
                  (  0.0000000  0.0000000 -1.0000000 )       ( -1.8777098 )


      isym =  7     inv. 180 deg rotation - cart. axis [0,1,0]   

 cryst.   s( 7) = (     1          0          0      )    f =( -0.5000000 )
                  (     0         -1          0      )       (  0.5000000 )
                  (     0          0          1      )       (  0.5000000 )

 cart.    s( 7) = (  1.0000000  0.0000000  0.0000000 )    f =( -0.5000000 )
                  (  0.0000000 -1.0000000  0.0000000 )       (  1.1138638 )
                  (  0.0000000  0.0000000  1.0000000 )       (  1.8777098 )


      isym =  8     inv. 180 deg rotation - cart. axis [1,0,0]   

 cryst.   s( 8) = (    -1          0          0      )    f =(  0.5000000 )
                  (     0          1          0      )       (  0.0000000 )
                  (     0          0          1      )       (  0.0000000 )

 cart.    s( 8) = ( -1.0000000  0.0000000  0.0000000 )    f =(  0.5000000 )
                  (  0.0000000  1.0000000  0.0000000 )       (  0.0000000 )
                  (  0.0000000  0.0000000  1.0000000 )       (  0.0000000 )


     point group D_2h (mmm) 
     there are  8 classes
     the character table:

       E     C2    C2'   C2''  i     s_v   s_v'  s_v''
A_g    1.00  1.00  1.00  1.00  1.00  1.00  1.00  1.00
B_1g   1.00  1.00 -1.00 -1.00  1.00  1.00 -1.00 -1.00
B_2g   1.00 -1.00  1.00 -1.00  1.00 -1.00  1.00 -1.00
B_3g   1.00 -1.00 -1.00  1.00  1.00 -1.00 -1.00  1.00
A_u    1.00  1.00  1.00  1.00 -1.00 -1.00 -1.00 -1.00
B_1u   1.00  1.00 -1.00 -1.00 -1.00 -1.00  1.00  1.00
B_2u   1.00 -1.00  1.00 -1.00 -1.00  1.00 -1.00  1.00
B_3u   1.00 -1.00 -1.00  1.00 -1.00  1.00  1.00 -1.00

     the symmetry operations in each class and the name of the first element:

     E        1
          identity                                               
     C2       2
          180 deg rotation - cart. axis [0,0,1]                  
     C2'      4
          180 deg rotation - cart. axis [1,0,0]                  
     C2''     3
          180 deg rotation - cart. axis [0,1,0]                  
     i        5
          inversion                                              
     s_v      6
          inv. 180 deg rotation - cart. axis [0,0,1]             
     s_v'     8
          inv. 180 deg rotation - cart. axis [1,0,0]             
     s_v''    7
          inv. 180 deg rotation - cart. axis [0,1,0]             

   Cartesian axes

     site n.     atom                  positions (alat units)
         1           Cs  tau(   1) = (   0.2500000   0.1859640   2.5168147  )
         2           Cs  tau(   2) = (   0.7500000   2.0417636   1.2386050  )
         3           Cs  tau(   3) = (   0.2500000   1.2998278   3.1163149  )
         4           Cs  tau(   4) = (   0.7500000   0.9278998   0.6391048  )
         5           Sn  tau(   5) = (   0.2500000   0.7615710   1.6485466  )
         6           Sn  tau(   6) = (   0.7500000   1.4661567   2.1068731  )
         7           Sn  tau(   7) = (   0.2500000   1.8754348   0.2291632  )
         8           Sn  tau(   8) = (   0.7500000   0.3522928   3.5262565  )
         9           I   tau(   9) = (   0.7500000   0.0581437   0.4202578  )
        10           I   tau(  10) = (   0.2500000   2.1695839   3.3351619  )
        11           I   tau(  11) = (   0.7500000   1.1720075   1.4574521  )
        12           I   tau(  12) = (   0.2500000   1.0557201   2.2979676  )
        13           I   tau(  13) = (   0.7500000   0.6531118   2.9738192  )
        14           I   tau(  14) = (   0.2500000   1.5746158   0.7816005  )
        15           I   tau(  15) = (   0.7500000   1.7669756   2.6593103  )
        16           I   tau(  16) = (   0.2500000   0.4607520   1.0961094  )
        17           I   tau(  17) = (   0.7500000   0.3753632   1.8734812  )
        18           I   tau(  18) = (   0.2500000   1.8523644   1.8819384  )
        19           I   tau(  19) = (   0.7500000   1.4892270   0.0042286  )
        20           I   tau(  20) = (   0.2500000   0.7385006   3.7511911  )

   Crystallographic axes

     site n.     atom                  positions (cryst. coord.)
         1           Cs  tau(   1) = (  0.2500000  0.0834770  0.6701820  )
         2           Cs  tau(   2) = (  0.7500000  0.9165230  0.3298180  )
         3           Cs  tau(   3) = (  0.2500000  0.5834770  0.8298180  )
         4           Cs  tau(   4) = (  0.7500000  0.4165230  0.1701820  )
         5           Sn  tau(   5) = (  0.2500000  0.3418600  0.4389780  )
         6           Sn  tau(   6) = (  0.7500000  0.6581400  0.5610220  )
         7           Sn  tau(   7) = (  0.2500000  0.8418600  0.0610220  )
         8           Sn  tau(   8) = (  0.7500000  0.1581400  0.9389780  )
         9           I   tau(   9) = (  0.7500000  0.0261000  0.1119070  )
        10           I   tau(  10) = (  0.2500000  0.9739000  0.8880930  )
        11           I   tau(  11) = (  0.7500000  0.5261000  0.3880930  )
        12           I   tau(  12) = (  0.2500000  0.4739000  0.6119070  )
        13           I   tau(  13) = (  0.7500000  0.2931740  0.7918740  )
        14           I   tau(  14) = (  0.2500000  0.7068260  0.2081260  )
        15           I   tau(  15) = (  0.7500000  0.7931740  0.7081260  )
        16           I   tau(  16) = (  0.2500000  0.2068260  0.2918740  )
        17           I   tau(  17) = (  0.7500000  0.1684960  0.4988740  )
        18           I   tau(  18) = (  0.2500000  0.8315040  0.5011260  )
        19           I   tau(  19) = (  0.7500000  0.6684960  0.0011260  )
        20           I   tau(  20) = (  0.2500000  0.3315040  0.9988740  )

     number of k points=     8
                       cart. coord. in units 2pi/alat
        k(    1) = (   0.1666667   0.0748147   0.0443803), wk =   0.5925926
        k(    2) = (   0.1666667   0.0748147  -0.1331409), wk =   0.2962963
        k(    3) = (   0.1666667  -0.2244440   0.0443803), wk =   0.2962963
        k(    4) = (   0.1666667  -0.2244440  -0.1331409), wk =   0.1481481
        k(    5) = (  -0.5000000   0.0748147   0.0443803), wk =   0.2962963
        k(    6) = (  -0.5000000   0.0748147  -0.1331409), wk =   0.1481481
        k(    7) = (  -0.5000000  -0.2244440   0.0443803), wk =   0.1481481
        k(    8) = (  -0.5000000  -0.2244440  -0.1331409), wk =   0.0740741

                       cryst. coord.
        k(    1) = (   0.1666667   0.1666667   0.1666667), wk =   0.5925926
        k(    2) = (   0.1666667   0.1666667  -0.5000000), wk =   0.2962963
        k(    3) = (   0.1666667  -0.5000000   0.1666667), wk =   0.2962963
        k(    4) = (   0.1666667  -0.5000000  -0.5000000), wk =   0.1481481
        k(    5) = (  -0.5000000   0.1666667   0.1666667), wk =   0.2962963
        k(    6) = (  -0.5000000   0.1666667  -0.5000000), wk =   0.1481481
        k(    7) = (  -0.5000000  -0.5000000   0.1666667), wk =   0.1481481
        k(    8) = (  -0.5000000  -0.5000000  -0.5000000), wk =   0.0740741

     Dense  grid:   925941 G-vectors     FFT dimensions: (  60, 144, 240)

     Smooth grid:   504115 G-vectors     FFT dimensions: (  50, 120, 192)

     Dynamical RAM for                 wfc:       1.32 MB

     Dynamical RAM for     wfc (w. buffer):      11.89 MB

     Dynamical RAM for           str. fact:       0.66 MB

     Dynamical RAM for           local pot:       0.00 MB

     Dynamical RAM for          nlocal pot:       6.31 MB

     Dynamical RAM for                qrad:      29.60 MB

     Dynamical RAM for          rho,v,vnew:       1.45 MB

     Dynamical RAM for               rhoin:       0.48 MB

     Dynamical RAM for            rho*nmix:       3.53 MB

     Dynamical RAM for           G-vectors:       0.89 MB

     Dynamical RAM for          h,s,v(r/c):       1.42 MB

     Dynamical RAM for          <psi|beta>:       0.56 MB

     Dynamical RAM for                 psi:       2.64 MB

     Dynamical RAM for                hpsi:       2.64 MB

     Dynamical RAM for                spsi:       2.64 MB

     Dynamical RAM for      wfcinit/wfcrot:       3.37 MB

     Dynamical RAM for           addusdens:     132.49 MB

     Dynamical RAM for          addusforce:     137.61 MB

     Dynamical RAM for         addusstress:     135.80 MB

     Estimated static dynamical RAM per process >      57.02 MB

     Estimated max dynamical RAM per process >     194.63 MB

     Estimated total dynamical RAM >      12.16 GB

     Initial potential from superposition of free atoms

     starting charge  175.83511, renormalised to  176.00000
     Starting wfcs are  104 randomized atomic wfcs
     Checking if some PAW data can be deallocated... 
       PAW data deallocated on   48 nodes for type:  1
       PAW data deallocated on   52 nodes for type:  2
       PAW data deallocated on   28 nodes for type:  3

     total cpu time spent up to now is       18.3 secs

     Self-consistent Calculation

     iteration #  1     ecut=    70.00 Ry     beta= 0.60
     Davidson diagonalization with overlap
     ethr =  1.00E-02,  avg # of iterations =  1.0

     Threshold (ethr) on eigenvalues was too large:
     Diagonalizing with lowered threshold

     Davidson diagonalization with overlap
     ethr =  3.13E-04,  avg # of iterations =  3.6

     total cpu time spent up to now is       37.7 secs

     total energy              =   -7979.45613693 Ry
     estimated scf accuracy    <       0.45454375 Ry

     iteration #  2     ecut=    70.00 Ry     beta= 0.60
     Davidson diagonalization with overlap
     ethr =  2.58E-04,  avg # of iterations =  4.2

     total cpu time spent up to now is       49.9 secs

     total energy              =   -7979.60332503 Ry
     estimated scf accuracy    <       0.28905719 Ry

     iteration #  3     ecut=    70.00 Ry     beta= 0.60
     Davidson diagonalization with overlap
     ethr =  1.64E-04,  avg # of iterations =  2.5

     total cpu time spent up to now is       60.2 secs

     total energy              =   -7979.64889593 Ry
     estimated scf accuracy    <       0.01420731 Ry

     iteration #  4     ecut=    70.00 Ry     beta= 0.60
     Davidson diagonalization with overlap
     ethr =  8.07E-06,  avg # of iterations =  7.4

     total cpu time spent up to now is       75.3 secs

     total energy              =   -7979.66316017 Ry
     estimated scf accuracy    <       0.01117419 Ry

     iteration #  5     ecut=    70.00 Ry     beta= 0.60
     Davidson diagonalization with overlap
     ethr =  6.35E-06,  avg # of iterations =  2.8

     total cpu time spent up to now is       85.7 secs

     total energy              =   -7979.66400531 Ry
     estimated scf accuracy    <       0.00144092 Ry

     iteration #  6     ecut=    70.00 Ry     beta= 0.60
     Davidson diagonalization with overlap
     ethr =  8.19E-07,  avg # of iterations =  8.0

     total cpu time spent up to now is      100.6 secs

     total energy              =   -7979.66475432 Ry
     estimated scf accuracy    <       0.00201844 Ry

     iteration #  7     ecut=    70.00 Ry     beta= 0.60
     Davidson diagonalization with overlap
     ethr =  8.19E-07,  avg # of iterations =  4.8

     total cpu time spent up to now is      112.0 secs

     total energy              =   -7979.66512768 Ry
     estimated scf accuracy    <       0.00005033 Ry

     iteration #  8     ecut=    70.00 Ry     beta= 0.60
     Davidson diagonalization with overlap
     ethr =  2.86E-08,  avg # of iterations =  8.2

     total cpu time spent up to now is      127.5 secs

     total energy              =   -7979.66514830 Ry
     estimated scf accuracy    <       0.00014689 Ry

     iteration #  9     ecut=    70.00 Ry     beta= 0.60
     Davidson diagonalization with overlap
     ethr =  2.86E-08,  avg # of iterations =  4.9

     total cpu time spent up to now is      140.3 secs

     total energy              =   -7979.66517339 Ry
     estimated scf accuracy    <       0.00000161 Ry

     iteration # 10     ecut=    70.00 Ry     beta= 0.60
     Davidson diagonalization with overlap
     ethr =  9.15E-10,  avg # of iterations =  9.8

     total cpu time spent up to now is      156.9 secs

     total energy              =   -7979.66517315 Ry
     estimated scf accuracy    <       0.00000431 Ry

     iteration # 11     ecut=    70.00 Ry     beta= 0.60
     Davidson diagonalization with overlap
     ethr =  9.15E-10,  avg # of iterations =  5.0

     total cpu time spent up to now is      169.6 secs

     End of self-consistent calculation

          k = 0.1667 0.0748 0.0444 ( 62954 PWs)   bands (ev):

   -17.8643 -17.8643 -17.8642 -17.8642 -17.8629 -17.8629 -17.8626 -17.8626
   -17.8520 -17.8519 -17.8513 -17.8513 -17.8484 -17.8484 -17.8470 -17.8470
   -17.8428 -17.8427 -17.8416 -17.8416 -17.7787 -17.7785 -17.7779 -17.7777
    -8.7480  -8.7302  -8.5660  -8.5322  -8.4440  -8.4327  -8.3851  -8.3594
    -8.2707  -8.2642  -8.2423  -8.2213  -4.6145  -4.6123  -4.6103  -4.6052
    -4.6007  -4.5965  -4.5895  -4.5869  -4.5743  -4.5648  -4.5481  -4.5471
    -2.9662  -2.9592  -2.8724  -2.8356   0.2460   0.3639   0.5622   0.6078
     0.6902   0.7670   0.9096   0.9719   1.0385   1.0775   1.1379   1.1749
     1.4015   1.4175   1.4440   1.5717   1.6579   1.7166   1.7612   1.8149
     1.9021   1.9438   1.9554   1.9844   2.0113   2.0627   2.0928   2.1110
     2.1347   2.2066   2.3074   2.3217   2.6818   2.7010   2.8826   3.0073

     occupation numbers 
     1.0000   1.0000   1.0000   1.0000   1.0000   1.0000   1.0000   1.0000
     1.0000   1.0000   1.0000   1.0000   1.0000   1.0000   1.0000   1.0000
     1.0000   1.0000   1.0000   1.0000   1.0000   1.0000   1.0000   1.0000
     1.0000   1.0000   1.0000   1.0000   1.0000   1.0000   1.0000   1.0000
     1.0000   1.0000   1.0000   1.0000   1.0000   1.0000   1.0000   1.0000
     1.0000   1.0000   1.0000   1.0000   1.0000   1.0000   1.0000   1.0000
     1.0000   1.0000   1.0000   1.0000   1.0000   1.0000   1.0000   1.0000
     1.0000   1.0000   1.0000   1.0000   1.0000   1.0000   1.0000   1.0000
     1.0000   1.0000   1.0000   1.0000   1.0000   1.0000   1.0000   1.0000
     1.0000   1.0000   1.0000   1.0000   1.0000   1.0000   1.0000   1.0000
     1.0000   1.0000   1.0000   1.0000   1.0000   1.0000   1.0000   1.0000

          k = 0.1667 0.0748-0.1331 ( 62964 PWs)   bands (ev):

   -17.8643 -17.8643 -17.8642 -17.8642 -17.8629 -17.8629 -17.8626 -17.8626
   -17.8519 -17.8519 -17.8513 -17.8513 -17.8484 -17.8484 -17.8470 -17.8470
   -17.8428 -17.8428 -17.8416 -17.8416 -17.7786 -17.7786 -17.7778 -17.7778
    -8.7398  -8.7398  -8.5481  -8.5481  -8.4405  -8.4405  -8.3709  -8.3709
    -8.2680  -8.2680  -8.2306  -8.2306  -4.6138  -4.6138  -4.6065  -4.6065
    -4.6010  -4.6010  -4.5884  -4.5884  -4.5685  -4.5685  -4.5471  -4.5471
    -2.9633  -2.9633  -2.8535  -2.8535   0.2984   0.2984   0.6052   0.6052
     0.7008   0.7008   0.9659   0.9659   1.0548   1.0548   1.1563   1.1563
     1.3723   1.3723   1.5172   1.5172   1.7261   1.7261   1.7603   1.7603
     1.9070   1.9070   1.9727   1.9727   2.0497   2.0497   2.1065   2.1065
     2.1824   2.1824   2.3134   2.3134   2.6922   2.6922   2.9373   2.9373

     occupation numbers 
     1.0000   1.0000   1.0000   1.0000   1.0000   1.0000   1.0000   1.0000
     1.0000   1.0000   1.0000   1.0000   1.0000   1.0000   1.0000   1.0000
     1.0000   1.0000   1.0000   1.0000   1.0000   1.0000   1.0000   1.0000
     1.0000   1.0000   1.0000   1.0000   1.0000   1.0000   1.0000   1.0000
     1.0000   1.0000   1.0000   1.0000   1.0000   1.0000   1.0000   1.0000
     1.0000   1.0000   1.0000   1.0000   1.0000   1.0000   1.0000   1.0000
     1.0000   1.0000   1.0000   1.0000   1.0000   1.0000   1.0000   1.0000
     1.0000   1.0000   1.0000   1.0000   1.0000   1.0000   1.0000   1.0000
     1.0000   1.0000   1.0000   1.0000   1.0000   1.0000   1.0000   1.0000
     1.0000   1.0000   1.0000   1.0000   1.0000   1.0000   1.0000   1.0000
     1.0000   1.0000   1.0000   1.0000   1.0000   1.0000   1.0000   1.0000

          k = 0.1667-0.2244 0.0444 ( 62990 PWs)   bands (ev):

   -17.8643 -17.8643 -17.8642 -17.8642 -17.8629 -17.8629 -17.8626 -17.8626
   -17.8520 -17.8520 -17.8513 -17.8513 -17.8484 -17.8484 -17.8470 -17.8470
   -17.8428 -17.8428 -17.8416 -17.8416 -17.7783 -17.7783 -17.7781 -17.7781
    -8.7232  -8.7232  -8.5774  -8.5774  -8.4634  -8.4634  -8.3368  -8.3368
    -8.2572  -8.2572  -8.2384  -8.2384  -4.6138  -4.6138  -4.6114  -4.6114
    -4.6040  -4.6040  -4.5884  -4.5884  -4.5592  -4.5592  -4.5548  -4.5548
    -2.9611  -2.9611  -2.8478  -2.8478   0.3140   0.3140   0.5025   0.5025
     0.6947   0.6947   0.9319   0.9319   1.0823   1.0823   1.2522   1.2522
     1.5091   1.5091   1.5608   1.5608   1.6671   1.6671   1.7539   1.7539
     1.9030   1.9030   1.9793   1.9793   2.0243   2.0243   2.1403   2.1403
     2.1671   2.1671   2.2208   2.2208   2.6648   2.6648   2.8994   2.8994

     occupation numbers 
     1.0000   1.0000   1.0000   1.0000   1.0000   1.0000   1.0000   1.0000
     1.0000   1.0000   1.0000   1.0000   1.0000   1.0000   1.0000   1.0000
     1.0000   1.0000   1.0000   1.0000   1.0000   1.0000   1.0000   1.0000
     1.0000   1.0000   1.0000   1.0000   1.0000   1.0000   1.0000   1.0000
     1.0000   1.0000   1.0000   1.0000   1.0000   1.0000   1.0000   1.0000
     1.0000   1.0000   1.0000   1.0000   1.0000   1.0000   1.0000   1.0000
     1.0000   1.0000   1.0000   1.0000   1.0000   1.0000   1.0000   1.0000
     1.0000   1.0000   1.0000   1.0000   1.0000   1.0000   1.0000   1.0000
     1.0000   1.0000   1.0000   1.0000   1.0000   1.0000   1.0000   1.0000
     1.0000   1.0000   1.0000   1.0000   1.0000   1.0000   1.0000   1.0000
     1.0000   1.0000   1.0000   1.0000   1.0000   1.0000   1.0000   1.0000

          k = 0.1667-0.2244-0.1331 ( 62992 PWs)   bands (ev):

   -17.8643 -17.8643 -17.8642 -17.8642 -17.8629 -17.8629 -17.8627 -17.8627
   -17.8519 -17.8519 -17.8513 -17.8513 -17.8484 -17.8484 -17.8470 -17.8470
   -17.8428 -17.8428 -17.8416 -17.8416 -17.7783 -17.7783 -17.7781 -17.7781
    -8.7233  -8.7233  -8.5777  -8.5777  -8.4621  -8.4621  -8.3400  -8.3400
    -8.2486  -8.2486  -8.2449  -8.2449  -4.6128  -4.6128  -4.6126  -4.6126
    -4.6047  -4.6047  -4.5888  -4.5888  -4.5575  -4.5575  -4.5552  -4.5552
    -2.9606  -2.9606  -2.8485  -2.8485   0.3305   0.3305   0.4755   0.4755
     0.7260   0.7260   0.9408   0.9408   1.0111   1.0111   1.2586   1.2586
     1.5439   1.5439   1.6328   1.6328   1.6330   1.6330   1.7184   1.7184
     1.9020   1.9020   1.9980   1.9980   2.0178   2.0178   2.1319   2.1319
     2.1582   2.1582   2.2286   2.2286   2.6715   2.6715   2.8865   2.8865

     occupation numbers 
     1.0000   1.0000   1.0000   1.0000   1.0000   1.0000   1.0000   1.0000
     1.0000   1.0000   1.0000   1.0000   1.0000   1.0000   1.0000   1.0000
     1.0000   1.0000   1.0000   1.0000   1.0000   1.0000   1.0000   1.0000
     1.0000   1.0000   1.0000   1.0000   1.0000   1.0000   1.0000   1.0000
     1.0000   1.0000   1.0000   1.0000   1.0000   1.0000   1.0000   1.0000
     1.0000   1.0000   1.0000   1.0000   1.0000   1.0000   1.0000   1.0000
     1.0000   1.0000   1.0000   1.0000   1.0000   1.0000   1.0000   1.0000
     1.0000   1.0000   1.0000   1.0000   1.0000   1.0000   1.0000   1.0000
     1.0000   1.0000   1.0000   1.0000   1.0000   1.0000   1.0000   1.0000
     1.0000   1.0000   1.0000   1.0000   1.0000   1.0000   1.0000   1.0000
     1.0000   1.0000   1.0000   1.0000   1.0000   1.0000   1.0000   1.0000

          k =-0.5000 0.0748 0.0444 ( 63010 PWs)   bands (ev):

   -17.8654 -17.8654 -17.8654 -17.8654 -17.8632 -17.8632 -17.8632 -17.8632
   -17.8516 -17.8516 -17.8516 -17.8516 -17.8457 -17.8457 -17.8457 -17.8457
   -17.8426 -17.8426 -17.8426 -17.8426 -17.7700 -17.7700 -17.7695 -17.7695
    -8.4897  -8.4897  -8.4874  -8.4874  -8.3158  -8.3158  -8.3089  -8.3089
    -8.2930  -8.2930  -8.2753  -8.2753  -4.7833  -4.7833  -4.7248  -4.7248
    -4.6024  -4.6024  -4.5929  -4.5929  -4.5782  -4.5782  -4.5518  -4.5518
    -3.1995  -3.1995  -3.1700  -3.1700   0.0917   0.0917   0.1068   0.1068
     0.5375   0.5375   0.5832   0.5832   0.8614   0.8614   0.8963   0.8963
     1.2866   1.2866   1.5885   1.5885   1.6597   1.6597   1.7712   1.7712
     1.7891   1.7891   1.8158   1.8158   1.8745   1.8745   1.9608   1.9608
     2.0836   2.0836   2.1034   2.1034   2.6158   2.6158   2.9068   2.9068

     occupation numbers 
     1.0000   1.0000   1.0000   1.0000   1.0000   1.0000   1.0000   1.0000
     1.0000   1.0000   1.0000   1.0000   1.0000   1.0000   1.0000   1.0000
     1.0000   1.0000   1.0000   1.0000   1.0000   1.0000   1.0000   1.0000
     1.0000   1.0000   1.0000   1.0000   1.0000   1.0000   1.0000   1.0000
     1.0000   1.0000   1.0000   1.0000   1.0000   1.0000   1.0000   1.0000
     1.0000   1.0000   1.0000   1.0000   1.0000   1.0000   1.0000   1.0000
     1.0000   1.0000   1.0000   1.0000   1.0000   1.0000   1.0000   1.0000
     1.0000   1.0000   1.0000   1.0000   1.0000   1.0000   1.0000   1.0000
     1.0000   1.0000   1.0000   1.0000   1.0000   1.0000   1.0000   1.0000
     1.0000   1.0000   1.0000   1.0000   1.0000   1.0000   1.0000   1.0000
     1.0000   1.0000   1.0000   1.0000   1.0000   1.0000   1.0000   1.0000

          k =-0.5000 0.0748-0.1331 ( 63096 PWs)   bands (ev):

   -17.8654 -17.8654 -17.8654 -17.8654 -17.8632 -17.8632 -17.8632 -17.8632
   -17.8516 -17.8516 -17.8516 -17.8516 -17.8457 -17.8457 -17.8457 -17.8457
   -17.8426 -17.8426 -17.8426 -17.8426 -17.7700 -17.7700 -17.7695 -17.7695
    -8.4901  -8.4901  -8.4871  -8.4871  -8.3153  -8.3153  -8.3095  -8.3095
    -8.2929  -8.2929  -8.2753  -8.2753  -4.7833  -4.7833  -4.7249  -4.7249
    -4.6026  -4.6026  -4.5929  -4.5929  -4.5780  -4.5780  -4.5519  -4.5519
    -3.1951  -3.1951  -3.1746  -3.1746   0.0852   0.0852   0.1148   0.1148
     0.5534   0.5534   0.5843   0.5843   0.8464   0.8464   0.8646   0.8646
     1.3360   1.3360   1.6024   1.6024   1.6547   1.6547   1.7378   1.7378
     1.7602   1.7602   1.8315   1.8315   1.8514   1.8514   1.9849   1.9849
     2.0924   2.0924   2.1077   2.1077   2.6552   2.6552   2.8674   2.8674

     occupation numbers 
     1.0000   1.0000   1.0000   1.0000   1.0000   1.0000   1.0000   1.0000
     1.0000   1.0000   1.0000   1.0000   1.0000   1.0000   1.0000   1.0000
     1.0000   1.0000   1.0000   1.0000   1.0000   1.0000   1.0000   1.0000
     1.0000   1.0000   1.0000   1.0000   1.0000   1.0000   1.0000   1.0000
     1.0000   1.0000   1.0000   1.0000   1.0000   1.0000   1.0000   1.0000
     1.0000   1.0000   1.0000   1.0000   1.0000   1.0000   1.0000   1.0000
     1.0000   1.0000   1.0000   1.0000   1.0000   1.0000   1.0000   1.0000
     1.0000   1.0000   1.0000   1.0000   1.0000   1.0000   1.0000   1.0000
     1.0000   1.0000   1.0000   1.0000   1.0000   1.0000   1.0000   1.0000
     1.0000   1.0000   1.0000   1.0000   1.0000   1.0000   1.0000   1.0000
     1.0000   1.0000   1.0000   1.0000   1.0000   1.0000   1.0000   1.0000

          k =-0.5000-0.2244 0.0444 ( 63072 PWs)   bands (ev):

   -17.8654 -17.8654 -17.8654 -17.8654 -17.8632 -17.8632 -17.8632 -17.8632
   -17.8516 -17.8516 -17.8516 -17.8516 -17.8457 -17.8457 -17.8457 -17.8457
   -17.8426 -17.8426 -17.8426 -17.8426 -17.7697 -17.7697 -17.7697 -17.7697
    -8.4886  -8.4886  -8.4886  -8.4886  -8.3131  -8.3131  -8.3131  -8.3131
    -8.2834  -8.2834  -8.2834  -8.2834  -4.7542  -4.7542  -4.7542  -4.7542
    -4.5965  -4.5965  -4.5965  -4.5965  -4.5661  -4.5661  -4.5661  -4.5661
    -3.1852  -3.1852  -3.1852  -3.1852   0.2155   0.2155   0.2155   0.2155
     0.4334   0.4334   0.4334   0.4334   0.8466   0.8466   0.8466   0.8466
     1.4271   1.4271   1.4271   1.4271   1.6574   1.6574   1.6574   1.6574
     1.7961   1.7961   1.7961   1.7961   1.9259   1.9259   1.9259   1.9259
     2.1399   2.1399   2.1399   2.1399   2.8720   2.8720   2.8720   2.8720

     occupation numbers 
     1.0000   1.0000   1.0000   1.0000   1.0000   1.0000   1.0000   1.0000
     1.0000   1.0000   1.0000   1.0000   1.0000   1.0000   1.0000   1.0000
     1.0000   1.0000   1.0000   1.0000   1.0000   1.0000   1.0000   1.0000
     1.0000   1.0000   1.0000   1.0000   1.0000   1.0000   1.0000   1.0000
     1.0000   1.0000   1.0000   1.0000   1.0000   1.0000   1.0000   1.0000
     1.0000   1.0000   1.0000   1.0000   1.0000   1.0000   1.0000   1.0000
     1.0000   1.0000   1.0000   1.0000   1.0000   1.0000   1.0000   1.0000
     1.0000   1.0000   1.0000   1.0000   1.0000   1.0000   1.0000   1.0000
     1.0000   1.0000   1.0000   1.0000   1.0000   1.0000   1.0000   1.0000
     1.0000   1.0000   1.0000   1.0000   1.0000   1.0000   1.0000   1.0000
     1.0000   1.0000   1.0000   1.0000   1.0000   1.0000   1.0000   1.0000

          k =-0.5000-0.2244-0.1331 ( 63040 PWs)   bands (ev):

   -17.8654 -17.8654 -17.8654 -17.8654 -17.8632 -17.8632 -17.8632 -17.8632
   -17.8516 -17.8516 -17.8516 -17.8516 -17.8457 -17.8457 -17.8457 -17.8457
   -17.8426 -17.8426 -17.8426 -17.8426 -17.7697 -17.7697 -17.7697 -17.7697
    -8.4886  -8.4886  -8.4886  -8.4886  -8.3131  -8.3131  -8.3131  -8.3131
    -8.2835  -8.2835  -8.2835  -8.2835  -4.7541  -4.7541  -4.7541  -4.7541
    -4.5965  -4.5965  -4.5965  -4.5965  -4.5662  -4.5662  -4.5662  -4.5662
    -3.1852  -3.1852  -3.1852  -3.1852   0.2108   0.2108   0.2108   0.2108
     0.4357   0.4357   0.4357   0.4357   0.8662   0.8662   0.8662   0.8662
     1.3679   1.3679   1.3679   1.3679   1.7057   1.7057   1.7057   1.7057
     1.7986   1.7986   1.7986   1.7986   1.9418   1.9418   1.9418   1.9418
     2.1100   2.1100   2.1100   2.1100   2.8786   2.8786   2.8786   2.8786

     occupation numbers 
     1.0000   1.0000   1.0000   1.0000   1.0000   1.0000   1.0000   1.0000
     1.0000   1.0000   1.0000   1.0000   1.0000   1.0000   1.0000   1.0000
     1.0000   1.0000   1.0000   1.0000   1.0000   1.0000   1.0000   1.0000
     1.0000   1.0000   1.0000   1.0000   1.0000   1.0000   1.0000   1.0000
     1.0000   1.0000   1.0000   1.0000   1.0000   1.0000   1.0000   1.0000
     1.0000   1.0000   1.0000   1.0000   1.0000   1.0000   1.0000   1.0000
     1.0000   1.0000   1.0000   1.0000   1.0000   1.0000   1.0000   1.0000
     1.0000   1.0000   1.0000   1.0000   1.0000   1.0000   1.0000   1.0000
     1.0000   1.0000   1.0000   1.0000   1.0000   1.0000   1.0000   1.0000
     1.0000   1.0000   1.0000   1.0000   1.0000   1.0000   1.0000   1.0000
     1.0000   1.0000   1.0000   1.0000   1.0000   1.0000   1.0000   1.0000

     highest occupied level (ev):     3.0073

!    total energy              =   -7979.66517415 Ry

     total all-electron energy =   -282510.819887 Ry
     estimated scf accuracy    <       0.00000007 Ry

     The total energy is the sum of the following terms:
     one-electron contribution =    -463.68508967 Ry
     hartree contribution      =     316.62094689 Ry
     xc contribution           =    -465.89696783 Ry
     ewald contribution        =    -633.56960439 Ry
     one-center paw contrib.   =   -6733.13445916 Ry
      -> PAW hartree energy AE =      25.63384056 Ry
      -> PAW hartree energy PS =     -25.52427772 Ry
      -> PAW xc energy AE      =    -383.53028239 Ry
      -> PAW xc energy PS      =      20.51494073 Ry
      -> total E_H with PAW    =     316.73050973 Ry
      -> total E_XC with PAW   =    -828.91230949 Ry

     convergence has been achieved in  11 iterations

     Forces acting on atoms (cartesian axes, Ry/au):

     atom    1 type  1   force =     0.00000000   -0.00060176    0.00037116
     atom    2 type  1   force =     0.00000000    0.00060176   -0.00037116
     atom    3 type  1   force =     0.00000000   -0.00060176   -0.00037116
     atom    4 type  1   force =     0.00000000    0.00060176    0.00037116
     atom    5 type  2   force =     0.00000000   -0.00060711    0.00044624
     atom    6 type  2   force =     0.00000000    0.00060711   -0.00044624
     atom    7 type  2   force =     0.00000000   -0.00060711   -0.00044624
     atom    8 type  2   force =     0.00000000    0.00060711    0.00044624
     atom    9 type  3   force =     0.00000000   -0.00004577   -0.00022821
     atom   10 type  3   force =     0.00000000    0.00004577    0.00022821
     atom   11 type  3   force =    -0.00000000   -0.00004577    0.00022821
     atom   12 type  3   force =     0.00000000    0.00004577   -0.00022821
     atom   13 type  3   force =    -0.00000000   -0.00015255   -0.00047453
     atom   14 type  3   force =    -0.00000000    0.00015255    0.00047453
     atom   15 type  3   force =     0.00000000   -0.00015255    0.00047453
     atom   16 type  3   force =     0.00000000    0.00015255   -0.00047453
     atom   17 type  3   force =     0.00000000   -0.00031491    0.00022900
     atom   18 type  3   force =     0.00000000    0.00031491   -0.00022900
     atom   19 type  3   force =     0.00000000   -0.00031491   -0.00022900
     atom   20 type  3   force =     0.00000000    0.00031491    0.00022900
     The non-local contrib.  to forces
     atom    1 type  1   force =     0.00000000    0.00223017   -0.00233324
     atom    2 type  1   force =     0.00000000   -0.00223017    0.00233324
     atom    3 type  1   force =     0.00000000    0.00223017    0.00233324
     atom    4 type  1   force =     0.00000000   -0.00223017   -0.00233324
     atom    5 type  2   force =     0.00000000   -0.08648840   -0.13237863
     atom    6 type  2   force =     0.00000000    0.08648840    0.13237863
     atom    7 type  2   force =     0.00000000   -0.08648840    0.13237863
     atom    8 type  2   force =     0.00000000    0.08648840   -0.13237863
     atom    9 type  3   force =     0.00000000   -0.04582306   -0.04586063
     atom   10 type  3   force =    -0.00000000    0.04582306    0.04586063
     atom   11 type  3   force =     0.00000000   -0.04582306    0.04586063
     atom   12 type  3   force =    -0.00000000    0.04582306   -0.04586063
     atom   13 type  3   force =     0.00000000   -0.03288191    0.05565785
     atom   14 type  3   force =     0.00000000    0.03288191   -0.05565785
     atom   15 type  3   force =     0.00000000   -0.03288191   -0.05565785
     atom   16 type  3   force =     0.00000000    0.03288191    0.05565785
     atom   17 type  3   force =     0.00000000    0.05275697   -0.01513997
     atom   18 type  3   force =     0.00000000   -0.05275697    0.01513997
     atom   19 type  3   force =     0.00000000    0.05275697    0.01513997
     atom   20 type  3   force =     0.00000000   -0.05275697   -0.01513997
     The ionic contribution  to forces
     atom    1 type  1   force =    -0.00000000    0.02273773    0.42856976
     atom    2 type  1   force =    -0.00000000   -0.02273773   -0.42856976
     atom    3 type  1   force =    -0.00000000    0.02273773   -0.42856976
     atom    4 type  1   force =     0.00000000   -0.02273773    0.42856976
     atom    5 type  2   force =     0.00000000   -2.44382135   -1.60292983
     atom    6 type  2   force =     0.00000000    2.44382135    1.60292983
     atom    7 type  2   force =    -0.00000000   -2.44382135    1.60292983
     atom    8 type  2   force =     0.00000000    2.44382135   -1.60292983
     atom    9 type  3   force =    -0.00000000    3.00608891    5.13288893
     atom   10 type  3   force =     0.00000000   -3.00608891   -5.13288893
     atom   11 type  3   force =    -0.00000000    3.00608891   -5.13288893
     atom   12 type  3   force =    -0.00000000   -3.00608891    5.13288893
     atom   13 type  3   force =     0.00000000    2.02422849   -3.75281499
     atom   14 type  3   force =     0.00000000   -2.02422849    3.75281499
     atom   15 type  3   force =    -0.00000000    2.02422849    3.75281499
     atom   16 type  3   force =    -0.00000000   -2.02422849   -3.75281499
     atom   17 type  3   force =     0.00000000   -4.20564473    2.10270404
     atom   18 type  3   force =    -0.00000000    4.20564473   -2.10270404
     atom   19 type  3   force =     0.00000000   -4.20564473   -2.10270404
     atom   20 type  3   force =    -0.00000000    4.20564473    2.10270404
     The local contribution  to forces
     atom    1 type  1   force =     0.00000000   -0.02542833   -0.42608520
     atom    2 type  1   force =    -0.00000000    0.02542833    0.42608520
     atom    3 type  1   force =    -0.00000000   -0.02542833    0.42608520
     atom    4 type  1   force =     0.00000000    0.02542833   -0.42608520
     atom    5 type  2   force =    -0.00000000    2.52911365    1.73545356
     atom    6 type  2   force =    -0.00000000   -2.52911365   -1.73545356
     atom    7 type  2   force =    -0.00000000    2.52911365   -1.73545356
     atom    8 type  2   force =    -0.00000000   -2.52911365    1.73545356
     atom    9 type  3   force =    -0.00000000   -2.96634106   -5.09343498
     atom   10 type  3   force =     0.00000000    2.96634106    5.09343498
     atom   11 type  3   force =    -0.00000000   -2.96634106    5.09343498
     atom   12 type  3   force =     0.00000000    2.96634106   -5.09343498
     atom   13 type  3   force =    -0.00000000   -1.99581333    3.70410934
     atom   14 type  3   force =     0.00000000    1.99581333   -3.70410934
     atom   15 type  3   force =    -0.00000000   -1.99581333   -3.70410934
     atom   16 type  3   force =     0.00000000    1.99581333    3.70410934
     atom   17 type  3   force =     0.00000000    4.15966159   -2.08960722
     atom   18 type  3   force =    -0.00000000   -4.15966159    2.08960722
     atom   19 type  3   force =     0.00000000    4.15966159    2.08960722
     atom   20 type  3   force =    -0.00000000   -4.15966159   -2.08960722
     The core correction contribution to forces
     atom    1 type  1   force =     0.00000000   -0.00017757    0.00019622
     atom    2 type  1   force =    -0.00000000    0.00017757   -0.00019622
     atom    3 type  1   force =     0.00000000   -0.00017757   -0.00019622
     atom    4 type  1   force =    -0.00000000    0.00017757    0.00019622
     atom    5 type  2   force =     0.00000000    0.00015524    0.00009384
     atom    6 type  2   force =    -0.00000000   -0.00015524   -0.00009384
     atom    7 type  2   force =     0.00000000    0.00015524   -0.00009384
     atom    8 type  2   force =    -0.00000000   -0.00015524    0.00009384
     atom    9 type  3   force =     0.00000000    0.00607002    0.00631425
     atom   10 type  3   force =    -0.00000000   -0.00607002   -0.00631425
     atom   11 type  3   force =     0.00000000    0.00607002   -0.00631425
     atom   12 type  3   force =    -0.00000000   -0.00607002    0.00631425
     atom   13 type  3   force =    -0.00000000    0.00434475   -0.00743082
     atom   14 type  3   force =     0.00000000   -0.00434475    0.00743082
     atom   15 type  3   force =    -0.00000000    0.00434475    0.00743082
     atom   16 type  3   force =     0.00000000   -0.00434475   -0.00743082
     atom   17 type  3   force =     0.00000000   -0.00722752    0.00227948
     atom   18 type  3   force =    -0.00000000    0.00722752   -0.00227948
     atom   19 type  3   force =     0.00000000   -0.00722752   -0.00227948
     atom   20 type  3   force =    -0.00000000    0.00722752    0.00227948
     The Hubbard contrib.    to forces
     atom    1 type  1   force =     0.00000000    0.00000000    0.00000000
     atom    2 type  1   force =     0.00000000    0.00000000    0.00000000
     atom    3 type  1   force =     0.00000000    0.00000000    0.00000000
     atom    4 type  1   force =     0.00000000    0.00000000    0.00000000
     atom    5 type  2   force =     0.00000000    0.00000000    0.00000000
     atom    6 type  2   force =     0.00000000    0.00000000    0.00000000
     atom    7 type  2   force =     0.00000000    0.00000000    0.00000000
     atom    8 type  2   force =     0.00000000    0.00000000    0.00000000
     atom    9 type  3   force =     0.00000000    0.00000000    0.00000000
     atom   10 type  3   force =     0.00000000    0.00000000    0.00000000
     atom   11 type  3   force =     0.00000000    0.00000000    0.00000000
     atom   12 type  3   force =     0.00000000    0.00000000    0.00000000
     atom   13 type  3   force =     0.00000000    0.00000000    0.00000000
     atom   14 type  3   force =     0.00000000    0.00000000    0.00000000
     atom   15 type  3   force =     0.00000000    0.00000000    0.00000000
     atom   16 type  3   force =     0.00000000    0.00000000    0.00000000
     atom   17 type  3   force =     0.00000000    0.00000000    0.00000000
     atom   18 type  3   force =     0.00000000    0.00000000    0.00000000
     atom   19 type  3   force =     0.00000000    0.00000000    0.00000000
     atom   20 type  3   force =     0.00000000    0.00000000    0.00000000
     The SCF correction term to forces
     atom    1 type  1   force =    -0.00000000    0.00003624    0.00002362
     atom    2 type  1   force =     0.00000000   -0.00003624   -0.00002362
     atom    3 type  1   force =    -0.00000000    0.00003624   -0.00002362
     atom    4 type  1   force =     0.00000000   -0.00003624    0.00002362
     atom    5 type  2   force =     0.00000000    0.00043376    0.00020730
     atom    6 type  2   force =    -0.00000000   -0.00043376   -0.00020730
     atom    7 type  2   force =     0.00000000    0.00043376   -0.00020730
     atom    8 type  2   force =    -0.00000000   -0.00043376    0.00020730
     atom    9 type  3   force =     0.00000000   -0.00004058   -0.00013579
     atom   10 type  3   force =    -0.00000000    0.00004058    0.00013579
     atom   11 type  3   force =     0.00000000   -0.00004058    0.00013579
     atom   12 type  3   force =    -0.00000000    0.00004058   -0.00013579
     atom   13 type  3   force =    -0.00000000   -0.00003055    0.00000409
     atom   14 type  3   force =     0.00000000    0.00003055   -0.00000409
     atom   15 type  3   force =    -0.00000000   -0.00003055   -0.00000409
     atom   16 type  3   force =     0.00000000    0.00003055    0.00000409
     atom   17 type  3   force =    -0.00000000    0.00013879   -0.00000734
     atom   18 type  3   force =     0.00000000   -0.00013879    0.00000734
     atom   19 type  3   force =    -0.00000000    0.00013879    0.00000734
     atom   20 type  3   force =     0.00000000   -0.00013879   -0.00000734

     Total force =     0.002467     Total SCF correction =     0.001046
     SCF correction compared to forces is large: reduce conv_thr to get better values


     Computing stress (Cartesian axis) and pressure

          total   stress  (Ry/bohr**3)                   (kbar)     P=       -0.89
  -0.00000521   0.00000000   0.00000000           -0.77        0.00        0.00
   0.00000000  -0.00000658   0.00000000            0.00       -0.97        0.00
   0.00000000   0.00000000  -0.00000642            0.00        0.00       -0.94

     kinetic stress (kbar)   5522.17      0.00      0.00
                                0.00   5534.98      0.00
                                0.00      0.00   5528.56

     local   stress (kbar)  -4515.65      0.00     -0.00
                                0.00  -1887.21      0.00
                               -0.00      0.00   -992.79

     nonloc. stress (kbar)   1140.65      0.00      0.00
                                0.00   1140.33      0.00
                                0.00      0.00   1142.63

     hartree stress (kbar)   3402.33     -0.00      0.00
                               -0.00   2189.37     -0.00
                                0.00     -0.00   1719.54

     exc-cor stress (kbar)   5446.65      0.00     -0.00
                                0.00   5446.35      0.00
                               -0.00      0.00   5446.77

     corecor stress (kbar)  -7212.13      0.00      0.00
                                0.00  -7212.63     -0.00
                                0.00     -0.00  -7212.56

     ewald   stress (kbar)  -3784.80      0.00     -0.00
                                0.00  -5212.16      0.00
                               -0.00      0.00  -5633.09

     hubbard stress (kbar)      0.00      0.00      0.00
                                0.00      0.00      0.00
                                0.00      0.00      0.00

     DFT-D   stress (kbar)      0.00      0.00      0.00
                                0.00      0.00      0.00
                                0.00      0.00      0.00

     XDM     stress (kbar)      0.00      0.00      0.00
                                0.00      0.00      0.00
                                0.00      0.00      0.00

     dft-nl  stress (kbar)      0.00      0.00      0.00
                                0.00      0.00      0.00
                                0.00      0.00      0.00

     TS-vdW  stress (kbar)      0.00      0.00      0.00
                                0.00      0.00      0.00
                                0.00      0.00      0.00



     BFGS Geometry Optimization

     number of scf cycles    =   1
     number of bfgs steps    =   0

     enthalpy new            =   -7979.6651741491 Ry

     new trust radius        =       0.0026246052 bohr
     new conv_thr            =       0.0000001000 Ry

     new unit-cell volume =   6367.63967 a.u.^3 (   943.58685 Ang^3 )
     density =      4.45093 g/cm^3

CELL_PARAMETERS (alat=  9.13170465)
   0.999869841   0.000000000   0.000000000
   0.000000000   2.227361365   0.000000000
   0.000000000   0.000000000   3.754816848

ATOMIC_POSITIONS (crystal)
Cs            0.2500000000        0.0834474194        0.6701928232
Cs            0.7500000000        0.9165525806        0.3298071768
Cs            0.2500000000        0.5834474194        0.8298071768
Cs            0.7500000000        0.4165525806        0.1701928232
Sn            0.2500000000        0.3418301564        0.4389910124
Sn            0.7500000000        0.6581698436        0.5610089876
Sn            0.2500000000        0.8418301564        0.0610089876
Sn            0.7500000000        0.1581698436        0.9389910124
I             0.7500000000        0.0260977501        0.1119003453
I             0.2500000000        0.9739022499        0.8880996547
I             0.7500000000        0.5260977501        0.3880996547
I             0.2500000000        0.4739022499        0.6119003453
I             0.7500000000        0.2931665009        0.7918601627
I             0.2500000000        0.7068334991        0.2081398373
I             0.7500000000        0.7931665009        0.7081398373
I             0.2500000000        0.2068334991        0.2918601627
I             0.7500000000        0.1684805200        0.4988806777
I             0.2500000000        0.8315194800        0.5011193223
I             0.7500000000        0.6684805200        0.0011193223
I             0.2500000000        0.3315194800        0.9988806777



     Writing output data file ./CsSnI3.save/
     NEW-OLD atomic charge density approx. for the potential
     extrapolated charge  175.91995, renormalised to  176.00000

     total cpu time spent up to now is      201.8 secs

     Self-consistent Calculation

     iteration #  1     ecut=    70.00 Ry     beta= 0.60
     Davidson diagonalization with overlap
     ethr =  1.00E-06,  avg # of iterations =  3.0

     Threshold (ethr) on eigenvalues was too large:
     Diagonalizing with lowered threshold

     Davidson diagonalization with overlap
     ethr =  7.52E-08,  avg # of iterations =  2.0

     total cpu time spent up to now is      221.7 secs

     total energy              =   -7979.66500908 Ry
     estimated scf accuracy    <       0.00015187 Ry

     iteration #  2     ecut=    70.00 Ry     beta= 0.60
     Davidson diagonalization with overlap
     ethr =  8.63E-08,  avg # of iterations =  6.8

     total cpu time spent up to now is      237.2 secs

     total energy              =   -7979.66517212 Ry
     estimated scf accuracy    <       0.00049769 Ry

     iteration #  3     ecut=    70.00 Ry     beta= 0.60
     Davidson diagonalization with overlap
     ethr =  8.63E-08,  avg # of iterations =  4.5

     total cpu time spent up to now is      248.6 secs

     total energy              =   -7979.66518090 Ry
     estimated scf accuracy    <       0.00010425 Ry

     iteration #  4     ecut=    70.00 Ry     beta= 0.60
     Davidson diagonalization with overlap
     ethr =  5.92E-08,  avg # of iterations =  4.8

     total cpu time spent up to now is      259.4 secs

     total energy              =   -7979.66519414 Ry
     estimated scf accuracy    <       0.00001957 Ry

     iteration #  5     ecut=    70.00 Ry     beta= 0.60
     Davidson diagonalization with overlap
     ethr =  1.11E-08,  avg # of iterations =  5.9

     total cpu time spent up to now is      271.0 secs

     total energy              =   -7979.66519795 Ry
     estimated scf accuracy    <       0.00000783 Ry

     iteration #  6     ecut=    70.00 Ry     beta= 0.60
     Davidson diagonalization with overlap
     ethr =  4.45E-09,  avg # of iterations =  1.8

     total cpu time spent up to now is      280.3 secs

     total energy              =   -7979.66519870 Ry
     estimated scf accuracy    <       0.00000806 Ry

     iteration #  7     ecut=    70.00 Ry     beta= 0.60
     Davidson diagonalization with overlap
     ethr =  4.45E-09,  avg # of iterations =  2.0

     total cpu time spent up to now is      289.7 secs

     total energy              =   -7979.66519730 Ry
     estimated scf accuracy    <       0.00000941 Ry

     iteration #  8     ecut=    70.00 Ry     beta= 0.60
     Davidson diagonalization with overlap
     ethr =  4.45E-09,  avg # of iterations =  1.1

     total cpu time spent up to now is      298.6 secs

     total energy              =   -7979.66519675 Ry
     estimated scf accuracy    <       0.00000633 Ry

     iteration #  9     ecut=    70.00 Ry     beta= 0.60
     Davidson diagonalization with overlap
     ethr =  3.60E-09,  avg # of iterations =  1.6

     total cpu time spent up to now is      307.8 secs

     total energy              =   -7979.66519678 Ry
     estimated scf accuracy    <       0.00000414 Ry

     iteration # 10     ecut=    70.00 Ry     beta= 0.60
     Davidson diagonalization with overlap
     ethr =  2.35E-09,  avg # of iterations =  1.2

     total cpu time spent up to now is      316.7 secs

     total energy              =   -7979.66519627 Ry
     estimated scf accuracy    <       0.00000348 Ry

     iteration # 11     ecut=    70.00 Ry     beta= 0.60
     Davidson diagonalization with overlap
     ethr =  1.98E-09,  avg # of iterations =  2.0

     total cpu time spent up to now is      326.3 secs

     total energy              =   -7979.66519644 Ry
     estimated scf accuracy    <       0.00000211 Ry

     iteration # 12     ecut=    70.00 Ry     beta= 0.60
     Davidson diagonalization with overlap
     ethr =  1.20E-09,  avg # of iterations =  2.0

     total cpu time spent up to now is      335.6 secs

     total energy              =   -7979.66519580 Ry
     estimated scf accuracy    <       0.00000175 Ry

     iteration # 13     ecut=    70.00 Ry     beta= 0.60
     Davidson diagonalization with overlap
     ethr =  9.97E-10,  avg # of iterations =  5.4

     total cpu time spent up to now is      348.0 secs

     total energy              =   -7979.66519644 Ry
     estimated scf accuracy    <       0.00000036 Ry

     iteration # 14     ecut=    70.00 Ry     beta= 0.60
     Davidson diagonalization with overlap
     ethr =  2.05E-10,  avg # of iterations =  4.1

     total cpu time spent up to now is      359.0 secs

     total energy              =   -7979.66519651 Ry
     estimated scf accuracy    <       0.00000025 Ry

     iteration # 15     ecut=    70.00 Ry     beta= 0.60
     Davidson diagonalization with overlap
     ethr =  1.45E-10,  avg # of iterations =  1.9

     total cpu time spent up to now is      368.5 secs

     total energy              =   -7979.66519648 Ry
     estimated scf accuracy    <       0.00000029 Ry

     iteration # 16     ecut=    70.00 Ry     beta= 0.60
     Davidson diagonalization with overlap
     ethr =  1.45E-10,  avg # of iterations =  1.0

     total cpu time spent up to now is      377.2 secs

     total energy              =   -7979.66519643 Ry
     estimated scf accuracy    <       0.00000024 Ry

     iteration # 17     ecut=    70.00 Ry     beta= 0.60
     Davidson diagonalization with overlap
     ethr =  1.35E-10,  avg # of iterations =  2.0

     total cpu time spent up to now is      387.4 secs

     total energy              =   -7979.66519643 Ry
     estimated scf accuracy    <       0.00000014 Ry

     iteration # 18     ecut=    70.00 Ry     beta= 0.60
     Davidson diagonalization with overlap
     ethr =  7.80E-11,  avg # of iterations =  2.0

     total cpu time spent up to now is      396.7 secs

     End of self-consistent calculation

          k = 0.1667 0.0748 0.0444 ( 62954 PWs)   bands (ev):

   -17.8605 -17.8605 -17.8604 -17.8603 -17.8591 -17.8591 -17.8588 -17.8588
   -17.8481 -17.8481 -17.8475 -17.8475 -17.8446 -17.8446 -17.8433 -17.8432
   -17.8389 -17.8389 -17.8378 -17.8378 -17.7742 -17.7740 -17.7734 -17.7732
    -8.7453  -8.7276  -8.5629  -8.5291  -8.4409  -8.4295  -8.3817  -8.3561
    -8.2670  -8.2605  -8.2386  -8.2176  -4.6102  -4.6080  -4.6059  -4.6009
    -4.5963  -4.5922  -4.5851  -4.5826  -4.5699  -4.5604  -4.5437  -4.5426
    -2.9631  -2.9561  -2.8691  -2.8322   0.2484   0.3664   0.5648   0.6104
     0.6928   0.7696   0.9125   0.9749   1.0416   1.0806   1.1410   1.1780
     1.4046   1.4207   1.4472   1.5749   1.6613   1.7202   1.7648   1.8185
     1.9057   1.9475   1.9591   1.9881   2.0150   2.0665   2.0965   2.1146
     2.1385   2.2105   2.3113   2.3256   2.6862   2.7054   2.8873   3.0121

     occupation numbers 
     1.0000   1.0000   1.0000   1.0000   1.0000   1.0000   1.0000   1.0000
     1.0000   1.0000   1.0000   1.0000   1.0000   1.0000   1.0000   1.0000
     1.0000   1.0000   1.0000   1.0000   1.0000   1.0000   1.0000   1.0000
     1.0000   1.0000   1.0000   1.0000   1.0000   1.0000   1.0000   1.0000
     1.0000   1.0000   1.0000   1.0000   1.0000   1.0000   1.0000   1.0000
     1.0000   1.0000   1.0000   1.0000   1.0000   1.0000   1.0000   1.0000
     1.0000   1.0000   1.0000   1.0000   1.0000   1.0000   1.0000   1.0000
     1.0000   1.0000   1.0000   1.0000   1.0000   1.0000   1.0000   1.0000
     1.0000   1.0000   1.0000   1.0000   1.0000   1.0000   1.0000   1.0000
     1.0000   1.0000   1.0000   1.0000   1.0000   1.0000   1.0000   1.0000
     1.0000   1.0000   1.0000   1.0000   1.0000   1.0000   1.0000   1.0000

          k = 0.1667 0.0748-0.1332 ( 62964 PWs)   bands (ev):

   -17.8605 -17.8605 -17.8604 -17.8604 -17.8591 -17.8591 -17.8588 -17.8588
   -17.8481 -17.8481 -17.8475 -17.8475 -17.8446 -17.8446 -17.8432 -17.8432
   -17.8389 -17.8389 -17.8378 -17.8378 -17.7741 -17.7741 -17.7733 -17.7733
    -8.7372  -8.7372  -8.5451  -8.5451  -8.4373  -8.4373  -8.3676  -8.3676
    -8.2643  -8.2643  -8.2269  -8.2269  -4.6094  -4.6094  -4.6021  -4.6021
    -4.5966  -4.5966  -4.5840  -4.5840  -4.5641  -4.5641  -4.5426  -4.5426
    -2.9602  -2.9602  -2.8501  -2.8501   0.3008   0.3008   0.6078   0.6078
     0.7034   0.7034   0.9689   0.9689   1.0579   1.0579   1.1594   1.1594
     1.3754   1.3754   1.5205   1.5205   1.7296   1.7296   1.7639   1.7639
     1.9107   1.9107   1.9764   1.9764   2.0534   2.0534   2.1102   2.1102
     2.1863   2.1863   2.3173   2.3173   2.6966   2.6966   2.9420   2.9420

     occupation numbers 
     1.0000   1.0000   1.0000   1.0000   1.0000   1.0000   1.0000   1.0000
     1.0000   1.0000   1.0000   1.0000   1.0000   1.0000   1.0000   1.0000
     1.0000   1.0000   1.0000   1.0000   1.0000   1.0000   1.0000   1.0000
     1.0000   1.0000   1.0000   1.0000   1.0000   1.0000   1.0000   1.0000
     1.0000   1.0000   1.0000   1.0000   1.0000   1.0000   1.0000   1.0000
     1.0000   1.0000   1.0000   1.0000   1.0000   1.0000   1.0000   1.0000
     1.0000   1.0000   1.0000   1.0000   1.0000   1.0000   1.0000   1.0000
     1.0000   1.0000   1.0000   1.0000   1.0000   1.0000   1.0000   1.0000
     1.0000   1.0000   1.0000   1.0000   1.0000   1.0000   1.0000   1.0000
     1.0000   1.0000   1.0000   1.0000   1.0000   1.0000   1.0000   1.0000
     1.0000   1.0000   1.0000   1.0000   1.0000   1.0000   1.0000   1.0000

          k = 0.1667-0.2245 0.0444 ( 62990 PWs)   bands (ev):

   -17.8605 -17.8605 -17.8604 -17.8604 -17.8591 -17.8591 -17.8588 -17.8588
   -17.8482 -17.8482 -17.8475 -17.8475 -17.8446 -17.8446 -17.8433 -17.8433
   -17.8389 -17.8389 -17.8378 -17.8378 -17.7738 -17.7738 -17.7736 -17.7736
    -8.7206  -8.7206  -8.5744  -8.5744  -8.4604  -8.4604  -8.3334  -8.3334
    -8.2535  -8.2535  -8.2347  -8.2347  -4.6095  -4.6095  -4.6070  -4.6070
    -4.5997  -4.5997  -4.5841  -4.5841  -4.5547  -4.5547  -4.5503  -4.5503
    -2.9580  -2.9580  -2.8444  -2.8444   0.3164   0.3164   0.5050   0.5050
     0.6972   0.6972   0.9349   0.9349   1.0855   1.0855   1.2554   1.2554
     1.5124   1.5124   1.5641   1.5641   1.6706   1.6706   1.7573   1.7573
     1.9066   1.9066   1.9830   1.9830   2.0280   2.0280   2.1441   2.1441
     2.1708   2.1708   2.2246   2.2246   2.6692   2.6692   2.9040   2.9040

     occupation numbers 
     1.0000   1.0000   1.0000   1.0000   1.0000   1.0000   1.0000   1.0000
     1.0000   1.0000   1.0000   1.0000   1.0000   1.0000   1.0000   1.0000
     1.0000   1.0000   1.0000   1.0000   1.0000   1.0000   1.0000   1.0000
     1.0000   1.0000   1.0000   1.0000   1.0000   1.0000   1.0000   1.0000
     1.0000   1.0000   1.0000   1.0000   1.0000   1.0000   1.0000   1.0000
     1.0000   1.0000   1.0000   1.0000   1.0000   1.0000   1.0000   1.0000
     1.0000   1.0000   1.0000   1.0000   1.0000   1.0000   1.0000   1.0000
     1.0000   1.0000   1.0000   1.0000   1.0000   1.0000   1.0000   1.0000
     1.0000   1.0000   1.0000   1.0000   1.0000   1.0000   1.0000   1.0000
     1.0000   1.0000   1.0000   1.0000   1.0000   1.0000   1.0000   1.0000
     1.0000   1.0000   1.0000   1.0000   1.0000   1.0000   1.0000   1.0000

          k = 0.1667-0.2245-0.1332 ( 62992 PWs)   bands (ev):

   -17.8605 -17.8605 -17.8604 -17.8604 -17.8591 -17.8591 -17.8589 -17.8589
   -17.8481 -17.8481 -17.8475 -17.8475 -17.8446 -17.8446 -17.8433 -17.8433
   -17.8389 -17.8389 -17.8378 -17.8378 -17.7738 -17.7738 -17.7736 -17.7736
    -8.7206  -8.7206  -8.5746  -8.5746  -8.4590  -8.4590  -8.3366  -8.3366
    -8.2449  -8.2449  -8.2412  -8.2412  -4.6084  -4.6084  -4.6083  -4.6083
    -4.6003  -4.6003  -4.5844  -4.5844  -4.5531  -4.5531  -4.5508  -4.5508
    -2.9575  -2.9575  -2.8451  -2.8451   0.3329   0.3329   0.4780   0.4780
     0.7286   0.7286   0.9438   0.9438   1.0142   1.0142   1.2618   1.2618
     1.5473   1.5473   1.6363   1.6363   1.6363   1.6363   1.7218   1.7218
     1.9056   1.9056   2.0017   2.0017   2.0215   2.0215   2.1358   2.1358
     2.1619   2.1619   2.2324   2.2324   2.6759   2.6759   2.8910   2.8910

     occupation numbers 
     1.0000   1.0000   1.0000   1.0000   1.0000   1.0000   1.0000   1.0000
     1.0000   1.0000   1.0000   1.0000   1.0000   1.0000   1.0000   1.0000
     1.0000   1.0000   1.0000   1.0000   1.0000   1.0000   1.0000   1.0000
     1.0000   1.0000   1.0000   1.0000   1.0000   1.0000   1.0000   1.0000
     1.0000   1.0000   1.0000   1.0000   1.0000   1.0000   1.0000   1.0000
     1.0000   1.0000   1.0000   1.0000   1.0000   1.0000   1.0000   1.0000
     1.0000   1.0000   1.0000   1.0000   1.0000   1.0000   1.0000   1.0000
     1.0000   1.0000   1.0000   1.0000   1.0000   1.0000   1.0000   1.0000
     1.0000   1.0000   1.0000   1.0000   1.0000   1.0000   1.0000   1.0000
     1.0000   1.0000   1.0000   1.0000   1.0000   1.0000   1.0000   1.0000
     1.0000   1.0000   1.0000   1.0000   1.0000   1.0000   1.0000   1.0000

          k =-0.5001 0.0748 0.0444 ( 63010 PWs)   bands (ev):

   -17.8616 -17.8616 -17.8616 -17.8616 -17.8594 -17.8594 -17.8594 -17.8594
   -17.8478 -17.8478 -17.8478 -17.8478 -17.8419 -17.8419 -17.8419 -17.8419
   -17.8388 -17.8388 -17.8388 -17.8388 -17.7655 -17.7655 -17.7649 -17.7649
    -8.4868  -8.4868  -8.4845  -8.4845  -8.3124  -8.3124  -8.3055  -8.3055
    -8.2894  -8.2894  -8.2715  -8.2715  -4.7792  -4.7792  -4.7205  -4.7205
    -4.5981  -4.5981  -4.5886  -4.5886  -4.5739  -4.5739  -4.5474  -4.5474
    -3.1967  -3.1967  -3.1671  -3.1671   0.0940   0.0940   0.1091   0.1091
     0.5402   0.5402   0.5859   0.5859   0.8643   0.8643   0.8991   0.8991
     1.2898   1.2898   1.5920   1.5920   1.6630   1.6630   1.7747   1.7747
     1.7926   1.7926   1.8193   1.8193   1.8782   1.8782   1.9643   1.9643
     2.0872   2.0872   2.1070   2.1070   2.6201   2.6201   2.9114   2.9114

     occupation numbers 
     1.0000   1.0000   1.0000   1.0000   1.0000   1.0000   1.0000   1.0000
     1.0000   1.0000   1.0000   1.0000   1.0000   1.0000   1.0000   1.0000
     1.0000   1.0000   1.0000   1.0000   1.0000   1.0000   1.0000   1.0000
     1.0000   1.0000   1.0000   1.0000   1.0000   1.0000   1.0000   1.0000
     1.0000   1.0000   1.0000   1.0000   1.0000   1.0000   1.0000   1.0000
     1.0000   1.0000   1.0000   1.0000   1.0000   1.0000   1.0000   1.0000
     1.0000   1.0000   1.0000   1.0000   1.0000   1.0000   1.0000   1.0000
     1.0000   1.0000   1.0000   1.0000   1.0000   1.0000   1.0000   1.0000
     1.0000   1.0000   1.0000   1.0000   1.0000   1.0000   1.0000   1.0000
     1.0000   1.0000   1.0000   1.0000   1.0000   1.0000   1.0000   1.0000
     1.0000   1.0000   1.0000   1.0000   1.0000   1.0000   1.0000   1.0000

          k =-0.5001 0.0748-0.1332 ( 63096 PWs)   bands (ev):

   -17.8617 -17.8617 -17.8616 -17.8616 -17.8594 -17.8594 -17.8594 -17.8594
   -17.8478 -17.8478 -17.8478 -17.8478 -17.8419 -17.8419 -17.8419 -17.8419
   -17.8388 -17.8388 -17.8388 -17.8388 -17.7655 -17.7655 -17.7649 -17.7649
    -8.4872  -8.4872  -8.4841  -8.4841  -8.3119  -8.3119  -8.3061  -8.3061
    -8.2892  -8.2892  -8.2715  -8.2715  -4.7791  -4.7791  -4.7205  -4.7205
    -4.5983  -4.5983  -4.5886  -4.5886  -4.5737  -4.5737  -4.5475  -4.5475
    -3.1922  -3.1922  -3.1717  -3.1717   0.0875   0.0875   0.1170   0.1170
     0.5562   0.5562   0.5870   0.5870   0.8492   0.8492   0.8675   0.8675
     1.3393   1.3393   1.6059   1.6059   1.6579   1.6579   1.7411   1.7411
     1.7637   1.7637   1.8353   1.8353   1.8549   1.8549   1.9885   1.9885
     2.0961   2.0961   2.1113   2.1113   2.6596   2.6596   2.8719   2.8719

     occupation numbers 
     1.0000   1.0000   1.0000   1.0000   1.0000   1.0000   1.0000   1.0000
     1.0000   1.0000   1.0000   1.0000   1.0000   1.0000   1.0000   1.0000
     1.0000   1.0000   1.0000   1.0000   1.0000   1.0000   1.0000   1.0000
     1.0000   1.0000   1.0000   1.0000   1.0000   1.0000   1.0000   1.0000
     1.0000   1.0000   1.0000   1.0000   1.0000   1.0000   1.0000   1.0000
     1.0000   1.0000   1.0000   1.0000   1.0000   1.0000   1.0000   1.0000
     1.0000   1.0000   1.0000   1.0000   1.0000   1.0000   1.0000   1.0000
     1.0000   1.0000   1.0000   1.0000   1.0000   1.0000   1.0000   1.0000
     1.0000   1.0000   1.0000   1.0000   1.0000   1.0000   1.0000   1.0000
     1.0000   1.0000   1.0000   1.0000   1.0000   1.0000   1.0000   1.0000
     1.0000   1.0000   1.0000   1.0000   1.0000   1.0000   1.0000   1.0000

          k =-0.5001-0.2245 0.0444 ( 63072 PWs)   bands (ev):

   -17.8616 -17.8616 -17.8616 -17.8616 -17.8594 -17.8594 -17.8594 -17.8594
   -17.8478 -17.8478 -17.8478 -17.8478 -17.8419 -17.8419 -17.8419 -17.8419
   -17.8388 -17.8388 -17.8388 -17.8388 -17.7652 -17.7652 -17.7652 -17.7652
    -8.4857  -8.4857  -8.4857  -8.4857  -8.3097  -8.3097  -8.3097  -8.3097
    -8.2797  -8.2797  -8.2797  -8.2797  -4.7499  -4.7499  -4.7499  -4.7499
    -4.5922  -4.5922  -4.5922  -4.5922  -4.5617  -4.5617  -4.5617  -4.5617
    -3.1824  -3.1824  -3.1824  -3.1824   0.2179   0.2179   0.2179   0.2179
     0.4360   0.4360   0.4360   0.4360   0.8494   0.8494   0.8494   0.8494
     1.4304   1.4304   1.4304   1.4304   1.6607   1.6607   1.6607   1.6607
     1.7997   1.7997   1.7997   1.7997   1.9294   1.9294   1.9294   1.9294
     2.1437   2.1437   2.1437   2.1437   2.8766   2.8766   2.8766   2.8766

     occupation numbers 
     1.0000   1.0000   1.0000   1.0000   1.0000   1.0000   1.0000   1.0000
     1.0000   1.0000   1.0000   1.0000   1.0000   1.0000   1.0000   1.0000
     1.0000   1.0000   1.0000   1.0000   1.0000   1.0000   1.0000   1.0000
     1.0000   1.0000   1.0000   1.0000   1.0000   1.0000   1.0000   1.0000
     1.0000   1.0000   1.0000   1.0000   1.0000   1.0000   1.0000   1.0000
     1.0000   1.0000   1.0000   1.0000   1.0000   1.0000   1.0000   1.0000
     1.0000   1.0000   1.0000   1.0000   1.0000   1.0000   1.0000   1.0000
     1.0000   1.0000   1.0000   1.0000   1.0000   1.0000   1.0000   1.0000
     1.0000   1.0000   1.0000   1.0000   1.0000   1.0000   1.0000   1.0000
     1.0000   1.0000   1.0000   1.0000   1.0000   1.0000   1.0000   1.0000
     1.0000   1.0000   1.0000   1.0000   1.0000   1.0000   1.0000   1.0000

          k =-0.5001-0.2245-0.1332 ( 63040 PWs)   bands (ev):

   -17.8616 -17.8616 -17.8616 -17.8616 -17.8594 -17.8594 -17.8594 -17.8594
   -17.8478 -17.8478 -17.8478 -17.8478 -17.8419 -17.8419 -17.8419 -17.8419
   -17.8388 -17.8388 -17.8388 -17.8388 -17.7652 -17.7652 -17.7652 -17.7652
    -8.4857  -8.4857  -8.4857  -8.4857  -8.3096  -8.3096  -8.3096  -8.3096
    -8.2798  -8.2798  -8.2798  -8.2798  -4.7499  -4.7499  -4.7499  -4.7499
    -4.5921  -4.5921  -4.5921  -4.5921  -4.5618  -4.5618  -4.5618  -4.5618
    -3.1824  -3.1824  -3.1824  -3.1824   0.2131   0.2131   0.2131   0.2131
     0.4383   0.4383   0.4383   0.4383   0.8691   0.8691   0.8691   0.8691
     1.3710   1.3710   1.3710   1.3710   1.7091   1.7091   1.7091   1.7091
     1.8022   1.8022   1.8022   1.8022   1.9454   1.9454   1.9454   1.9454
     2.1137   2.1137   2.1137   2.1137   2.8832   2.8832   2.8832   2.8832

     occupation numbers 
     1.0000   1.0000   1.0000   1.0000   1.0000   1.0000   1.0000   1.0000
     1.0000   1.0000   1.0000   1.0000   1.0000   1.0000   1.0000   1.0000
     1.0000   1.0000   1.0000   1.0000   1.0000   1.0000   1.0000   1.0000
     1.0000   1.0000   1.0000   1.0000   1.0000   1.0000   1.0000   1.0000
     1.0000   1.0000   1.0000   1.0000   1.0000   1.0000   1.0000   1.0000
     1.0000   1.0000   1.0000   1.0000   1.0000   1.0000   1.0000   1.0000
     1.0000   1.0000   1.0000   1.0000   1.0000   1.0000   1.0000   1.0000
     1.0000   1.0000   1.0000   1.0000   1.0000   1.0000   1.0000   1.0000
     1.0000   1.0000   1.0000   1.0000   1.0000   1.0000   1.0000   1.0000
     1.0000   1.0000   1.0000   1.0000   1.0000   1.0000   1.0000   1.0000
     1.0000   1.0000   1.0000   1.0000   1.0000   1.0000   1.0000   1.0000

     highest occupied level (ev):     3.0121

!    total energy              =   -7979.66519636 Ry

     total all-electron energy =   -282510.819909 Ry
     estimated scf accuracy    <       0.00000009 Ry

     The total energy is the sum of the following terms:
     one-electron contribution =    -463.51600448 Ry
     hartree contribution      =     316.56312456 Ry
     xc contribution           =    -465.89900455 Ry
     ewald contribution        =    -633.67875514 Ry
     one-center paw contrib.   =   -6733.13455675 Ry
      -> PAW hartree energy AE =      25.63435027 Ry
      -> PAW hartree energy PS =     -25.52478685 Ry
      -> PAW xc energy AE      =    -383.53036279 Ry
      -> PAW xc energy PS      =      20.51501343 Ry
      -> total E_H with PAW    =     316.67268798 Ry
      -> total E_XC with PAW   =    -828.91435391 Ry

     convergence has been achieved in  18 iterations

     Forces acting on atoms (cartesian axes, Ry/au):

     atom    1 type  1   force =    -0.00000000   -0.00060968    0.00041604
     atom    2 type  1   force =    -0.00000000    0.00060968   -0.00041604
     atom    3 type  1   force =     0.00000000   -0.00060968   -0.00041604
     atom    4 type  1   force =     0.00000000    0.00060968    0.00041604
     atom    5 type  2   force =     0.00000000   -0.00087531    0.00038864
     atom    6 type  2   force =     0.00000000    0.00087531   -0.00038864
     atom    7 type  2   force =     0.00000000   -0.00087531   -0.00038864
     atom    8 type  2   force =     0.00000000    0.00087531    0.00038864
     atom    9 type  3   force =    -0.00000000   -0.00001595   -0.00019592
     atom   10 type  3   force =     0.00000000    0.00001595    0.00019592
     atom   11 type  3   force =     0.00000000   -0.00001595    0.00019592
     atom   12 type  3   force =     0.00000000    0.00001595   -0.00019592
     atom   13 type  3   force =     0.00000000   -0.00011432   -0.00053870
     atom   14 type  3   force =     0.00000000    0.00011432    0.00053870
     atom   15 type  3   force =     0.00000000   -0.00011432    0.00053870
     atom   16 type  3   force =     0.00000000    0.00011432   -0.00053870
     atom   17 type  3   force =    -0.00000000   -0.00035850    0.00025576
     atom   18 type  3   force =     0.00000000    0.00035850   -0.00025576
     atom   19 type  3   force =     0.00000000   -0.00035850   -0.00025576
     atom   20 type  3   force =     0.00000000    0.00035850    0.00025576
     The non-local contrib.  to forces
     atom    1 type  1   force =     0.00000000    0.00218881   -0.00221524
     atom    2 type  1   force =     0.00000000   -0.00218881    0.00221524
     atom    3 type  1   force =     0.00000000    0.00218881    0.00221524
     atom    4 type  1   force =     0.00000000   -0.00218881   -0.00221524
     atom    5 type  2   force =    -0.00000000   -0.08670710   -0.13230005
     atom    6 type  2   force =    -0.00000000    0.08670710    0.13230005
     atom    7 type  2   force =     0.00000000   -0.08670710    0.13230005
     atom    8 type  2   force =     0.00000000    0.08670710   -0.13230005
     atom    9 type  3   force =     0.00000000   -0.04579961   -0.04588807
     atom   10 type  3   force =     0.00000000    0.04579961    0.04588807
     atom   11 type  3   force =    -0.00000000   -0.04579961    0.04588807
     atom   12 type  3   force =    -0.00000000    0.04579961   -0.04588807
     atom   13 type  3   force =     0.00000000   -0.03286270    0.05566689
     atom   14 type  3   force =     0.00000000    0.03286270   -0.05566689
     atom   15 type  3   force =    -0.00000000   -0.03286270   -0.05566689
     atom   16 type  3   force =    -0.00000000    0.03286270    0.05566689
     atom   17 type  3   force =     0.00000000    0.05279252   -0.01515714
     atom   18 type  3   force =     0.00000000   -0.05279252    0.01515714
     atom   19 type  3   force =     0.00000000    0.05279252    0.01515714
     atom   20 type  3   force =     0.00000000   -0.05279252   -0.01515714
     The ionic contribution  to forces
     atom    1 type  1   force =    -0.00000000    0.02350939    0.42890989
     atom    2 type  1   force =    -0.00000000   -0.02350939   -0.42890989
     atom    3 type  1   force =    -0.00000000    0.02350939   -0.42890989
     atom    4 type  1   force =    -0.00000000   -0.02350939    0.42890989
     atom    5 type  2   force =    -0.00000000   -2.44406604   -1.60342621
     atom    6 type  2   force =    -0.00000000    2.44406604    1.60342621
     atom    7 type  2   force =    -0.00000000   -2.44406604    1.60342621
     atom    8 type  2   force =    -0.00000000    2.44406604   -1.60342621
     atom    9 type  3   force =    -0.00000000    3.00577446    5.13407848
     atom   10 type  3   force =    -0.00000000   -3.00577446   -5.13407848
     atom   11 type  3   force =    -0.00000000    3.00577446   -5.13407848
     atom   12 type  3   force =    -0.00000000   -3.00577446    5.13407848
     atom   13 type  3   force =     0.00000000    2.02340551   -3.75339294
     atom   14 type  3   force =    -0.00000000   -2.02340551    3.75339294
     atom   15 type  3   force =     0.00000000    2.02340551    3.75339294
     atom   16 type  3   force =    -0.00000000   -2.02340551   -3.75339294
     atom   17 type  3   force =     0.00000000   -4.20595318    2.10351227
     atom   18 type  3   force =    -0.00000000    4.20595318   -2.10351227
     atom   19 type  3   force =     0.00000000   -4.20595318   -2.10351227
     atom   20 type  3   force =    -0.00000000    4.20595318    2.10351227
     The local contribution  to forces
     atom    1 type  1   force =    -0.00000000   -0.02610933   -0.42634290
     atom    2 type  1   force =     0.00000000    0.02610933    0.42634290
     atom    3 type  1   force =    -0.00000000   -0.02610933    0.42634290
     atom    4 type  1   force =    -0.00000000    0.02610933   -0.42634290
     atom    5 type  2   force =    -0.00000000    2.53023860    1.73601707
     atom    6 type  2   force =    -0.00000000   -2.53023860   -1.73601707
     atom    7 type  2   force =    -0.00000000    2.53023860   -1.73601707
     atom    8 type  2   force =    -0.00000000   -2.53023860    1.73601707
     atom    9 type  3   force =     0.00000000   -2.96604374   -5.09464287
     atom   10 type  3   force =    -0.00000000    2.96604374    5.09464287
     atom   11 type  3   force =     0.00000000   -2.96604374    5.09464287
     atom   12 type  3   force =    -0.00000000    2.96604374   -5.09464287
     atom   13 type  3   force =    -0.00000000   -1.99499668    3.70452771
     atom   14 type  3   force =     0.00000000    1.99499668   -3.70452771
     atom   15 type  3   force =    -0.00000000   -1.99499668   -3.70452771
     atom   16 type  3   force =     0.00000000    1.99499668    3.70452771
     atom   17 type  3   force =     0.00000000    4.16003264   -2.09034812
     atom   18 type  3   force =    -0.00000000   -4.16003264    2.09034812
     atom   19 type  3   force =    -0.00000000    4.16003264    2.09034812
     atom   20 type  3   force =    -0.00000000   -4.16003264   -2.09034812
     The core correction contribution to forces
     atom    1 type  1   force =     0.00000000   -0.00017722    0.00019671
     atom    2 type  1   force =     0.00000000    0.00017722   -0.00019671
     atom    3 type  1   force =     0.00000000   -0.00017722   -0.00019671
     atom    4 type  1   force =     0.00000000    0.00017722    0.00019671
     atom    5 type  2   force =     0.00000000    0.00016509    0.00009639
     atom    6 type  2   force =     0.00000000   -0.00016509   -0.00009639
     atom    7 type  2   force =     0.00000000    0.00016509   -0.00009639
     atom    8 type  2   force =     0.00000000   -0.00016509    0.00009639
     atom    9 type  3   force =     0.00000000    0.00606652    0.00631812
     atom   10 type  3   force =     0.00000000   -0.00606652   -0.00631812
     atom   11 type  3   force =     0.00000000    0.00606652   -0.00631812
     atom   12 type  3   force =    -0.00000000   -0.00606652    0.00631812
     atom   13 type  3   force =     0.00000000    0.00434237   -0.00743402
     atom   14 type  3   force =     0.00000000   -0.00434237    0.00743402
     atom   15 type  3   force =     0.00000000    0.00434237    0.00743402
     atom   16 type  3   force =     0.00000000   -0.00434237   -0.00743402
     atom   17 type  3   force =    -0.00000000   -0.00723046    0.00228167
     atom   18 type  3   force =     0.00000000    0.00723046   -0.00228167
     atom   19 type  3   force =    -0.00000000   -0.00723046   -0.00228167
     atom   20 type  3   force =     0.00000000    0.00723046    0.00228167
     The Hubbard contrib.    to forces
     atom    1 type  1   force =     0.00000000    0.00000000    0.00000000
     atom    2 type  1   force =     0.00000000    0.00000000    0.00000000
[...]

          k =-0.5005-0.2247-0.1333 ( 62784 PWs)   bands (ev):

   -17.8299 -17.8299 -17.8299 -17.8299 -17.8274 -17.8274 -17.8274 -17.8274
   -17.8158 -17.8158 -17.8158 -17.8158 -17.8101 -17.8101 -17.8101 -17.8101
   -17.8068 -17.8068 -17.8068 -17.8068 -17.7328 -17.7328 -17.7328 -17.7328
    -8.4626  -8.4626  -8.4626  -8.4626  -8.2899  -8.2899  -8.2899  -8.2899
    -8.2571  -8.2571  -8.2571  -8.2571  -4.7194  -4.7194  -4.7194  -4.7194
    -4.5613  -4.5613  -4.5613  -4.5613  -4.5307  -4.5307  -4.5307  -4.5307
    -3.1592  -3.1592  -3.1592  -3.1592   0.2313   0.2313   0.2313   0.2313
     0.4559   0.4559   0.4559   0.4559   0.8904   0.8904   0.8904   0.8904
     1.3911   1.3911   1.3911   1.3911   1.7315   1.7315   1.7315   1.7315
     1.8258   1.8258   1.8258   1.8258   1.9685   1.9685   1.9685   1.9685
     2.1379   2.1379   2.1379   2.1379   2.9150   2.9150   2.9150   2.9150

     occupation numbers 
     1.0000   1.0000   1.0000   1.0000   1.0000   1.0000   1.0000   1.0000
     1.0000   1.0000   1.0000   1.0000   1.0000   1.0000   1.0000   1.0000
     1.0000   1.0000   1.0000   1.0000   1.0000   1.0000   1.0000   1.0000
     1.0000   1.0000   1.0000   1.0000   1.0000   1.0000   1.0000   1.0000
     1.0000   1.0000   1.0000   1.0000   1.0000   1.0000   1.0000   1.0000
     1.0000   1.0000   1.0000   1.0000   1.0000   1.0000   1.0000   1.0000
     1.0000   1.0000   1.0000   1.0000   1.0000   1.0000   1.0000   1.0000
     1.0000   1.0000   1.0000   1.0000   1.0000   1.0000   1.0000   1.0000
     1.0000   1.0000   1.0000   1.0000   1.0000   1.0000   1.0000   1.0000
     1.0000   1.0000   1.0000   1.0000   1.0000   1.0000   1.0000   1.0000
     1.0000   1.0000   1.0000   1.0000   1.0000   1.0000   1.0000   1.0000

     highest occupied level (ev):     3.0444

!    total energy              =   -7979.66519348 Ry

     total all-electron energy =   -282510.819906 Ry
     estimated scf accuracy    <          9.0E-11 Ry

     The total energy is the sum of the following terms:
     one-electron contribution =    -462.16288484 Ry
     hartree contribution      =     316.06840323 Ry
     xc contribution           =    -465.91459077 Ry
     ewald contribution        =    -634.52004080 Ry
     one-center paw contrib.   =   -6733.13608030 Ry
      -> PAW hartree energy AE =      25.63651974 Ry
      -> PAW hartree energy PS =     -25.52695206 Ry
      -> PAW xc energy AE      =    -383.53071047 Ry
      -> PAW xc energy PS      =      20.51532446 Ry
      -> total E_H with PAW    =     316.17797091 Ry
      -> total E_XC with PAW   =    -828.92997678 Ry

     convergence has been achieved in  18 iterations

     Forces acting on atoms (cartesian axes, Ry/au):

     atom    1 type  1   force =     0.00000000   -0.00056448    0.00036719
     atom    2 type  1   force =     0.00000000    0.00056448   -0.00036719
     atom    3 type  1   force =     0.00000000   -0.00056448   -0.00036719
     atom    4 type  1   force =     0.00000000    0.00056448    0.00036719
     atom    5 type  2   force =     0.00000000   -0.00039874    0.00037391
     atom    6 type  2   force =     0.00000000    0.00039874   -0.00037391
     atom    7 type  2   force =     0.00000000   -0.00039874   -0.00037391
     atom    8 type  2   force =     0.00000000    0.00039874    0.00037391
     atom    9 type  3   force =     0.00000000    0.00009042   -0.00005174
     atom   10 type  3   force =     0.00000000   -0.00009042    0.00005174
     atom   11 type  3   force =     0.00000000    0.00009042    0.00005174
     atom   12 type  3   force =     0.00000000   -0.00009042   -0.00005174
     atom   13 type  3   force =     0.00000000    0.00006518   -0.00070700
     atom   14 type  3   force =     0.00000000   -0.00006518    0.00070700
     atom   15 type  3   force =     0.00000000    0.00006518    0.00070700
     atom   16 type  3   force =     0.00000000   -0.00006518   -0.00070700
     atom   17 type  3   force =     0.00000000   -0.00067853    0.00039974
     atom   18 type  3   force =     0.00000000    0.00067853   -0.00039974
     atom   19 type  3   force =     0.00000000   -0.00067853   -0.00039974
     atom   20 type  3   force =     0.00000000    0.00067853    0.00039974
     The non-local contrib.  to forces
     atom    1 type  1   force =     0.00000000    0.00228586   -0.00236353
     atom    2 type  1   force =     0.00000000   -0.00228586    0.00236353
     atom    3 type  1   force =     0.00000000    0.00228586    0.00236353
     atom    4 type  1   force =     0.00000000   -0.00228586   -0.00236353
     atom    5 type  2   force =     0.00000000   -0.08674313   -0.13133190
     atom    6 type  2   force =     0.00000000    0.08674313    0.13133190
     atom    7 type  2   force =    -0.00000000   -0.08674313    0.13133190
     atom    8 type  2   force =     0.00000000    0.08674313   -0.13133190
     atom    9 type  3   force =     0.00000000   -0.04563357   -0.04596890
     atom   10 type  3   force =    -0.00000000    0.04563357    0.04596890
     atom   11 type  3   force =     0.00000000   -0.04563357    0.04596890
     atom   12 type  3   force =     0.00000000    0.04563357   -0.04596890
     atom   13 type  3   force =    -0.00000000   -0.03254410    0.05562228
     atom   14 type  3   force =     0.00000000    0.03254410   -0.05562228
     atom   15 type  3   force =     0.00000000   -0.03254410   -0.05562228
     atom   16 type  3   force =     0.00000000    0.03254410    0.05562228
     atom   17 type  3   force =     0.00000000    0.05265337   -0.01527144
     atom   18 type  3   force =     0.00000000   -0.05265337    0.01527144
     atom   19 type  3   force =     0.00000000    0.05265337    0.01527144
     atom   20 type  3   force =     0.00000000   -0.05265337   -0.01527144
     The ionic contribution  to forces
     atom    1 type  1   force =     0.00000000    0.03096746    0.43230427
     atom    2 type  1   force =    -0.00000000   -0.03096746   -0.43230427
     atom    3 type  1   force =     0.00000000    0.03096746   -0.43230427
     atom    4 type  1   force =    -0.00000000   -0.03096746    0.43230427
     atom    5 type  2   force =     0.00000000   -2.44031745   -1.60484578
     atom    6 type  2   force =    -0.00000000    2.44031745    1.60484578
     atom    7 type  2   force =     0.00000000   -2.44031745    1.60484578
     atom    8 type  2   force =    -0.00000000    2.44031745   -1.60484578
     atom    9 type  3   force =    -0.00000000    3.00008448    5.13755655
     atom   10 type  3   force =     0.00000000   -3.00008448   -5.13755655
     atom   11 type  3   force =    -0.00000000    3.00008448   -5.13755655
     atom   12 type  3   force =     0.00000000   -3.00008448    5.13755655
     atom   13 type  3   force =    -0.00000000    2.01351198   -3.75515810
     atom   14 type  3   force =     0.00000000   -2.01351198    3.75515810
     atom   15 type  3   force =    -0.00000000    2.01351198    3.75515810
     atom   16 type  3   force =     0.00000000   -2.01351198   -3.75515810
     atom   17 type  3   force =    -0.00000000   -4.20260901    2.10932964
     atom   18 type  3   force =     0.00000000    4.20260901   -2.10932964
     atom   19 type  3   force =    -0.00000000   -4.20260901   -2.10932964
     atom   20 type  3   force =     0.00000000    4.20260901    2.10932964
     The local contribution  to forces
     atom    1 type  1   force =    -0.00000000   -0.03363193   -0.42977521
     atom    2 type  1   force =    -0.00000000    0.03363193    0.42977521
     atom    3 type  1   force =    -0.00000000   -0.03363193    0.42977521
     atom    4 type  1   force =    -0.00000000    0.03363193   -0.42977521
     atom    5 type  2   force =    -0.00000000    2.52655233    1.73646457
     atom    6 type  2   force =    -0.00000000   -2.52655233   -1.73646457
     atom    7 type  2   force =    -0.00000000    2.52655233   -1.73646457
     atom    8 type  2   force =    -0.00000000   -2.52655233    1.73646457
     atom    9 type  3   force =    -0.00000000   -2.96040491   -5.09797245
     atom   10 type  3   force =    -0.00000000    2.96040491    5.09797245
     atom   11 type  3   force =    -0.00000000   -2.96040491    5.09797245
     atom   12 type  3   force =    -0.00000000    2.96040491   -5.09797245
     atom   13 type  3   force =    -0.00000000   -1.98520336    3.70625266
     atom   14 type  3   force =    -0.00000000    1.98520336   -3.70625266
     atom   15 type  3   force =    -0.00000000   -1.98520336   -3.70625266
     atom   16 type  3   force =    -0.00000000    1.98520336    3.70625266
     atom   17 type  3   force =    -0.00000000    4.15649092   -2.09595330
     atom   18 type  3   force =    -0.00000000   -4.15649092    2.09595330
     atom   19 type  3   force =    -0.00000000    4.15649092    2.09595330
     atom   20 type  3   force =    -0.00000000   -4.15649092   -2.09595330
     The core correction contribution to forces
     atom    1 type  1   force =     0.00000000   -0.00018489    0.00020219
     atom    2 type  1   force =     0.00000000    0.00018489   -0.00020219
     atom    3 type  1   force =     0.00000000   -0.00018489   -0.00020219
     atom    4 type  1   force =     0.00000000    0.00018489    0.00020219
     atom    5 type  2   force =    -0.00000000    0.00012344    0.00009392
     atom    6 type  2   force =    -0.00000000   -0.00012344   -0.00009392
     atom    7 type  2   force =    -0.00000000    0.00012344   -0.00009392
     atom    8 type  2   force =    -0.00000000   -0.00012344    0.00009392
     atom    9 type  3   force =     0.00000000    0.00604266    0.00632691
     atom   10 type  3   force =     0.00000000   -0.00604266   -0.00632691
     atom   11 type  3   force =     0.00000000    0.00604266   -0.00632691
     atom   12 type  3   force =     0.00000000   -0.00604266    0.00632691
     atom   13 type  3   force =     0.00000000    0.00429898   -0.00742206
     atom   14 type  3   force =     0.00000000   -0.00429898    0.00742206
     atom   15 type  3   force =     0.00000000    0.00429898    0.00742206
     atom   16 type  3   force =     0.00000000   -0.00429898   -0.00742206
     atom   17 type  3   force =     0.00000000   -0.00720799    0.00229392
     atom   18 type  3   force =    -0.00000000    0.00720799   -0.00229392
     atom   19 type  3   force =     0.00000000   -0.00720799   -0.00229392
     atom   20 type  3   force =     0.00000000    0.00720799    0.00229392
     The Hubbard contrib.    to forces
     atom    1 type  1   force =     0.00000000    0.00000000    0.00000000
     atom    2 type  1   force =     0.00000000    0.00000000    0.00000000
     atom    3 type  1   force =     0.00000000    0.00000000    0.00000000
     atom    4 type  1   force =     0.00000000    0.00000000    0.00000000
     atom    5 type  2   force =     0.00000000    0.00000000    0.00000000
     atom    6 type  2   force =     0.00000000    0.00000000    0.00000000
     atom    7 type  2   force =     0.00000000    0.00000000    0.00000000
     atom    8 type  2   force =     0.00000000    0.00000000    0.00000000
     atom    9 type  3   force =     0.00000000    0.00000000    0.00000000
     atom   10 type  3   force =     0.00000000    0.00000000    0.00000000
     atom   11 type  3   force =     0.00000000    0.00000000    0.00000000
     atom   12 type  3   force =     0.00000000    0.00000000    0.00000000
     atom   13 type  3   force =     0.00000000    0.00000000    0.00000000
     atom   14 type  3   force =     0.00000000    0.00000000    0.00000000
     atom   15 type  3   force =     0.00000000    0.00000000    0.00000000
     atom   16 type  3   force =     0.00000000    0.00000000    0.00000000
     atom   17 type  3   force =     0.00000000    0.00000000    0.00000000
     atom   18 type  3   force =     0.00000000    0.00000000    0.00000000
     atom   19 type  3   force =     0.00000000    0.00000000    0.00000000
     atom   20 type  3   force =     0.00000000    0.00000000    0.00000000
     The SCF correction term to forces
     atom    1 type  1   force =    -0.00000000   -0.00000098   -0.00000052
     atom    2 type  1   force =     0.00000000    0.00000098    0.00000052
     atom    3 type  1   force =    -0.00000000   -0.00000098    0.00000052
     atom    4 type  1   force =     0.00000000    0.00000098   -0.00000052
     atom    5 type  2   force =     0.00000000   -0.00001393   -0.00000691
     atom    6 type  2   force =     0.00000000    0.00001393    0.00000691
     atom    7 type  2   force =     0.00000000   -0.00001393    0.00000691
     atom    8 type  2   force =    -0.00000000    0.00001393   -0.00000691
     atom    9 type  3   force =    -0.00000000    0.00000176    0.00000615
     atom   10 type  3   force =     0.00000000   -0.00000176   -0.00000615
     atom   11 type  3   force =    -0.00000000    0.00000176   -0.00000615
     atom   12 type  3   force =     0.00000000   -0.00000176    0.00000615
     atom   13 type  3   force =    -0.00000000    0.00000168   -0.00000178
     atom   14 type  3   force =     0.00000000   -0.00000168    0.00000178
     atom   15 type  3   force =    -0.00000000    0.00000168    0.00000178
     atom   16 type  3   force =    -0.00000000   -0.00000168   -0.00000178
     atom   17 type  3   force =    -0.00000000   -0.00000582    0.00000092
     atom   18 type  3   force =    -0.00000000    0.00000582   -0.00000092
     atom   19 type  3   force =     0.00000000   -0.00000582   -0.00000092
     atom   20 type  3   force =    -0.00000000    0.00000582    0.00000092

     Total force =     0.002748     Total SCF correction =     0.000036


     Computing stress (Cartesian axis) and pressure

          total   stress  (Ry/bohr**3)                   (kbar)     P=       -0.28
  -0.00000111   0.00000000   0.00000000           -0.16        0.00        0.00
   0.00000000  -0.00000236   0.00000000            0.00       -0.35        0.00
   0.00000000   0.00000000  -0.00000226            0.00        0.00       -0.33

     kinetic stress (kbar)   5542.72      0.00      0.00
                                0.00   5555.69      0.00
                                0.00      0.00   5549.07

     local   stress (kbar)  -4514.72     -0.00     -0.00
                               -0.00  -1888.94      0.00
                               -0.00      0.00   -984.28

     nonloc. stress (kbar)   1145.15      0.00      0.00
                                0.00   1144.81      0.00
                                0.00      0.00   1147.13

     hartree stress (kbar)   3407.62     -0.00      0.00
                               -0.00   2196.34      0.00
                                0.00      0.00   1721.11

     exc-cor stress (kbar)   5466.40     -0.00     -0.00
                               -0.00   5466.09      0.00
                               -0.00      0.00   5466.51

     corecor stress (kbar)  -7238.42     -0.00     -0.00
                               -0.00  -7238.92      0.00
                               -0.00      0.00  -7238.85

     ewald   stress (kbar)  -3808.91      0.00      0.00
                                0.00  -5235.41     -0.00
                                0.00     -0.00  -5661.04

     hubbard stress (kbar)      0.00      0.00      0.00
                                0.00      0.00      0.00
                                0.00      0.00      0.00

     DFT-D   stress (kbar)      0.00      0.00      0.00
                                0.00      0.00      0.00
                                0.00      0.00      0.00

     XDM     stress (kbar)      0.00      0.00      0.00
                                0.00      0.00      0.00
                                0.00      0.00      0.00

     dft-nl  stress (kbar)      0.00      0.00      0.00
                                0.00      0.00      0.00
                                0.00      0.00      0.00

     TS-vdW  stress (kbar)      0.00      0.00      0.00
                                0.00      0.00      0.00
                                0.00      0.00      0.00



     Writing output data file ./CsSnI3.save/
 
     init_run     :     15.30s CPU     15.95s WALL (       2 calls)
     electrons    :   1374.86s CPU   1451.83s WALL (       6 calls)
     update_pot   :     12.78s CPU     12.81s WALL (       4 calls)
     forces       :     25.93s CPU     27.02s WALL (       6 calls)
     stress       :    133.09s CPU    135.90s WALL (       6 calls)

     Called by init_run:
     wfcinit      :      5.77s CPU      5.95s WALL (       2 calls)
     wfcinit:atom :      0.06s CPU      0.06s WALL (      16 calls)
     wfcinit:wfcr :      5.40s CPU      5.55s WALL (      16 calls)
     potinit      :      2.38s CPU      2.42s WALL (       2 calls)
     hinit0       :      3.66s CPU      3.71s WALL (       2 calls)

     Called by electrons:
     c_bands      :    993.43s CPU   1014.52s WALL (     125 calls)
     sum_band     :    225.29s CPU    259.06s WALL (     125 calls)
     v_of_rho     :     11.22s CPU     11.35s WALL (     129 calls)
     v_h          :      0.90s CPU      0.91s WALL (     129 calls)
     v_xc         :     11.28s CPU     11.42s WALL (     141 calls)
     newd         :     90.28s CPU    112.09s WALL (     129 calls)
     PAW_pot      :     57.95s CPU     58.15s WALL (     133 calls)
     mix_rho      :      3.60s CPU      3.66s WALL (     125 calls)

     Called by c_bands:
     init_us_2    :     25.02s CPU     25.30s WALL (    2144 calls)
     cegterg      :    907.11s CPU    926.41s WALL (    1000 calls)

     Called by sum_band:
     sum_band:wei :      0.01s CPU      0.01s WALL (     125 calls)
     sum_band:loo :    125.79s CPU    129.45s WALL (     125 calls)
     sum_band:buf :      2.65s CPU      2.71s WALL (    1000 calls)
     sum_band:ini :     11.57s CPU     11.67s WALL (    1000 calls)
     sum_band:cal :     27.22s CPU     29.18s WALL (    1032 calls)
     sum_band:bec :      1.06s CPU      1.10s WALL (    1032 calls)
     addusdens    :     95.09s CPU    125.12s WALL (     125 calls)
     addusd:skk   :      0.57s CPU      0.68s WALL (     375 calls)
     addusd:dgemm :     37.91s CPU     66.99s WALL (     375 calls)
     addusd:qvan2 :     53.21s CPU     53.41s WALL (     375 calls)

     Called by *egterg:
     cdiaghg      :     60.46s CPU     61.86s WALL (    5049 calls)
     cegterg:over :     54.77s CPU     56.15s WALL (    4097 calls)
     cegterg:upda :     25.62s CPU     25.78s WALL (    4097 calls)
     cegterg:last :     51.26s CPU     51.49s WALL (    2388 calls)
     h_psi        :    610.70s CPU    625.19s WALL (    5113 calls)
     s_psi        :     77.77s CPU     79.37s WALL (    5113 calls)
     g_psi        :      1.36s CPU      1.39s WALL (    4097 calls)

     Called by h_psi:
     h_psi:calbec :     84.01s CPU     89.37s WALL (    5113 calls)
     vloc_psi     :    441.43s CPU    449.60s WALL (    5113 calls)
     add_vuspsi   :     79.29s CPU     80.17s WALL (    5113 calls)

     General routines
     calbec       :    118.52s CPU    125.91s WALL (    6385 calls)
     fft          :      9.85s CPU      9.98s WALL (    1821 calls)
     ffts         :      0.65s CPU      0.65s WALL (     254 calls)
     fftw         :    492.70s CPU    501.79s WALL (  589342 calls)
     interpolate  :      1.10s CPU      1.12s WALL (     129 calls)
 
     Parallel routines
     fft_scatt_xy :     37.91s CPU     38.55s WALL (  591417 calls)
     fft_scatt_yz :    301.91s CPU    307.57s WALL (  591417 calls)

     PAW routines
     PAW_pot      :     57.95s CPU     58.15s WALL (     133 calls)
     PAW_symme    :      0.42s CPU      0.43s WALL (     258 calls)
 
     PWSCF        :  26m15.63s CPU  27m43.56s WALL

 
   This run was terminated on:  18:58:35  14Jan2021            

=------------------------------------------------------------------------------=
   JOB DONE.
=------------------------------------------------------------------------------=
