
     Program PWSCF v.6.4.1 starts on 24Jan2021 at 17:40:41 

     This program is part of the open-source Quantum ESPRESSO suite
     for quantum simulation of materials; please cite
         "P. Giannozzi et al., J. Phys.:Condens. Matter 21 395502 (2009);
         "P. Giannozzi et al., J. Phys.:Condens. Matter 29 465901 (2017);
          URL http://www.quantum-espresso.org", 
     in publications or presentations arising from this work. More details at
     http://www.quantum-espresso.org/quote

     Parallel version (MPI & OpenMP), running on      48 processor cores
     Number of MPI processes:                24
     Threads/MPI process:                     2

     MPI processes distributed on     1 nodes
     R & G space division:  proc/nbgrp/npool/nimage =      24
     Waiting for input...
     Reading input from standard input

     Current dimensions of program PWSCF are:
     Max number of different atomic species (ntypx) = 10
     Max number of k-points (npk) =  40000
     Max angular momentum in pseudopotentials (lmaxx) =  3
               file Sn.rel-pbesol-dn-kjpaw_psl.1.0.0.UPF: wavefunction(s)  5S 5P 5P 4D 4D renormalized
               file I.rel-pbesol-n-kjpaw_psl.1.0.0.UPF: wavefunction(s)  5S renormalized

     Subspace diagonalization in iterative solution of the eigenvalue problem:
     one sub-group per band group will be used
     scalapack distributed-memory algorithm (size of sub-group:  3*  3 procs)

 
     Parallelization info
     --------------------
     sticks:   dense  smooth     PW     G-vecs:    dense   smooth      PW
     Min         372     248     65                26472    14418    1967
     Max         373     249     66                26475    14423    1972
     Sum        8945    5957   1581               635371   346083   47257
 

     Title: 
     CsIsalt                                                                    


     bravais-lattice index     =            1
     lattice parameter (alat)  =      14.4199  a.u.
     unit-cell volume          =    2998.4083 (a.u.)^3
     number of atoms/cell      =            6
     number of atomic types    =            2
     number of electrons       =        56.00
     number of Kohn-Sham states=           56
     kinetic-energy cutoff     =      90.0000  Ry
     charge density cutoff     =     540.0000  Ry
     convergence threshold     =      1.0E-06
     mixing beta               =       0.3500
     number of iterations used =            8  plain     mixing
     Exchange-correlation      = SLA PW PSX PSC ( 1  4 10  8 0 0)
     Non magnetic calculation with spin-orbit


     celldm(1)=  14.419945  celldm(2)=   0.000000  celldm(3)=   0.000000
     celldm(4)=   0.000000  celldm(5)=   0.000000  celldm(6)=   0.000000

     crystal axes: (cart. coord. in units of alat)
               a(1) = (   1.000000   0.000000   0.000000 )  
               a(2) = (   0.000000   1.000000   0.000000 )  
               a(3) = (   0.000000   0.000000   1.000000 )  

     reciprocal axes: (cart. coord. in units 2 pi/alat)
               b(1) = (  1.000000  0.000000  0.000000 )  
               b(2) = (  0.000000  1.000000  0.000000 )  
               b(3) = (  0.000000  0.000000  1.000000 )  


     PseudoPot. # 1 for Sn read from file:
     /marconi_scratch/userexternal/cmalosso/degironcoli/pseudo/Sn.rel-pbesol-dn-kjpaw_psl.1.0.0.UPF
     MD5 check sum: e69eff64f15ae39ad43ef58bacbfdf88
     Pseudo is Projector augmented-wave + core cor, Zval = 14.0
     Generated using "atomic" code by A. Dal Corso v.6.3
     Shape of augmentation charge: PSQ
     Using radial grid of 1243 points, 10 beta functions with: 
                l(1) =   0
                l(2) =   0
                l(3) =   1
                l(4) =   1
                l(5) =   1
                l(6) =   1
                l(7) =   2
                l(8) =   2
                l(9) =   2
               l(10) =   2
     Q(r) pseudized with 0 coefficients 


     PseudoPot. # 2 for I  read from file:
     /marconi_scratch/userexternal/cmalosso/degironcoli/pseudo/I.rel-pbesol-n-kjpaw_psl.1.0.0.UPF
     MD5 check sum: 4478c427bd443f303eca1937a163b991
     Pseudo is Projector augmented-wave + core cor, Zval =  7.0
     Generated using "atomic" code by A. Dal Corso v.6.3
     Shape of augmentation charge: PSQ
     Using radial grid of 1247 points, 10 beta functions with: 
                l(1) =   0
                l(2) =   0
                l(3) =   1
                l(4) =   1
                l(5) =   1
                l(6) =   1
                l(7) =   2
                l(8) =   2
                l(9) =   2
               l(10) =   2
     Q(r) pseudized with 0 coefficients 


     atomic species   valence    mass     pseudopotential
        Sn            14.00   118.70000     Sn( 1.00)
        I              7.00   126.90000     I ( 1.00)

     16 Sym. Ops., with inversion, found ( 8 have fractional translation)


                                    s                        frac. trans.

      isym =  1     identity                                     

 cryst.   s( 1) = (     1          0          0      )
                  (     0          1          0      )
                  (     0          0          1      )

 cart.    s( 1) = (  1.0000000  0.0000000  0.0000000 )
                  (  0.0000000  1.0000000  0.0000000 )
                  (  0.0000000  0.0000000  1.0000000 )


      isym =  2     180 deg rotation - cart. axis [0,0,1]        

 cryst.   s( 2) = (    -1          0          0      )
                  (     0         -1          0      )
                  (     0          0          1      )

 cart.    s( 2) = ( -1.0000000  0.0000000  0.0000000 )
                  (  0.0000000 -1.0000000  0.0000000 )
                  (  0.0000000  0.0000000  1.0000000 )


      isym =  3     180 deg rotation - cart. axis [0,1,0]        

 cryst.   s( 3) = (    -1          0          0      )    f =(  0.5000000 )
                  (     0          1          0      )       ( -0.5000000 )
                  (     0          0         -1      )       (  0.5000000 )

 cart.    s( 3) = ( -1.0000000  0.0000000  0.0000000 )    f =(  0.5000000 )
                  (  0.0000000  1.0000000  0.0000000 )       ( -0.5000000 )
                  (  0.0000000  0.0000000 -1.0000000 )       (  0.5000000 )


      isym =  4     180 deg rotation - cart. axis [1,0,0]        

 cryst.   s( 4) = (     1          0          0      )    f =( -0.5000000 )
                  (     0         -1          0      )       (  0.5000000 )
                  (     0          0         -1      )       (  0.5000000 )

 cart.    s( 4) = (  1.0000000  0.0000000  0.0000000 )    f =( -0.5000000 )
                  (  0.0000000 -1.0000000  0.0000000 )       (  0.5000000 )
                  (  0.0000000  0.0000000 -1.0000000 )       (  0.5000000 )


      isym =  5     180 deg rotation - cart. axis [1,1,0]        

 cryst.   s( 5) = (     0          1          0      )
                  (     1          0          0      )
                  (     0          0         -1      )

 cart.    s( 5) = (  0.0000000  1.0000000  0.0000000 )
                  (  1.0000000  0.0000000  0.0000000 )
                  (  0.0000000  0.0000000 -1.0000000 )


      isym =  6     180 deg rotation - cart. axis [1,-1,0]       

 cryst.   s( 6) = (     0         -1          0      )
                  (    -1          0          0      )
                  (     0          0         -1      )

 cart.    s( 6) = (  0.0000000 -1.0000000  0.0000000 )
                  ( -1.0000000  0.0000000  0.0000000 )
                  (  0.0000000  0.0000000 -1.0000000 )


      isym =  7      90 deg rotation - cart. axis [0,0,-1]       

 cryst.   s( 7) = (     0         -1          0      )    f =( -0.5000000 )
                  (     1          0          0      )       (  0.5000000 )
                  (     0          0          1      )       ( -0.5000000 )

 cart.    s( 7) = (  0.0000000  1.0000000  0.0000000 )    f =( -0.5000000 )
                  ( -1.0000000  0.0000000  0.0000000 )       (  0.5000000 )
                  (  0.0000000  0.0000000  1.0000000 )       ( -0.5000000 )


      isym =  8      90 deg rotation - cart. axis [0,0,1]        

 cryst.   s( 8) = (     0          1          0      )    f =(  0.5000000 )
                  (    -1          0          0      )       ( -0.5000000 )
                  (     0          0          1      )       ( -0.5000000 )

 cart.    s( 8) = (  0.0000000 -1.0000000  0.0000000 )    f =(  0.5000000 )
                  (  1.0000000  0.0000000  0.0000000 )       ( -0.5000000 )
                  (  0.0000000  0.0000000  1.0000000 )       ( -0.5000000 )


      isym =  9     inversion                                    

 cryst.   s( 9) = (    -1          0          0      )
                  (     0         -1          0      )
                  (     0          0         -1      )

 cart.    s( 9) = ( -1.0000000  0.0000000  0.0000000 )
                  (  0.0000000 -1.0000000  0.0000000 )
                  (  0.0000000  0.0000000 -1.0000000 )


      isym = 10     inv. 180 deg rotation - cart. axis [0,0,1]   

 cryst.   s(10) = (     1          0          0      )
                  (     0          1          0      )
                  (     0          0         -1      )

 cart.    s(10) = (  1.0000000  0.0000000  0.0000000 )
                  (  0.0000000  1.0000000  0.0000000 )
                  (  0.0000000  0.0000000 -1.0000000 )


      isym = 11     inv. 180 deg rotation - cart. axis [0,1,0]   

 cryst.   s(11) = (     1          0          0      )    f =( -0.5000000 )
                  (     0         -1          0      )       (  0.5000000 )
                  (     0          0          1      )       ( -0.5000000 )

 cart.    s(11) = (  1.0000000  0.0000000  0.0000000 )    f =( -0.5000000 )
                  (  0.0000000 -1.0000000  0.0000000 )       (  0.5000000 )
                  (  0.0000000  0.0000000  1.0000000 )       ( -0.5000000 )


      isym = 12     inv. 180 deg rotation - cart. axis [1,0,0]   

 cryst.   s(12) = (    -1          0          0      )    f =(  0.5000000 )
                  (     0          1          0      )       ( -0.5000000 )
                  (     0          0          1      )       ( -0.5000000 )

 cart.    s(12) = ( -1.0000000  0.0000000  0.0000000 )    f =(  0.5000000 )
                  (  0.0000000  1.0000000  0.0000000 )       ( -0.5000000 )
                  (  0.0000000  0.0000000  1.0000000 )       ( -0.5000000 )


      isym = 13     inv. 180 deg rotation - cart. axis [1,1,0]   

 cryst.   s(13) = (     0         -1          0      )
                  (    -1          0          0      )
                  (     0          0          1      )

 cart.    s(13) = (  0.0000000 -1.0000000  0.0000000 )
                  ( -1.0000000  0.0000000  0.0000000 )
                  (  0.0000000  0.0000000  1.0000000 )


      isym = 14     inv. 180 deg rotation - cart. axis [1,-1,0]  

 cryst.   s(14) = (     0          1          0      )
                  (     1          0          0      )
                  (     0          0          1      )

 cart.    s(14) = (  0.0000000  1.0000000  0.0000000 )
                  (  1.0000000  0.0000000  0.0000000 )
                  (  0.0000000  0.0000000  1.0000000 )


      isym = 15     inv.  90 deg rotation - cart. axis [0,0,-1]  

 cryst.   s(15) = (     0          1          0      )    f =(  0.5000000 )
                  (    -1          0          0      )       ( -0.5000000 )
                  (     0          0         -1      )       (  0.5000000 )

 cart.    s(15) = (  0.0000000 -1.0000000  0.0000000 )    f =(  0.5000000 )
                  (  1.0000000  0.0000000  0.0000000 )       ( -0.5000000 )
                  (  0.0000000  0.0000000 -1.0000000 )       (  0.5000000 )


      isym = 16     inv.  90 deg rotation - cart. axis [0,0,1]   

 cryst.   s(16) = (     0         -1          0      )    f =( -0.5000000 )
                  (     1          0          0      )       (  0.5000000 )
                  (     0          0         -1      )       (  0.5000000 )

 cart.    s(16) = (  0.0000000  1.0000000  0.0000000 )    f =( -0.5000000 )
                  ( -1.0000000  0.0000000  0.0000000 )       (  0.5000000 )
                  (  0.0000000  0.0000000 -1.0000000 )       (  0.5000000 )


     double point group D_4h(4/mmm)
     there are 14 classes and  4 irreducible representations
     the character table:

       E     -E    2C4   -2C4   C2    2C2' 2C2'' i     -i    2S4   -2S4   s_h 
                               -C2   -2C2' -2C2'                         -s_h 
G_6+   2.00 -2.00  1.41 -1.41  0.00  0.00  0.00  2.00 -2.00  1.41 -1.41  0.00
G_7+   2.00 -2.00 -1.41  1.41  0.00  0.00  0.00  2.00 -2.00 -1.41  1.41  0.00
G_6-   2.00 -2.00  1.41 -1.41  0.00  0.00  0.00 -2.00  2.00 -1.41  1.41  0.00
G_7-   2.00 -2.00 -1.41  1.41  0.00  0.00  0.00 -2.00  2.00  1.41 -1.41  0.00

        2s_v  2s_d
       -2s_v -2s_d
G_6+   0.00  0.00
G_7+   0.00  0.00
G_6-   0.00  0.00
G_7-   0.00  0.00

     the symmetry operations in each class and the name of the first element:

     E             1
          identity                                               
     -E           -1
          identity E                                             
     2C4           7    8
           90 deg rotation - cart. axis [0,0,-1]                 
     -2C4         -7   -8
           90 deg rotation - cart. axis [0,0,-1] E               
      C2  -C2      2   -2
          180 deg rotation - cart. axis [0,0,1]                  
      2C2'-2C2'    3   -3    4   -4
          180 deg rotation - cart. axis [0,1,0]                  
     2C2''-2C2'    5   -5   -6    6
          180 deg rotation - cart. axis [1,1,0]                  
     i             9
          inversion                                              
     -i           -9
          inversion E                                            
     2S4          15   16
          inv.  90 deg rotation - cart. axis [0,0,-1]            
     -2S4        -15  -16
          inv.  90 deg rotation - cart. axis [0,0,-1] E          
      s_h -s_h    10  -10
          inv. 180 deg rotation - cart. axis [0,0,1]             
      2s_v-2s_v   11  -11   12  -12
          inv. 180 deg rotation - cart. axis [0,1,0]             
      2s_d-2s_d   13  -13  -14   14
          inv. 180 deg rotation - cart. axis [1,1,0]             

   Cartesian axes

     site n.     atom                  positions (alat units)
         1           Sn  tau(   1) = (   0.0000000   0.0000000   0.0000000  )
         2           Sn  tau(   2) = (   0.5000000   0.5000000   0.5000000  )
         3           I   tau(   3) = (   0.2985210   0.2985210   0.0000000  )
         4           I   tau(   4) = (   0.7014790   0.7014790   0.0000000  )
         5           I   tau(   5) = (   0.7985210   0.2014790   0.5000000  )
         6           I   tau(   6) = (   0.2014790   0.7985210   0.5000000  )

   Crystallographic axes

     site n.     atom                  positions (cryst. coord.)
         1           Sn  tau(   1) = (  0.0000000  0.0000000  0.0000000  )
         2           Sn  tau(   2) = (  0.5000000  0.5000000  0.5000000  )
         3           I   tau(   3) = (  0.2985210  0.2985210  0.0000000  )
         4           I   tau(   4) = (  0.7014790  0.7014790  0.0000000  )
         5           I   tau(   5) = (  0.7985210  0.2014790  0.5000000  )
         6           I   tau(   6) = (  0.2014790  0.7985210  0.5000000  )

     number of k points=     6
                       cart. coord. in units 2pi/alat
        k(    1) = (   0.1250000   0.1250000   0.1250000), wk =   0.1250000
        k(    2) = (   0.1250000   0.1250000   0.3750000), wk =   0.1250000
        k(    3) = (   0.1250000   0.3750000   0.3750000), wk =   0.2500000
        k(    4) = (   0.3750000   0.3750000   0.3750000), wk =   0.1250000
        k(    5) = (   0.1250000   0.3750000   0.1250000), wk =   0.2500000
        k(    6) = (   0.3750000   0.3750000   0.1250000), wk =   0.1250000

                       cryst. coord.
        k(    1) = (   0.1250000   0.1250000   0.1250000), wk =   0.1250000
        k(    2) = (   0.1250000   0.1250000   0.3750000), wk =   0.1250000
        k(    3) = (   0.1250000   0.3750000   0.3750000), wk =   0.2500000
        k(    4) = (   0.3750000   0.3750000   0.3750000), wk =   0.1250000
        k(    5) = (   0.1250000   0.3750000   0.1250000), wk =   0.2500000
        k(    6) = (   0.3750000   0.3750000   0.1250000), wk =   0.1250000

     Dense  grid:   635371 G-vectors     FFT dimensions: ( 108, 108, 108)

     Smooth grid:   346083 G-vectors     FFT dimensions: (  90,  90,  90)

     Dynamical RAM for                 wfc:       3.08 MB

     Dynamical RAM for     wfc (w. buffer):      21.55 MB

     Dynamical RAM for           str. fact:       0.81 MB

     Dynamical RAM for           local pot:       0.00 MB

     Dynamical RAM for          nlocal pot:       5.61 MB

     Dynamical RAM for                qrad:      22.39 MB

     Dynamical RAM for          rho,v,vnew:      10.19 MB

     Dynamical RAM for               rhoin:       3.40 MB

     Dynamical RAM for            rho*nmix:      25.85 MB

     Dynamical RAM for           G-vectors:       1.62 MB

     Dynamical RAM for          h,s,v(r/c):       0.25 MB

     Dynamical RAM for          <psi|beta>:       0.35 MB

     Dynamical RAM for                 psi:      12.31 MB

     Dynamical RAM for                hpsi:      12.31 MB

     Dynamical RAM for                spsi:      12.31 MB

     Dynamical RAM for      wfcinit/wfcrot:       5.71 MB

     Dynamical RAM for           addusdens:     248.04 MB

     Dynamical RAM for          addusforce:     253.17 MB

     Dynamical RAM for         addusstress:     253.70 MB

     Estimated static dynamical RAM per process >      96.19 MB

     Estimated max dynamical RAM per process >     349.89 MB

     Estimated total dynamical RAM >       8.20 GB

     Initial potential from superposition of free atoms

     starting charge   55.99771, renormalised to   56.00000
     Starting wfcs are   68 randomized atomic wfcs
     Checking if some PAW data can be deallocated... 
       PAW data deallocated on   16 nodes for type:  1
       PAW data deallocated on    8 nodes for type:  2

     total cpu time spent up to now is       14.9 secs

     Self-consistent Calculation

     iteration #  1     ecut=    90.00 Ry     beta= 0.35
     Davidson diagonalization with overlap
     ethr =  1.00E-02,  avg # of iterations =  1.0

     total cpu time spent up to now is       33.9 secs

     total energy              =   -2370.83355707 Ry
     Harris-Foulkes estimate   =   -2371.11843651 Ry
     estimated scf accuracy    <       0.58893083 Ry

     iteration #  2     ecut=    90.00 Ry     beta= 0.35
     Davidson diagonalization with overlap
     ethr =  1.05E-03,  avg # of iterations =  3.0

     total cpu time spent up to now is       62.2 secs

     total energy              =   -2370.93722119 Ry
     Harris-Foulkes estimate   =   -2370.94809043 Ry
     estimated scf accuracy    <       0.04030169 Ry

     iteration #  3     ecut=    90.00 Ry     beta= 0.35
     Davidson diagonalization with overlap
     ethr =  7.20E-05,  avg # of iterations =  3.0

     total cpu time spent up to now is       91.2 secs

     total energy              =   -2370.94069828 Ry
     Harris-Foulkes estimate   =   -2370.94302237 Ry
     estimated scf accuracy    <       0.00914655 Ry

     iteration #  4     ecut=    90.00 Ry     beta= 0.35
     Davidson diagonalization with overlap
     ethr =  1.63E-05,  avg # of iterations =  3.0

     total cpu time spent up to now is      119.9 secs

     total energy              =   -2370.94198137 Ry
     Harris-Foulkes estimate   =   -2370.94195097 Ry
     estimated scf accuracy    <       0.00056308 Ry

     iteration #  5     ecut=    90.00 Ry     beta= 0.35
     Davidson diagonalization with overlap
     ethr =  1.01E-06,  avg # of iterations =  4.8

     total cpu time spent up to now is      149.8 secs

     total energy              =   -2370.94214438 Ry
     Harris-Foulkes estimate   =   -2370.94215374 Ry
     estimated scf accuracy    <       0.00003185 Ry

     iteration #  6     ecut=    90.00 Ry     beta= 0.35
     Davidson diagonalization with overlap
     ethr =  5.69E-08,  avg # of iterations =  3.7

     total cpu time spent up to now is      181.9 secs

     total energy              =   -2370.94215720 Ry
     Harris-Foulkes estimate   =   -2370.94215163 Ry
     estimated scf accuracy    <       0.00000922 Ry

     iteration #  7     ecut=    90.00 Ry     beta= 0.35
     Davidson diagonalization with overlap
     ethr =  1.65E-08,  avg # of iterations =  4.0

     total cpu time spent up to now is      216.2 secs

     total energy              =   -2370.94215860 Ry
     Harris-Foulkes estimate   =   -2370.94216096 Ry
     estimated scf accuracy    <       0.00000641 Ry

     iteration #  8     ecut=    90.00 Ry     beta= 0.35
     Davidson diagonalization with overlap
     ethr =  1.14E-08,  avg # of iterations =  3.3

     total cpu time spent up to now is      241.8 secs

     End of self-consistent calculation

          k = 0.1250 0.1250 0.1250 ( 43204 PWs)   bands (ev):

   -23.2762 -23.2762 -23.2762 -23.2762 -23.1437 -23.1437 -23.1437 -23.1437
   -22.2566 -22.2566 -22.2566 -22.2566 -22.1412 -22.1412 -22.1412 -22.1412
   -22.0875 -22.0875 -22.0875 -22.0875 -11.6168 -11.6168 -11.5342 -11.5342
   -11.4894 -11.4894 -11.4804 -11.4804  -7.0644  -7.0644  -6.8898  -6.8898
    -2.7485  -2.7485  -2.5453  -2.5453  -2.1343  -2.1343  -2.0083  -2.0083
    -1.8597  -1.8597  -1.5430  -1.5430  -1.2230  -1.2230  -1.1586  -1.1586
    -1.1235  -1.1235  -0.9714  -0.9714  -0.9148  -0.9148  -0.8232  -0.8232

     occupation numbers 
     1.0000   1.0000   1.0000   1.0000   1.0000   1.0000   1.0000   1.0000
     1.0000   1.0000   1.0000   1.0000   1.0000   1.0000   1.0000   1.0000
     1.0000   1.0000   1.0000   1.0000   1.0000   1.0000   1.0000   1.0000
     1.0000   1.0000   1.0000   1.0000   1.0000   1.0000   1.0000   1.0000
     1.0000   1.0000   1.0000   1.0000   1.0000   1.0000   1.0000   1.0000
     1.0000   1.0000   1.0000   1.0000   1.0000   1.0000   1.0000   1.0000
     1.0000   1.0000   1.0000   1.0000   1.0000   1.0000   1.0000   1.0000

          k = 0.1250 0.1250 0.3750 ( 43241 PWs)   bands (ev):

   -23.2762 -23.2762 -23.2762 -23.2762 -23.1437 -23.1437 -23.1437 -23.1437
   -22.2566 -22.2566 -22.2566 -22.2566 -22.1412 -22.1412 -22.1412 -22.1412
   -22.0875 -22.0875 -22.0875 -22.0875 -11.5924 -11.5924 -11.5571 -11.5571
   -11.4897 -11.4897 -11.4800 -11.4800  -7.0245  -7.0245  -6.9517  -6.9517
    -2.7569  -2.7569  -2.5237  -2.5237  -2.1259  -2.1259  -1.9419  -1.9419
    -1.8266  -1.8266  -1.5908  -1.5908  -1.2394  -1.2394  -1.1998  -1.1998
    -1.1292  -1.1292  -1.0128  -1.0128  -0.9309  -0.9309  -0.8334  -0.8334

     occupation numbers 
     1.0000   1.0000   1.0000   1.0000   1.0000   1.0000   1.0000   1.0000
     1.0000   1.0000   1.0000   1.0000   1.0000   1.0000   1.0000   1.0000
     1.0000   1.0000   1.0000   1.0000   1.0000   1.0000   1.0000   1.0000
     1.0000   1.0000   1.0000   1.0000   1.0000   1.0000   1.0000   1.0000
     1.0000   1.0000   1.0000   1.0000   1.0000   1.0000   1.0000   1.0000
     1.0000   1.0000   1.0000   1.0000   1.0000   1.0000   1.0000   1.0000
     1.0000   1.0000   1.0000   1.0000   1.0000   1.0000   1.0000   1.0000

          k = 0.1250 0.3750 0.3750 ( 43216 PWs)   bands (ev):

   -23.2762 -23.2762 -23.2762 -23.2762 -23.1437 -23.1437 -23.1437 -23.1437
   -22.2566 -22.2566 -22.2566 -22.2566 -22.1412 -22.1412 -22.1412 -22.1412
   -22.0875 -22.0875 -22.0875 -22.0875 -11.5695 -11.5695 -11.5457 -11.5457
   -11.5104 -11.5104 -11.4944 -11.4944  -6.9997  -6.9997  -6.9676  -6.9676
    -2.8976  -2.8976  -2.7454  -2.7454  -2.0413  -2.0413  -1.9183  -1.9183
    -1.7969  -1.7969  -1.5866  -1.5866  -1.2628  -1.2628  -1.2049  -1.2049
    -0.9901  -0.9901  -0.9343  -0.9343  -0.8199  -0.8199  -0.5797  -0.5797

     occupation numbers 
     1.0000   1.0000   1.0000   1.0000   1.0000   1.0000   1.0000   1.0000
     1.0000   1.0000   1.0000   1.0000   1.0000   1.0000   1.0000   1.0000
     1.0000   1.0000   1.0000   1.0000   1.0000   1.0000   1.0000   1.0000
     1.0000   1.0000   1.0000   1.0000   1.0000   1.0000   1.0000   1.0000
     1.0000   1.0000   1.0000   1.0000   1.0000   1.0000   1.0000   1.0000
     1.0000   1.0000   1.0000   1.0000   1.0000   1.0000   1.0000   1.0000
     1.0000   1.0000   1.0000   1.0000   1.0000   1.0000   1.0000   1.0000

          k = 0.3750 0.3750 0.3750 ( 43246 PWs)   bands (ev):

   -23.2762 -23.2762 -23.2762 -23.2762 -23.1437 -23.1437 -23.1437 -23.1437
   -22.2566 -22.2566 -22.2566 -22.2566 -22.1412 -22.1412 -22.1412 -22.1412
   -22.0875 -22.0875 -22.0875 -22.0875 -11.5709 -11.5709 -11.5582 -11.5582
   -11.4998 -11.4998 -11.4881 -11.4881  -7.0076  -7.0076  -6.9914  -6.9914
    -2.7395  -2.7395  -2.5244  -2.5244  -2.1106  -2.1106  -1.9412  -1.9412
    -1.8858  -1.8858  -1.6302  -1.6302  -1.3377  -1.3377  -1.2724  -1.2724
    -1.0971  -1.0971  -0.9250  -0.9250  -0.8238  -0.8238  -0.7937  -0.7937

     occupation numbers 
     1.0000   1.0000   1.0000   1.0000   1.0000   1.0000   1.0000   1.0000
     1.0000   1.0000   1.0000   1.0000   1.0000   1.0000   1.0000   1.0000
     1.0000   1.0000   1.0000   1.0000   1.0000   1.0000   1.0000   1.0000
     1.0000   1.0000   1.0000   1.0000   1.0000   1.0000   1.0000   1.0000
     1.0000   1.0000   1.0000   1.0000   1.0000   1.0000   1.0000   1.0000
     1.0000   1.0000   1.0000   1.0000   1.0000   1.0000   1.0000   1.0000
     1.0000   1.0000   1.0000   1.0000   1.0000   1.0000   1.0000   1.0000

          k = 0.1250 0.3750 0.1250 ( 43241 PWs)   bands (ev):

   -23.2762 -23.2762 -23.2762 -23.2762 -23.1437 -23.1437 -23.1437 -23.1437
   -22.2566 -22.2566 -22.2566 -22.2566 -22.1412 -22.1412 -22.1412 -22.1412
   -22.0875 -22.0875 -22.0875 -22.0875 -11.5844 -11.5844 -11.5420 -11.5420
   -11.5044 -11.5044 -11.4911 -11.4911  -7.0097  -7.0097  -6.9366  -6.9366
    -2.8644  -2.8644  -2.7261  -2.7261  -2.1014  -2.1014  -1.9897  -1.9897
    -1.7464  -1.7464  -1.5979  -1.5979  -1.2811  -1.2811  -1.2430  -1.2430
    -1.0027  -1.0027  -0.9376  -0.9376  -0.8271  -0.8271  -0.5961  -0.5961

     occupation numbers 
     1.0000   1.0000   1.0000   1.0000   1.0000   1.0000   1.0000   1.0000
     1.0000   1.0000   1.0000   1.0000   1.0000   1.0000   1.0000   1.0000
     1.0000   1.0000   1.0000   1.0000   1.0000   1.0000   1.0000   1.0000
     1.0000   1.0000   1.0000   1.0000   1.0000   1.0000   1.0000   1.0000
     1.0000   1.0000   1.0000   1.0000   1.0000   1.0000   1.0000   1.0000
     1.0000   1.0000   1.0000   1.0000   1.0000   1.0000   1.0000   1.0000
     1.0000   1.0000   1.0000   1.0000   1.0000   1.0000   1.0000   1.0000

          k = 0.3750 0.3750 0.1250 ( 43216 PWs)   bands (ev):

   -23.2762 -23.2762 -23.2762 -23.2762 -23.1437 -23.1437 -23.1437 -23.1437
   -22.2566 -22.2566 -22.2566 -22.2566 -22.1412 -22.1412 -22.1412 -22.1412
   -22.0875 -22.0875 -22.0875 -22.0875 -11.5759 -11.5759 -11.5585 -11.5585
   -11.4968 -11.4968 -11.4885 -11.4885  -7.0034  -7.0034  -6.9722  -6.9722
    -2.7198  -2.7198  -2.5418  -2.5418  -2.0456  -2.0456  -1.9593  -1.9593
    -1.8629  -1.8629  -1.6759  -1.6759  -1.3836  -1.3836  -1.3615  -1.3615
    -1.1179  -1.1179  -0.9511  -0.9511  -0.8528  -0.8528  -0.7837  -0.7837

     occupation numbers 
     1.0000   1.0000   1.0000   1.0000   1.0000   1.0000   1.0000   1.0000
     1.0000   1.0000   1.0000   1.0000   1.0000   1.0000   1.0000   1.0000
     1.0000   1.0000   1.0000   1.0000   1.0000   1.0000   1.0000   1.0000
     1.0000   1.0000   1.0000   1.0000   1.0000   1.0000   1.0000   1.0000
     1.0000   1.0000   1.0000   1.0000   1.0000   1.0000   1.0000   1.0000
     1.0000   1.0000   1.0000   1.0000   1.0000   1.0000   1.0000   1.0000
     1.0000   1.0000   1.0000   1.0000   1.0000   1.0000   1.0000   1.0000

     highest occupied level (ev):    -0.5797

!    total energy              =   -2370.94215980 Ry
     Harris-Foulkes estimate   =   -2370.94216019 Ry
     estimated scf accuracy    <       0.00000055 Ry

     total all-electron energy =    -81634.464366 Ry

     The total energy is the sum of the following terms:

     one-electron contribution =    -248.68864169 Ry
     hartree contribution      =     145.43735265 Ry
     xc contribution           =    -157.08849822 Ry
     ewald contribution        =    -190.25175950 Ry
     one-center paw contrib.   =   -1920.35061304 Ry
      -> PAW hartree energy AE =     107.23904265 Ry
      -> PAW hartree energy PS =    -106.45441225 Ry
      -> PAW xc energy AE      =    -324.23347100 Ry
      -> PAW xc energy PS      =      46.59375254 Ry
      -> total E_H with PAW    =     146.22198305 Ry
      -> total E_XC with PAW   =    -434.72821668 Ry

     convergence has been achieved in   8 iterations

     Forces acting on atoms (cartesian axes, Ry/au):

     atom    1 type  1   force =     0.00000000    0.00000000    0.00000000
     atom    2 type  1   force =     0.00000000    0.00000000   -0.00000000
     atom    3 type  2   force =    -0.01802905   -0.01802905    0.00000000
     atom    4 type  2   force =     0.01802905    0.01802905    0.00000000
     atom    5 type  2   force =    -0.01802905    0.01802905    0.00000000
     atom    6 type  2   force =     0.01802905   -0.01802905    0.00000000
     The non-local contrib.  to forces
     atom    1 type  1   force =     0.00000000    0.00000000    0.00000000
     atom    2 type  1   force =     0.00000000    0.00000000    0.00000000
     atom    3 type  2   force =    -0.04135608   -0.04135608    0.00000000
     atom    4 type  2   force =     0.04135608    0.04135608    0.00000000
     atom    5 type  2   force =    -0.04135608    0.04135608   -0.00000000
     atom    6 type  2   force =     0.04135608   -0.04135608   -0.00000000
     The ionic contribution  to forces
     atom    1 type  1   force =    -0.00000000   -0.00000000   -0.00000000
     atom    2 type  1   force =     0.00000000    0.00000000    0.00000000
     atom    3 type  2   force =     1.38633657    1.38633657    0.00000000
     atom    4 type  2   force =    -1.38633657   -1.38633657    0.00000000
     atom    5 type  2   force =     1.38633657   -1.38633657    0.00000000
     atom    6 type  2   force =    -1.38633657    1.38633657    0.00000000
     The local contribution  to forces
     atom    1 type  1   force =     0.00000000    0.00000000    0.00000000
     atom    2 type  1   force =     0.00000000    0.00000000    0.00000000
     atom    3 type  2   force =    -1.36689981   -1.36689981    0.00000000
     atom    4 type  2   force =     1.36689981    1.36689981    0.00000000
     atom    5 type  2   force =    -1.36689981    1.36689981    0.00000000
     atom    6 type  2   force =     1.36689981   -1.36689981    0.00000000
     The core correction contribution to forces
     atom    1 type  1   force =     0.00000000    0.00000000    0.00000000
     atom    2 type  1   force =     0.00000000    0.00000000    0.00000000
     atom    3 type  2   force =     0.00391296    0.00391296    0.00000000
     atom    4 type  2   force =    -0.00391296   -0.00391296    0.00000000
     atom    5 type  2   force =     0.00391296   -0.00391296    0.00000000
     atom    6 type  2   force =    -0.00391296    0.00391296    0.00000000
     The Hubbard contrib.    to forces
     atom    1 type  1   force =     0.00000000    0.00000000    0.00000000
     atom    2 type  1   force =     0.00000000    0.00000000    0.00000000
     atom    3 type  2   force =     0.00000000    0.00000000    0.00000000
     atom    4 type  2   force =     0.00000000    0.00000000    0.00000000
     atom    5 type  2   force =     0.00000000    0.00000000    0.00000000
     atom    6 type  2   force =     0.00000000    0.00000000    0.00000000
     The SCF correction term to forces
     atom    1 type  1   force =    -0.00000000    0.00000000    0.00000000
     atom    2 type  1   force =     0.00000000   -0.00000000    0.00000000
     atom    3 type  2   force =    -0.00002269   -0.00002269   -0.00000000
     atom    4 type  2   force =     0.00002269    0.00002269    0.00000000
     atom    5 type  2   force =    -0.00002269    0.00002269   -0.00000000
     atom    6 type  2   force =     0.00002269   -0.00002269   -0.00000000

     Total force =     0.050994     Total SCF correction =     0.000064


     Computing stress (Cartesian axis) and pressure

     Message from routine stres:
     noncollinear stress + GGA not implemented

     Writing output data file CsIsalt.save/
 
     init_run     :      6.64s CPU     10.04s WALL (       1 calls)
     electrons    :    156.35s CPU    226.98s WALL (       1 calls)
     forces       :      2.09s CPU      2.69s WALL (       1 calls)

     Called by init_run:
     wfcinit      :      4.21s CPU      6.62s WALL (       1 calls)
     wfcinit:atom :      0.02s CPU      0.02s WALL (       6 calls)
     wfcinit:wfcr :      4.07s CPU      6.41s WALL (       6 calls)
     potinit      :      0.54s CPU      0.94s WALL (       1 calls)
     hinit0       :      0.63s CPU      0.82s WALL (       1 calls)

     Called by electrons:
     c_bands      :    111.06s CPU    161.22s WALL (       8 calls)
     sum_band     :     32.86s CPU     47.87s WALL (       8 calls)
     v_of_rho     :      1.34s CPU      2.32s WALL (       9 calls)
     v_h          :      0.04s CPU      0.04s WALL (       9 calls)
     v_xc         :      1.35s CPU      2.33s WALL (      10 calls)
     newd         :      8.82s CPU     11.72s WALL (       9 calls)
     PAW_pot      :      1.84s CPU      2.75s WALL (       9 calls)
     mix_rho      :      0.68s CPU      1.06s WALL (       8 calls)

     Called by c_bands:
     init_us_2    :      0.47s CPU      0.67s WALL (     108 calls)
     cegterg      :    104.72s CPU    154.10s WALL (      48 calls)

     Called by sum_band:
     sum_band:bec :      0.87s CPU      1.07s WALL (      48 calls)
     addusdens    :      6.81s CPU      8.44s WALL (       8 calls)

     Called by *egterg:
     h_psi        :     75.29s CPU    112.73s WALL (     209 calls)
     s_psi        :      1.68s CPU      1.91s WALL (     209 calls)
     g_psi        :      0.14s CPU      0.14s WALL (     155 calls)
     cdiaghg      :      6.34s CPU      9.66s WALL (     203 calls)
     cegterg:over :      9.08s CPU     12.39s WALL (     155 calls)
     cegterg:upda :      8.34s CPU     11.75s WALL (     155 calls)
     cegterg:last :      1.74s CPU      2.30s WALL (      48 calls)
     cdiaghg:chol :      0.56s CPU      0.78s WALL (     203 calls)
     cdiaghg:inve :      0.31s CPU      0.51s WALL (     203 calls)
     cdiaghg:para :      1.66s CPU      2.41s WALL (     406 calls)

     Called by h_psi:
     h_psi:pot    :     74.86s CPU    112.23s WALL (     209 calls)
     h_psi:calbec :      2.06s CPU      2.38s WALL (     209 calls)
     vloc_psi     :     71.03s CPU    107.83s WALL (     209 calls)
     add_vuspsi   :      1.77s CPU      2.02s WALL (     209 calls)

     General routines
     calbec       :      3.15s CPU      3.70s WALL (     281 calls)
     fft          :      2.20s CPU      3.98s WALL (     198 calls)
     ffts         :      0.71s CPU      1.15s WALL (      68 calls)
     fftw         :     88.03s CPU    136.39s WALL (   36020 calls)
     interpolate  :      0.66s CPU      1.17s WALL (      36 calls)
 
     Parallel routines
     fft_scatt_xy :      2.87s CPU      3.52s WALL (   36286 calls)
     fft_scatt_yz :     73.16s CPU    118.09s WALL (   36286 calls)

     PAW routines
     PAW_pot      :      1.84s CPU      2.75s WALL (       9 calls)
     PAW_symme    :      0.09s CPU      0.15s WALL (      17 calls)
 
     PWSCF        :   2m50.79s CPU   4m 6.54s WALL

 
   This run was terminated on:  17:44:47  24Jan2021            

=------------------------------------------------------------------------------=
   JOB DONE.
=------------------------------------------------------------------------------=
