
     Program PWSCF v.6.7MaX starts on 15Jan2021 at 14: 7:31 

     This program is part of the open-source Quantum ESPRESSO suite
     for quantum simulation of materials; please cite
         "P. Giannozzi et al., J. Phys.:Condens. Matter 21 395502 (2009);
         "P. Giannozzi et al., J. Phys.:Condens. Matter 29 465901 (2017);
          URL http://www.quantum-espresso.org", 
     in publications or presentations arising from this work. More details at
     http://www.quantum-espresso.org/quote

     Parallel version (MPI), running on    19 processors

     MPI processes distributed on     1 nodes
     R & G space division:  proc/nbgrp/npool/nimage =      19
     Waiting for input...
     Reading input from standard input

     Current dimensions of program PWSCF are:
     Max number of different atomic species (ntypx) = 10
     Max number of k-points (npk) =  40000
     Max angular momentum in pseudopotentials (lmaxx) =  3
     file Sn.pbe-dn-kjpaw_psl.1.0.0.UPF: wavefunction(s)  5S 5P 4D renormalized
     file I.pbe-n-kjpaw_psl.1.0.0.UPF: wavefunction(s)  5S renormalized

     Subspace diagonalization in iterative solution of the eigenvalue problem:
     a serial algorithm will be used

     Message from routine setup:
     using ibrav=0 with symmetry is DISCOURAGED, use correct ibrav instead

     Parallelization info
     --------------------
     sticks:   dense  smooth     PW     G-vecs:    dense   smooth      PW
     Min         187     187     49                 8403     8403    1161
     Max         188     188     50                 8406     8406    1166
     Sum        3569    3569    949               159699   159699   22119


     Title: 
     SnI4un                                                                     


     bravais-lattice index     =            0
     lattice parameter (alat)  =      12.6355  a.u.
     unit-cell volume          =    2017.3401 (a.u.)^3
     number of atoms/cell      =            5
     number of atomic types    =            2
     number of electrons       =        42.00
     number of Kohn-Sham states=           23
     kinetic-energy cutoff     =      70.0000  Ry
     charge density cutoff     =     280.0000  Ry
     scf convergence threshold =      1.0E-06
     mixing beta               =       0.7000
     number of iterations used =            8  plain     mixing
     Exchange-correlation= SLA  PW   PBX  PBC
                           (   1   4   3   4   0   0   0)

     celldm(1)=  12.635518  celldm(2)=   0.000000  celldm(3)=   0.000000
     celldm(4)=   0.000000  celldm(5)=   0.000000  celldm(6)=   0.000000

     crystal axes: (cart. coord. in units of alat)
               a(1) = (   1.000000   0.000000   0.000000 )  
               a(2) = (   0.000000   1.000000   0.000000 )  
               a(3) = (   0.000000   0.000000   1.000000 )  

     reciprocal axes: (cart. coord. in units 2 pi/alat)
               b(1) = (  1.000000  0.000000  0.000000 )  
               b(2) = (  0.000000  1.000000  0.000000 )  
               b(3) = (  0.000000  0.000000  1.000000 )  


     PseudoPot. # 1 for Sn read from file:
     ../../../pseudo/Sn.pbe-dn-kjpaw_psl.1.0.0.UPF
     MD5 check sum: 67f11dec737d427557dc41ea34975807
     Pseudo is Projector augmented-wave + core cor, Zval = 14.0
     Generated using &quot;atomic&quot; code by A. Dal Corso  v.6.3
     Shape of augmentation charge: PSQ
     Using radial grid of 1243 points,  6 beta functions with: 
                l(1) =   0
                l(2) =   0
                l(3) =   1
                l(4) =   1
                l(5) =   2
                l(6) =   2
     Q(r) pseudized with 0 coefficients 


     PseudoPot. # 2 for I  read from file:
     ../../../pseudo/I.pbe-n-kjpaw_psl.1.0.0.UPF
     MD5 check sum: cd3d296c3308a581e1559a0c8a554cb5
     Pseudo is Projector augmented-wave + core cor, Zval =  7.0
     Generated using &quot;atomic&quot; code by A. Dal Corso  v.6.3
     Shape of augmentation charge: PSQ
     Using radial grid of 1247 points,  6 beta functions with: 
                l(1) =   0
                l(2) =   0
                l(3) =   1
                l(4) =   1
                l(5) =   2
                l(6) =   2
     Q(r) pseudized with 0 coefficients 


     atomic species   valence    mass     pseudopotential
        Sn            14.00   118.70000     Sn( 1.00)
        I              7.00   126.90000     I ( 1.00)

     24 Sym. Ops. (no inversion) found


                                    s                        frac. trans.

      isym =  1     identity                                     

 cryst.   s( 1) = (     1          0          0      )
                  (     0          1          0      )
                  (     0          0          1      )

 cart.    s( 1) = (  1.0000000  0.0000000  0.0000000 )
                  (  0.0000000  1.0000000  0.0000000 )
                  (  0.0000000  0.0000000  1.0000000 )


      isym =  2     180 deg rotation - cart. axis [0,0,1]        

 cryst.   s( 2) = (    -1          0          0      )
                  (     0         -1          0      )
                  (     0          0          1      )

 cart.    s( 2) = ( -1.0000000  0.0000000  0.0000000 )
                  (  0.0000000 -1.0000000  0.0000000 )
                  (  0.0000000  0.0000000  1.0000000 )


      isym =  3     180 deg rotation - cart. axis [0,1,0]        

 cryst.   s( 3) = (    -1          0          0      )
                  (     0          1          0      )
                  (     0          0         -1      )

 cart.    s( 3) = ( -1.0000000  0.0000000  0.0000000 )
                  (  0.0000000  1.0000000  0.0000000 )
                  (  0.0000000  0.0000000 -1.0000000 )


      isym =  4     180 deg rotation - cart. axis [1,0,0]        

 cryst.   s( 4) = (     1          0          0      )
                  (     0         -1          0      )
                  (     0          0         -1      )

 cart.    s( 4) = (  1.0000000  0.0000000  0.0000000 )
                  (  0.0000000 -1.0000000  0.0000000 )
                  (  0.0000000  0.0000000 -1.0000000 )


      isym =  5     120 deg rotation - cart. axis [-1,-1,-1]     

 cryst.   s( 5) = (     0          0          1      )
                  (     1          0          0      )
                  (     0          1          0      )

 cart.    s( 5) = (  0.0000000  1.0000000  0.0000000 )
                  (  0.0000000  0.0000000  1.0000000 )
                  (  1.0000000  0.0000000  0.0000000 )


      isym =  6     120 deg rotation - cart. axis [-1,1,1]       

 cryst.   s( 6) = (     0          0         -1      )
                  (    -1          0          0      )
                  (     0          1          0      )

 cart.    s( 6) = (  0.0000000 -1.0000000  0.0000000 )
                  (  0.0000000  0.0000000  1.0000000 )
                  ( -1.0000000  0.0000000  0.0000000 )


      isym =  7     120 deg rotation - cart. axis [1,1,-1]       

 cryst.   s( 7) = (     0          0         -1      )
                  (     1          0          0      )
                  (     0         -1          0      )

 cart.    s( 7) = (  0.0000000  1.0000000  0.0000000 )
                  (  0.0000000  0.0000000 -1.0000000 )
                  ( -1.0000000  0.0000000  0.0000000 )


      isym =  8     120 deg rotation - cart. axis [1,-1,1]       

 cryst.   s( 8) = (     0          0          1      )
                  (    -1          0          0      )
                  (     0         -1          0      )

 cart.    s( 8) = (  0.0000000 -1.0000000  0.0000000 )
                  (  0.0000000  0.0000000 -1.0000000 )
                  (  1.0000000  0.0000000  0.0000000 )


      isym =  9     120 deg rotation - cart. axis [1,1,1]        

 cryst.   s( 9) = (     0          1          0      )
                  (     0          0          1      )
                  (     1          0          0      )

 cart.    s( 9) = (  0.0000000  0.0000000  1.0000000 )
                  (  1.0000000  0.0000000  0.0000000 )
                  (  0.0000000  1.0000000  0.0000000 )


      isym = 10     120 deg rotation - cart. axis [-1,1,-1]      

 cryst.   s(10) = (     0         -1          0      )
                  (     0          0         -1      )
                  (     1          0          0      )

 cart.    s(10) = (  0.0000000  0.0000000  1.0000000 )
                  ( -1.0000000  0.0000000  0.0000000 )
                  (  0.0000000 -1.0000000  0.0000000 )


      isym = 11     120 deg rotation - cart. axis [1,-1,-1]      

 cryst.   s(11) = (     0         -1          0      )
                  (     0          0          1      )
                  (    -1          0          0      )

 cart.    s(11) = (  0.0000000  0.0000000 -1.0000000 )
                  ( -1.0000000  0.0000000  0.0000000 )
                  (  0.0000000  1.0000000  0.0000000 )


      isym = 12     120 deg rotation - cart. axis [-1,-1,1]      

 cryst.   s(12) = (     0          1          0      )
                  (     0          0         -1      )
                  (    -1          0          0      )

 cart.    s(12) = (  0.0000000  0.0000000 -1.0000000 )
                  (  1.0000000  0.0000000  0.0000000 )
                  (  0.0000000 -1.0000000  0.0000000 )


      isym = 13     inv. 180 deg rotation - cart. axis [1,1,0]   

 cryst.   s(13) = (     0         -1          0      )
                  (    -1          0          0      )
                  (     0          0          1      )

 cart.    s(13) = (  0.0000000 -1.0000000  0.0000000 )
                  ( -1.0000000  0.0000000  0.0000000 )
                  (  0.0000000  0.0000000  1.0000000 )


      isym = 14     inv. 180 deg rotation - cart. axis [1,-1,0]  

 cryst.   s(14) = (     0          1          0      )
                  (     1          0          0      )
                  (     0          0          1      )

 cart.    s(14) = (  0.0000000  1.0000000  0.0000000 )
                  (  1.0000000  0.0000000  0.0000000 )
                  (  0.0000000  0.0000000  1.0000000 )


      isym = 15     inv.  90 deg rotation - cart. axis [0,0,-1]  

 cryst.   s(15) = (     0          1          0      )
                  (    -1          0          0      )
                  (     0          0         -1      )

 cart.    s(15) = (  0.0000000 -1.0000000  0.0000000 )
                  (  1.0000000  0.0000000  0.0000000 )
                  (  0.0000000  0.0000000 -1.0000000 )


      isym = 16     inv.  90 deg rotation - cart. axis [0,0,1]   

 cryst.   s(16) = (     0         -1          0      )
                  (     1          0          0      )
                  (     0          0         -1      )

 cart.    s(16) = (  0.0000000  1.0000000  0.0000000 )
                  ( -1.0000000  0.0000000  0.0000000 )
                  (  0.0000000  0.0000000 -1.0000000 )


      isym = 17     inv. 180 deg rotation - cart. axis [1,0,1]   

 cryst.   s(17) = (     0          0         -1      )
                  (     0          1          0      )
                  (    -1          0          0      )

 cart.    s(17) = (  0.0000000  0.0000000 -1.0000000 )
                  (  0.0000000  1.0000000  0.0000000 )
                  ( -1.0000000  0.0000000  0.0000000 )


      isym = 18     inv. 180 deg rotation - cart. axis [-1,0,1]  

 cryst.   s(18) = (     0          0          1      )
                  (     0          1          0      )
                  (     1          0          0      )

 cart.    s(18) = (  0.0000000  0.0000000  1.0000000 )
                  (  0.0000000  1.0000000  0.0000000 )
                  (  1.0000000  0.0000000  0.0000000 )


      isym = 19     inv.  90 deg rotation - cart. axis [0,1,0]   

 cryst.   s(19) = (     0          0          1      )
                  (     0         -1          0      )
                  (    -1          0          0      )

 cart.    s(19) = (  0.0000000  0.0000000 -1.0000000 )
                  (  0.0000000 -1.0000000  0.0000000 )
                  (  1.0000000  0.0000000  0.0000000 )


      isym = 20     inv.  90 deg rotation - cart. axis [0,-1,0]  

 cryst.   s(20) = (     0          0         -1      )
                  (     0         -1          0      )
                  (     1          0          0      )

 cart.    s(20) = (  0.0000000  0.0000000  1.0000000 )
                  (  0.0000000 -1.0000000  0.0000000 )
                  ( -1.0000000  0.0000000  0.0000000 )


      isym = 21     inv. 180 deg rotation - cart. axis [0,1,1]   

 cryst.   s(21) = (     1          0          0      )
                  (     0          0         -1      )
                  (     0         -1          0      )

 cart.    s(21) = (  1.0000000  0.0000000  0.0000000 )
                  (  0.0000000  0.0000000 -1.0000000 )
                  (  0.0000000 -1.0000000  0.0000000 )


      isym = 22     inv. 180 deg rotation - cart. axis [0,1,-1]  

 cryst.   s(22) = (     1          0          0      )
                  (     0          0          1      )
                  (     0          1          0      )

 cart.    s(22) = (  1.0000000  0.0000000  0.0000000 )
                  (  0.0000000  0.0000000  1.0000000 )
                  (  0.0000000  1.0000000  0.0000000 )


      isym = 23     inv.  90 deg rotation - cart. axis [-1,0,0]  

 cryst.   s(23) = (    -1          0          0      )
                  (     0          0          1      )
                  (     0         -1          0      )

 cart.    s(23) = ( -1.0000000  0.0000000  0.0000000 )
                  (  0.0000000  0.0000000 -1.0000000 )
                  (  0.0000000  1.0000000  0.0000000 )


      isym = 24     inv.  90 deg rotation - cart. axis [1,0,0]   

 cryst.   s(24) = (    -1          0          0      )
                  (     0          0         -1      )
                  (     0          1          0      )

 cart.    s(24) = ( -1.0000000  0.0000000  0.0000000 )
                  (  0.0000000  0.0000000  1.0000000 )
                  (  0.0000000 -1.0000000  0.0000000 )


   Cartesian axes

     site n.     atom                  positions (alat units)
         1           Sn  tau(   1) = (   0.0000000   0.0000000   0.0000000  )
         2           I   tau(   2) = (   0.2339030   0.7660970   0.7660970  )
         3           I   tau(   3) = (   0.7660970   0.2339030   0.7660970  )
         4           I   tau(   4) = (   0.7660970   0.7660970   0.2339030  )
         5           I   tau(   5) = (   0.2339030   0.2339030   0.2339030  )

   Crystallographic axes

     site n.     atom                  positions (cryst. coord.)
         1           Sn  tau(   1) = (  0.0000000  0.0000000  0.0000000  )
         2           I   tau(   2) = (  0.2339030  0.7660970  0.7660970  )
         3           I   tau(   3) = (  0.7660970  0.2339030  0.7660970  )
         4           I   tau(   4) = (  0.7660970  0.7660970  0.2339030  )
         5           I   tau(   5) = (  0.2339030  0.2339030  0.2339030  )

     number of k points=     4
                       cart. coord. in units 2pi/alat
        k(    1) = (   0.0000000   0.0000000   0.0000000), wk =   0.0740741
        k(    2) = (   0.0000000   0.0000000   0.3333333), wk =   0.4444444
        k(    3) = (   0.0000000   0.3333333   0.3333333), wk =   0.8888889
        k(    4) = (   0.3333333   0.3333333   0.3333333), wk =   0.5925926

                       cryst. coord.
        k(    1) = (   0.0000000   0.0000000   0.0000000), wk =   0.0740741
        k(    2) = (   0.0000000   0.0000000   0.3333333), wk =   0.4444444
        k(    3) = (   0.0000000   0.3333333   0.3333333), wk =   0.8888889
        k(    4) = (   0.3333333   0.3333333   0.3333333), wk =   0.5925926

     Dense  grid:   159699 G-vectors     FFT dimensions: (  72,  72,  72)

     Dynamical RAM for                 wfc:       0.37 MB

     Dynamical RAM for     wfc (w. buffer):       1.84 MB

     Dynamical RAM for           str. fact:       0.26 MB

     Dynamical RAM for           local pot:       0.00 MB

     Dynamical RAM for          nlocal pot:       1.44 MB

     Dynamical RAM for                qrad:       2.69 MB

     Dynamical RAM for          rho,v,vnew:       0.86 MB

     Dynamical RAM for               rhoin:       0.29 MB

     Dynamical RAM for            rho*nmix:       2.05 MB

     Dynamical RAM for           G-vectors:       0.55 MB

     Dynamical RAM for          h,s,v(r/c):       0.10 MB

     Dynamical RAM for          <psi|beta>:       0.03 MB

     Dynamical RAM for                 psi:       0.74 MB

     Dynamical RAM for                hpsi:       0.74 MB

     Dynamical RAM for                spsi:       0.74 MB

     Dynamical RAM for      wfcinit/wfcrot:       0.82 MB

     Dynamical RAM for           addusdens:      24.37 MB

     Dynamical RAM for          addusforce:      25.22 MB

     Dynamical RAM for         addusstress:      25.78 MB

     Estimated static dynamical RAM per process >      11.15 MB

     Estimated max dynamical RAM per process >      36.93 MB

     Estimated total dynamical RAM >     701.64 MB

     Initial potential from superposition of free atoms

     starting charge   41.99831, renormalised to   42.00000
     Starting wfcs are   25 randomized atomic wfcs
     Checking if some PAW data can be deallocated... 
       PAW data deallocated on   15 nodes for type:  1
       PAW data deallocated on    4 nodes for type:  2

     total cpu time spent up to now is        3.1 secs

     Self-consistent Calculation

     iteration #  1     ecut=    70.00 Ry     beta= 0.70
     Davidson diagonalization with overlap
     ethr =  1.00E-02,  avg # of iterations =  2.2

     Threshold (ethr) on eigenvalues was too large:
     Diagonalizing with lowered threshold

     Davidson diagonalization with overlap
     ethr =  3.48E-04,  avg # of iterations =  3.5

     total cpu time spent up to now is        5.5 secs

     total energy              =   -1957.79645532 Ry
     estimated scf accuracy    <       0.12076396 Ry

     iteration #  2     ecut=    70.00 Ry     beta= 0.70
     Davidson diagonalization with overlap
     ethr =  2.88E-04,  avg # of iterations =  3.0

     total cpu time spent up to now is        7.1 secs

     total energy              =   -1957.81447773 Ry
     estimated scf accuracy    <       0.10784041 Ry

     iteration #  3     ecut=    70.00 Ry     beta= 0.70
     Davidson diagonalization with overlap
     ethr =  2.57E-04,  avg # of iterations =  2.2

     total cpu time spent up to now is        8.4 secs

     total energy              =   -1957.83980455 Ry
     estimated scf accuracy    <       0.00364472 Ry

     iteration #  4     ecut=    70.00 Ry     beta= 0.70
     Davidson diagonalization with overlap
     ethr =  8.68E-06,  avg # of iterations =  3.5

     total cpu time spent up to now is        9.8 secs

     total energy              =   -1957.84066717 Ry
     estimated scf accuracy    <       0.00021765 Ry

     iteration #  5     ecut=    70.00 Ry     beta= 0.70
     Davidson diagonalization with overlap
     ethr =  5.18E-07,  avg # of iterations =  4.2

     total cpu time spent up to now is       11.3 secs

     total energy              =   -1957.84073496 Ry
     estimated scf accuracy    <       0.00000689 Ry

     iteration #  6     ecut=    70.00 Ry     beta= 0.70
     Davidson diagonalization with overlap
     ethr =  1.64E-08,  avg # of iterations =  5.0

     total cpu time spent up to now is       12.9 secs

     End of self-consistent calculation

          k = 0.0000 0.0000 0.0000 ( 20005 PWs)   bands (ev):

   -21.3212 -21.3212 -21.3212 -21.2657 -21.2657 -11.8499 -11.1181 -11.1181
   -11.1181  -6.2864  -2.4220  -2.4220  -2.4220  -1.3497  -1.3497  -0.4680
    -0.4680  -0.4680  -0.2569  -0.2569  -0.2569   1.4103   4.1419

     occupation numbers 
     1.0000   1.0000   1.0000   1.0000   1.0000   1.0000   1.0000   1.0000
     1.0000   1.0000   1.0000   1.0000   1.0000   1.0000   1.0000   1.0000
     1.0000   1.0000   1.0000   1.0000   1.0000   0.0000   0.0000

          k = 0.0000 0.0000 0.3333 ( 19950 PWs)   bands (ev):

   -21.3212 -21.3211 -21.3211 -21.2656 -21.2656 -11.8096 -11.1732 -11.1168
   -11.1168  -6.2418  -2.5389  -2.4451  -2.4451  -1.2015  -1.1381  -0.6766
    -0.6320  -0.4855  -0.4855  -0.2755  -0.2755   1.8187   4.0553

     occupation numbers 
     1.0000   1.0000   1.0000   1.0000   1.0000   1.0000   1.0000   1.0000
     1.0000   1.0000   1.0000   1.0000   1.0000   1.0000   1.0000   1.0000
     1.0000   1.0000   1.0000   1.0000   1.0000   0.0000   0.0000

          k = 0.0000 0.3333 0.3333 ( 19938 PWs)   bands (ev):

   -21.3211 -21.3211 -21.3211 -21.2656 -21.2656 -11.7768 -11.1657 -11.1551
   -11.1259  -6.2275  -2.6478  -2.4612  -2.4537  -1.1026  -1.0363  -0.8915
    -0.6658  -0.4517  -0.4006  -0.3769  -0.1738   1.9120   4.1789

     occupation numbers 
     1.0000   1.0000   1.0000   1.0000   1.0000   1.0000   1.0000   1.0000
     1.0000   1.0000   1.0000   1.0000   1.0000   1.0000   1.0000   1.0000
     1.0000   1.0000   1.0000   1.0000   1.0000   0.0000   0.0000

          k = 0.3333 0.3333 0.3333 ( 19976 PWs)   bands (ev):

   -21.3212 -21.3212 -21.3212 -21.2656 -21.2656 -11.7519 -11.1657 -11.1536
   -11.1536  -6.2461  -2.6162  -2.5554  -2.5554  -1.0248  -1.0248  -0.9676
    -0.4669  -0.4669  -0.2459  -0.2312  -0.2312   1.6771   4.3469

     occupation numbers 
     1.0000   1.0000   1.0000   1.0000   1.0000   1.0000   1.0000   1.0000
     1.0000   1.0000   1.0000   1.0000   1.0000   1.0000   1.0000   1.0000
     1.0000   1.0000   1.0000   1.0000   1.0000   0.0000   0.0000

     highest occupied, lowest unoccupied level (ev):    -0.1738    1.4103

!    total energy              =   -1957.84073881 Ry

     total all-electron energy =    -69286.458300 Ry
     estimated scf accuracy    <       0.00000049 Ry

     The total energy is the sum of the following terms:
     one-electron contribution =    -155.27043188 Ry
     hartree contribution      =      94.72458121 Ry
     xc contribution           =    -110.98871017 Ry
     ewald contribution        =    -119.43299796 Ry
     one-center paw contrib.   =   -1666.87318001 Ry
      -> PAW hartree energy AE =     109.61100408 Ry
      -> PAW hartree energy PS =    -108.86606489 Ry
      -> PAW xc energy AE      =    -329.04147456 Ry
      -> PAW xc energy PS      =      47.34422899 Ry
      -> total E_H with PAW    =      95.46952041 Ry
      -> total E_XC with PAW   =    -392.68595574 Ry

     convergence has been achieved in   6 iterations

     Forces acting on atoms (cartesian axes, Ry/au):

     atom    1 type  1   force =     0.00000000    0.00000000    0.00000000
     atom    2 type  2   force =    -0.00044622    0.00044622    0.00044622
     atom    3 type  2   force =     0.00044622   -0.00044622    0.00044622
     atom    4 type  2   force =     0.00044622    0.00044622   -0.00044622
     atom    5 type  2   force =    -0.00044622   -0.00044622   -0.00044622
     The non-local contrib.  to forces
     atom    1 type  1   force =     0.00000000    0.00000000    0.00000000
     atom    2 type  2   force =    -0.09037158    0.09037158    0.09037158
     atom    3 type  2   force =     0.09037158   -0.09037158    0.09037158
     atom    4 type  2   force =     0.09037158    0.09037158   -0.09037158
     atom    5 type  2   force =    -0.09037158   -0.09037158   -0.09037158
     The ionic contribution  to forces
     atom    1 type  1   force =    -0.00000000   -0.00000000    0.00000000
     atom    2 type  2   force =     3.79412130   -3.79412130   -3.79412130
     atom    3 type  2   force =    -3.79412130    3.79412130   -3.79412130
     atom    4 type  2   force =    -3.79412130   -3.79412130    3.79412130
     atom    5 type  2   force =     3.79412130    3.79412130    3.79412130
     The local contribution  to forces
     atom    1 type  1   force =     0.00000000    0.00000000    0.00000000
     atom    2 type  2   force =    -3.71519897    3.71519897    3.71519897
     atom    3 type  2   force =     3.71519897   -3.71519897    3.71519897
     atom    4 type  2   force =     3.71519897    3.71519897   -3.71519897
     atom    5 type  2   force =    -3.71519897   -3.71519897   -3.71519897
     The core correction contribution to forces
     atom    1 type  1   force =     0.00000000    0.00000000    0.00000000
     atom    2 type  2   force =     0.01134519   -0.01134519   -0.01134519
     atom    3 type  2   force =    -0.01134519    0.01134519   -0.01134519
     atom    4 type  2   force =    -0.01134519   -0.01134519    0.01134519
     atom    5 type  2   force =     0.01134519    0.01134519    0.01134519
     The Hubbard contrib.    to forces
     atom    1 type  1   force =     0.00000000    0.00000000    0.00000000
     atom    2 type  2   force =     0.00000000    0.00000000    0.00000000
     atom    3 type  2   force =     0.00000000    0.00000000    0.00000000
     atom    4 type  2   force =     0.00000000    0.00000000    0.00000000
     atom    5 type  2   force =     0.00000000    0.00000000    0.00000000
     The SCF correction term to forces
     atom    1 type  1   force =    -0.00000000   -0.00000000   -0.00000000
     atom    2 type  2   force =    -0.00034216    0.00034216    0.00034216
     atom    3 type  2   force =     0.00034216   -0.00034216    0.00034216
     atom    4 type  2   force =     0.00034216    0.00034216   -0.00034216
     atom    5 type  2   force =    -0.00034216   -0.00034216   -0.00034216

     Total force =     0.001546     Total SCF correction =     0.001185
     SCF correction compared to forces is large: reduce conv_thr to get better values


     Computing stress (Cartesian axis) and pressure

          total   stress  (Ry/bohr**3)                   (kbar)     P=        0.66
   0.00000452   0.00000000   0.00000000            0.66        0.00        0.00
   0.00000000   0.00000452   0.00000000            0.00        0.66        0.00
   0.00000000   0.00000000   0.00000452            0.00        0.00        0.66

     kinetic stress (kbar)   4002.78      0.00      0.00
                                0.00   4002.78      0.00
                                0.00      0.00   4002.78

     local   stress (kbar)  -2877.75      0.00     -0.00
                                0.00  -2877.75     -0.00
                               -0.00     -0.00  -2877.75

     nonloc. stress (kbar)    795.05      0.00      0.00
                                0.00    795.05      0.00
                                0.00      0.00    795.05

     hartree stress (kbar)   2302.45     -0.00      0.00
                               -0.00   2302.45      0.00
                                0.00      0.00   2302.45

     exc-cor stress (kbar)   4100.22     -0.00      0.00
                               -0.00   4100.22      0.00
                                0.00      0.00   4100.22

     corecor stress (kbar)  -5419.06      0.00      0.00
                                0.00  -5419.06      0.00
                                0.00      0.00  -5419.06

     ewald   stress (kbar)  -2903.03      0.00     -0.00
                                0.00  -2903.03     -0.00
                               -0.00     -0.00  -2903.03

     hubbard stress (kbar)      0.00      0.00      0.00
                                0.00      0.00      0.00
                                0.00      0.00      0.00

     DFT-D   stress (kbar)      0.00      0.00      0.00
                                0.00      0.00      0.00
                                0.00      0.00      0.00

     XDM     stress (kbar)      0.00      0.00      0.00
                                0.00      0.00      0.00
                                0.00      0.00      0.00

     dft-nl  stress (kbar)      0.00      0.00      0.00
                                0.00      0.00      0.00
                                0.00      0.00      0.00

     TS-vdW  stress (kbar)      0.00      0.00      0.00
                                0.00      0.00      0.00
                                0.00      0.00      0.00



     Writing output data file ./out/SnI4un.save/

     init_run     :      1.19s CPU      1.38s WALL (       1 calls)
     electrons    :      9.61s CPU      9.95s WALL (       1 calls)
     forces       :      0.54s CPU      0.63s WALL (       1 calls)
     stress       :      1.38s CPU      1.40s WALL (       1 calls)

     Called by init_run:
     wfcinit      :      0.33s CPU      0.34s WALL (       1 calls)
     wfcinit:atom :      0.00s CPU      0.00s WALL (       4 calls)
     wfcinit:wfcr :      0.30s CPU      0.31s WALL (       4 calls)
     potinit      :      0.26s CPU      0.29s WALL (       1 calls)
     hinit0       :      0.27s CPU      0.36s WALL (       1 calls)

     Called by electrons:
     c_bands      :      6.14s CPU      6.25s WALL (       7 calls)
     sum_band     :      1.67s CPU      1.70s WALL (       7 calls)
     v_of_rho     :      0.23s CPU      0.24s WALL (       7 calls)
     v_h          :      0.02s CPU      0.02s WALL (       7 calls)
     v_xc         :      0.28s CPU      0.29s WALL (       9 calls)
     newd         :      0.76s CPU      0.79s WALL (       7 calls)
     PAW_pot      :      1.02s CPU      1.04s WALL (       7 calls)
     mix_rho      :      0.03s CPU      0.04s WALL (       7 calls)

     Called by c_bands:
     init_us_2    :      0.09s CPU      0.10s WALL (      68 calls)
     cegterg      :      5.90s CPU      5.96s WALL (      28 calls)

     Called by sum_band:
     sum_band:wei :      0.00s CPU      0.00s WALL (       7 calls)
     sum_band:loo :      0.86s CPU      0.87s WALL (       7 calls)
     sum_band:buf :      0.01s CPU      0.01s WALL (      28 calls)
     sum_band:ini :      0.04s CPU      0.04s WALL (      28 calls)
     sum_band:cal :      0.21s CPU      0.21s WALL (      28 calls)
     sum_band:bec :      0.00s CPU      0.00s WALL (      28 calls)
     addusdens    :      0.74s CPU      0.74s WALL (       7 calls)
     addusd:skk   :      0.00s CPU      0.00s WALL (      14 calls)
     addusd:dgemm :      0.27s CPU      0.28s WALL (      14 calls)
     addusd:qvan2 :      0.37s CPU      0.37s WALL (      14 calls)

     Called by *egterg:
     cdiaghg      :      0.13s CPU      0.13s WALL (     119 calls)
     cegterg:over :      0.34s CPU      0.35s WALL (      95 calls)
     cegterg:upda :      0.17s CPU      0.17s WALL (      95 calls)
     cegterg:last :      0.42s CPU      0.42s WALL (      61 calls)
     h_psi        :      4.41s CPU      4.47s WALL (     127 calls)
     s_psi        :      0.53s CPU      0.53s WALL (     127 calls)
     g_psi        :      0.01s CPU      0.01s WALL (      95 calls)

     Called by h_psi:
     h_psi:calbec :      0.65s CPU      0.65s WALL (     127 calls)
     vloc_psi     :      3.20s CPU      3.26s WALL (     127 calls)
     add_vuspsi   :      0.54s CPU      0.55s WALL (     127 calls)

     General routines
     calbec       :      1.01s CPU      1.01s WALL (     175 calls)
     fft          :      0.17s CPU      0.18s WALL (     103 calls)
     ffts         :      0.01s CPU      0.01s WALL (       7 calls)
     fftw         :      3.56s CPU      3.62s WALL (    4306 calls)

     Parallel routines
     fft_scatt_xy :      0.26s CPU      0.26s WALL (    4416 calls)
     fft_scatt_yz :      0.71s CPU      0.72s WALL (    4416 calls)

     PAW routines
     PAW_pot      :      1.02s CPU      1.04s WALL (       7 calls)
     PAW_symme    :      0.01s CPU      0.01s WALL (      14 calls)

     PWSCF        :     13.43s CPU     15.36s WALL


   This run was terminated on:  14: 7:46  15Jan2021            

=------------------------------------------------------------------------------=
   JOB DONE.
=------------------------------------------------------------------------------=
