
     Program PWSCF v.6.6 starts on 26Jan2021 at 11:21:23 

     This program is part of the open-source Quantum ESPRESSO suite
     for quantum simulation of materials; please cite
         "P. Giannozzi et al., J. Phys.:Condens. Matter 21 395502 (2009);
         "P. Giannozzi et al., J. Phys.:Condens. Matter 29 465901 (2017);
          URL http://www.quantum-espresso.org", 
     in publications or presentations arising from this work. More details at
     http://www.quantum-espresso.org/quote

     Parallel version (MPI), running on    96 processors

     MPI processes distributed on     3 nodes
     R & G space division:  proc/nbgrp/npool/nimage =      96
     Fft bands division:     nmany     =       1
     Waiting for input...
     Reading input from standard input

     Current dimensions of program PWSCF are:
     Max number of different atomic species (ntypx) = 10
     Max number of k-points (npk) =  40000
     Max angular momentum in pseudopotentials (lmaxx) =  3
     file Sn.rel-pbe-dn-rrkjus_psl.1.0.0.UPF: wavefunction(s)  5S 4D 4D renormalized
     file Cs.rel-pbe-spn-rrkjus_psl.1.0.0.UPF: wavefunction(s)  5S 6S renormalized

     Subspace diagonalization in iterative solution of the eigenvalue problem:
     a serial algorithm will be used

 
     Parallelization info
     --------------------
     sticks:   dense  smooth     PW     G-vecs:    dense   smooth      PW
     Min          49      49     13                 6405     6405     905
     Max          51      51     14                 6417     6417     922
     Sum        4717    4717   1291               615567   615567   87455
 

     Title: 
     perovskite                                                                 


     bravais-lattice index     =            8
     lattice parameter (alat)  =       9.1317  a.u.
     unit-cell volume          =    6370.5385 (a.u.)^3
     number of atoms/cell      =           20
     number of atomic types    =            3
     number of electrons       =       176.00
     number of Kohn-Sham states=          176
     kinetic-energy cutoff     =      80.0000  Ry
     charge density cutoff     =     320.0000  Ry
     convergence threshold     =      1.0E-06
     mixing beta               =       0.6000
     number of iterations used =            8  plain     mixing
     Exchange-correlation= PBE
                           (   1   4   3   4   0   0   0)
     Non magnetic calculation with spin-orbit


     celldm(1)=   9.131705  celldm(2)=   2.227728  celldm(3)=   3.755420
     celldm(4)=   0.000000  celldm(5)=   0.000000  celldm(6)=   0.000000

     crystal axes: (cart. coord. in units of alat)
               a(1) = (   1.000000   0.000000   0.000000 )  
               a(2) = (   0.000000   2.227728   0.000000 )  
               a(3) = (   0.000000   0.000000   3.755420 )  

     reciprocal axes: (cart. coord. in units 2 pi/alat)
               b(1) = (  1.000000  0.000000  0.000000 )  
               b(2) = (  0.000000  0.448888  0.000000 )  
               b(3) = (  0.000000  0.000000  0.266282 )  


     PseudoPot. # 1 for Sn read from file:
     /scratch/afiorent/degironcoli/pseudo/pseudo-usp/Sn.rel-pbe-dn-rrkjus_psl.1.0.0.UPF
     MD5 check sum: e9415cc9ba1036dfb73502962f03961a
     Pseudo is Ultrasoft + core correction, Zval = 14.0
     Generated using "atomic" code by A. Dal Corso v.6.3
     Using radial grid of 1243 points, 10 beta functions with: 
                l(1) =   0
                l(2) =   0
                l(3) =   1
                l(4) =   1
                l(5) =   1
                l(6) =   1
                l(7) =   2
                l(8) =   2
                l(9) =   2
               l(10) =   2
     Q(r) pseudized with 0 coefficients 


     PseudoPot. # 2 for I  read from file:
     /scratch/afiorent/degironcoli/pseudo/pseudo-usp/I.rel-pbe-n-rrkjus_psl.0.2.2.UPF
     MD5 check sum: b9024a078df971004264c9bcc9ff756e
     Pseudo is Ultrasoft + core correction, Zval =  7.0
     Generated using "atomic" code by A. Dal Corso v.5.0.2 svn rev. 9415
     Using radial grid of 1247 points,  6 beta functions with: 
                l(1) =   0
                l(2) =   0
                l(3) =   1
                l(4) =   1
                l(5) =   1
                l(6) =   1
     Q(r) pseudized with 0 coefficients 


     PseudoPot. # 3 for Cs read from file:
     /scratch/afiorent/degironcoli/pseudo/pseudo-usp/Cs.rel-pbe-spn-rrkjus_psl.1.0.0.UPF
     MD5 check sum: 92f45d5fced885c1284380ec35df8368
     Pseudo is Ultrasoft + core correction, Zval =  9.0
     Generated using "atomic" code by A. Dal Corso v.6.4.1
     Using radial grid of 1251 points, 15 beta functions with: 
                l(1) =   0
                l(2) =   0
                l(3) =   0
                l(4) =   1
                l(5) =   1
                l(6) =   1
                l(7) =   1
                l(8) =   2
                l(9) =   2
               l(10) =   2
               l(11) =   2
               l(12) =   3
               l(13) =   3
               l(14) =   3
               l(15) =   3
     Q(r) pseudized with 0 coefficients 


     atomic species   valence    mass     pseudopotential
        Sn            14.00   118.70000     Sn( 1.00)
        I              7.00   126.90000     I ( 1.00)
        Cs             9.00   132.90000     Cs( 1.00)

      8 Sym. Ops., with inversion, found ( 6 have fractional translation)


                                    s                        frac. trans.

      isym =  1     identity                                     

 cryst.   s( 1) = (     1          0          0      )
                  (     0          1          0      )
                  (     0          0          1      )

 cart.    s( 1) = (  1.0000000  0.0000000  0.0000000 )
                  (  0.0000000  1.0000000  0.0000000 )
                  (  0.0000000  0.0000000  1.0000000 )


      isym =  2     180 deg rotation - cart. axis [0,0,1]        

 cryst.   s( 2) = (    -1          0          0      )    f =(  0.0000000 )
                  (     0         -1          0      )       (  0.5000000 )
                  (     0          0          1      )       (  0.5000000 )

 cart.    s( 2) = ( -1.0000000  0.0000000  0.0000000 )    f =(  0.0000000 )
                  (  0.0000000 -1.0000000  0.0000000 )       (  1.1138638 )
                  (  0.0000000  0.0000000  1.0000000 )       (  1.8777098 )


      isym =  3     180 deg rotation - cart. axis [0,1,0]        

 cryst.   s( 3) = (    -1          0          0      )    f =(  0.5000000 )
                  (     0          1          0      )       ( -0.5000000 )
                  (     0          0         -1      )       ( -0.5000000 )

 cart.    s( 3) = ( -1.0000000  0.0000000  0.0000000 )    f =(  0.5000000 )
                  (  0.0000000  1.0000000  0.0000000 )       ( -1.1138638 )
                  (  0.0000000  0.0000000 -1.0000000 )       ( -1.8777098 )


      isym =  4     180 deg rotation - cart. axis [1,0,0]        

 cryst.   s( 4) = (     1          0          0      )    f =( -0.5000000 )
                  (     0         -1          0      )       (  0.0000000 )
                  (     0          0         -1      )       (  0.0000000 )

 cart.    s( 4) = (  1.0000000  0.0000000  0.0000000 )    f =( -0.5000000 )
                  (  0.0000000 -1.0000000  0.0000000 )       (  0.0000000 )
                  (  0.0000000  0.0000000 -1.0000000 )       (  0.0000000 )


      isym =  5     inversion                                    

 cryst.   s( 5) = (    -1          0          0      )
                  (     0         -1          0      )
                  (     0          0         -1      )

 cart.    s( 5) = ( -1.0000000  0.0000000  0.0000000 )
                  (  0.0000000 -1.0000000  0.0000000 )
                  (  0.0000000  0.0000000 -1.0000000 )


      isym =  6     inv. 180 deg rotation - cart. axis [0,0,1]   

 cryst.   s( 6) = (     1          0          0      )    f =(  0.0000000 )
                  (     0          1          0      )       ( -0.5000000 )
                  (     0          0         -1      )       ( -0.5000000 )

 cart.    s( 6) = (  1.0000000  0.0000000  0.0000000 )    f =(  0.0000000 )
                  (  0.0000000  1.0000000  0.0000000 )       ( -1.1138638 )
                  (  0.0000000  0.0000000 -1.0000000 )       ( -1.8777098 )


      isym =  7     inv. 180 deg rotation - cart. axis [0,1,0]   

 cryst.   s( 7) = (     1          0          0      )    f =( -0.5000000 )
                  (     0         -1          0      )       (  0.5000000 )
                  (     0          0          1      )       (  0.5000000 )

 cart.    s( 7) = (  1.0000000  0.0000000  0.0000000 )    f =( -0.5000000 )
                  (  0.0000000 -1.0000000  0.0000000 )       (  1.1138638 )
                  (  0.0000000  0.0000000  1.0000000 )       (  1.8777098 )


      isym =  8     inv. 180 deg rotation - cart. axis [1,0,0]   

 cryst.   s( 8) = (    -1          0          0      )    f =(  0.5000000 )
                  (     0          1          0      )       (  0.0000000 )
                  (     0          0          1      )       (  0.0000000 )

 cart.    s( 8) = ( -1.0000000  0.0000000  0.0000000 )    f =(  0.5000000 )
                  (  0.0000000  1.0000000  0.0000000 )       (  0.0000000 )
                  (  0.0000000  0.0000000  1.0000000 )       (  0.0000000 )


     double point group D_2h (mmm) 
     there are 10 classes and  2 irreducible representations
     the character table:

       E     -E     C2    C2'  C2''  i     -i     s_v   s_v' s_v''
                   -C2   -C2'  -C2''             -s_v  -s_v' -s_v'
G_5+   2.00 -2.00  0.00  0.00  0.00  2.00 -2.00  0.00  0.00  0.00
G_5-   2.00 -2.00  0.00  0.00  0.00 -2.00  2.00  0.00  0.00  0.00

     the symmetry operations in each class and the name of the first element:

     E             1
          identity                                               
     -E           -1
          identity E                                             
      C2  -C2      2   -2
          180 deg rotation - cart. axis [0,0,1]                  
      C2' -C2'     4   -4
          180 deg rotation - cart. axis [1,0,0]                  
     C2'' -C2''    3   -3
          180 deg rotation - cart. axis [0,1,0]                  
     i             5
          inversion                                              
     -i           -5
          inversion E                                            
      s_v -s_v     6   -6
          inv. 180 deg rotation - cart. axis [0,0,1]             
      s_v'-s_v'    8   -8
          inv. 180 deg rotation - cart. axis [1,0,0]             
     s_v''-s_v'    7   -7
          inv. 180 deg rotation - cart. axis [0,1,0]             

   Cartesian axes

     site n.     atom                  positions (alat units)
         1           Cs  tau(   1) = (   0.2500000   0.1859640   2.5168147  )
         2           Cs  tau(   2) = (   0.7500000   2.0417636   1.2386050  )
         3           Cs  tau(   3) = (   0.2500000   1.2998278   3.1163149  )
         4           Cs  tau(   4) = (   0.7500000   0.9278998   0.6391048  )
         5           Sn  tau(   5) = (   0.2500000   0.7615710   1.6485466  )
         6           Sn  tau(   6) = (   0.7500000   1.4661567   2.1068731  )
         7           Sn  tau(   7) = (   0.2500000   1.8754348   0.2291632  )
         8           Sn  tau(   8) = (   0.7500000   0.3522928   3.5262565  )
         9           I   tau(   9) = (   0.7500000   0.0581437   0.4202578  )
        10           I   tau(  10) = (   0.2500000   2.1695839   3.3351619  )
        11           I   tau(  11) = (   0.7500000   1.1720075   1.4574521  )
        12           I   tau(  12) = (   0.2500000   1.0557201   2.2979676  )
        13           I   tau(  13) = (   0.7500000   0.6531118   2.9738192  )
        14           I   tau(  14) = (   0.2500000   1.5746158   0.7816005  )
        15           I   tau(  15) = (   0.7500000   1.7669756   2.6593103  )
        16           I   tau(  16) = (   0.2500000   0.4607520   1.0961094  )
        17           I   tau(  17) = (   0.7500000   0.3753632   1.8734812  )
        18           I   tau(  18) = (   0.2500000   1.8523644   1.8819384  )
        19           I   tau(  19) = (   0.7500000   1.4892270   0.0042286  )
        20           I   tau(  20) = (   0.2500000   0.7385006   3.7511911  )

   Crystallographic axes

     site n.     atom                  positions (cryst. coord.)
         1           Cs  tau(   1) = (  0.2500000  0.0834770  0.6701820  )
         2           Cs  tau(   2) = (  0.7500000  0.9165230  0.3298180  )
         3           Cs  tau(   3) = (  0.2500000  0.5834770  0.8298180  )
         4           Cs  tau(   4) = (  0.7500000  0.4165230  0.1701820  )
         5           Sn  tau(   5) = (  0.2500000  0.3418600  0.4389780  )
         6           Sn  tau(   6) = (  0.7500000  0.6581400  0.5610220  )
         7           Sn  tau(   7) = (  0.2500000  0.8418600  0.0610220  )
         8           Sn  tau(   8) = (  0.7500000  0.1581400  0.9389780  )
         9           I   tau(   9) = (  0.7500000  0.0261000  0.1119070  )
        10           I   tau(  10) = (  0.2500000  0.9739000  0.8880930  )
        11           I   tau(  11) = (  0.7500000  0.5261000  0.3880930  )
        12           I   tau(  12) = (  0.2500000  0.4739000  0.6119070  )
        13           I   tau(  13) = (  0.7500000  0.2931740  0.7918740  )
        14           I   tau(  14) = (  0.2500000  0.7068260  0.2081260  )
        15           I   tau(  15) = (  0.7500000  0.7931740  0.7081260  )
        16           I   tau(  16) = (  0.2500000  0.2068260  0.2918740  )
        17           I   tau(  17) = (  0.7500000  0.1684960  0.4988740  )
        18           I   tau(  18) = (  0.2500000  0.8315040  0.5011260  )
        19           I   tau(  19) = (  0.7500000  0.6684960  0.0011260  )
        20           I   tau(  20) = (  0.2500000  0.3315040  0.9988740  )

     number of k points=     8
                       cart. coord. in units 2pi/alat
        k(    1) = (   0.1666667   0.0748147   0.0443803), wk =   0.2962963
        k(    2) = (   0.1666667   0.0748147  -0.1331409), wk =   0.1481481
        k(    3) = (   0.1666667  -0.2244440   0.0443803), wk =   0.1481481
        k(    4) = (   0.1666667  -0.2244440  -0.1331409), wk =   0.0740741
        k(    5) = (  -0.5000000   0.0748147   0.0443803), wk =   0.1481481
        k(    6) = (  -0.5000000   0.0748147  -0.1331409), wk =   0.0740741
        k(    7) = (  -0.5000000  -0.2244440   0.0443803), wk =   0.0740741
        k(    8) = (  -0.5000000  -0.2244440  -0.1331409), wk =   0.0370370

                       cryst. coord.
        k(    1) = (   0.1666667   0.1666667   0.1666667), wk =   0.2962963
        k(    2) = (   0.1666667   0.1666667  -0.5000000), wk =   0.1481481
        k(    3) = (   0.1666667  -0.5000000   0.1666667), wk =   0.1481481
        k(    4) = (   0.1666667  -0.5000000  -0.5000000), wk =   0.0740741
        k(    5) = (  -0.5000000   0.1666667   0.1666667), wk =   0.1481481
        k(    6) = (  -0.5000000   0.1666667  -0.5000000), wk =   0.0740741
        k(    7) = (  -0.5000000  -0.5000000   0.1666667), wk =   0.0740741
        k(    8) = (  -0.5000000  -0.5000000  -0.5000000), wk =   0.0370370

     Dense  grid:   615567 G-vectors     FFT dimensions: (  54, 120, 200)

     Dynamical RAM for                 wfc:       4.30 MB

     Dynamical RAM for     wfc (w. buffer):      38.72 MB

     Dynamical RAM for           str. fact:       0.29 MB

     Dynamical RAM for           local pot:       0.00 MB

     Dynamical RAM for          nlocal pot:       6.80 MB

     Dynamical RAM for                qrad:      34.45 MB

     Dynamical RAM for          rho,v,vnew:       2.95 MB

     Dynamical RAM for               rhoin:       0.98 MB

     Dynamical RAM for            rho*nmix:       6.26 MB

     Dynamical RAM for           G-vectors:       0.42 MB

     Dynamical RAM for          h,s,v(r/c):       5.67 MB

     Dynamical RAM for          <psi|beta>:       2.99 MB

     Dynamical RAM for                 psi:       8.60 MB

     Dynamical RAM for                hpsi:       8.60 MB

     Dynamical RAM for                spsi:       8.60 MB

     Dynamical RAM for      wfcinit/wfcrot:       8.62 MB

     Dynamical RAM for           addusdens:     201.09 MB

     Dynamical RAM for          addusforce:     203.85 MB

     Dynamical RAM for         addusstress:     202.85 MB

     Estimated static dynamical RAM per process >      92.46 MB

     Estimated max dynamical RAM per process >     296.30 MB

     Estimated total dynamical RAM >      27.78 GB

     Initial potential from superposition of free atoms

     starting charge  175.83607, renormalised to  176.00000
     Starting wfcs are  208 randomized atomic wfcs

     total cpu time spent up to now is       54.4 secs

     Self-consistent Calculation

     iteration #  1     ecut=    80.00 Ry     beta= 0.60
     Davidson diagonalization with overlap
     ethr =  1.00E-02,  avg # of iterations =  1.0

     Threshold (ethr) on eigenvalues was too large:
     Diagonalizing with lowered threshold

     Davidson diagonalization with overlap
     ethr =  3.43E-04,  avg # of iterations =  4.0

     total cpu time spent up to now is      156.8 secs

     total energy              =   -1576.20861383 Ry
     estimated scf accuracy    <       0.49984578 Ry

     iteration #  2     ecut=    80.00 Ry     beta= 0.60
     Davidson diagonalization with overlap
     ethr =  2.84E-04,  avg # of iterations =  4.0

     total cpu time spent up to now is      240.3 secs

     total energy              =   -1576.35531862 Ry
     estimated scf accuracy    <       0.36609145 Ry

     iteration #  3     ecut=    80.00 Ry     beta= 0.60
     Davidson diagonalization with overlap
     ethr =  2.08E-04,  avg # of iterations =  2.0

     total cpu time spent up to now is      300.9 secs

     total energy              =   -1576.40523940 Ry
     estimated scf accuracy    <       0.02036841 Ry

     iteration #  4     ecut=    80.00 Ry     beta= 0.60
     Davidson diagonalization with overlap
     ethr =  1.16E-05,  avg # of iterations =  6.8

     total cpu time spent up to now is      374.9 secs

     total energy              =   -1576.42580954 Ry
     estimated scf accuracy    <       0.01927843 Ry

     iteration #  5     ecut=    80.00 Ry     beta= 0.60
     Davidson diagonalization with overlap
     ethr =  1.10E-05,  avg # of iterations =  2.0

     total cpu time spent up to now is      419.2 secs

     total energy              =   -1576.42631039 Ry
     estimated scf accuracy    <       0.00306423 Ry

     iteration #  6     ecut=    80.00 Ry     beta= 0.60
     Davidson diagonalization with overlap
     ethr =  1.74E-06,  avg # of iterations =  6.6

     total cpu time spent up to now is      489.2 secs

     total energy              =   -1576.42845563 Ry
     estimated scf accuracy    <       0.00332831 Ry

     iteration #  7     ecut=    80.00 Ry     beta= 0.60
     Davidson diagonalization with overlap
     ethr =  1.74E-06,  avg # of iterations =  2.0

     total cpu time spent up to now is      542.6 secs

     total energy              =   -1576.42825883 Ry
     estimated scf accuracy    <       0.00084314 Ry

     iteration #  8     ecut=    80.00 Ry     beta= 0.60
     Davidson diagonalization with overlap
     ethr =  4.79E-07,  avg # of iterations =  5.4

     total cpu time spent up to now is      641.2 secs

     total energy              =   -1576.42870800 Ry
     estimated scf accuracy    <       0.00026914 Ry

     iteration #  9     ecut=    80.00 Ry     beta= 0.60
     Davidson diagonalization with overlap
     ethr =  1.53E-07,  avg # of iterations =  2.0

     total cpu time spent up to now is      688.3 secs

     total energy              =   -1576.42867548 Ry
     estimated scf accuracy    <       0.00008859 Ry

     iteration # 10     ecut=    80.00 Ry     beta= 0.60
     Davidson diagonalization with overlap
     ethr =  5.03E-08,  avg # of iterations =  5.1

     total cpu time spent up to now is      813.4 secs

     total energy              =   -1576.42872134 Ry
     estimated scf accuracy    <       0.00003383 Ry

     iteration # 11     ecut=    80.00 Ry     beta= 0.60
     Davidson diagonalization with overlap
     ethr =  1.92E-08,  avg # of iterations =  2.0

     total cpu time spent up to now is      872.3 secs

     total energy              =   -1576.42871414 Ry
     estimated scf accuracy    <       0.00001265 Ry

     iteration # 12     ecut=    80.00 Ry     beta= 0.60
     Davidson diagonalization with overlap
     ethr =  7.19E-09,  avg # of iterations =  7.5

     total cpu time spent up to now is      971.4 secs

     total energy              =   -1576.42872011 Ry
     estimated scf accuracy    <       0.00002103 Ry

     iteration # 13     ecut=    80.00 Ry     beta= 0.60
     Davidson diagonalization with overlap
     ethr =  7.19E-09,  avg # of iterations =  4.6

     total cpu time spent up to now is     1034.9 secs

     total energy              =   -1576.42872119 Ry
     estimated scf accuracy    <       0.00000312 Ry

     iteration # 14     ecut=    80.00 Ry     beta= 0.60
     Davidson diagonalization with overlap
     ethr =  1.77E-09,  avg # of iterations =  5.0

     total cpu time spent up to now is     1116.7 secs

     End of self-consistent calculation

          k = 0.1667 0.0748 0.0444 ( 76947 PWs)   bands (ev):

   -18.4076 -18.4076 -18.4076 -18.4076 -18.4074 -18.4074 -18.4074 -18.4074
   -18.3952 -18.3952 -18.3952 -18.3952 -18.3951 -18.3951 -18.3951 -18.3951
   -17.7474 -17.7474 -17.7473 -17.7473 -17.7467 -17.7467 -17.7465 -17.7465
   -17.3712 -17.3712 -17.3712 -17.3712 -17.3712 -17.3712 -17.3712 -17.3712
   -17.3618 -17.3618 -17.3618 -17.3618 -17.3616 -17.3616 -17.3616 -17.3616
   -17.3549 -17.3549 -17.3549 -17.3549 -17.3547 -17.3547 -17.3547 -17.3547
    -8.7240  -8.7240  -8.7060  -8.7060  -8.5435  -8.5435  -8.5094  -8.5094
    -8.4205  -8.4205  -8.4099  -8.4099  -8.3638  -8.3638  -8.3365  -8.3365
    -8.2536  -8.2536  -8.2467  -8.2467  -8.2238  -8.2238  -8.2023  -8.2023
    -5.7084  -5.7084  -5.7044  -5.7044  -5.6970  -5.6970  -5.6903  -5.6903
    -4.1162  -4.1162  -4.1138  -4.1138  -4.1054  -4.1054  -4.0989  -4.0989
    -4.0929  -4.0929  -4.0873  -4.0873  -4.0715  -4.0715  -4.0665  -4.0665
    -2.9435  -2.9435  -2.9360  -2.9360  -2.8493  -2.8493  -2.8113  -2.8113
     0.0968   0.0968   0.2097   0.2097   0.4311   0.4311   0.4893   0.4893
     0.5522   0.5522   0.6461   0.6461   0.7434   0.7434   0.7898   0.7898
     0.9287   0.9287   0.9708   0.9708   1.0230   1.0230   1.0487   1.0487
     1.2069   1.2069   1.2593   1.2593   1.4428   1.4428   1.5036   1.5036
     1.5615   1.5615   1.6093   1.6093   1.7013   1.7013   1.7744   1.7744
     1.9032   1.9032   1.9692   1.9692   2.0217   2.0217   2.0401   2.0401
     2.0656   2.0656   2.1126   2.1126   2.2146   2.2146   2.2557   2.2557
     2.3117   2.3117   2.3592   2.3592   2.4700   2.4700   2.5171   2.5171
     2.7761   2.7761   2.7905   2.7905   3.0286   3.0286   3.1357   3.1357

     occupation numbers 
     1.0000   1.0000   1.0000   1.0000   1.0000   1.0000   1.0000   1.0000
     1.0000   1.0000   1.0000   1.0000   1.0000   1.0000   1.0000   1.0000
     1.0000   1.0000   1.0000   1.0000   1.0000   1.0000   1.0000   1.0000
     1.0000   1.0000   1.0000   1.0000   1.0000   1.0000   1.0000   1.0000
     1.0000   1.0000   1.0000   1.0000   1.0000   1.0000   1.0000   1.0000
     1.0000   1.0000   1.0000   1.0000   1.0000   1.0000   1.0000   1.0000
     1.0000   1.0000   1.0000   1.0000   1.0000   1.0000   1.0000   1.0000
     1.0000   1.0000   1.0000   1.0000   1.0000   1.0000   1.0000   1.0000
     1.0000   1.0000   1.0000   1.0000   1.0000   1.0000   1.0000   1.0000
     1.0000   1.0000   1.0000   1.0000   1.0000   1.0000   1.0000   1.0000
     1.0000   1.0000   1.0000   1.0000   1.0000   1.0000   1.0000   1.0000
     1.0000   1.0000   1.0000   1.0000   1.0000   1.0000   1.0000   1.0000
     1.0000   1.0000   1.0000   1.0000   1.0000   1.0000   1.0000   1.0000
     1.0000   1.0000   1.0000   1.0000   1.0000   1.0000   1.0000   1.0000
     1.0000   1.0000   1.0000   1.0000   1.0000   1.0000   1.0000   1.0000
     1.0000   1.0000   1.0000   1.0000   1.0000   1.0000   1.0000   1.0000
     1.0000   1.0000   1.0000   1.0000   1.0000   1.0000   1.0000   1.0000
     1.0000   1.0000   1.0000   1.0000   1.0000   1.0000   1.0000   1.0000
     1.0000   1.0000   1.0000   1.0000   1.0000   1.0000   1.0000   1.0000
     1.0000   1.0000   1.0000   1.0000   1.0000   1.0000   1.0000   1.0000
     1.0000   1.0000   1.0000   1.0000   1.0000   1.0000   1.0000   1.0000
     1.0000   1.0000   1.0000   1.0000   1.0000   1.0000   1.0000   1.0000

          k = 0.1667 0.0748-0.1331 ( 76982 PWs)   bands (ev):

   -18.4076 -18.4076 -18.4076 -18.4076 -18.4074 -18.4074 -18.4074 -18.4074
   -18.3952 -18.3952 -18.3952 -18.3952 -18.3951 -18.3951 -18.3951 -18.3951
   -17.7474 -17.7474 -17.7474 -17.7474 -17.7466 -17.7466 -17.7466 -17.7466
   -17.3712 -17.3712 -17.3712 -17.3712 -17.3712 -17.3712 -17.3712 -17.3712
   -17.3618 -17.3618 -17.3618 -17.3618 -17.3616 -17.3616 -17.3616 -17.3616
   -17.3549 -17.3549 -17.3549 -17.3549 -17.3547 -17.3547 -17.3547 -17.3547
    -8.7158  -8.7158  -8.7157  -8.7157  -8.5256  -8.5256  -8.5253  -8.5253
    -8.4176  -8.4176  -8.4176  -8.4176  -8.3488  -8.3488  -8.3487  -8.3487
    -8.2509  -8.2509  -8.2503  -8.2503  -8.2119  -8.2119  -8.2118  -8.2118
    -5.7079  -5.7079  -5.7058  -5.7058  -5.6953  -5.6953  -5.6911  -5.6911
    -4.1157  -4.1157  -4.1149  -4.1149  -4.1071  -4.1071  -4.0975  -4.0975
    -4.0930  -4.0930  -4.0869  -4.0869  -4.0713  -4.0713  -4.0659  -4.0659
    -2.9408  -2.9408  -2.9399  -2.9399  -2.8303  -2.8303  -2.8293  -2.8293
     0.1285   0.1285   0.1695   0.1695   0.4527   0.4527   0.4742   0.4742
     0.5622   0.5622   0.6350   0.6350   0.7604   0.7604   0.7759   0.7759
     0.9617   0.9617   0.9702   0.9702   1.0169   1.0169   1.0226   1.0226
     1.2078   1.2078   1.2391   1.2391   1.4499   1.4499   1.4920   1.4920
     1.5894   1.5894   1.6162   1.6162   1.7110   1.7110   1.7379   1.7379
     1.9139   1.9139   1.9668   1.9668   2.0260   2.0260   2.0374   2.0374
     2.0692   2.0692   2.1099   2.1099   2.2284   2.2284   2.2477   2.2477
     2.3008   2.3008   2.3591   2.3591   2.4942   2.4942   2.5160   2.5160
     2.7778   2.7778   2.7903   2.7903   3.0590   3.0590   3.0884   3.0884

     occupation numbers 
     1.0000   1.0000   1.0000   1.0000   1.0000   1.0000   1.0000   1.0000
     1.0000   1.0000   1.0000   1.0000   1.0000   1.0000   1.0000   1.0000
     1.0000   1.0000   1.0000   1.0000   1.0000   1.0000   1.0000   1.0000
     1.0000   1.0000   1.0000   1.0000   1.0000   1.0000   1.0000   1.0000
     1.0000   1.0000   1.0000   1.0000   1.0000   1.0000   1.0000   1.0000
     1.0000   1.0000   1.0000   1.0000   1.0000   1.0000   1.0000   1.0000
     1.0000   1.0000   1.0000   1.0000   1.0000   1.0000   1.0000   1.0000
     1.0000   1.0000   1.0000   1.0000   1.0000   1.0000   1.0000   1.0000
     1.0000   1.0000   1.0000   1.0000   1.0000   1.0000   1.0000   1.0000
     1.0000   1.0000   1.0000   1.0000   1.0000   1.0000   1.0000   1.0000
     1.0000   1.0000   1.0000   1.0000   1.0000   1.0000   1.0000   1.0000
     1.0000   1.0000   1.0000   1.0000   1.0000   1.0000   1.0000   1.0000
     1.0000   1.0000   1.0000   1.0000   1.0000   1.0000   1.0000   1.0000
     1.0000   1.0000   1.0000   1.0000   1.0000   1.0000   1.0000   1.0000
     1.0000   1.0000   1.0000   1.0000   1.0000   1.0000   1.0000   1.0000
     1.0000   1.0000   1.0000   1.0000   1.0000   1.0000   1.0000   1.0000
     1.0000   1.0000   1.0000   1.0000   1.0000   1.0000   1.0000   1.0000
     1.0000   1.0000   1.0000   1.0000   1.0000   1.0000   1.0000   1.0000
     1.0000   1.0000   1.0000   1.0000   1.0000   1.0000   1.0000   1.0000
     1.0000   1.0000   1.0000   1.0000   1.0000   1.0000   1.0000   1.0000
     1.0000   1.0000   1.0000   1.0000   1.0000   1.0000   1.0000   1.0000
     1.0000   1.0000   1.0000   1.0000   1.0000   1.0000   1.0000   1.0000

          k = 0.1667-0.2244 0.0444 ( 76966 PWs)   bands (ev):

   -18.4076 -18.4076 -18.4076 -18.4076 -18.4074 -18.4074 -18.4074 -18.4074
   -18.3952 -18.3952 -18.3952 -18.3952 -18.3951 -18.3951 -18.3951 -18.3951
   -17.7471 -17.7471 -17.7471 -17.7471 -17.7469 -17.7469 -17.7469 -17.7469
   -17.3712 -17.3712 -17.3712 -17.3712 -17.3712 -17.3712 -17.3712 -17.3712
   -17.3618 -17.3618 -17.3618 -17.3618 -17.3616 -17.3616 -17.3616 -17.3616
   -17.3549 -17.3549 -17.3549 -17.3549 -17.3547 -17.3547 -17.3547 -17.3547
    -8.6988  -8.6988  -8.6988  -8.6988  -8.5560  -8.5560  -8.5557  -8.5557
    -8.4399  -8.4399  -8.4397  -8.4397  -8.3152  -8.3152  -8.3149  -8.3149
    -8.2403  -8.2403  -8.2389  -8.2389  -8.2198  -8.2198  -8.2187  -8.2187
    -5.7065  -5.7065  -5.7028  -5.7028  -5.6988  -5.6988  -5.6948  -5.6948
    -4.1190  -4.1190  -4.1168  -4.1168  -4.1071  -4.1071  -4.1022  -4.1022
    -4.0899  -4.0899  -4.0870  -4.0870  -4.0740  -4.0740  -4.0691  -4.0691
    -2.9376  -2.9376  -2.9369  -2.9369  -2.8239  -2.8239  -2.8236  -2.8236
     0.1184   0.1184   0.1934   0.1934   0.3703   0.3703   0.4307   0.4307
     0.5460   0.5460   0.6084   0.6084   0.7743   0.7743   0.7870   0.7870
     0.9284   0.9284   0.9869   0.9869   1.0563   1.0563   1.0919   1.0919
     1.2730   1.2730   1.2798   1.2798   1.4665   1.4665   1.5182   1.5182
     1.5554   1.5554   1.6192   1.6192   1.8132   1.8132   1.8273   1.8273
     1.8798   1.8798   1.9091   1.9091   2.0087   2.0087   2.0278   2.0278
     2.0937   2.0937   2.0995   2.0995   2.1708   2.1708   2.2485   2.2485
     2.3474   2.3474   2.3661   2.3661   2.4387   2.4387   2.4437   2.4437
     2.7402   2.7402   2.7759   2.7759   2.9898   2.9898   3.0662   3.0662

     occupation numbers 
     1.0000   1.0000   1.0000   1.0000   1.0000   1.0000   1.0000   1.0000
     1.0000   1.0000   1.0000   1.0000   1.0000   1.0000   1.0000   1.0000
     1.0000   1.0000   1.0000   1.0000   1.0000   1.0000   1.0000   1.0000
     1.0000   1.0000   1.0000   1.0000   1.0000   1.0000   1.0000   1.0000
     1.0000   1.0000   1.0000   1.0000   1.0000   1.0000   1.0000   1.0000
     1.0000   1.0000   1.0000   1.0000   1.0000   1.0000   1.0000   1.0000
     1.0000   1.0000   1.0000   1.0000   1.0000   1.0000   1.0000   1.0000
     1.0000   1.0000   1.0000   1.0000   1.0000   1.0000   1.0000   1.0000
     1.0000   1.0000   1.0000   1.0000   1.0000   1.0000   1.0000   1.0000
     1.0000   1.0000   1.0000   1.0000   1.0000   1.0000   1.0000   1.0000
     1.0000   1.0000   1.0000   1.0000   1.0000   1.0000   1.0000   1.0000
     1.0000   1.0000   1.0000   1.0000   1.0000   1.0000   1.0000   1.0000
     1.0000   1.0000   1.0000   1.0000   1.0000   1.0000   1.0000   1.0000
     1.0000   1.0000   1.0000   1.0000   1.0000   1.0000   1.0000   1.0000
     1.0000   1.0000   1.0000   1.0000   1.0000   1.0000   1.0000   1.0000
     1.0000   1.0000   1.0000   1.0000   1.0000   1.0000   1.0000   1.0000
     1.0000   1.0000   1.0000   1.0000   1.0000   1.0000   1.0000   1.0000
     1.0000   1.0000   1.0000   1.0000   1.0000   1.0000   1.0000   1.0000
     1.0000   1.0000   1.0000   1.0000   1.0000   1.0000   1.0000   1.0000
     1.0000   1.0000   1.0000   1.0000   1.0000   1.0000   1.0000   1.0000
     1.0000   1.0000   1.0000   1.0000   1.0000   1.0000   1.0000   1.0000
     1.0000   1.0000   1.0000   1.0000   1.0000   1.0000   1.0000   1.0000

          k = 0.1667-0.2244-0.1331 ( 77000 PWs)   bands (ev):

   -18.4076 -18.4076 -18.4076 -18.4076 -18.4074 -18.4074 -18.4074 -18.4074
   -18.3952 -18.3952 -18.3952 -18.3952 -18.3951 -18.3951 -18.3951 -18.3951
   -17.7471 -17.7471 -17.7471 -17.7471 -17.7469 -17.7469 -17.7469 -17.7469
   -17.3712 -17.3712 -17.3712 -17.3712 -17.3712 -17.3712 -17.3712 -17.3712
   -17.3618 -17.3618 -17.3618 -17.3618 -17.3616 -17.3616 -17.3616 -17.3616
   -17.3549 -17.3549 -17.3549 -17.3549 -17.3547 -17.3547 -17.3547 -17.3547
    -8.6988  -8.6988  -8.6988  -8.6988  -8.5561  -8.5561  -8.5561  -8.5561
    -8.4384  -8.4384  -8.4384  -8.4384  -8.3187  -8.3187  -8.3187  -8.3187
    -8.2306  -8.2306  -8.2306  -8.2306  -8.2258  -8.2258  -8.2258  -8.2258
    -5.7053  -5.7053  -5.7053  -5.7053  -5.6962  -5.6962  -5.6962  -5.6962
    -4.1188  -4.1188  -4.1188  -4.1188  -4.1042  -4.1042  -4.1042  -4.1042
    -4.0889  -4.0889  -4.0889  -4.0889  -4.0706  -4.0706  -4.0706  -4.0706
    -2.9367  -2.9367  -2.9367  -2.9367  -2.8244  -2.8244  -2.8244  -2.8244
     0.1584   0.1584   0.1584   0.1584   0.3916   0.3916   0.3916   0.3916
     0.6025   0.6025   0.6025   0.6025   0.7590   0.7590   0.7590   0.7590
     0.9366   0.9366   0.9366   0.9366   1.0744   1.0744   1.0744   1.0744
     1.2980   1.2980   1.2980   1.2980   1.5000   1.5000   1.5000   1.5000
     1.5859   1.5859   1.5859   1.5859   1.8143   1.8143   1.8143   1.8143
     1.8931   1.8931   1.8931   1.8931   2.0173   2.0173   2.0173   2.0173
     2.1072   2.1072   2.1072   2.1072   2.2063   2.2063   2.2063   2.2063
     2.3525   2.3525   2.3525   2.3525   2.4467   2.4467   2.4467   2.4467
     2.7589   2.7589   2.7589   2.7589   3.0197   3.0197   3.0197   3.0197

     occupation numbers 
     1.0000   1.0000   1.0000   1.0000   1.0000   1.0000   1.0000   1.0000
     1.0000   1.0000   1.0000   1.0000   1.0000   1.0000   1.0000   1.0000
     1.0000   1.0000   1.0000   1.0000   1.0000   1.0000   1.0000   1.0000
     1.0000   1.0000   1.0000   1.0000   1.0000   1.0000   1.0000   1.0000
     1.0000   1.0000   1.0000   1.0000   1.0000   1.0000   1.0000   1.0000
     1.0000   1.0000   1.0000   1.0000   1.0000   1.0000   1.0000   1.0000
     1.0000   1.0000   1.0000   1.0000   1.0000   1.0000   1.0000   1.0000
     1.0000   1.0000   1.0000   1.0000   1.0000   1.0000   1.0000   1.0000
     1.0000   1.0000   1.0000   1.0000   1.0000   1.0000   1.0000   1.0000
     1.0000   1.0000   1.0000   1.0000   1.0000   1.0000   1.0000   1.0000
     1.0000   1.0000   1.0000   1.0000   1.0000   1.0000   1.0000   1.0000
     1.0000   1.0000   1.0000   1.0000   1.0000   1.0000   1.0000   1.0000
     1.0000   1.0000   1.0000   1.0000   1.0000   1.0000   1.0000   1.0000
     1.0000   1.0000   1.0000   1.0000   1.0000   1.0000   1.0000   1.0000
     1.0000   1.0000   1.0000   1.0000   1.0000   1.0000   1.0000   1.0000
     1.0000   1.0000   1.0000   1.0000   1.0000   1.0000   1.0000   1.0000
     1.0000   1.0000   1.0000   1.0000   1.0000   1.0000   1.0000   1.0000
     1.0000   1.0000   1.0000   1.0000   1.0000   1.0000   1.0000   1.0000
     1.0000   1.0000   1.0000   1.0000   1.0000   1.0000   1.0000   1.0000
     1.0000   1.0000   1.0000   1.0000   1.0000   1.0000   1.0000   1.0000
     1.0000   1.0000   1.0000   1.0000   1.0000   1.0000   1.0000   1.0000
     1.0000   1.0000   1.0000   1.0000   1.0000   1.0000   1.0000   1.0000

          k =-0.5000 0.0748 0.0444 ( 77032 PWs)   bands (ev):

   -18.4079 -18.4079 -18.4079 -18.4079 -18.4079 -18.4079 -18.4079 -18.4079
   -18.3947 -18.3947 -18.3947 -18.3947 -18.3947 -18.3947 -18.3947 -18.3947
   -17.7387 -17.7387 -17.7387 -17.7387 -17.7382 -17.7382 -17.7382 -17.7382
   -17.3719 -17.3719 -17.3719 -17.3719 -17.3719 -17.3719 -17.3719 -17.3719
   -17.3618 -17.3618 -17.3618 -17.3618 -17.3618 -17.3618 -17.3618 -17.3618
   -17.3540 -17.3540 -17.3540 -17.3540 -17.3540 -17.3540 -17.3540 -17.3540
    -8.4642  -8.4642  -8.4642  -8.4642  -8.4617  -8.4617  -8.4617  -8.4617
    -8.2965  -8.2965  -8.2963  -8.2963  -8.2864  -8.2864  -8.2861  -8.2861
    -8.2740  -8.2740  -8.2739  -8.2739  -8.2582  -8.2582  -8.2582  -8.2582
    -5.7579  -5.7579  -5.7579  -5.7579  -5.7298  -5.7298  -5.7298  -5.7298
    -4.2391  -4.2391  -4.2391  -4.2391  -4.1881  -4.1881  -4.1878  -4.1878
    -4.1049  -4.1049  -4.1044  -4.1044  -4.0719  -4.0719  -4.0717  -4.0717
    -3.1771  -3.1771  -3.1768  -3.1768  -3.1461  -3.1461  -3.1458  -3.1458
    -0.0413  -0.0413  -0.0326  -0.0326  -0.0126  -0.0126  -0.0022  -0.0022
     0.4781   0.4781   0.4789   0.4789   0.5394   0.5394   0.5448   0.5448
     0.6751   0.6751   0.6826   0.6826   0.7750   0.7750   0.7851   0.7851
     1.2203   1.2203   1.2222   1.2222   1.3308   1.3308   1.3407   1.3407
     1.5190   1.5190   1.5259   1.5259   1.6567   1.6567   1.6786   1.6786
     1.7874   1.7874   1.7967   1.7967   1.8703   1.8703   1.8704   1.8704
     1.9783   1.9783   1.9859   1.9859   2.0772   2.0772   2.0775   2.0775
     2.2013   2.2013   2.2031   2.2031   2.3283   2.3283   2.3349   2.3349
     2.7399   2.7399   2.7421   2.7421   3.0039   3.0039   3.0048   3.0048

     occupation numbers 
     1.0000   1.0000   1.0000   1.0000   1.0000   1.0000   1.0000   1.0000
     1.0000   1.0000   1.0000   1.0000   1.0000   1.0000   1.0000   1.0000
     1.0000   1.0000   1.0000   1.0000   1.0000   1.0000   1.0000   1.0000
     1.0000   1.0000   1.0000   1.0000   1.0000   1.0000   1.0000   1.0000
     1.0000   1.0000   1.0000   1.0000   1.0000   1.0000   1.0000   1.0000
     1.0000   1.0000   1.0000   1.0000   1.0000   1.0000   1.0000   1.0000
     1.0000   1.0000   1.0000   1.0000   1.0000   1.0000   1.0000   1.0000
     1.0000   1.0000   1.0000   1.0000   1.0000   1.0000   1.0000   1.0000
     1.0000   1.0000   1.0000   1.0000   1.0000   1.0000   1.0000   1.0000
     1.0000   1.0000   1.0000   1.0000   1.0000   1.0000   1.0000   1.0000
     1.0000   1.0000   1.0000   1.0000   1.0000   1.0000   1.0000   1.0000
     1.0000   1.0000   1.0000   1.0000   1.0000   1.0000   1.0000   1.0000
     1.0000   1.0000   1.0000   1.0000   1.0000   1.0000   1.0000   1.0000
     1.0000   1.0000   1.0000   1.0000   1.0000   1.0000   1.0000   1.0000
     1.0000   1.0000   1.0000   1.0000   1.0000   1.0000   1.0000   1.0000
     1.0000   1.0000   1.0000   1.0000   1.0000   1.0000   1.0000   1.0000
     1.0000   1.0000   1.0000   1.0000   1.0000   1.0000   1.0000   1.0000
     1.0000   1.0000   1.0000   1.0000   1.0000   1.0000   1.0000   1.0000
     1.0000   1.0000   1.0000   1.0000   1.0000   1.0000   1.0000   1.0000
     1.0000   1.0000   1.0000   1.0000   1.0000   1.0000   1.0000   1.0000
     1.0000   1.0000   1.0000   1.0000   1.0000   1.0000   1.0000   1.0000
     1.0000   1.0000   1.0000   1.0000   1.0000   1.0000   1.0000   1.0000

          k =-0.5000 0.0748-0.1331 ( 77004 PWs)   bands (ev):

   -18.4079 -18.4079 -18.4079 -18.4079 -18.4079 -18.4079 -18.4079 -18.4079
   -18.3947 -18.3947 -18.3947 -18.3947 -18.3947 -18.3947 -18.3947 -18.3947
   -17.7387 -17.7387 -17.7387 -17.7387 -17.7382 -17.7382 -17.7382 -17.7382
   -17.3719 -17.3719 -17.3719 -17.3719 -17.3719 -17.3719 -17.3719 -17.3719
   -17.3618 -17.3618 -17.3618 -17.3618 -17.3618 -17.3618 -17.3618 -17.3618
   -17.3540 -17.3540 -17.3540 -17.3540 -17.3540 -17.3540 -17.3540 -17.3540
    -8.4646  -8.4646  -8.4646  -8.4646  -8.4613  -8.4613  -8.4613  -8.4613
    -8.2959  -8.2959  -8.2959  -8.2959  -8.2869  -8.2869  -8.2869  -8.2869
    -8.2737  -8.2737  -8.2737  -8.2737  -8.2583  -8.2583  -8.2583  -8.2583
    -5.7579  -5.7579  -5.7579  -5.7579  -5.7298  -5.7298  -5.7298  -5.7298
    -4.2391  -4.2391  -4.2391  -4.2391  -4.1880  -4.1880  -4.1880  -4.1880
    -4.1047  -4.1047  -4.1047  -4.1047  -4.0718  -4.0718  -4.0718  -4.0718
    -3.1715  -3.1715  -3.1715  -3.1715  -3.1515  -3.1515  -3.1515  -3.1515
    -0.0345  -0.0345  -0.0345  -0.0345  -0.0088  -0.0088  -0.0088  -0.0088
     0.4825   0.4825   0.4825   0.4825   0.5638   0.5638   0.5638   0.5638
     0.6533   0.6533   0.6533   0.6533   0.7655   0.7655   0.7655   0.7655
     1.2438   1.2438   1.2438   1.2438   1.3231   1.3231   1.3231   1.3231
     1.5291   1.5291   1.5291   1.5291   1.6909   1.6909   1.6909   1.6909
     1.7639   1.7639   1.7639   1.7639   1.8646   1.8646   1.8646   1.8646
     1.9864   1.9864   1.9864   1.9864   2.0747   2.0747   2.0747   2.0747
     2.1887   2.1887   2.1887   2.1887   2.3501   2.3501   2.3501   2.3501
     2.7783   2.7783   2.7783   2.7783   2.9652   2.9652   2.9652   2.9652

     occupation numbers 
     1.0000   1.0000   1.0000   1.0000   1.0000   1.0000   1.0000   1.0000
     1.0000   1.0000   1.0000   1.0000   1.0000   1.0000   1.0000   1.0000
     1.0000   1.0000   1.0000   1.0000   1.0000   1.0000   1.0000   1.0000
     1.0000   1.0000   1.0000   1.0000   1.0000   1.0000   1.0000   1.0000
     1.0000   1.0000   1.0000   1.0000   1.0000   1.0000   1.0000   1.0000
     1.0000   1.0000   1.0000   1.0000   1.0000   1.0000   1.0000   1.0000
     1.0000   1.0000   1.0000   1.0000   1.0000   1.0000   1.0000   1.0000
     1.0000   1.0000   1.0000   1.0000   1.0000   1.0000   1.0000   1.0000
     1.0000   1.0000   1.0000   1.0000   1.0000   1.0000   1.0000   1.0000
     1.0000   1.0000   1.0000   1.0000   1.0000   1.0000   1.0000   1.0000
     1.0000   1.0000   1.0000   1.0000   1.0000   1.0000   1.0000   1.0000
     1.0000   1.0000   1.0000   1.0000   1.0000   1.0000   1.0000   1.0000
     1.0000   1.0000   1.0000   1.0000   1.0000   1.0000   1.0000   1.0000
     1.0000   1.0000   1.0000   1.0000   1.0000   1.0000   1.0000   1.0000
     1.0000   1.0000   1.0000   1.0000   1.0000   1.0000   1.0000   1.0000
     1.0000   1.0000   1.0000   1.0000   1.0000   1.0000   1.0000   1.0000
     1.0000   1.0000   1.0000   1.0000   1.0000   1.0000   1.0000   1.0000
     1.0000   1.0000   1.0000   1.0000   1.0000   1.0000   1.0000   1.0000
     1.0000   1.0000   1.0000   1.0000   1.0000   1.0000   1.0000   1.0000
     1.0000   1.0000   1.0000   1.0000   1.0000   1.0000   1.0000   1.0000
     1.0000   1.0000   1.0000   1.0000   1.0000   1.0000   1.0000   1.0000
     1.0000   1.0000   1.0000   1.0000   1.0000   1.0000   1.0000   1.0000

          k =-0.5000-0.2244 0.0444 ( 77036 PWs)   bands (ev):

   -18.4079 -18.4079 -18.4079 -18.4079 -18.4079 -18.4079 -18.4079 -18.4079
   -18.3947 -18.3947 -18.3947 -18.3947 -18.3947 -18.3947 -18.3947 -18.3947
   -17.7384 -17.7384 -17.7384 -17.7384 -17.7384 -17.7384 -17.7384 -17.7384
   -17.3719 -17.3719 -17.3719 -17.3719 -17.3719 -17.3719 -17.3719 -17.3719
   -17.3618 -17.3618 -17.3618 -17.3618 -17.3618 -17.3618 -17.3618 -17.3618
   -17.3540 -17.3540 -17.3540 -17.3540 -17.3540 -17.3540 -17.3540 -17.3540
    -8.4632  -8.4632  -8.4631  -8.4631  -8.4628  -8.4628  -8.4627  -8.4627
    -8.2928  -8.2928  -8.2925  -8.2925  -8.2916  -8.2916  -8.2913  -8.2913
    -8.2659  -8.2659  -8.2657  -8.2657  -8.2651  -8.2651  -8.2650  -8.2650
    -5.7441  -5.7441  -5.7441  -5.7441  -5.7434  -5.7434  -5.7434  -5.7434
    -4.2150  -4.2150  -4.2140  -4.2140  -4.2136  -4.2136  -4.2127  -4.2127
    -4.0887  -4.0887  -4.0881  -4.0881  -4.0880  -4.0880  -4.0875  -4.0875
    -3.1628  -3.1628  -3.1622  -3.1622  -3.1614  -3.1614  -3.1609  -3.1609
     0.0408   0.0408   0.0463   0.0463   0.0515   0.0515   0.0579   0.0579
     0.4205   0.4205   0.4207   0.4207   0.4354   0.4354   0.4416   0.4416
     0.7099   0.7099   0.7159   0.7159   0.7229   0.7229   0.7239   0.7239
     1.2189   1.2189   1.2201   1.2201   1.2809   1.2809   1.2823   1.2823
     1.5488   1.5488   1.5832   1.5832   1.6165   1.6165   1.6420   1.6420
     1.7519   1.7519   1.7737   1.7737   1.8083   1.8083   1.8170   1.8170
     2.0007   2.0007   2.0043   2.0043   2.0466   2.0466   2.0517   2.0517
     2.2956   2.2956   2.3040   2.3040   2.3103   2.3103   2.3187   2.3187
     2.9659   2.9659   2.9673   2.9673   2.9818   2.9818   2.9838   2.9838

     occupation numbers 
     1.0000   1.0000   1.0000   1.0000   1.0000   1.0000   1.0000   1.0000
     1.0000   1.0000   1.0000   1.0000   1.0000   1.0000   1.0000   1.0000
     1.0000   1.0000   1.0000   1.0000   1.0000   1.0000   1.0000   1.0000
     1.0000   1.0000   1.0000   1.0000   1.0000   1.0000   1.0000   1.0000
     1.0000   1.0000   1.0000   1.0000   1.0000   1.0000   1.0000   1.0000
     1.0000   1.0000   1.0000   1.0000   1.0000   1.0000   1.0000   1.0000
     1.0000   1.0000   1.0000   1.0000   1.0000   1.0000   1.0000   1.0000
     1.0000   1.0000   1.0000   1.0000   1.0000   1.0000   1.0000   1.0000
     1.0000   1.0000   1.0000   1.0000   1.0000   1.0000   1.0000   1.0000
     1.0000   1.0000   1.0000   1.0000   1.0000   1.0000   1.0000   1.0000
     1.0000   1.0000   1.0000   1.0000   1.0000   1.0000   1.0000   1.0000
     1.0000   1.0000   1.0000   1.0000   1.0000   1.0000   1.0000   1.0000
     1.0000   1.0000   1.0000   1.0000   1.0000   1.0000   1.0000   1.0000
     1.0000   1.0000   1.0000   1.0000   1.0000   1.0000   1.0000   1.0000
     1.0000   1.0000   1.0000   1.0000   1.0000   1.0000   1.0000   1.0000
     1.0000   1.0000   1.0000   1.0000   1.0000   1.0000   1.0000   1.0000
     1.0000   1.0000   1.0000   1.0000   1.0000   1.0000   1.0000   1.0000
     1.0000   1.0000   1.0000   1.0000   1.0000   1.0000   1.0000   1.0000
     1.0000   1.0000   1.0000   1.0000   1.0000   1.0000   1.0000   1.0000
     1.0000   1.0000   1.0000   1.0000   1.0000   1.0000   1.0000   1.0000
     1.0000   1.0000   1.0000   1.0000   1.0000   1.0000   1.0000   1.0000
     1.0000   1.0000   1.0000   1.0000   1.0000   1.0000   1.0000   1.0000

          k =-0.5000-0.2244-0.1331 ( 77080 PWs)   bands (ev):

   -18.4079 -18.4079 -18.4079 -18.4079 -18.4079 -18.4079 -18.4079 -18.4079
   -18.3947 -18.3947 -18.3947 -18.3947 -18.3947 -18.3947 -18.3947 -18.3947
   -17.7384 -17.7384 -17.7384 -17.7384 -17.7384 -17.7384 -17.7384 -17.7384
   -17.3719 -17.3719 -17.3719 -17.3719 -17.3719 -17.3719 -17.3719 -17.3719
   -17.3618 -17.3618 -17.3618 -17.3618 -17.3618 -17.3618 -17.3618 -17.3618
   -17.3540 -17.3540 -17.3540 -17.3540 -17.3540 -17.3540 -17.3540 -17.3540
    -8.4631  -8.4631  -8.4631  -8.4631  -8.4629  -8.4629  -8.4629  -8.4629
    -8.2923  -8.2923  -8.2923  -8.2923  -8.2917  -8.2917  -8.2917  -8.2917
    -8.2656  -8.2656  -8.2656  -8.2656  -8.2653  -8.2653  -8.2653  -8.2653
    -5.7438  -5.7438  -5.7438  -5.7438  -5.7438  -5.7438  -5.7438  -5.7438
    -4.2148  -4.2148  -4.2148  -4.2148  -4.2129  -4.2129  -4.2129  -4.2129
    -4.0887  -4.0887  -4.0887  -4.0887  -4.0875  -4.0875  -4.0875  -4.0875
    -3.1623  -3.1623  -3.1623  -3.1623  -3.1613  -3.1613  -3.1613  -3.1613
     0.0359   0.0359   0.0359   0.0359   0.0580   0.0580   0.0580   0.0580
     0.4121   0.4121   0.4121   0.4121   0.4469   0.4469   0.4469   0.4469
     0.7210   0.7210   0.7210   0.7210   0.7422   0.7422   0.7422   0.7422
     1.2213   1.2213   1.2213   1.2213   1.2250   1.2250   1.2250   1.2250
     1.5837   1.5837   1.5837   1.5837   1.6404   1.6404   1.6404   1.6404
     1.7762   1.7762   1.7762   1.7762   1.8054   1.8054   1.8054   1.8054
     2.0293   2.0293   2.0293   2.0293   2.0327   2.0327   2.0327   2.0327
     2.2960   2.2960   2.2960   2.2960   2.2967   2.2967   2.2967   2.2967
     2.9645   2.9645   2.9645   2.9645   2.9967   2.9967   2.9967   2.9967

     occupation numbers 
     1.0000   1.0000   1.0000   1.0000   1.0000   1.0000   1.0000   1.0000
     1.0000   1.0000   1.0000   1.0000   1.0000   1.0000   1.0000   1.0000
     1.0000   1.0000   1.0000   1.0000   1.0000   1.0000   1.0000   1.0000
     1.0000   1.0000   1.0000   1.0000   1.0000   1.0000   1.0000   1.0000
     1.0000   1.0000   1.0000   1.0000   1.0000   1.0000   1.0000   1.0000
     1.0000   1.0000   1.0000   1.0000   1.0000   1.0000   1.0000   1.0000
     1.0000   1.0000   1.0000   1.0000   1.0000   1.0000   1.0000   1.0000
     1.0000   1.0000   1.0000   1.0000   1.0000   1.0000   1.0000   1.0000
     1.0000   1.0000   1.0000   1.0000   1.0000   1.0000   1.0000   1.0000
     1.0000   1.0000   1.0000   1.0000   1.0000   1.0000   1.0000   1.0000
     1.0000   1.0000   1.0000   1.0000   1.0000   1.0000   1.0000   1.0000
     1.0000   1.0000   1.0000   1.0000   1.0000   1.0000   1.0000   1.0000
     1.0000   1.0000   1.0000   1.0000   1.0000   1.0000   1.0000   1.0000
     1.0000   1.0000   1.0000   1.0000   1.0000   1.0000   1.0000   1.0000
     1.0000   1.0000   1.0000   1.0000   1.0000   1.0000   1.0000   1.0000
     1.0000   1.0000   1.0000   1.0000   1.0000   1.0000   1.0000   1.0000
     1.0000   1.0000   1.0000   1.0000   1.0000   1.0000   1.0000   1.0000
     1.0000   1.0000   1.0000   1.0000   1.0000   1.0000   1.0000   1.0000
     1.0000   1.0000   1.0000   1.0000   1.0000   1.0000   1.0000   1.0000
     1.0000   1.0000   1.0000   1.0000   1.0000   1.0000   1.0000   1.0000
     1.0000   1.0000   1.0000   1.0000   1.0000   1.0000   1.0000   1.0000
     1.0000   1.0000   1.0000   1.0000   1.0000   1.0000   1.0000   1.0000

     highest occupied level (ev):     3.1357

!    total energy              =   -1576.42872245 Ry
     estimated scf accuracy    <          9.8E-09 Ry

     The total energy is the sum of the following terms:
     one-electron contribution =    -482.63204562 Ry
     hartree contribution      =     316.60630300 Ry
     xc contribution           =    -776.83337544 Ry
     ewald contribution        =    -633.56960439 Ry

     convergence has been achieved in  14 iterations

     Forces acting on atoms (cartesian axes, Ry/au):

     atom    1 type  3   force =     0.00000000   -0.00059295    0.00031247
     atom    2 type  3   force =     0.00000000    0.00059295   -0.00031247
     atom    3 type  3   force =     0.00000000   -0.00059295   -0.00031247
     atom    4 type  3   force =     0.00000000    0.00059295    0.00031247
     atom    5 type  1   force =     0.00000000   -0.00051190    0.00053811
     atom    6 type  1   force =     0.00000000    0.00051190   -0.00053811
     atom    7 type  1   force =    -0.00000000   -0.00051190   -0.00053811
     atom    8 type  1   force =     0.00000000    0.00051190    0.00053811
     atom    9 type  2   force =     0.00000000    0.00023697    0.00014973
     atom   10 type  2   force =     0.00000000   -0.00023697   -0.00014973
     atom   11 type  2   force =     0.00000000    0.00023697   -0.00014973
     atom   12 type  2   force =     0.00000000   -0.00023697    0.00014973
     atom   13 type  2   force =     0.00000000    0.00011529   -0.00089274
     atom   14 type  2   force =     0.00000000   -0.00011529    0.00089274
     atom   15 type  2   force =     0.00000000    0.00011529    0.00089274
     atom   16 type  2   force =     0.00000000   -0.00011529   -0.00089274
     atom   17 type  2   force =     0.00000000   -0.00082992    0.00044658
     atom   18 type  2   force =     0.00000000    0.00082992   -0.00044658
     atom   19 type  2   force =     0.00000000   -0.00082992   -0.00044658
     atom   20 type  2   force =     0.00000000    0.00082992    0.00044658
     The non-local contrib.  to forces
     atom    1 type  3   force =     0.00000000    0.00259541   -0.00256282
     atom    2 type  3   force =     0.00000000   -0.00259541    0.00256282
     atom    3 type  3   force =     0.00000000    0.00259541    0.00256282
     atom    4 type  3   force =     0.00000000   -0.00259541   -0.00256282
     atom    5 type  1   force =     0.00000000   -0.08680679   -0.13307072
     atom    6 type  1   force =     0.00000000    0.08680679    0.13307072
     atom    7 type  1   force =     0.00000000   -0.08680679    0.13307072
     atom    8 type  1   force =     0.00000000    0.08680679   -0.13307072
     atom    9 type  2   force =     0.00000000   -0.03537444   -0.03228728
     atom   10 type  2   force =     0.00000000    0.03537444    0.03228728
     atom   11 type  2   force =     0.00000000   -0.03537444    0.03228728
     atom   12 type  2   force =     0.00000000    0.03537444   -0.03228728
     atom   13 type  2   force =     0.00000000   -0.02712385    0.04540133
     atom   14 type  2   force =     0.00000000    0.02712385   -0.04540133
     atom   15 type  2   force =     0.00000000   -0.02712385   -0.04540133
     atom   16 type  2   force =     0.00000000    0.02712385    0.04540133
     atom   17 type  2   force =     0.00000000    0.03504700   -0.01074622
     atom   18 type  2   force =     0.00000000   -0.03504700    0.01074622
     atom   19 type  2   force =     0.00000000    0.03504700    0.01074622
     atom   20 type  2   force =     0.00000000   -0.03504700   -0.01074622
     The ionic contribution  to forces
     atom    1 type  3   force =    -0.00000000    0.02273773    0.42856976
     atom    2 type  3   force =    -0.00000000   -0.02273773   -0.42856976
     atom    3 type  3   force =    -0.00000000    0.02273773   -0.42856976
     atom    4 type  3   force =     0.00000000   -0.02273773    0.42856976
     atom    5 type  1   force =     0.00000000   -2.44382135   -1.60292983
     atom    6 type  1   force =     0.00000000    2.44382135    1.60292983
     atom    7 type  1   force =    -0.00000000   -2.44382135    1.60292983
     atom    8 type  1   force =     0.00000000    2.44382135   -1.60292983
     atom    9 type  2   force =    -0.00000000    3.00608891    5.13288893
     atom   10 type  2   force =     0.00000000   -3.00608891   -5.13288893
     atom   11 type  2   force =    -0.00000000    3.00608891   -5.13288893
     atom   12 type  2   force =    -0.00000000   -3.00608891    5.13288893
     atom   13 type  2   force =     0.00000000    2.02422849   -3.75281499
     atom   14 type  2   force =     0.00000000   -2.02422849    3.75281499
     atom   15 type  2   force =     0.00000000    2.02422849    3.75281499
     atom   16 type  2   force =    -0.00000000   -2.02422849   -3.75281499
     atom   17 type  2   force =     0.00000000   -4.20564473    2.10270404
     atom   18 type  2   force =     0.00000000    4.20564473   -2.10270404
     atom   19 type  2   force =     0.00000000   -4.20564473   -2.10270404
     atom   20 type  2   force =     0.00000000    4.20564473    2.10270404
     The local contribution  to forces
     atom    1 type  3   force =     0.00000000   -0.02572599   -0.42585362
     atom    2 type  3   force =    -0.00000000    0.02572599    0.42585362
     atom    3 type  3   force =     0.00000000   -0.02572599    0.42585362
     atom    4 type  3   force =    -0.00000000    0.02572599   -0.42585362
     atom    5 type  1   force =    -0.00000000    2.52985477    1.73626921
     atom    6 type  1   force =    -0.00000000   -2.52985477   -1.73626921
     atom    7 type  1   force =    -0.00000000    2.52985477   -1.73626921
     atom    8 type  1   force =    -0.00000000   -2.52985477    1.73626921
     atom    9 type  2   force =     0.00000000   -2.97695385   -5.10727241
     atom   10 type  2   force =     0.00000000    2.97695385    5.10727241
     atom   11 type  2   force =     0.00000000   -2.97695385    5.10727241
     atom   12 type  2   force =    -0.00000000    2.97695385   -5.10727241
     atom   13 type  2   force =    -0.00000000   -2.00151785    3.71426357
     atom   14 type  2   force =     0.00000000    2.00151785   -3.71426357
     atom   15 type  2   force =    -0.00000000   -2.00151785   -3.71426357
     atom   16 type  2   force =     0.00000000    2.00151785    3.71426357
     atom   17 type  2   force =     0.00000000    4.17774646   -2.09394144
     atom   18 type  2   force =    -0.00000000   -4.17774646    2.09394144
     atom   19 type  2   force =     0.00000000    4.17774646    2.09394144
     atom   20 type  2   force =    -0.00000000   -4.17774646   -2.09394144
     The core correction contribution to forces
     atom    1 type  3   force =    -0.00000000   -0.00018427    0.00019850
     atom    2 type  3   force =     0.00000000    0.00018427   -0.00019850
     atom    3 type  3   force =    -0.00000000   -0.00018427   -0.00019850
     atom    4 type  3   force =     0.00000000    0.00018427    0.00019850
     atom    5 type  1   force =    -0.00000000    0.00021490    0.00020841
     atom    6 type  1   force =    -0.00000000   -0.00021490   -0.00020841
     atom    7 type  1   force =    -0.00000000    0.00021490   -0.00020841
     atom    8 type  1   force =    -0.00000000   -0.00021490    0.00020841
     atom    9 type  2   force =     0.00000000    0.00649056    0.00686588
     atom   10 type  2   force =    -0.00000000   -0.00649056   -0.00686588
     atom   11 type  2   force =     0.00000000    0.00649056   -0.00686588
     atom   12 type  2   force =    -0.00000000   -0.00649056    0.00686588
     atom   13 type  2   force =    -0.00000000    0.00453186   -0.00778547
     atom   14 type  2   force =    -0.00000000   -0.00453186    0.00778547
     atom   15 type  2   force =    -0.00000000    0.00453186    0.00778547
     atom   16 type  2   force =    -0.00000000   -0.00453186   -0.00778547
     atom   17 type  2   force =    -0.00000000   -0.00797422    0.00244056
     atom   18 type  2   force =     0.00000000    0.00797422   -0.00244056
     atom   19 type  2   force =    -0.00000000   -0.00797422   -0.00244056
     atom   20 type  2   force =     0.00000000    0.00797422    0.00244056
     The Hubbard contrib.    to forces
     atom    1 type  3   force =     0.00000000    0.00000000    0.00000000
     atom    2 type  3   force =     0.00000000    0.00000000    0.00000000
     atom    3 type  3   force =     0.00000000    0.00000000    0.00000000
     atom    4 type  3   force =     0.00000000    0.00000000    0.00000000
     atom    5 type  1   force =     0.00000000    0.00000000    0.00000000
     atom    6 type  1   force =     0.00000000    0.00000000    0.00000000
     atom    7 type  1   force =     0.00000000    0.00000000    0.00000000
     atom    8 type  1   force =     0.00000000    0.00000000    0.00000000
     atom    9 type  2   force =     0.00000000    0.00000000    0.00000000
     atom   10 type  2   force =     0.00000000    0.00000000    0.00000000
     atom   11 type  2   force =     0.00000000    0.00000000    0.00000000
     atom   12 type  2   force =     0.00000000    0.00000000    0.00000000
     atom   13 type  2   force =     0.00000000    0.00000000    0.00000000
     atom   14 type  2   force =     0.00000000    0.00000000    0.00000000
     atom   15 type  2   force =     0.00000000    0.00000000    0.00000000
     atom   16 type  2   force =     0.00000000    0.00000000    0.00000000
     atom   17 type  2   force =     0.00000000    0.00000000    0.00000000
     atom   18 type  2   force =     0.00000000    0.00000000    0.00000000
     atom   19 type  2   force =     0.00000000    0.00000000    0.00000000
     atom   20 type  2   force =     0.00000000    0.00000000    0.00000000
     The SCF correction term to forces
     atom    1 type  3   force =    -0.00000000   -0.00001584   -0.00003935
     atom    2 type  3   force =     0.00000000    0.00001584    0.00003935
     atom    3 type  3   force =     0.00000000   -0.00001584    0.00003935
     atom    4 type  3   force =    -0.00000000    0.00001584   -0.00003935
     atom    5 type  1   force =     0.00000000    0.00004657    0.00006104
     atom    6 type  1   force =     0.00000000   -0.00004657   -0.00006104
     atom    7 type  1   force =     0.00000000    0.00004657   -0.00006104
     atom    8 type  1   force =    -0.00000000   -0.00004657    0.00006104
     atom    9 type  2   force =     0.00000000   -0.00001422   -0.00004539
     atom   10 type  2   force =    -0.00000000    0.00001422    0.00004539
     atom   11 type  2   force =    -0.00000000   -0.00001422    0.00004539
     atom   12 type  2   force =     0.00000000    0.00001422   -0.00004539
     atom   13 type  2   force =    -0.00000000   -0.00000336    0.00004281
     atom   14 type  2   force =     0.00000000    0.00000336   -0.00004281
     atom   15 type  2   force =    -0.00000000   -0.00000336   -0.00004281
     atom   16 type  2   force =    -0.00000000    0.00000336    0.00004281
     atom   17 type  2   force =     0.00000000   -0.00000444   -0.00001037
     atom   18 type  2   force =     0.00000000    0.00000444    0.00001037
     atom   19 type  2   force =    -0.00000000   -0.00000444    0.00001037
     atom   20 type  2   force =    -0.00000000    0.00000444   -0.00001037

     Total force =     0.003333     Total SCF correction =     0.000218


     Computing stress (Cartesian axis) and pressure

          total   stress  (Ry/bohr**3)                   (kbar)     P=        0.12
   0.00000108   0.00000000   0.00000000            0.16        0.00        0.00
   0.00000000   0.00000058   0.00000000            0.00        0.08        0.00
   0.00000000   0.00000000   0.00000083            0.00        0.00        0.12

     kinetic stress (kbar)   5473.36      0.00      0.00
                                0.00   5485.74      0.00
                                0.00      0.00   5479.76

     local   stress (kbar)  -2543.28      0.00     -0.00
                                0.00     90.48      0.00
                               -0.00      0.00    984.46

     nonloc. stress (kbar)   -734.92      0.00      0.00
                                0.00   -738.94      0.00
                                0.00      0.00   -736.18

     hartree stress (kbar)   3403.04      0.00      0.00
                                0.00   2189.09      0.00
                                0.00      0.00   1718.77

     exc-cor stress (kbar)  12439.81      0.00      0.00
                                0.00  12439.54      0.00
                                0.00      0.00  12439.94

     corecor stress (kbar) -14253.05      0.00     -0.00
                                0.00 -14253.66      0.00
                               -0.00      0.00 -14253.53

     ewald   stress (kbar)  -3784.80      0.00     -0.00
                                0.00  -5212.16      0.00
                               -0.00      0.00  -5633.09

     hubbard stress (kbar)      0.00      0.00      0.00
                                0.00      0.00      0.00
                                0.00      0.00      0.00

     DFT-D   stress (kbar)      0.00      0.00      0.00
                                0.00      0.00      0.00
                                0.00      0.00      0.00

     XDM     stress (kbar)      0.00      0.00      0.00
                                0.00      0.00      0.00
                                0.00      0.00      0.00

     dft-nl  stress (kbar)      0.00      0.00      0.00
                                0.00      0.00      0.00
                                0.00      0.00      0.00

     TS-vdW  stress (kbar)      0.00      0.00      0.00
                                0.00      0.00      0.00
                                0.00      0.00      0.00



     Writing output data file ./out/CsSnI3.save/
 
     init_run     :     36.46s CPU     37.04s WALL (       1 calls)
     electrons    :   1032.71s CPU   1066.16s WALL (       1 calls)
     forces       :    102.81s CPU    103.16s WALL (       1 calls)
     stress       :    145.13s CPU    145.76s WALL (       1 calls)

     Called by init_run:
     wfcinit      :     29.21s CPU     29.55s WALL (       1 calls)
     wfcinit:atom :      0.07s CPU      0.07s WALL (       8 calls)
     wfcinit:wfcr :     28.84s CPU     29.18s WALL (       8 calls)
     potinit      :      1.33s CPU      1.35s WALL (       1 calls)
     hinit0       :      1.92s CPU      1.99s WALL (       1 calls)

     Called by electrons:
     c_bands      :    828.08s CPU    844.27s WALL (      15 calls)
     sum_band     :    161.15s CPU    174.43s WALL (      15 calls)
     v_of_rho     :      1.90s CPU      1.99s WALL (      15 calls)
     v_h          :      0.47s CPU      0.49s WALL (      15 calls)
     v_xc         :      1.81s CPU      1.88s WALL (      17 calls)
     newd         :     35.27s CPU     38.67s WALL (      15 calls)
     mix_rho      :      1.72s CPU      2.07s WALL (      15 calls)

     Called by c_bands:
     init_us_2    :      2.18s CPU      2.24s WALL (     264 calls)
     cegterg      :    790.54s CPU    806.33s WALL (     120 calls)

     Called by sum_band:
     sum_band:wei :      0.00s CPU      0.00s WALL (      15 calls)
     sum_band:loo :    145.17s CPU    153.64s WALL (      15 calls)
     sum_band:buf :      0.56s CPU      0.62s WALL (     120 calls)
     sum_band:ini :      0.99s CPU      1.04s WALL (     120 calls)
     sum_band:cal :     18.26s CPU     19.02s WALL (     120 calls)
     sum_band:bec :      8.84s CPU      9.02s WALL (     120 calls)
     addusdens    :     11.89s CPU     16.33s WALL (      15 calls)
     addusd:skk   :      0.02s CPU      0.03s WALL (      45 calls)
     addusd:dgemm :      4.45s CPU      8.48s WALL (      45 calls)
     addusd:qvan2 :      7.25s CPU      7.48s WALL (      45 calls)

     Called by *egterg:
     cdiaghg      :     32.72s CPU     32.79s WALL (     592 calls)
     cegterg:over :     48.39s CPU     48.54s WALL (     480 calls)
     cegterg:upda :     15.73s CPU     15.79s WALL (     480 calls)
     cegterg:last :     36.75s CPU     36.83s WALL (     300 calls)
     h_psi        :    603.02s CPU    618.42s WALL (     608 calls)
     s_psi        :     50.49s CPU     50.57s WALL (     608 calls)
     g_psi        :      0.54s CPU      0.54s WALL (     480 calls)

     Called by h_psi:
     h_psi:calbec :     56.59s CPU     57.61s WALL (     608 calls)
     vloc_psi     :    498.74s CPU    512.81s WALL (     608 calls)
     add_vuspsi   :     45.65s CPU     45.82s WALL (     608 calls)

     General routines
     calbec       :    143.33s CPU    145.30s WALL (     768 calls)
     fft          :      3.53s CPU      3.67s WALL (     236 calls)
     ffts         :      0.36s CPU      0.39s WALL (      60 calls)
     fftw         :    580.49s CPU    601.67s WALL (  293816 calls)
 
     Parallel routines
     fft_scatt_xy :     22.08s CPU     22.44s WALL (  294112 calls)
     fft_scatt_yz :    470.21s CPU    489.28s WALL (  294112 calls)
 
     PWSCF        :  24m 1.93s CPU  24m51.31s WALL

 
   This run was terminated on:  11:46:14  26Jan2021            

=------------------------------------------------------------------------------=
   JOB DONE.
=------------------------------------------------------------------------------=
