
     Program PWSCF v.6.6 starts on 14Jan2021 at 12:25:58 

     This program is part of the open-source Quantum ESPRESSO suite
     for quantum simulation of materials; please cite
         "P. Giannozzi et al., J. Phys.:Condens. Matter 21 395502 (2009);
         "P. Giannozzi et al., J. Phys.:Condens. Matter 29 465901 (2017);
          URL http://www.quantum-espresso.org", 
     in publications or presentations arising from this work. More details at
     http://www.quantum-espresso.org/quote

     Parallel version (MPI), running on    64 processors

     MPI processes distributed on     2 nodes
     R & G space division:  proc/nbgrp/npool/nimage =      64
     Fft bands division:     nmany     =       1
     Waiting for input...
     Reading input from standard input

     Current dimensions of program PWSCF are:
     Max number of different atomic species (ntypx) = 10
     Max number of k-points (npk) =  40000
     Max angular momentum in pseudopotentials (lmaxx) =  3
     file Cs.pbe-spn-kjpaw_psl.1.0.0.UPF: wavefunction(s)  5S 6S renormalized
     file Sn.pbe-dn-kjpaw_psl.1.0.0.UPF: wavefunction(s)  5S 5P 4D renormalized
     file I.pbe-n-kjpaw_psl.1.0.0.UPF: wavefunction(s)  5S renormalized

     Subspace diagonalization in iterative solution of the eigenvalue problem:
     a serial algorithm will be used

 
     Parallelization info
     --------------------
     sticks:   dense  smooth     PW     G-vecs:    dense   smooth      PW
     Min          69      46     12                 8729     4753     688
     Max          70      48     13                 8742     4763     705
     Sum        4443    2963    825               558911   304449   44685
 

     Title: 
     CsSnI3                                                                     


     bravais-lattice index     =            8
     lattice parameter (alat)  =       9.1317  a.u.
     unit-cell volume          =    6370.5385 (a.u.)^3
     number of atoms/cell      =           20
     number of atomic types    =            3
     number of electrons       =       176.00
     number of Kohn-Sham states=           88
     kinetic-energy cutoff     =      50.0000  Ry
     charge density cutoff     =     300.0000  Ry
     convergence threshold     =      1.0E-06
     mixing beta               =       0.5000
     number of iterations used =            8  plain     mixing
     Exchange-correlation= SLA PW PBX PBC
                           (   1   4   3   4   0   0   0)

     celldm(1)=   9.131705  celldm(2)=   2.227728  celldm(3)=   3.755420
     celldm(4)=   0.000000  celldm(5)=   0.000000  celldm(6)=   0.000000

     crystal axes: (cart. coord. in units of alat)
               a(1) = (   1.000000   0.000000   0.000000 )  
               a(2) = (   0.000000   2.227728   0.000000 )  
               a(3) = (   0.000000   0.000000   3.755420 )  

     reciprocal axes: (cart. coord. in units 2 pi/alat)
               b(1) = (  1.000000  0.000000  0.000000 )  
               b(2) = (  0.000000  0.448888  0.000000 )  
               b(3) = (  0.000000  0.000000  0.266282 )  


     PseudoPot. # 1 for Cs read from file:
     /scratch/gtenti/degironcoli/pseudo/Cs.pbe-spn-kjpaw_psl.1.0.0.UPF
     MD5 check sum: b82c75cc2e1f4ff73b6412cffeb9c584
     Pseudo is Projector augmented-wave + core cor, Zval =  9.0
     Generated using "atomic" code by A. Dal Corso v.6.4.1
     Shape of augmentation charge: PSQ
     Using radial grid of 1251 points,  9 beta functions with: 
                l(1) =   0
                l(2) =   0
                l(3) =   0
                l(4) =   1
                l(5) =   1
                l(6) =   2
                l(7) =   2
                l(8) =   3
                l(9) =   3
     Q(r) pseudized with 0 coefficients 


     PseudoPot. # 2 for Sn read from file:
     /scratch/gtenti/degironcoli/pseudo/Sn.pbe-dn-kjpaw_psl.1.0.0.UPF
     MD5 check sum: 67f11dec737d427557dc41ea34975807
     Pseudo is Projector augmented-wave + core cor, Zval = 14.0
     Generated using "atomic" code by A. Dal Corso v.6.3
     Shape of augmentation charge: PSQ
     Using radial grid of 1243 points,  6 beta functions with: 
                l(1) =   0
                l(2) =   0
                l(3) =   1
                l(4) =   1
                l(5) =   2
                l(6) =   2
     Q(r) pseudized with 0 coefficients 


     PseudoPot. # 3 for I  read from file:
     /scratch/gtenti/degironcoli/pseudo/I.pbe-n-kjpaw_psl.1.0.0.UPF
     MD5 check sum: cd3d296c3308a581e1559a0c8a554cb5
     Pseudo is Projector augmented-wave + core cor, Zval =  7.0
     Generated using "atomic" code by A. Dal Corso v.6.3
     Shape of augmentation charge: PSQ
     Using radial grid of 1247 points,  6 beta functions with: 
                l(1) =   0
                l(2) =   0
                l(3) =   1
                l(4) =   1
                l(5) =   2
                l(6) =   2
     Q(r) pseudized with 0 coefficients 


     atomic species   valence    mass     pseudopotential
        Cs             9.00   132.90000     Cs( 1.00)
        Sn            14.00   118.70000     Sn( 1.00)
        I              7.00   126.90000     I ( 1.00)

      8 Sym. Ops., with inversion, found ( 6 have fractional translation)


                                    s                        frac. trans.

      isym =  1     identity                                     

 cryst.   s( 1) = (     1          0          0      )
                  (     0          1          0      )
                  (     0          0          1      )

 cart.    s( 1) = (  1.0000000  0.0000000  0.0000000 )
                  (  0.0000000  1.0000000  0.0000000 )
                  (  0.0000000  0.0000000  1.0000000 )


      isym =  2     180 deg rotation - cart. axis [0,0,1]        

 cryst.   s( 2) = (    -1          0          0      )    f =(  0.0000000 )
                  (     0         -1          0      )       (  0.5000000 )
                  (     0          0          1      )       (  0.5000000 )

 cart.    s( 2) = ( -1.0000000  0.0000000  0.0000000 )    f =(  0.0000000 )
                  (  0.0000000 -1.0000000  0.0000000 )       (  1.1138638 )
                  (  0.0000000  0.0000000  1.0000000 )       (  1.8777098 )


      isym =  3     180 deg rotation - cart. axis [0,1,0]        

 cryst.   s( 3) = (    -1          0          0      )    f =(  0.5000000 )
                  (     0          1          0      )       ( -0.5000000 )
                  (     0          0         -1      )       ( -0.5000000 )

 cart.    s( 3) = ( -1.0000000  0.0000000  0.0000000 )    f =(  0.5000000 )
                  (  0.0000000  1.0000000  0.0000000 )       ( -1.1138638 )
                  (  0.0000000  0.0000000 -1.0000000 )       ( -1.8777098 )


      isym =  4     180 deg rotation - cart. axis [1,0,0]        

 cryst.   s( 4) = (     1          0          0      )    f =( -0.5000000 )
                  (     0         -1          0      )       (  0.0000000 )
                  (     0          0         -1      )       (  0.0000000 )

 cart.    s( 4) = (  1.0000000  0.0000000  0.0000000 )    f =( -0.5000000 )
                  (  0.0000000 -1.0000000  0.0000000 )       (  0.0000000 )
                  (  0.0000000  0.0000000 -1.0000000 )       (  0.0000000 )


      isym =  5     inversion                                    

 cryst.   s( 5) = (    -1          0          0      )
                  (     0         -1          0      )
                  (     0          0         -1      )

 cart.    s( 5) = ( -1.0000000  0.0000000  0.0000000 )
                  (  0.0000000 -1.0000000  0.0000000 )
                  (  0.0000000  0.0000000 -1.0000000 )


      isym =  6     inv. 180 deg rotation - cart. axis [0,0,1]   

 cryst.   s( 6) = (     1          0          0      )    f =(  0.0000000 )
                  (     0          1          0      )       ( -0.5000000 )
                  (     0          0         -1      )       ( -0.5000000 )

 cart.    s( 6) = (  1.0000000  0.0000000  0.0000000 )    f =(  0.0000000 )
                  (  0.0000000  1.0000000  0.0000000 )       ( -1.1138638 )
                  (  0.0000000  0.0000000 -1.0000000 )       ( -1.8777098 )


      isym =  7     inv. 180 deg rotation - cart. axis [0,1,0]   

 cryst.   s( 7) = (     1          0          0      )    f =( -0.5000000 )
                  (     0         -1          0      )       (  0.5000000 )
                  (     0          0          1      )       (  0.5000000 )

 cart.    s( 7) = (  1.0000000  0.0000000  0.0000000 )    f =( -0.5000000 )
                  (  0.0000000 -1.0000000  0.0000000 )       (  1.1138638 )
                  (  0.0000000  0.0000000  1.0000000 )       (  1.8777098 )


      isym =  8     inv. 180 deg rotation - cart. axis [1,0,0]   

 cryst.   s( 8) = (    -1          0          0      )    f =(  0.5000000 )
                  (     0          1          0      )       (  0.0000000 )
                  (     0          0          1      )       (  0.0000000 )

 cart.    s( 8) = ( -1.0000000  0.0000000  0.0000000 )    f =(  0.5000000 )
                  (  0.0000000  1.0000000  0.0000000 )       (  0.0000000 )
                  (  0.0000000  0.0000000  1.0000000 )       (  0.0000000 )


     point group D_2h (mmm) 
     there are  8 classes
     the character table:

       E     C2    C2'   C2''  i     s_v   s_v'  s_v''
A_g    1.00  1.00  1.00  1.00  1.00  1.00  1.00  1.00
B_1g   1.00  1.00 -1.00 -1.00  1.00  1.00 -1.00 -1.00
B_2g   1.00 -1.00  1.00 -1.00  1.00 -1.00  1.00 -1.00
B_3g   1.00 -1.00 -1.00  1.00  1.00 -1.00 -1.00  1.00
A_u    1.00  1.00  1.00  1.00 -1.00 -1.00 -1.00 -1.00
B_1u   1.00  1.00 -1.00 -1.00 -1.00 -1.00  1.00  1.00
B_2u   1.00 -1.00  1.00 -1.00 -1.00  1.00 -1.00  1.00
B_3u   1.00 -1.00 -1.00  1.00 -1.00  1.00  1.00 -1.00

     the symmetry operations in each class and the name of the first element:

     E        1
          identity                                               
     C2       2
          180 deg rotation - cart. axis [0,0,1]                  
     C2'      4
          180 deg rotation - cart. axis [1,0,0]                  
     C2''     3
          180 deg rotation - cart. axis [0,1,0]                  
     i        5
          inversion                                              
     s_v      6
          inv. 180 deg rotation - cart. axis [0,0,1]             
     s_v'     8
          inv. 180 deg rotation - cart. axis [1,0,0]             
     s_v''    7
          inv. 180 deg rotation - cart. axis [0,1,0]             

   Cartesian axes

     site n.     atom                  positions (alat units)
         1           Cs  tau(   1) = (   0.2500000   0.1859640   2.5168147  )
         2           Cs  tau(   2) = (   0.7500000   2.0417636   1.2386050  )
         3           Cs  tau(   3) = (   0.2500000   1.2998278   3.1163149  )
         4           Cs  tau(   4) = (   0.7500000   0.9278998   0.6391048  )
         5           Sn  tau(   5) = (   0.2500000   0.7615710   1.6485466  )
         6           Sn  tau(   6) = (   0.7500000   1.4661567   2.1068731  )
         7           Sn  tau(   7) = (   0.2500000   1.8754348   0.2291632  )
         8           Sn  tau(   8) = (   0.7500000   0.3522928   3.5262565  )
         9           I   tau(   9) = (   0.7500000   0.0581437   0.4202578  )
        10           I   tau(  10) = (   0.2500000   2.1695839   3.3351619  )
        11           I   tau(  11) = (   0.7500000   1.1720075   1.4574521  )
        12           I   tau(  12) = (   0.2500000   1.0557201   2.2979676  )
        13           I   tau(  13) = (   0.7500000   0.6531118   2.9738192  )
        14           I   tau(  14) = (   0.2500000   1.5746158   0.7816005  )
        15           I   tau(  15) = (   0.7500000   1.7669756   2.6593103  )
        16           I   tau(  16) = (   0.2500000   0.4607520   1.0961094  )
        17           I   tau(  17) = (   0.7500000   0.3753632   1.8734812  )
        18           I   tau(  18) = (   0.2500000   1.8523644   1.8819384  )
        19           I   tau(  19) = (   0.7500000   1.4892270   0.0042286  )
        20           I   tau(  20) = (   0.2500000   0.7385006   3.7511911  )

   Crystallographic axes

     site n.     atom                  positions (cryst. coord.)
         1           Cs  tau(   1) = (  0.2500000  0.0834770  0.6701820  )
         2           Cs  tau(   2) = (  0.7500000  0.9165230  0.3298180  )
         3           Cs  tau(   3) = (  0.2500000  0.5834770  0.8298180  )
         4           Cs  tau(   4) = (  0.7500000  0.4165230  0.1701820  )
         5           Sn  tau(   5) = (  0.2500000  0.3418600  0.4389780  )
         6           Sn  tau(   6) = (  0.7500000  0.6581400  0.5610220  )
         7           Sn  tau(   7) = (  0.2500000  0.8418600  0.0610220  )
         8           Sn  tau(   8) = (  0.7500000  0.1581400  0.9389780  )
         9           I   tau(   9) = (  0.7500000  0.0261000  0.1119070  )
        10           I   tau(  10) = (  0.2500000  0.9739000  0.8880930  )
        11           I   tau(  11) = (  0.7500000  0.5261000  0.3880930  )
        12           I   tau(  12) = (  0.2500000  0.4739000  0.6119070  )
        13           I   tau(  13) = (  0.7500000  0.2931740  0.7918740  )
        14           I   tau(  14) = (  0.2500000  0.7068260  0.2081260  )
        15           I   tau(  15) = (  0.7500000  0.7931740  0.7081260  )
        16           I   tau(  16) = (  0.2500000  0.2068260  0.2918740  )
        17           I   tau(  17) = (  0.7500000  0.1684960  0.4988740  )
        18           I   tau(  18) = (  0.2500000  0.8315040  0.5011260  )
        19           I   tau(  19) = (  0.7500000  0.6684960  0.0011260  )
        20           I   tau(  20) = (  0.2500000  0.3315040  0.9988740  )

     number of k points=     8
                       cart. coord. in units 2pi/alat
        k(    1) = (   0.0000000   0.0000000   0.0000000), wk =   0.2500000
        k(    2) = (   0.0000000   0.0000000  -0.1331409), wk =   0.2500000
        k(    3) = (   0.0000000  -0.2244440   0.0000000), wk =   0.2500000
        k(    4) = (   0.0000000  -0.2244440  -0.1331409), wk =   0.2500000
        k(    5) = (  -0.5000000   0.0000000   0.0000000), wk =   0.2500000
        k(    6) = (  -0.5000000   0.0000000  -0.1331409), wk =   0.2500000
        k(    7) = (  -0.5000000  -0.2244440   0.0000000), wk =   0.2500000
        k(    8) = (  -0.5000000  -0.2244440  -0.1331409), wk =   0.2500000

                       cryst. coord.
        k(    1) = (   0.0000000   0.0000000   0.0000000), wk =   0.2500000
        k(    2) = (   0.0000000   0.0000000  -0.5000000), wk =   0.2500000
        k(    3) = (   0.0000000  -0.5000000   0.0000000), wk =   0.2500000
        k(    4) = (   0.0000000  -0.5000000  -0.5000000), wk =   0.2500000
        k(    5) = (  -0.5000000   0.0000000   0.0000000), wk =   0.2500000
        k(    6) = (  -0.5000000   0.0000000  -0.5000000), wk =   0.2500000
        k(    7) = (  -0.5000000  -0.5000000   0.0000000), wk =   0.2500000
        k(    8) = (  -0.5000000  -0.5000000  -0.5000000), wk =   0.2500000

     Dense  grid:   558911 G-vectors     FFT dimensions: (  54, 120, 192)

     Smooth grid:   304449 G-vectors     FFT dimensions: (  48,  96, 160)

     Dynamical RAM for                 wfc:       0.80 MB

     Dynamical RAM for     wfc (w. buffer):       7.18 MB

     Dynamical RAM for           str. fact:       0.40 MB

     Dynamical RAM for           local pot:       0.00 MB

     Dynamical RAM for          nlocal pot:       3.81 MB

     Dynamical RAM for                qrad:      12.52 MB

     Dynamical RAM for          rho,v,vnew:       0.84 MB

     Dynamical RAM for               rhoin:       0.28 MB

     Dynamical RAM for            rho*nmix:       2.13 MB

     Dynamical RAM for           G-vectors:       0.54 MB

     Dynamical RAM for          h,s,v(r/c):       1.42 MB

     Dynamical RAM for          <psi|beta>:       0.56 MB

     Dynamical RAM for                 psi:       1.60 MB

     Dynamical RAM for                hpsi:       1.60 MB

     Dynamical RAM for                spsi:       1.60 MB

     Dynamical RAM for      wfcinit/wfcrot:       2.13 MB

     Dynamical RAM for           addusdens:      79.93 MB

     Dynamical RAM for          addusforce:      83.09 MB

     Dynamical RAM for         addusstress:      81.93 MB

     Estimated static dynamical RAM per process >      28.97 MB

     Estimated max dynamical RAM per process >     112.06 MB

     Estimated total dynamical RAM >       7.00 GB

     Initial potential from superposition of free atoms

     starting charge  175.83511, renormalised to  176.00000
     Starting wfcs are  104 randomized atomic wfcs
     Checking if some PAW data can be deallocated... 
       PAW data deallocated on   48 nodes for type:  1
       PAW data deallocated on   52 nodes for type:  2
       PAW data deallocated on   28 nodes for type:  3

     total cpu time spent up to now is       10.9 secs

     Self-consistent Calculation

     iteration #  1     ecut=    50.00 Ry     beta= 0.50
     Davidson diagonalization with overlap
     ethr =  1.00E-02,  avg # of iterations =  1.0

     Threshold (ethr) on eigenvalues was too large:
     Diagonalizing with lowered threshold

     Davidson diagonalization with overlap
     ethr =  3.20E-04,  avg # of iterations =  4.0

     total cpu time spent up to now is       24.2 secs

     total energy              =   -7979.45526070 Ry
     estimated scf accuracy    <       0.45113755 Ry

     iteration #  2     ecut=    50.00 Ry     beta= 0.50
     Davidson diagonalization with overlap
     ethr =  2.56E-04,  avg # of iterations =  4.1

     total cpu time spent up to now is       32.0 secs

     total energy              =   -7979.58826304 Ry
     estimated scf accuracy    <       0.11760767 Ry

     iteration #  3     ecut=    50.00 Ry     beta= 0.50
     Davidson diagonalization with overlap
     ethr =  6.68E-05,  avg # of iterations =  2.5

     total cpu time spent up to now is       39.0 secs

     total energy              =   -7979.60729056 Ry
     estimated scf accuracy    <       0.01074383 Ry

     iteration #  4     ecut=    50.00 Ry     beta= 0.50
     Davidson diagonalization with overlap
     ethr =  6.10E-06,  avg # of iterations =  7.1

     total cpu time spent up to now is       49.2 secs

     total energy              =   -7979.61456739 Ry
     estimated scf accuracy    <       0.01037622 Ry

     iteration #  5     ecut=    50.00 Ry     beta= 0.50
     Davidson diagonalization with overlap
     ethr =  5.90E-06,  avg # of iterations =  5.1

     total cpu time spent up to now is       57.0 secs

     total energy              =   -7979.61728510 Ry
     estimated scf accuracy    <       0.00064542 Ry

     iteration #  6     ecut=    50.00 Ry     beta= 0.50
     Davidson diagonalization with overlap
     ethr =  3.67E-07,  avg # of iterations =  6.9

     total cpu time spent up to now is       66.4 secs

     total energy              =   -7979.61734917 Ry
     estimated scf accuracy    <       0.00107528 Ry

     iteration #  7     ecut=    50.00 Ry     beta= 0.50
     Davidson diagonalization with overlap
     ethr =  3.67E-07,  avg # of iterations =  4.9

     total cpu time spent up to now is       74.1 secs

     total energy              =   -7979.61750934 Ry
     estimated scf accuracy    <       0.00006647 Ry

     iteration #  8     ecut=    50.00 Ry     beta= 0.50
     Davidson diagonalization with overlap
     ethr =  3.78E-08,  avg # of iterations =  7.6

     total cpu time spent up to now is       84.2 secs

     total energy              =   -7979.61752751 Ry
     estimated scf accuracy    <       0.00017379 Ry

     iteration #  9     ecut=    50.00 Ry     beta= 0.50
     Davidson diagonalization with overlap
     ethr =  3.78E-08,  avg # of iterations =  6.1

     total cpu time spent up to now is       92.5 secs

     total energy              =   -7979.61754487 Ry
     estimated scf accuracy    <       0.00001029 Ry

     iteration # 10     ecut=    50.00 Ry     beta= 0.50
     Davidson diagonalization with overlap
     ethr =  5.85E-09,  avg # of iterations =  5.9

     total cpu time spent up to now is      101.4 secs

     total energy              =   -7979.61754966 Ry
     estimated scf accuracy    <       0.00000185 Ry

     iteration # 11     ecut=    50.00 Ry     beta= 0.50
     Davidson diagonalization with overlap
     ethr =  1.05E-09,  avg # of iterations =  2.6

     total cpu time spent up to now is      108.2 secs

     End of self-consistent calculation

          k = 0.0000 0.0000 0.0000 ( 37989 PWs)   bands (ev):

   -17.8799 -17.8798 -17.8796 -17.8796 -17.8719 -17.8719 -17.8715 -17.8715
   -17.8687 -17.8687 -17.8680 -17.8680 -17.8569 -17.8569 -17.8555 -17.8554
   -17.8494 -17.8494 -17.8480 -17.8480 -17.7870 -17.7868 -17.7861 -17.7859
    -8.8007  -8.7763  -8.5942  -8.5323  -8.4449  -8.4349  -8.4149  -8.4045
    -8.2775  -8.2542  -8.2363  -8.1936  -4.6159  -4.6149  -4.6124  -4.6058
    -4.5971  -4.5703  -4.5536  -4.5519  -4.5454  -4.5438  -4.5421  -4.5392
    -2.8875  -2.8626  -2.8245  -2.7438   0.1242   0.3257   0.7544   0.8907
     0.9053   0.9870   1.1131   1.1243   1.2144   1.2806   1.3253   1.3336
     1.3347   1.5560   1.6347   1.7321   1.7810   1.7978   1.8147   1.8207
     1.8254   1.8396   1.9806   2.0649   2.0707   2.1752   2.2080   2.2233
     2.2358   2.2384   2.3137   2.3184   2.3834   2.4788   2.6265   2.9253

     occupation numbers 
     1.0000   1.0000   1.0000   1.0000   1.0000   1.0000   1.0000   1.0000
     1.0000   1.0000   1.0000   1.0000   1.0000   1.0000   1.0000   1.0000
     1.0000   1.0000   1.0000   1.0000   1.0000   1.0000   1.0000   1.0000
     1.0000   1.0000   1.0000   1.0000   1.0000   1.0000   1.0000   1.0000
     1.0000   1.0000   1.0000   1.0000   1.0000   1.0000   1.0000   1.0000
     1.0000   1.0000   1.0000   1.0000   1.0000   1.0000   1.0000   1.0000
     1.0000   1.0000   1.0000   1.0000   1.0000   1.0000   1.0000   1.0000
     1.0000   1.0000   1.0000   1.0000   1.0000   1.0000   1.0000   1.0000
     1.0000   1.0000   1.0000   1.0000   1.0000   1.0000   1.0000   1.0000
     1.0000   1.0000   1.0000   1.0000   1.0000   1.0000   1.0000   1.0000
     1.0000   1.0000   1.0000   1.0000   1.0000   1.0000   1.0000   1.0000

          k = 0.0000 0.0000-0.1331 ( 38058 PWs)   bands (ev):

   -17.8799 -17.8799 -17.8796 -17.8796 -17.8719 -17.8719 -17.8715 -17.8715
   -17.8687 -17.8687 -17.8680 -17.8680 -17.8569 -17.8569 -17.8555 -17.8555
   -17.8494 -17.8494 -17.8480 -17.8480 -17.7869 -17.7869 -17.7860 -17.7860
    -8.7898  -8.7898  -8.5637  -8.5637  -8.4399  -8.4399  -8.4082  -8.4082
    -8.2707  -8.2707  -8.2098  -8.2098  -4.6212  -4.6212  -4.6045  -4.6045
    -4.5833  -4.5833  -4.5529  -4.5529  -4.5446  -4.5446  -4.5398  -4.5398
    -2.8800  -2.8800  -2.7794  -2.7794   0.2139   0.2139   0.8437   0.8437
     0.8976   0.8976   1.1439   1.1439   1.2848   1.2848   1.3069   1.3069
     1.5232   1.5232   1.5826   1.5826   1.7969   1.7969   1.8210   1.8210
     1.8299   1.8299   1.9862   1.9862   2.1213   2.1213   2.2184   2.2184
     2.2267   2.2267   2.3556   2.3556   2.4588   2.4588   2.7656   2.7656

     occupation numbers 
     1.0000   1.0000   1.0000   1.0000   1.0000   1.0000   1.0000   1.0000
     1.0000   1.0000   1.0000   1.0000   1.0000   1.0000   1.0000   1.0000
     1.0000   1.0000   1.0000   1.0000   1.0000   1.0000   1.0000   1.0000
     1.0000   1.0000   1.0000   1.0000   1.0000   1.0000   1.0000   1.0000
     1.0000   1.0000   1.0000   1.0000   1.0000   1.0000   1.0000   1.0000
     1.0000   1.0000   1.0000   1.0000   1.0000   1.0000   1.0000   1.0000
     1.0000   1.0000   1.0000   1.0000   1.0000   1.0000   1.0000   1.0000
     1.0000   1.0000   1.0000   1.0000   1.0000   1.0000   1.0000   1.0000
     1.0000   1.0000   1.0000   1.0000   1.0000   1.0000   1.0000   1.0000
     1.0000   1.0000   1.0000   1.0000   1.0000   1.0000   1.0000   1.0000
     1.0000   1.0000   1.0000   1.0000   1.0000   1.0000   1.0000   1.0000

          k = 0.0000-0.2244 0.0000 ( 38074 PWs)   bands (ev):

   -17.8799 -17.8799 -17.8796 -17.8796 -17.8719 -17.8719 -17.8716 -17.8716
   -17.8687 -17.8687 -17.8680 -17.8680 -17.8569 -17.8569 -17.8555 -17.8555
   -17.8494 -17.8494 -17.8480 -17.8480 -17.7866 -17.7866 -17.7863 -17.7863
    -8.7669  -8.7669  -8.6068  -8.6068  -8.4860  -8.4860  -8.3434  -8.3434
    -8.2531  -8.2531  -8.2234  -8.2234  -4.6230  -4.6230  -4.6024  -4.6024
    -4.5761  -4.5761  -4.5585  -4.5585  -4.5495  -4.5495  -4.5479  -4.5479
    -2.8974  -2.8974  -2.7511  -2.7511   0.2534   0.2534   0.8181   0.8181
     0.9506   0.9506   1.1874   1.1874   1.2016   1.2016   1.3159   1.3159
     1.4157   1.4157   1.5582   1.5582   1.7457   1.7457   1.7831   1.7831
     1.9700   1.9700   2.0120   2.0120   2.0708   2.0708   2.2356   2.2356
     2.2636   2.2636   2.3130   2.3130   2.3961   2.3961   2.9394   2.9394

     occupation numbers 
     1.0000   1.0000   1.0000   1.0000   1.0000   1.0000   1.0000   1.0000
     1.0000   1.0000   1.0000   1.0000   1.0000   1.0000   1.0000   1.0000
     1.0000   1.0000   1.0000   1.0000   1.0000   1.0000   1.0000   1.0000
     1.0000   1.0000   1.0000   1.0000   1.0000   1.0000   1.0000   1.0000
     1.0000   1.0000   1.0000   1.0000   1.0000   1.0000   1.0000   1.0000
     1.0000   1.0000   1.0000   1.0000   1.0000   1.0000   1.0000   1.0000
     1.0000   1.0000   1.0000   1.0000   1.0000   1.0000   1.0000   1.0000
     1.0000   1.0000   1.0000   1.0000   1.0000   1.0000   1.0000   1.0000
     1.0000   1.0000   1.0000   1.0000   1.0000   1.0000   1.0000   1.0000
     1.0000   1.0000   1.0000   1.0000   1.0000   1.0000   1.0000   1.0000
     1.0000   1.0000   1.0000   1.0000   1.0000   1.0000   1.0000   1.0000

          k = 0.0000-0.2244-0.1331 ( 38084 PWs)   bands (ev):

   -17.8799 -17.8799 -17.8796 -17.8796 -17.8719 -17.8719 -17.8716 -17.8716
   -17.8687 -17.8687 -17.8680 -17.8680 -17.8569 -17.8569 -17.8555 -17.8555
   -17.8494 -17.8494 -17.8480 -17.8480 -17.7866 -17.7866 -17.7863 -17.7863
    -8.7669  -8.7669  -8.6070  -8.6070  -8.4839  -8.4839  -8.3491  -8.3491
    -8.2381  -8.2381  -8.2345  -8.2345  -4.6199  -4.6199  -4.6094  -4.6094
    -4.5713  -4.5713  -4.5593  -4.5593  -4.5495  -4.5495  -4.5479  -4.5479
    -2.8961  -2.8961  -2.7526  -2.7526   0.2590   0.2590   0.8080   0.8080
     0.9505   0.9505   1.2017   1.2017   1.2125   1.2125   1.3155   1.3155
     1.3587   1.3587   1.5679   1.5679   1.7470   1.7470   1.8255   1.8255
     1.9658   1.9658   1.9981   1.9981   2.0844   2.0844   2.2214   2.2214
     2.2878   2.2878   2.2916   2.2916   2.4102   2.4102   2.9227   2.9227

     occupation numbers 
     1.0000   1.0000   1.0000   1.0000   1.0000   1.0000   1.0000   1.0000
     1.0000   1.0000   1.0000   1.0000   1.0000   1.0000   1.0000   1.0000
     1.0000   1.0000   1.0000   1.0000   1.0000   1.0000   1.0000   1.0000
     1.0000   1.0000   1.0000   1.0000   1.0000   1.0000   1.0000   1.0000
     1.0000   1.0000   1.0000   1.0000   1.0000   1.0000   1.0000   1.0000
     1.0000   1.0000   1.0000   1.0000   1.0000   1.0000   1.0000   1.0000
     1.0000   1.0000   1.0000   1.0000   1.0000   1.0000   1.0000   1.0000
     1.0000   1.0000   1.0000   1.0000   1.0000   1.0000   1.0000   1.0000
     1.0000   1.0000   1.0000   1.0000   1.0000   1.0000   1.0000   1.0000
     1.0000   1.0000   1.0000   1.0000   1.0000   1.0000   1.0000   1.0000
     1.0000   1.0000   1.0000   1.0000   1.0000   1.0000   1.0000   1.0000

          k =-0.5000 0.0000 0.0000 ( 38048 PWs)   bands (ev):

   -17.8790 -17.8790 -17.8790 -17.8790 -17.8750 -17.8750 -17.8750 -17.8750
   -17.8683 -17.8683 -17.8683 -17.8683 -17.8528 -17.8528 -17.8528 -17.8528
   -17.8493 -17.8493 -17.8493 -17.8493 -17.7754 -17.7754 -17.7748 -17.7748
    -8.4822  -8.4822  -8.4799  -8.4799  -8.3061  -8.3061  -8.2968  -8.2968
    -8.2851  -8.2851  -8.2654  -8.2654  -4.7914  -4.7914  -4.7237  -4.7237
    -4.6083  -4.6083  -4.5991  -4.5991  -4.5849  -4.5849  -4.5562  -4.5562
    -3.2037  -3.2037  -3.1669  -3.1669   0.0782   0.0782   0.0796   0.0796
     0.5668   0.5668   0.6248   0.6248   0.8925   0.8925   0.9120   0.9120
     1.2456   1.2456   1.6371   1.6371   1.6783   1.6783   1.7851   1.7851
     1.7961   1.7961   1.8567   1.8567   1.9086   1.9086   1.9342   1.9342
     2.0648   2.0648   2.1026   2.1026   2.5340   2.5340   2.9140   2.9140

     occupation numbers 
     1.0000   1.0000   1.0000   1.0000   1.0000   1.0000   1.0000   1.0000
     1.0000   1.0000   1.0000   1.0000   1.0000   1.0000   1.0000   1.0000
     1.0000   1.0000   1.0000   1.0000   1.0000   1.0000   1.0000   1.0000
     1.0000   1.0000   1.0000   1.0000   1.0000   1.0000   1.0000   1.0000
     1.0000   1.0000   1.0000   1.0000   1.0000   1.0000   1.0000   1.0000
     1.0000   1.0000   1.0000   1.0000   1.0000   1.0000   1.0000   1.0000
     1.0000   1.0000   1.0000   1.0000   1.0000   1.0000   1.0000   1.0000
     1.0000   1.0000   1.0000   1.0000   1.0000   1.0000   1.0000   1.0000
     1.0000   1.0000   1.0000   1.0000   1.0000   1.0000   1.0000   1.0000
     1.0000   1.0000   1.0000   1.0000   1.0000   1.0000   1.0000   1.0000
     1.0000   1.0000   1.0000   1.0000   1.0000   1.0000   1.0000   1.0000

          k =-0.5000 0.0000-0.1331 ( 38044 PWs)   bands (ev):

   -17.8790 -17.8790 -17.8790 -17.8790 -17.8750 -17.8750 -17.8750 -17.8750
   -17.8683 -17.8683 -17.8683 -17.8683 -17.8528 -17.8528 -17.8527 -17.8527
   -17.8493 -17.8493 -17.8493 -17.8493 -17.7754 -17.7754 -17.7748 -17.7748
    -8.4828  -8.4828  -8.4793  -8.4793  -8.3055  -8.3055  -8.2977  -8.2977
    -8.2848  -8.2848  -8.2654  -8.2654  -4.7913  -4.7913  -4.7238  -4.7238
    -4.6085  -4.6085  -4.5991  -4.5991  -4.5846  -4.5846  -4.5564  -4.5564
    -3.1972  -3.1972  -3.1735  -3.1735   0.0654   0.0654   0.0979   0.0979
     0.5848   0.5848   0.6324   0.6324   0.8408   0.8408   0.8791   0.8791
     1.3341   1.3341   1.6058   1.6058   1.6891   1.6891   1.8009   1.8009
     1.8035   1.8035   1.8296   1.8296   1.8376   1.8376   1.9645   1.9645
     2.0590   2.0590   2.1330   2.1330   2.5934   2.5934   2.8552   2.8552

     occupation numbers 
     1.0000   1.0000   1.0000   1.0000   1.0000   1.0000   1.0000   1.0000
     1.0000   1.0000   1.0000   1.0000   1.0000   1.0000   1.0000   1.0000
     1.0000   1.0000   1.0000   1.0000   1.0000   1.0000   1.0000   1.0000
     1.0000   1.0000   1.0000   1.0000   1.0000   1.0000   1.0000   1.0000
     1.0000   1.0000   1.0000   1.0000   1.0000   1.0000   1.0000   1.0000
     1.0000   1.0000   1.0000   1.0000   1.0000   1.0000   1.0000   1.0000
     1.0000   1.0000   1.0000   1.0000   1.0000   1.0000   1.0000   1.0000
     1.0000   1.0000   1.0000   1.0000   1.0000   1.0000   1.0000   1.0000
     1.0000   1.0000   1.0000   1.0000   1.0000   1.0000   1.0000   1.0000
     1.0000   1.0000   1.0000   1.0000   1.0000   1.0000   1.0000   1.0000
     1.0000   1.0000   1.0000   1.0000   1.0000   1.0000   1.0000   1.0000

          k =-0.5000-0.2244 0.0000 ( 38096 PWs)   bands (ev):

   -17.8791 -17.8791 -17.8791 -17.8791 -17.8750 -17.8750 -17.8750 -17.8750
   -17.8683 -17.8683 -17.8683 -17.8683 -17.8528 -17.8528 -17.8528 -17.8528
   -17.8493 -17.8493 -17.8493 -17.8493 -17.7751 -17.7751 -17.7751 -17.7751
    -8.4811  -8.4811  -8.4811  -8.4811  -8.3025  -8.3025  -8.3025  -8.3025
    -8.2743  -8.2743  -8.2743  -8.2743  -4.7577  -4.7577  -4.7577  -4.7577
    -4.6016  -4.6016  -4.6016  -4.6016  -4.5725  -4.5725  -4.5725  -4.5725
    -3.1860  -3.1860  -3.1860  -3.1860   0.2240   0.2240   0.2240   0.2240
     0.4394   0.4394   0.4394   0.4394   0.8445   0.8445   0.8445   0.8445
     1.4593   1.4593   1.4593   1.4593   1.6407   1.6407   1.6407   1.6407
     1.8009   1.8009   1.8009   1.8009   1.9273   1.9273   1.9273   1.9273
     2.1553   2.1553   2.1553   2.1553   2.8763   2.8763   2.8763   2.8763

     occupation numbers 
     1.0000   1.0000   1.0000   1.0000   1.0000   1.0000   1.0000   1.0000
     1.0000   1.0000   1.0000   1.0000   1.0000   1.0000   1.0000   1.0000
     1.0000   1.0000   1.0000   1.0000   1.0000   1.0000   1.0000   1.0000
     1.0000   1.0000   1.0000   1.0000   1.0000   1.0000   1.0000   1.0000
     1.0000   1.0000   1.0000   1.0000   1.0000   1.0000   1.0000   1.0000
     1.0000   1.0000   1.0000   1.0000   1.0000   1.0000   1.0000   1.0000
     1.0000   1.0000   1.0000   1.0000   1.0000   1.0000   1.0000   1.0000
     1.0000   1.0000   1.0000   1.0000   1.0000   1.0000   1.0000   1.0000
     1.0000   1.0000   1.0000   1.0000   1.0000   1.0000   1.0000   1.0000
     1.0000   1.0000   1.0000   1.0000   1.0000   1.0000   1.0000   1.0000
     1.0000   1.0000   1.0000   1.0000   1.0000   1.0000   1.0000   1.0000

          k =-0.5000-0.2244-0.1331 ( 38056 PWs)   bands (ev):

   -17.8790 -17.8790 -17.8790 -17.8790 -17.8750 -17.8750 -17.8750 -17.8750
   -17.8683 -17.8683 -17.8683 -17.8683 -17.8528 -17.8528 -17.8528 -17.8528
   -17.8493 -17.8493 -17.8493 -17.8493 -17.7751 -17.7751 -17.7751 -17.7751
    -8.4811  -8.4811  -8.4811  -8.4811  -8.3024  -8.3024  -8.3024  -8.3024
    -8.2743  -8.2743  -8.2743  -8.2743  -4.7577  -4.7577  -4.7577  -4.7577
    -4.6016  -4.6016  -4.6016  -4.6016  -4.5726  -4.5726  -4.5726  -4.5726
    -3.1859  -3.1859  -3.1859  -3.1859   0.2176   0.2176   0.2176   0.2176
     0.4426   0.4426   0.4426   0.4426   0.8701   0.8701   0.8701   0.8701
     1.3745   1.3745   1.3745   1.3745   1.7122   1.7122   1.7122   1.7122
     1.8032   1.8032   1.8032   1.8032   1.9478   1.9478   1.9478   1.9478
     2.1164   2.1164   2.1164   2.1164   2.8853   2.8853   2.8853   2.8853

     occupation numbers 
     1.0000   1.0000   1.0000   1.0000   1.0000   1.0000   1.0000   1.0000
     1.0000   1.0000   1.0000   1.0000   1.0000   1.0000   1.0000   1.0000
     1.0000   1.0000   1.0000   1.0000   1.0000   1.0000   1.0000   1.0000
     1.0000   1.0000   1.0000   1.0000   1.0000   1.0000   1.0000   1.0000
     1.0000   1.0000   1.0000   1.0000   1.0000   1.0000   1.0000   1.0000
     1.0000   1.0000   1.0000   1.0000   1.0000   1.0000   1.0000   1.0000
     1.0000   1.0000   1.0000   1.0000   1.0000   1.0000   1.0000   1.0000
     1.0000   1.0000   1.0000   1.0000   1.0000   1.0000   1.0000   1.0000
     1.0000   1.0000   1.0000   1.0000   1.0000   1.0000   1.0000   1.0000
     1.0000   1.0000   1.0000   1.0000   1.0000   1.0000   1.0000   1.0000
     1.0000   1.0000   1.0000   1.0000   1.0000   1.0000   1.0000   1.0000

     highest occupied level (ev):     2.9394

!    total energy              =   -7979.61754923 Ry

     total all-electron energy =   -282510.772262 Ry
     estimated scf accuracy    <       0.00000073 Ry

     The total energy is the sum of the following terms:
     one-electron contribution =    -463.62119808 Ry
     hartree contribution      =     316.59305002 Ry
     xc contribution           =    -465.89845633 Ry
     ewald contribution        =    -633.56960439 Ry
     one-center paw contrib.   =   -6733.12134045 Ry
      -> PAW hartree energy AE =      25.63710513 Ry
      -> PAW hartree energy PS =     -25.52756940 Ry
      -> PAW xc energy AE      =    -383.53055540 Ry
      -> PAW xc energy PS      =      20.51528881 Ry
      -> total E_H with PAW    =     316.70258575 Ry
      -> total E_XC with PAW   =    -828.91372292 Ry

     convergence has been achieved in  11 iterations

     Forces acting on atoms (cartesian axes, Ry/au):

     atom    1 type  1   force =     0.00000000   -0.00059740    0.00068253
     atom    2 type  1   force =     0.00000000    0.00059740   -0.00068253
     atom    3 type  1   force =     0.00000000   -0.00059740   -0.00068253
     atom    4 type  1   force =     0.00000000    0.00059740    0.00068253
     atom    5 type  2   force =     0.00000000   -0.00068795   -0.00027291
     atom    6 type  2   force =     0.00000000    0.00068795    0.00027291
     atom    7 type  2   force =     0.00000000   -0.00068795    0.00027291
     atom    8 type  2   force =    -0.00000000    0.00068795   -0.00027291
     atom    9 type  3   force =     0.00000000   -0.00345683   -0.00187062
     atom   10 type  3   force =    -0.00000000    0.00345683    0.00187062
     atom   11 type  3   force =     0.00000000   -0.00345683    0.00187062
     atom   12 type  3   force =     0.00000000    0.00345683   -0.00187062
     atom   13 type  3   force =     0.00000000   -0.00062124    0.00040632
     atom   14 type  3   force =    -0.00000000    0.00062124   -0.00040632
     atom   15 type  3   force =     0.00000000   -0.00062124   -0.00040632
     atom   16 type  3   force =    -0.00000000    0.00062124    0.00040632
     atom   17 type  3   force =     0.00000000    0.00326616   -0.00177757
     atom   18 type  3   force =     0.00000000   -0.00326616    0.00177757
     atom   19 type  3   force =     0.00000000    0.00326616    0.00177757
     atom   20 type  3   force =     0.00000000   -0.00326616   -0.00177757
     The non-local contrib.  to forces
     atom    1 type  1   force =     0.00000000    0.00198738   -0.00098144
     atom    2 type  1   force =    -0.00000000   -0.00198738    0.00098144
     atom    3 type  1   force =     0.00000000    0.00198738    0.00098144
     atom    4 type  1   force =     0.00000000   -0.00198738   -0.00098144
     atom    5 type  2   force =     0.00000000   -0.08839369   -0.13103955
     atom    6 type  2   force =     0.00000000    0.08839369    0.13103955
     atom    7 type  2   force =     0.00000000   -0.08839369    0.13103955
     atom    8 type  2   force =    -0.00000000    0.08839369   -0.13103955
     atom    9 type  3   force =     0.00000000   -0.04813841   -0.04708275
     atom   10 type  3   force =     0.00000000    0.04813841    0.04708275
     atom   11 type  3   force =     0.00000000   -0.04813841    0.04708275
     atom   12 type  3   force =     0.00000000    0.04813841   -0.04708275
     atom   13 type  3   force =     0.00000000   -0.03305288    0.05613308
     atom   14 type  3   force =     0.00000000    0.03305288   -0.05613308
     atom   15 type  3   force =     0.00000000   -0.03305288   -0.05613308
     atom   16 type  3   force =    -0.00000000    0.03305288    0.05613308
     atom   17 type  3   force =     0.00000000    0.05607843   -0.01695191
     atom   18 type  3   force =     0.00000000   -0.05607843    0.01695191
     atom   19 type  3   force =    -0.00000000    0.05607843    0.01695191
     atom   20 type  3   force =     0.00000000   -0.05607843   -0.01695191
     The ionic contribution  to forces
     atom    1 type  1   force =    -0.00000000    0.02273773    0.42856976
     atom    2 type  1   force =    -0.00000000   -0.02273773   -0.42856976
     atom    3 type  1   force =    -0.00000000    0.02273773   -0.42856976
     atom    4 type  1   force =    -0.00000000   -0.02273773    0.42856976
     atom    5 type  2   force =    -0.00000000   -2.44382135   -1.60292983
     atom    6 type  2   force =     0.00000000    2.44382135    1.60292983
     atom    7 type  2   force =    -0.00000000   -2.44382135    1.60292983
     atom    8 type  2   force =     0.00000000    2.44382135   -1.60292983
     atom    9 type  3   force =    -0.00000000    3.00608891    5.13288893
     atom   10 type  3   force =     0.00000000   -3.00608891   -5.13288893
     atom   11 type  3   force =    -0.00000000    3.00608891   -5.13288893
     atom   12 type  3   force =    -0.00000000   -3.00608891    5.13288893
     atom   13 type  3   force =     0.00000000    2.02422849   -3.75281499
     atom   14 type  3   force =    -0.00000000   -2.02422849    3.75281499
     atom   15 type  3   force =     0.00000000    2.02422849    3.75281499
     atom   16 type  3   force =    -0.00000000   -2.02422849   -3.75281499
     atom   17 type  3   force =     0.00000000   -4.20564473    2.10270404
     atom   18 type  3   force =    -0.00000000    4.20564473   -2.10270404
     atom   19 type  3   force =     0.00000000   -4.20564473   -2.10270404
     atom   20 type  3   force =    -0.00000000    4.20564473    2.10270404
     The local contribution  to forces
     atom    1 type  1   force =    -0.00000000   -0.02512147   -0.42689860
     atom    2 type  1   force =    -0.00000000    0.02512147    0.42689860
     atom    3 type  1   force =    -0.00000000   -0.02512147    0.42689860
     atom    4 type  1   force =     0.00000000    0.02512147   -0.42689860
     atom    5 type  2   force =    -0.00000000    2.53227596    1.73408725
     atom    6 type  2   force =    -0.00000000   -2.53227596   -1.73408725
     atom    7 type  2   force =    -0.00000000    2.53227596   -1.73408725
     atom    8 type  2   force =    -0.00000000   -2.53227596    1.73408725
     atom    9 type  3   force =    -0.00000000   -2.96805907   -5.09472328
     atom   10 type  3   force =     0.00000000    2.96805907    5.09472328
     atom   11 type  3   force =     0.00000000   -2.96805907    5.09472328
     atom   12 type  3   force =     0.00000000    2.96805907   -5.09472328
     atom   13 type  3   force =     0.00000000   -1.99635815    3.70484526
     atom   14 type  3   force =    -0.00000000    1.99635815   -3.70484526
     atom   15 type  3   force =     0.00000000   -1.99635815   -3.70484526
     atom   16 type  3   force =    -0.00000000    1.99635815    3.70484526
     atom   17 type  3   force =    -0.00000000    4.16106920   -2.09021720
     atom   18 type  3   force =     0.00000000   -4.16106920    2.09021720
     atom   19 type  3   force =    -0.00000000    4.16106920    2.09021720
     atom   20 type  3   force =     0.00000000   -4.16106920   -2.09021720
     The core correction contribution to forces
     atom    1 type  1   force =    -0.00000000   -0.00014554    0.00003913
     atom    2 type  1   force =     0.00000000    0.00014554   -0.00003913
     atom    3 type  1   force =    -0.00000000   -0.00014554   -0.00003913
     atom    4 type  1   force =     0.00000000    0.00014554    0.00003913
     atom    5 type  2   force =    -0.00000000    0.00021329    0.00005104
     atom    6 type  2   force =    -0.00000000   -0.00021329   -0.00005104
     atom    7 type  2   force =    -0.00000000    0.00021329   -0.00005104
     atom    8 type  2   force =    -0.00000000   -0.00021329    0.00005104
     atom    9 type  3   force =     0.00000000    0.00640672    0.00648821
     atom   10 type  3   force =     0.00000000   -0.00640672   -0.00648821
     atom   11 type  3   force =     0.00000000    0.00640672   -0.00648821
     atom   12 type  3   force =     0.00000000   -0.00640672    0.00648821
     atom   13 type  3   force =    -0.00000000    0.00436059   -0.00748435
     atom   14 type  3   force =     0.00000000   -0.00436059    0.00748435
     atom   15 type  3   force =     0.00000000    0.00436059    0.00748435
     atom   16 type  3   force =    -0.00000000   -0.00436059   -0.00748435
     atom   17 type  3   force =     0.00000000   -0.00769448    0.00252940
     atom   18 type  3   force =    -0.00000000    0.00769448   -0.00252940
     atom   19 type  3   force =     0.00000000   -0.00769448   -0.00252940
     atom   20 type  3   force =    -0.00000000    0.00769448    0.00252940
     The Hubbard contrib.    to forces
     atom    1 type  1   force =     0.00000000    0.00000000    0.00000000
     atom    2 type  1   force =     0.00000000    0.00000000    0.00000000
     atom    3 type  1   force =     0.00000000    0.00000000    0.00000000
     atom    4 type  1   force =     0.00000000    0.00000000    0.00000000
     atom    5 type  2   force =     0.00000000    0.00000000    0.00000000
     atom    6 type  2   force =     0.00000000    0.00000000    0.00000000
     atom    7 type  2   force =     0.00000000    0.00000000    0.00000000
     atom    8 type  2   force =     0.00000000    0.00000000    0.00000000
     atom    9 type  3   force =     0.00000000    0.00000000    0.00000000
     atom   10 type  3   force =     0.00000000    0.00000000    0.00000000
     atom   11 type  3   force =     0.00000000    0.00000000    0.00000000
     atom   12 type  3   force =     0.00000000    0.00000000    0.00000000
     atom   13 type  3   force =     0.00000000    0.00000000    0.00000000
     atom   14 type  3   force =     0.00000000    0.00000000    0.00000000
     atom   15 type  3   force =     0.00000000    0.00000000    0.00000000
     atom   16 type  3   force =     0.00000000    0.00000000    0.00000000
     atom   17 type  3   force =     0.00000000    0.00000000    0.00000000
     atom   18 type  3   force =     0.00000000    0.00000000    0.00000000
     atom   19 type  3   force =     0.00000000    0.00000000    0.00000000
     atom   20 type  3   force =     0.00000000    0.00000000    0.00000000
     The SCF correction term to forces
     atom    1 type  1   force =    -0.00000000   -0.00005550   -0.00004632
     atom    2 type  1   force =    -0.00000000    0.00005550    0.00004632
     atom    3 type  1   force =     0.00000000   -0.00005550    0.00004632
     atom    4 type  1   force =     0.00000000    0.00005550   -0.00004632
     atom    5 type  2   force =    -0.00000000   -0.00096216   -0.00044181
     atom    6 type  2   force =    -0.00000000    0.00096216    0.00044181
     atom    7 type  2   force =     0.00000000   -0.00096216    0.00044181
     atom    8 type  2   force =    -0.00000000    0.00096216   -0.00044181
     atom    9 type  3   force =    -0.00000000    0.00024500    0.00055826
     atom   10 type  3   force =    -0.00000000   -0.00024500   -0.00055826
     atom   11 type  3   force =     0.00000000    0.00024500   -0.00055826
     atom   12 type  3   force =    -0.00000000   -0.00024500    0.00055826
     atom   13 type  3   force =    -0.00000000    0.00020071   -0.00027269
     atom   14 type  3   force =     0.00000000   -0.00020071    0.00027269
     atom   15 type  3   force =     0.00000000    0.00020071    0.00027269
     atom   16 type  3   force =    -0.00000000   -0.00020071   -0.00027269
     atom   17 type  3   force =     0.00000000   -0.00054227    0.00015809
     atom   18 type  3   force =     0.00000000    0.00054227   -0.00015809
     atom   19 type  3   force =    -0.00000000   -0.00054227   -0.00015809
     atom   20 type  3   force =     0.00000000    0.00054227    0.00015809

     Total force =     0.011171     Total SCF correction =     0.002780
     SCF correction compared to forces is large: reduce conv_thr to get better values


     Computing stress (Cartesian axis) and pressure

          total   stress  (Ry/bohr**3)                   (kbar)     P=       -0.09
   0.00002604   0.00000000   0.00000000            3.83        0.00        0.00
   0.00000000  -0.00001849   0.00000000            0.00       -2.72        0.00
   0.00000000   0.00000000  -0.00000930            0.00        0.00       -1.37

     kinetic stress (kbar)   5531.00      0.00      0.00
                                0.00   5531.86      0.00
                                0.00      0.00   5527.78

     local   stress (kbar)  -4523.02     -0.00     -0.00
                               -0.00  -1880.95      0.00
                               -0.00      0.00   -989.09

     nonloc. stress (kbar)   1141.20      0.00      0.00
                                0.00   1136.77      0.00
                                0.00      0.00   1139.96

     hartree stress (kbar)   3404.86      0.00      0.00
                                0.00   2187.43     -0.00
                                0.00     -0.00   1718.31

     exc-cor stress (kbar)   5446.82      0.00      0.00
                                0.00   5446.41      0.00
                                0.00      0.00   5446.87

     corecor stress (kbar)  -7212.23      0.00     -0.00
                                0.00  -7212.08      0.00
                               -0.00      0.00  -7212.11

     ewald   stress (kbar)  -3784.80     -0.00     -0.00
                               -0.00  -5212.16      0.00
                               -0.00      0.00  -5633.09

     hubbard stress (kbar)      0.00      0.00      0.00
                                0.00      0.00      0.00
                                0.00      0.00      0.00

     DFT-D   stress (kbar)      0.00      0.00      0.00
                                0.00      0.00      0.00
                                0.00      0.00      0.00

     XDM     stress (kbar)      0.00      0.00      0.00
                                0.00      0.00      0.00
                                0.00      0.00      0.00

     dft-nl  stress (kbar)      0.00      0.00      0.00
                                0.00      0.00      0.00
                                0.00      0.00      0.00

     TS-vdW  stress (kbar)      0.00      0.00      0.00
                                0.00      0.00      0.00
                                0.00      0.00      0.00



     Writing output data file ./CsSnI3.save/
 
     init_run     :      4.27s CPU      4.47s WALL (       1 calls)
     electrons    :     93.45s CPU     97.48s WALL (       1 calls)
     forces       :      2.40s CPU      2.47s WALL (       1 calls)
     stress       :     12.91s CPU     13.09s WALL (       1 calls)

     Called by init_run:
     wfcinit      :      1.95s CPU      2.00s WALL (       1 calls)
     wfcinit:atom :      0.01s CPU      0.01s WALL (       8 calls)
     wfcinit:wfcr :      1.86s CPU      1.91s WALL (       8 calls)
     potinit      :      0.68s CPU      0.71s WALL (       1 calls)
     hinit0       :      0.73s CPU      0.75s WALL (       1 calls)

     Called by electrons:
     c_bands      :     69.42s CPU     71.18s WALL (      12 calls)
     sum_band     :     13.77s CPU     15.30s WALL (      12 calls)
     v_of_rho     :      0.51s CPU      0.52s WALL (      12 calls)
     v_h          :      0.04s CPU      0.04s WALL (      12 calls)
     v_xc         :      0.54s CPU      0.55s WALL (      14 calls)
     newd         :      4.89s CPU      5.56s WALL (      12 calls)
     PAW_pot      :      5.38s CPU      5.42s WALL (      12 calls)
     mix_rho      :      0.18s CPU      0.18s WALL (      12 calls)

     Called by c_bands:
     init_us_2    :      1.13s CPU      1.15s WALL (     216 calls)
     cegterg      :     64.17s CPU     65.89s WALL (      96 calls)

     Called by sum_band:
     sum_band:wei :      0.00s CPU      0.00s WALL (      12 calls)
     sum_band:loo :      8.24s CPU      8.54s WALL (      12 calls)
     sum_band:buf :      0.14s CPU      0.15s WALL (      96 calls)
     sum_band:ini :      0.48s CPU      0.49s WALL (      96 calls)
     sum_band:cal :      1.89s CPU      2.06s WALL (      96 calls)
     sum_band:bec :      0.08s CPU      0.08s WALL (      96 calls)
     addusdens    :      5.35s CPU      6.58s WALL (      12 calls)
     addusd:skk   :      0.04s CPU      0.04s WALL (      36 calls)
     addusd:dgemm :      2.24s CPU      3.43s WALL (      36 calls)
     addusd:qvan2 :      2.85s CPU      2.85s WALL (      36 calls)

     Called by *egterg:
     cdiaghg      :      7.06s CPU      7.20s WALL (     551 calls)
     cegterg:over :      3.49s CPU      3.71s WALL (     463 calls)
     cegterg:upda :      1.62s CPU      1.63s WALL (     463 calls)
     cegterg:last :      2.95s CPU      2.96s WALL (     225 calls)
     h_psi        :     43.96s CPU     45.10s WALL (     567 calls)
     s_psi        :      4.89s CPU      5.11s WALL (     567 calls)
     g_psi        :      0.07s CPU      0.07s WALL (     463 calls)

     Called by h_psi:
     h_psi:calbec :      7.40s CPU      7.83s WALL (     567 calls)
     vloc_psi     :     31.15s CPU     31.81s WALL (     567 calls)
     add_vuspsi   :      5.15s CPU      5.21s WALL (     567 calls)

     General routines
     calbec       :     10.21s CPU     10.83s WALL (     703 calls)
     fft          :      0.59s CPU      0.61s WALL (     180 calls)
     ffts         :      0.04s CPU      0.04s WALL (      24 calls)
     fftw         :     34.62s CPU     35.34s WALL (   59386 calls)
     interpolate  :      0.06s CPU      0.06s WALL (      12 calls)
 
     Parallel routines
     fft_scatt_xy :      2.08s CPU      2.12s WALL (   59590 calls)
     fft_scatt_yz :     22.16s CPU     22.66s WALL (   59590 calls)

     PAW routines
     PAW_pot      :      5.38s CPU      5.42s WALL (      12 calls)
     PAW_symme    :      0.05s CPU      0.05s WALL (      24 calls)
 
     PWSCF        :   2m 0.37s CPU   2m 5.90s WALL

 
   This run was terminated on:  12:28: 4  14Jan2021            

=------------------------------------------------------------------------------=
   JOB DONE.
=------------------------------------------------------------------------------=
