
     Program PWSCF v.6.7MaX starts on 31Jan2021 at 10:34:56 

     This program is part of the open-source Quantum ESPRESSO suite
     for quantum simulation of materials; please cite
         "P. Giannozzi et al., J. Phys.:Condens. Matter 21 395502 (2009);
         "P. Giannozzi et al., J. Phys.:Condens. Matter 29 465901 (2017);
          URL http://www.quantum-espresso.org", 
     in publications or presentations arising from this work. More details at
     http://www.quantum-espresso.org/quote

     Parallel version (MPI & OpenMP), running on      96 processor cores
     Number of MPI processes:                48
     Threads/MPI process:                     2

     MPI processes distributed on     2 nodes
     R & G space division:  proc/nbgrp/npool/nimage =      48
     Waiting for input...
     Reading input from standard input

     Current dimensions of program PWSCF are:
     Max number of different atomic species (ntypx) = 10
     Max number of k-points (npk) =  40000
     Max angular momentum in pseudopotentials (lmaxx) =  3
     file Sn.rel-pbesol-dn-rrkjus_psl.1.0.0.UPF: wavefunction(s)  5S 4D 4D renormalized
     file I.rel-pbesol-n-rrkjus_psl.1.0.0.UPF: wavefunction(s)  5S renormalized

     Subspace diagonalization in iterative solution of the eigenvalue problem:
     a serial algorithm will be used


     Parallelization info
     --------------------
     sticks:   dense  smooth     PW     G-vecs:    dense   smooth      PW
     Min         172     137     36                11792     8441    1154
     Max         174     138     37                11795     8446    1159
     Sum        8285    6613   1757               566075   405263   55515


     Title: 
     SnI2                                                                       


     bravais-lattice index     =            1
     lattice parameter (alat)  =      14.4199  a.u.
     unit-cell volume          =    2998.4083 (a.u.)^3
     number of atoms/cell      =            6
     number of atomic types    =            2
     number of electrons       =        56.00
     number of Kohn-Sham states=           56
     kinetic-energy cutoff     =     100.0000  Ry
     charge density cutoff     =     500.0000  Ry
     scf convergence threshold =      1.0E-06
     mixing beta               =       0.3500
     number of iterations used =            8  plain     mixing
     Exchange-correlation= PBESOL
                           (   1   4  10   8   0   0   0)
     Non magnetic calculation with spin-orbit


     celldm(1)=  14.419944  celldm(2)=   0.000000  celldm(3)=   0.000000
     celldm(4)=   0.000000  celldm(5)=   0.000000  celldm(6)=   0.000000

     crystal axes: (cart. coord. in units of alat)
               a(1) = (   1.000000   0.000000   0.000000 )  
               a(2) = (   0.000000   1.000000   0.000000 )  
               a(3) = (   0.000000   0.000000   1.000000 )  

     reciprocal axes: (cart. coord. in units 2 pi/alat)
               b(1) = (  1.000000  0.000000  0.000000 )  
               b(2) = (  0.000000  1.000000  0.000000 )  
               b(3) = (  0.000000  0.000000  1.000000 )  


     PseudoPot. # 1 for Sn read from file:
     /scratch/cmalosso/degironcoli/pseudo/pseudo-usp/Sn.rel-pbesol-dn-rrkjus_psl.1.0.0.UPF
     MD5 check sum: c1cf6ea56b96a3656bdf0d1db379e093
     Pseudo is Ultrasoft + core correction, Zval = 14.0
     Generated using &quot;atomic&quot; code by A. Dal Corso  v.6.3
     Using radial grid of 1243 points, 10 beta functions with: 
                l(1) =   0
                l(2) =   0
                l(3) =   1
                l(4) =   1
                l(5) =   1
                l(6) =   1
                l(7) =   2
                l(8) =   2
                l(9) =   2
               l(10) =   2
     Q(r) pseudized with 0 coefficients 


     PseudoPot. # 2 for I  read from file:
     /scratch/cmalosso/degironcoli/pseudo/pseudo-usp/I.rel-pbesol-n-rrkjus_psl.1.0.0.UPF
     MD5 check sum: 0f96c6bfb1b448f280658f96eb466b08
     Pseudo is Ultrasoft + core correction, Zval =  7.0
     Generated using &quot;atomic&quot; code by A. Dal Corso  v.6.3
     Using radial grid of 1247 points, 10 beta functions with: 
                l(1) =   0
                l(2) =   0
                l(3) =   1
                l(4) =   1
                l(5) =   1
                l(6) =   1
                l(7) =   2
                l(8) =   2
                l(9) =   2
               l(10) =   2
     Q(r) pseudized with 0 coefficients 


     atomic species   valence    mass     pseudopotential
        Sn            14.00   118.70000     Sn( 1.00)
        I              7.00   126.90000     I ( 1.00)

     16 Sym. Ops., with inversion, found ( 8 have fractional translation)


                                    s                        frac. trans.

      isym =  1     identity                                     

 cryst.   s( 1) = (     1          0          0      )
                  (     0          1          0      )
                  (     0          0          1      )

 cart.    s( 1) = (  1.0000000  0.0000000  0.0000000 )
                  (  0.0000000  1.0000000  0.0000000 )
                  (  0.0000000  0.0000000  1.0000000 )


      isym =  2     180 deg rotation - cart. axis [0,0,1]        

 cryst.   s( 2) = (    -1          0          0      )
                  (     0         -1          0      )
                  (     0          0          1      )

 cart.    s( 2) = ( -1.0000000  0.0000000  0.0000000 )
                  (  0.0000000 -1.0000000  0.0000000 )
                  (  0.0000000  0.0000000  1.0000000 )


      isym =  3     180 deg rotation - cart. axis [0,1,0]        

 cryst.   s( 3) = (    -1          0          0      )    f =(  0.5000000 )
                  (     0          1          0      )       ( -0.5000000 )
                  (     0          0         -1      )       (  0.5000000 )

 cart.    s( 3) = ( -1.0000000  0.0000000  0.0000000 )    f =(  0.5000000 )
                  (  0.0000000  1.0000000  0.0000000 )       ( -0.5000000 )
                  (  0.0000000  0.0000000 -1.0000000 )       (  0.5000000 )


      isym =  4     180 deg rotation - cart. axis [1,0,0]        

 cryst.   s( 4) = (     1          0          0      )    f =( -0.5000000 )
                  (     0         -1          0      )       (  0.5000000 )
                  (     0          0         -1      )       (  0.5000000 )

 cart.    s( 4) = (  1.0000000  0.0000000  0.0000000 )    f =( -0.5000000 )
                  (  0.0000000 -1.0000000  0.0000000 )       (  0.5000000 )
                  (  0.0000000  0.0000000 -1.0000000 )       (  0.5000000 )


      isym =  5     180 deg rotation - cart. axis [1,1,0]        

 cryst.   s( 5) = (     0          1          0      )
                  (     1          0          0      )
                  (     0          0         -1      )

 cart.    s( 5) = (  0.0000000  1.0000000  0.0000000 )
                  (  1.0000000  0.0000000  0.0000000 )
                  (  0.0000000  0.0000000 -1.0000000 )


      isym =  6     180 deg rotation - cart. axis [1,-1,0]       

 cryst.   s( 6) = (     0         -1          0      )
                  (    -1          0          0      )
                  (     0          0         -1      )

 cart.    s( 6) = (  0.0000000 -1.0000000  0.0000000 )
                  ( -1.0000000  0.0000000  0.0000000 )
                  (  0.0000000  0.0000000 -1.0000000 )


      isym =  7      90 deg rotation - cart. axis [0,0,-1]       

 cryst.   s( 7) = (     0         -1          0      )    f =( -0.5000000 )
                  (     1          0          0      )       (  0.5000000 )
                  (     0          0          1      )       ( -0.5000000 )

 cart.    s( 7) = (  0.0000000  1.0000000  0.0000000 )    f =( -0.5000000 )
                  ( -1.0000000  0.0000000  0.0000000 )       (  0.5000000 )
                  (  0.0000000  0.0000000  1.0000000 )       ( -0.5000000 )


      isym =  8      90 deg rotation - cart. axis [0,0,1]        

 cryst.   s( 8) = (     0          1          0      )    f =(  0.5000000 )
                  (    -1          0          0      )       ( -0.5000000 )
                  (     0          0          1      )       ( -0.5000000 )

 cart.    s( 8) = (  0.0000000 -1.0000000  0.0000000 )    f =(  0.5000000 )
                  (  1.0000000  0.0000000  0.0000000 )       ( -0.5000000 )
                  (  0.0000000  0.0000000  1.0000000 )       ( -0.5000000 )


      isym =  9     inversion                                    

 cryst.   s( 9) = (    -1          0          0      )
                  (     0         -1          0      )
                  (     0          0         -1      )

 cart.    s( 9) = ( -1.0000000  0.0000000  0.0000000 )
                  (  0.0000000 -1.0000000  0.0000000 )
                  (  0.0000000  0.0000000 -1.0000000 )


      isym = 10     inv. 180 deg rotation - cart. axis [0,0,1]   

 cryst.   s(10) = (     1          0          0      )
                  (     0          1          0      )
                  (     0          0         -1      )

 cart.    s(10) = (  1.0000000  0.0000000  0.0000000 )
                  (  0.0000000  1.0000000  0.0000000 )
                  (  0.0000000  0.0000000 -1.0000000 )


      isym = 11     inv. 180 deg rotation - cart. axis [0,1,0]   

 cryst.   s(11) = (     1          0          0      )    f =( -0.5000000 )
                  (     0         -1          0      )       (  0.5000000 )
                  (     0          0          1      )       ( -0.5000000 )

 cart.    s(11) = (  1.0000000  0.0000000  0.0000000 )    f =( -0.5000000 )
                  (  0.0000000 -1.0000000  0.0000000 )       (  0.5000000 )
                  (  0.0000000  0.0000000  1.0000000 )       ( -0.5000000 )


      isym = 12     inv. 180 deg rotation - cart. axis [1,0,0]   

 cryst.   s(12) = (    -1          0          0      )    f =(  0.5000000 )
                  (     0          1          0      )       ( -0.5000000 )
                  (     0          0          1      )       ( -0.5000000 )

 cart.    s(12) = ( -1.0000000  0.0000000  0.0000000 )    f =(  0.5000000 )
                  (  0.0000000  1.0000000  0.0000000 )       ( -0.5000000 )
                  (  0.0000000  0.0000000  1.0000000 )       ( -0.5000000 )


      isym = 13     inv. 180 deg rotation - cart. axis [1,1,0]   

 cryst.   s(13) = (     0         -1          0      )
                  (    -1          0          0      )
                  (     0          0          1      )

 cart.    s(13) = (  0.0000000 -1.0000000  0.0000000 )
                  ( -1.0000000  0.0000000  0.0000000 )
                  (  0.0000000  0.0000000  1.0000000 )


      isym = 14     inv. 180 deg rotation - cart. axis [1,-1,0]  

 cryst.   s(14) = (     0          1          0      )
                  (     1          0          0      )
                  (     0          0          1      )

 cart.    s(14) = (  0.0000000  1.0000000  0.0000000 )
                  (  1.0000000  0.0000000  0.0000000 )
                  (  0.0000000  0.0000000  1.0000000 )


      isym = 15     inv.  90 deg rotation - cart. axis [0,0,-1]  

 cryst.   s(15) = (     0          1          0      )    f =(  0.5000000 )
                  (    -1          0          0      )       ( -0.5000000 )
                  (     0          0         -1      )       (  0.5000000 )

 cart.    s(15) = (  0.0000000 -1.0000000  0.0000000 )    f =(  0.5000000 )
                  (  1.0000000  0.0000000  0.0000000 )       ( -0.5000000 )
                  (  0.0000000  0.0000000 -1.0000000 )       (  0.5000000 )


      isym = 16     inv.  90 deg rotation - cart. axis [0,0,1]   

 cryst.   s(16) = (     0         -1          0      )    f =( -0.5000000 )
                  (     1          0          0      )       (  0.5000000 )
                  (     0          0         -1      )       (  0.5000000 )

 cart.    s(16) = (  0.0000000  1.0000000  0.0000000 )    f =( -0.5000000 )
                  ( -1.0000000  0.0000000  0.0000000 )       (  0.5000000 )
                  (  0.0000000  0.0000000 -1.0000000 )       (  0.5000000 )


     double point group D_4h(4/mmm)
     there are 14 classes and  4 irreducible representations
     the character table:

       E     -E    2C4   -2C4   C2    2C2' 2C2'' i     -i    2S4   -2S4   s_h 
                               -C2   -2C2' -2C2'                         -s_h 
G_6+   2.00 -2.00  1.41 -1.41  0.00  0.00  0.00  2.00 -2.00  1.41 -1.41  0.00
G_7+   2.00 -2.00 -1.41  1.41  0.00  0.00  0.00  2.00 -2.00 -1.41  1.41  0.00
G_6-   2.00 -2.00  1.41 -1.41  0.00  0.00  0.00 -2.00  2.00 -1.41  1.41  0.00
G_7-   2.00 -2.00 -1.41  1.41  0.00  0.00  0.00 -2.00  2.00  1.41 -1.41  0.00

        2s_v  2s_d
       -2s_v -2s_d
G_6+   0.00  0.00
G_7+   0.00  0.00
G_6-   0.00  0.00
G_7-   0.00  0.00

     the symmetry operations in each class and the name of the first element:

     E             1
          identity                                               
     -E           -1
          identity E                                             
     2C4           7    8
           90 deg rotation - cart. axis [0,0,-1]                 
     -2C4         -7   -8
           90 deg rotation - cart. axis [0,0,-1] E               
      C2  -C2      2   -2
          180 deg rotation - cart. axis [0,0,1]                  
      2C2'-2C2'    3   -3    4   -4
          180 deg rotation - cart. axis [0,1,0]                  
     2C2''-2C2'    5   -5   -6    6
          180 deg rotation - cart. axis [1,1,0]                  
     i             9
          inversion                                              
     -i           -9
          inversion E                                            
     2S4          15   16
          inv.  90 deg rotation - cart. axis [0,0,-1]            
     -2S4        -15  -16
          inv.  90 deg rotation - cart. axis [0,0,-1] E          
      s_h -s_h    10  -10
          inv. 180 deg rotation - cart. axis [0,0,1]             
      2s_v-2s_v   11  -11   12  -12
          inv. 180 deg rotation - cart. axis [0,1,0]             
      2s_d-2s_d   13  -13  -14   14
          inv. 180 deg rotation - cart. axis [1,1,0]             

   Cartesian axes

     site n.     atom                  positions (alat units)
         1           Sn  tau(   1) = (   0.0000000   0.0000000   0.0000000  )
         2           Sn  tau(   2) = (   0.5000000   0.5000000   0.5000000  )
         3           I   tau(   3) = (   0.2985210   0.2985210   0.0000000  )
         4           I   tau(   4) = (   0.7014790   0.7014790   0.0000000  )
         5           I   tau(   5) = (   0.7985210   0.2014790   0.5000000  )
         6           I   tau(   6) = (   0.2014790   0.7985210   0.5000000  )

   Crystallographic axes

     site n.     atom                  positions (cryst. coord.)
         1           Sn  tau(   1) = (  0.0000000  0.0000000  0.0000000  )
         2           Sn  tau(   2) = (  0.5000000  0.5000000  0.5000000  )
         3           I   tau(   3) = (  0.2985210  0.2985210  0.0000000  )
         4           I   tau(   4) = (  0.7014790  0.7014790  0.0000000  )
         5           I   tau(   5) = (  0.7985210  0.2014790  0.5000000  )
         6           I   tau(   6) = (  0.2014790  0.7985210  0.5000000  )

     number of k points=    18
                       cart. coord. in units 2pi/alat
        k(    1) = (   0.0833333   0.0833333   0.0833333), wk =   0.0370370
        k(    2) = (   0.0833333   0.0833333   0.2500000), wk =   0.0370370
        k(    3) = (   0.0833333   0.0833333   0.4166667), wk =   0.0370370
        k(    4) = (   0.0833333   0.2500000   0.2500000), wk =   0.0740741
        k(    5) = (   0.0833333   0.2500000   0.4166667), wk =   0.0740741
        k(    6) = (   0.0833333   0.4166667   0.4166667), wk =   0.0740741
        k(    7) = (   0.2500000   0.2500000   0.2500000), wk =   0.0370370
        k(    8) = (   0.2500000   0.2500000   0.4166667), wk =   0.0370370
        k(    9) = (   0.2500000   0.4166667   0.4166667), wk =   0.0740741
        k(   10) = (   0.4166667   0.4166667   0.4166667), wk =   0.0370370
        k(   11) = (   0.0833333   0.2500000   0.0833333), wk =   0.0740741
        k(   12) = (   0.0833333   0.4166667   0.0833333), wk =   0.0740741
        k(   13) = (   0.2500000   0.2500000   0.0833333), wk =   0.0370370
        k(   14) = (   0.2500000   0.4166667   0.0833333), wk =   0.0740741
        k(   15) = (   0.4166667   0.0833333   0.2500000), wk =   0.0740741
        k(   16) = (   0.4166667   0.4166667   0.0833333), wk =   0.0370370
        k(   17) = (   0.2500000   0.4166667   0.2500000), wk =   0.0740741
        k(   18) = (   0.4166667   0.4166667   0.2500000), wk =   0.0370370

                       cryst. coord.
        k(    1) = (   0.0833333   0.0833333   0.0833333), wk =   0.0370370
        k(    2) = (   0.0833333   0.0833333   0.2500000), wk =   0.0370370
        k(    3) = (   0.0833333   0.0833333   0.4166667), wk =   0.0370370
        k(    4) = (   0.0833333   0.2500000   0.2500000), wk =   0.0740741
        k(    5) = (   0.0833333   0.2500000   0.4166667), wk =   0.0740741
        k(    6) = (   0.0833333   0.4166667   0.4166667), wk =   0.0740741
        k(    7) = (   0.2500000   0.2500000   0.2500000), wk =   0.0370370
        k(    8) = (   0.2500000   0.2500000   0.4166667), wk =   0.0370370
        k(    9) = (   0.2500000   0.4166667   0.4166667), wk =   0.0740741
        k(   10) = (   0.4166667   0.4166667   0.4166667), wk =   0.0370370
        k(   11) = (   0.0833333   0.2500000   0.0833333), wk =   0.0740741
        k(   12) = (   0.0833333   0.4166667   0.0833333), wk =   0.0740741
        k(   13) = (   0.2500000   0.2500000   0.0833333), wk =   0.0370370
        k(   14) = (   0.2500000   0.4166667   0.0833333), wk =   0.0740741
        k(   15) = (   0.4166667   0.0833333   0.2500000), wk =   0.0740741
        k(   16) = (   0.4166667   0.4166667   0.0833333), wk =   0.0370370
        k(   17) = (   0.2500000   0.4166667   0.2500000), wk =   0.0740741
        k(   18) = (   0.4166667   0.4166667   0.2500000), wk =   0.0370370

     Dense  grid:   566075 G-vectors     FFT dimensions: ( 108, 108, 108)

     Smooth grid:   405263 G-vectors     FFT dimensions: (  96,  96,  96)

     Dynamical RAM for                 wfc:       1.80 MB

     Dynamical RAM for     wfc (w. buffer):      34.22 MB

     Dynamical RAM for           str. fact:       0.36 MB

     Dynamical RAM for           local pot:       0.00 MB

     Dynamical RAM for          nlocal pot:       3.28 MB

     Dynamical RAM for                qrad:       9.40 MB

     Dynamical RAM for          rho,v,vnew:       5.36 MB

     Dynamical RAM for               rhoin:       1.79 MB

     Dynamical RAM for            rho*nmix:      11.52 MB

     Dynamical RAM for           G-vectors:       0.74 MB

     Dynamical RAM for          h,s,v(r/c):       0.57 MB

     Dynamical RAM for          <psi|beta>:       0.35 MB

     Dynamical RAM for                 psi:       3.60 MB

     Dynamical RAM for                hpsi:       3.60 MB

     Dynamical RAM for                spsi:       3.60 MB

     Dynamical RAM for      wfcinit/wfcrot:       3.39 MB

     Dynamical RAM for           addusdens:     110.48 MB

     Dynamical RAM for          addusforce:     111.70 MB

     Dynamical RAM for         addusstress:     113.00 MB

     Estimated static dynamical RAM per process >      69.35 MB

     Estimated max dynamical RAM per process >     182.34 MB

     Estimated total dynamical RAM >       8.55 GB

     Initial potential from superposition of free atoms

     starting charge   55.99772, renormalised to   56.00000
     Starting wfcs are   68 randomized atomic wfcs

     total cpu time spent up to now is        7.9 secs

     Self-consistent Calculation

     iteration #  1     ecut=   100.00 Ry     beta= 0.35
     Davidson diagonalization with overlap
     ethr =  1.00E-02,  avg # of iterations =  1.0

     total cpu time spent up to now is       19.9 secs

     total energy              =    -458.30134391 Ry
     estimated scf accuracy    <       0.58886500 Ry

     iteration #  2     ecut=   100.00 Ry     beta= 0.35
     Davidson diagonalization with overlap
     ethr =  1.05E-03,  avg # of iterations =  3.0

     total cpu time spent up to now is       34.8 secs

     total energy              =    -458.37858932 Ry
     estimated scf accuracy    <       0.06238297 Ry

     iteration #  3     ecut=   100.00 Ry     beta= 0.35
     Davidson diagonalization with overlap
     ethr =  1.11E-04,  avg # of iterations =  5.6

     total cpu time spent up to now is       53.9 secs

     total energy              =    -458.39185040 Ry
     estimated scf accuracy    <       0.04836037 Ry

     iteration #  4     ecut=   100.00 Ry     beta= 0.35
     Davidson diagonalization with overlap
     ethr =  8.64E-05,  avg # of iterations =  5.2

     total cpu time spent up to now is       71.8 secs

     total energy              =    -458.40246288 Ry
     estimated scf accuracy    <       0.03469199 Ry

     iteration #  5     ecut=   100.00 Ry     beta= 0.35
     Davidson diagonalization with overlap
     ethr =  6.19E-05,  avg # of iterations =  4.8

     total cpu time spent up to now is       87.0 secs

     total energy              =    -458.40953902 Ry
     estimated scf accuracy    <       0.00098684 Ry

     iteration #  6     ecut=   100.00 Ry     beta= 0.35
     Davidson diagonalization with overlap
     ethr =  1.76E-06,  avg # of iterations =  9.8

     total cpu time spent up to now is      110.1 secs

     total energy              =    -458.40767066 Ry
     estimated scf accuracy    <       0.00910242 Ry

     iteration #  7     ecut=   100.00 Ry     beta= 0.35
     Davidson diagonalization with overlap
     ethr =  1.76E-06,  avg # of iterations =  7.0

     total cpu time spent up to now is      130.1 secs

     total energy              =    -458.40983767 Ry
     estimated scf accuracy    <       0.00045407 Ry

     iteration #  8     ecut=   100.00 Ry     beta= 0.35
     Davidson diagonalization with overlap
     ethr =  8.11E-07,  avg # of iterations =  2.7

     total cpu time spent up to now is      144.5 secs

     total energy              =    -458.40987468 Ry
     estimated scf accuracy    <       0.00004640 Ry

     iteration #  9     ecut=   100.00 Ry     beta= 0.35
     Davidson diagonalization with overlap
     ethr =  8.29E-08,  avg # of iterations =  7.2

     total cpu time spent up to now is      163.5 secs

     total energy              =    -458.40990376 Ry
     estimated scf accuracy    <       0.00000909 Ry

     iteration # 10     ecut=   100.00 Ry     beta= 0.35
     Davidson diagonalization with overlap
     ethr =  1.62E-08,  avg # of iterations =  2.2

     total cpu time spent up to now is      176.7 secs

     total energy              =    -458.40990255 Ry
     estimated scf accuracy    <       0.00000317 Ry

     iteration # 11     ecut=   100.00 Ry     beta= 0.35
     Davidson diagonalization with overlap
     ethr =  5.66E-09,  avg # of iterations =  5.6

     total cpu time spent up to now is      195.1 secs

     total energy              =    -458.40990367 Ry
     estimated scf accuracy    <       0.00000134 Ry

     iteration # 12     ecut=   100.00 Ry     beta= 0.35
     Davidson diagonalization with overlap
     ethr =  2.40E-09,  avg # of iterations =  5.1

     total cpu time spent up to now is      212.5 secs

     End of self-consistent calculation

          k = 0.0833 0.0833 0.0833 ( 50610 PWs)   bands (ev):

   -23.2628 -23.2628 -23.2628 -23.2628 -23.1378 -23.1378 -23.1378 -23.1378
   -22.2425 -22.2425 -22.2425 -22.2425 -22.1335 -22.1335 -22.1335 -22.1335
   -22.0826 -22.0826 -22.0825 -22.0825 -11.6205 -11.6205 -11.5299 -11.5299
   -11.4802 -11.4802 -11.4759 -11.4759  -7.0757  -7.0757  -6.8763  -6.8763
    -2.6880  -2.6880  -2.5264  -2.5264  -2.1400  -2.1400  -2.0287  -2.0287
    -1.8811  -1.8811  -1.5292  -1.5292  -1.2259  -1.2259  -1.1326  -1.1326
    -1.1078  -1.1078  -0.9954  -0.9954  -0.9236  -0.9236  -0.8831  -0.8831

     occupation numbers 
     1.0000   1.0000   1.0000   1.0000   1.0000   1.0000   1.0000   1.0000
     1.0000   1.0000   1.0000   1.0000   1.0000   1.0000   1.0000   1.0000
     1.0000   1.0000   1.0000   1.0000   1.0000   1.0000   1.0000   1.0000
     1.0000   1.0000   1.0000   1.0000   1.0000   1.0000   1.0000   1.0000
     1.0000   1.0000   1.0000   1.0000   1.0000   1.0000   1.0000   1.0000
     1.0000   1.0000   1.0000   1.0000   1.0000   1.0000   1.0000   1.0000
     1.0000   1.0000   1.0000   1.0000   1.0000   1.0000   1.0000   1.0000

          k = 0.0833 0.0833 0.2500 ( 50604 PWs)   bands (ev):

   -23.2628 -23.2628 -23.2628 -23.2628 -23.1378 -23.1378 -23.1378 -23.1378
   -22.2425 -22.2425 -22.2425 -22.2425 -22.1335 -22.1335 -22.1335 -22.1335
   -22.0826 -22.0826 -22.0825 -22.0825 -11.6082 -11.6082 -11.5417 -11.5417
   -11.4801 -11.4801 -11.4757 -11.4757  -7.0557  -7.0557  -6.9100  -6.9100
    -2.6753  -2.6753  -2.5237  -2.5237  -2.1285  -2.1285  -2.0071  -2.0071
    -1.8557  -1.8557  -1.5538  -1.5538  -1.2237  -1.2237  -1.1738  -1.1738
    -1.1312  -1.1312  -1.0233  -1.0233  -0.9339  -0.9339  -0.8965  -0.8965

     occupation numbers 
     1.0000   1.0000   1.0000   1.0000   1.0000   1.0000   1.0000   1.0000
     1.0000   1.0000   1.0000   1.0000   1.0000   1.0000   1.0000   1.0000
     1.0000   1.0000   1.0000   1.0000   1.0000   1.0000   1.0000   1.0000
     1.0000   1.0000   1.0000   1.0000   1.0000   1.0000   1.0000   1.0000
     1.0000   1.0000   1.0000   1.0000   1.0000   1.0000   1.0000   1.0000
     1.0000   1.0000   1.0000   1.0000   1.0000   1.0000   1.0000   1.0000
     1.0000   1.0000   1.0000   1.0000   1.0000   1.0000   1.0000   1.0000

          k = 0.0833 0.0833 0.4167 ( 50628 PWs)   bands (ev):

   -23.2628 -23.2628 -23.2628 -23.2628 -23.1378 -23.1378 -23.1378 -23.1378
   -22.2425 -22.2425 -22.2425 -22.2425 -22.1335 -22.1335 -22.1335 -22.1335
   -22.0826 -22.0826 -22.0826 -22.0826 -11.5870 -11.5870 -11.5623 -11.5623
   -11.4800 -11.4800 -11.4755 -11.4755  -7.0163  -7.0163  -6.9629  -6.9629
    -2.6631  -2.6631  -2.5197  -2.5197  -2.1272  -2.1272  -1.9896  -1.9896
    -1.7893  -1.7893  -1.6108  -1.6108  -1.2225  -1.2225  -1.2026  -1.2026
    -1.1348  -1.1348  -1.0580  -1.0580  -0.9610  -0.9610  -0.9106  -0.9106

     occupation numbers 
     1.0000   1.0000   1.0000   1.0000   1.0000   1.0000   1.0000   1.0000
     1.0000   1.0000   1.0000   1.0000   1.0000   1.0000   1.0000   1.0000
     1.0000   1.0000   1.0000   1.0000   1.0000   1.0000   1.0000   1.0000
     1.0000   1.0000   1.0000   1.0000   1.0000   1.0000   1.0000   1.0000
     1.0000   1.0000   1.0000   1.0000   1.0000   1.0000   1.0000   1.0000
     1.0000   1.0000   1.0000   1.0000   1.0000   1.0000   1.0000   1.0000
     1.0000   1.0000   1.0000   1.0000   1.0000   1.0000   1.0000   1.0000

          k = 0.0833 0.2500 0.2500 ( 50629 PWs)   bands (ev):

   -23.2628 -23.2628 -23.2628 -23.2628 -23.1378 -23.1378 -23.1378 -23.1378
   -22.2425 -22.2425 -22.2425 -22.2425 -22.1335 -22.1335 -22.1335 -22.1335
   -22.0826 -22.0826 -22.0825 -22.0825 -11.5932 -11.5932 -11.5368 -11.5368
   -11.4947 -11.4947 -11.4817 -11.4817  -7.0326  -7.0326  -6.9252  -6.9252
    -2.8226  -2.8226  -2.6485  -2.6485  -2.0984  -2.0984  -1.9409  -1.9409
    -1.8136  -1.8136  -1.5757  -1.5757  -1.2491  -1.2491  -1.1814  -1.1814
    -1.0519  -1.0519  -0.9632  -0.9632  -0.8984  -0.8984  -0.7146  -0.7146

     occupation numbers 
     1.0000   1.0000   1.0000   1.0000   1.0000   1.0000   1.0000   1.0000
     1.0000   1.0000   1.0000   1.0000   1.0000   1.0000   1.0000   1.0000
     1.0000   1.0000   1.0000   1.0000   1.0000   1.0000   1.0000   1.0000
     1.0000   1.0000   1.0000   1.0000   1.0000   1.0000   1.0000   1.0000
     1.0000   1.0000   1.0000   1.0000   1.0000   1.0000   1.0000   1.0000
     1.0000   1.0000   1.0000   1.0000   1.0000   1.0000   1.0000   1.0000
     1.0000   1.0000   1.0000   1.0000   1.0000   1.0000   1.0000   1.0000

          k = 0.0833 0.2500 0.4167 ( 50605 PWs)   bands (ev):

   -23.2628 -23.2628 -23.2628 -23.2628 -23.1378 -23.1378 -23.1378 -23.1378
   -22.2425 -22.2425 -22.2425 -22.2425 -22.1335 -22.1335 -22.1335 -22.1335
   -22.0826 -22.0826 -22.0826 -22.0826 -11.5757 -11.5757 -11.5526 -11.5526
   -11.4945 -11.4945 -11.4827 -11.4827  -7.0057  -7.0057  -6.9651  -6.9651
    -2.8352  -2.8352  -2.6525  -2.6525  -2.0644  -2.0644  -1.8864  -1.8864
    -1.8341  -1.8341  -1.5839  -1.5839  -1.2562  -1.2562  -1.1772  -1.1772
    -1.0673  -1.0673  -0.9792  -0.9792  -0.8917  -0.8917  -0.7139  -0.7139

     occupation numbers 
     1.0000   1.0000   1.0000   1.0000   1.0000   1.0000   1.0000   1.0000
     1.0000   1.0000   1.0000   1.0000   1.0000   1.0000   1.0000   1.0000
     1.0000   1.0000   1.0000   1.0000   1.0000   1.0000   1.0000   1.0000
     1.0000   1.0000   1.0000   1.0000   1.0000   1.0000   1.0000   1.0000
     1.0000   1.0000   1.0000   1.0000   1.0000   1.0000   1.0000   1.0000
     1.0000   1.0000   1.0000   1.0000   1.0000   1.0000   1.0000   1.0000
     1.0000   1.0000   1.0000   1.0000   1.0000   1.0000   1.0000   1.0000

          k = 0.0833 0.4167 0.4167 ( 50639 PWs)   bands (ev):

   -23.2628 -23.2628 -23.2628 -23.2628 -23.1378 -23.1378 -23.1378 -23.1378
   -22.2425 -22.2425 -22.2425 -22.2425 -22.1335 -22.1335 -22.1335 -22.1335
   -22.0826 -22.0826 -22.0826 -22.0826 -11.5568 -11.5568 -11.5436 -11.5436
   -11.5077 -11.5077 -11.4980 -11.4980  -6.9895  -6.9895  -6.9730  -6.9730
    -2.9024  -2.9024  -2.8256  -2.8256  -2.0192  -2.0192  -1.9095  -1.9095
    -1.7852  -1.7852  -1.5858  -1.5858  -1.2435  -1.2435  -1.1969  -1.1969
    -0.9678  -0.9678  -0.9345  -0.9345  -0.7177  -0.7177  -0.5748  -0.5748

     occupation numbers 
     1.0000   1.0000   1.0000   1.0000   1.0000   1.0000   1.0000   1.0000
     1.0000   1.0000   1.0000   1.0000   1.0000   1.0000   1.0000   1.0000
     1.0000   1.0000   1.0000   1.0000   1.0000   1.0000   1.0000   1.0000
     1.0000   1.0000   1.0000   1.0000   1.0000   1.0000   1.0000   1.0000
     1.0000   1.0000   1.0000   1.0000   1.0000   1.0000   1.0000   1.0000
     1.0000   1.0000   1.0000   1.0000   1.0000   1.0000   1.0000   1.0000
     1.0000   1.0000   1.0000   1.0000   1.0000   1.0000   1.0000   1.0000

          k = 0.2500 0.2500 0.2500 ( 50649 PWs)   bands (ev):

   -23.2628 -23.2628 -23.2628 -23.2628 -23.1378 -23.1378 -23.1378 -23.1378
   -22.2425 -22.2425 -22.2425 -22.2425 -22.1335 -22.1335 -22.1335 -22.1335
   -22.0826 -22.0826 -22.0826 -22.0826 -11.5847 -11.5847 -11.5368 -11.5368
   -11.5038 -11.5038 -11.4806 -11.4806  -7.0225  -7.0225  -6.9419  -6.9419
    -2.8809  -2.8809  -2.5356  -2.5356  -2.0957  -2.0957  -1.9266  -1.9266
    -1.8725  -1.8725  -1.6033  -1.6033  -1.2954  -1.2954  -1.2277  -1.2277
    -1.1211  -1.1211  -0.9327  -0.9327  -0.8776  -0.8776  -0.5880  -0.5880

     occupation numbers 
     1.0000   1.0000   1.0000   1.0000   1.0000   1.0000   1.0000   1.0000
     1.0000   1.0000   1.0000   1.0000   1.0000   1.0000   1.0000   1.0000
     1.0000   1.0000   1.0000   1.0000   1.0000   1.0000   1.0000   1.0000
     1.0000   1.0000   1.0000   1.0000   1.0000   1.0000   1.0000   1.0000
     1.0000   1.0000   1.0000   1.0000   1.0000   1.0000   1.0000   1.0000
     1.0000   1.0000   1.0000   1.0000   1.0000   1.0000   1.0000   1.0000
     1.0000   1.0000   1.0000   1.0000   1.0000   1.0000   1.0000   1.0000

          k = 0.2500 0.2500 0.4167 ( 50646 PWs)   bands (ev):

   -23.2628 -23.2628 -23.2628 -23.2628 -23.1378 -23.1378 -23.1378 -23.1378
   -22.2425 -22.2425 -22.2425 -22.2425 -22.1335 -22.1335 -22.1335 -22.1335
   -22.0826 -22.0826 -22.0826 -22.0826 -11.5734 -11.5734 -11.5439 -11.5439
   -11.5069 -11.5069 -11.4805 -11.4805  -7.0066  -7.0066  -6.9711  -6.9711
    -2.8988  -2.8988  -2.5210  -2.5210  -2.1164  -2.1164  -1.8873  -1.8873
    -1.8731  -1.8731  -1.5828  -1.5828  -1.3078  -1.3078  -1.2059  -1.2059
    -1.1205  -1.1205  -0.9271  -0.9271  -0.8674  -0.8674  -0.5775  -0.5775

     occupation numbers 
     1.0000   1.0000   1.0000   1.0000   1.0000   1.0000   1.0000   1.0000
     1.0000   1.0000   1.0000   1.0000   1.0000   1.0000   1.0000   1.0000
     1.0000   1.0000   1.0000   1.0000   1.0000   1.0000   1.0000   1.0000
     1.0000   1.0000   1.0000   1.0000   1.0000   1.0000   1.0000   1.0000
     1.0000   1.0000   1.0000   1.0000   1.0000   1.0000   1.0000   1.0000
     1.0000   1.0000   1.0000   1.0000   1.0000   1.0000   1.0000   1.0000
     1.0000   1.0000   1.0000   1.0000   1.0000   1.0000   1.0000   1.0000

          k = 0.2500 0.4167 0.4167 ( 50647 PWs)   bands (ev):

   -23.2628 -23.2628 -23.2628 -23.2628 -23.1378 -23.1378 -23.1378 -23.1378
   -22.2425 -22.2425 -22.2425 -22.2425 -22.1335 -22.1335 -22.1335 -22.1335
   -22.0826 -22.0826 -22.0826 -22.0826 -11.5639 -11.5639 -11.5495 -11.5495
   -11.5022 -11.5022 -11.4883 -11.4883  -7.0001  -7.0001  -6.9848  -6.9848
    -2.8242  -2.8242  -2.6475  -2.6475  -2.0792  -2.0792  -1.9399  -1.9399
    -1.8225  -1.8225  -1.5888  -1.5888  -1.2921  -1.2921  -1.2354  -1.2354
    -1.0291  -1.0291  -0.8975  -0.8975  -0.8312  -0.8312  -0.7215  -0.7215

     occupation numbers 
     1.0000   1.0000   1.0000   1.0000   1.0000   1.0000   1.0000   1.0000
     1.0000   1.0000   1.0000   1.0000   1.0000   1.0000   1.0000   1.0000
     1.0000   1.0000   1.0000   1.0000   1.0000   1.0000   1.0000   1.0000
     1.0000   1.0000   1.0000   1.0000   1.0000   1.0000   1.0000   1.0000
     1.0000   1.0000   1.0000   1.0000   1.0000   1.0000   1.0000   1.0000
     1.0000   1.0000   1.0000   1.0000   1.0000   1.0000   1.0000   1.0000
     1.0000   1.0000   1.0000   1.0000   1.0000   1.0000   1.0000   1.0000

          k = 0.4167 0.4167 0.4167 ( 50723 PWs)   bands (ev):

   -23.2629 -23.2629 -23.2629 -23.2629 -23.1378 -23.1378 -23.1378 -23.1378
   -22.2425 -22.2425 -22.2425 -22.2425 -22.1335 -22.1335 -22.1335 -22.1335
   -22.0826 -22.0826 -22.0826 -22.0826 -11.5655 -11.5655 -11.5598 -11.5598
   -11.4911 -11.4911 -11.4854 -11.4854  -7.0070  -7.0070  -7.0002  -7.0002
    -2.6448  -2.6448  -2.5225  -2.5225  -2.1151  -2.1151  -1.9816  -1.9816
    -1.8672  -1.8672  -1.6641  -1.6641  -1.3322  -1.3322  -1.2807  -1.2807
    -1.0931  -1.0931  -1.0109  -1.0109  -0.8096  -0.8096  -0.7948  -0.7948

     occupation numbers 
     1.0000   1.0000   1.0000   1.0000   1.0000   1.0000   1.0000   1.0000
     1.0000   1.0000   1.0000   1.0000   1.0000   1.0000   1.0000   1.0000
     1.0000   1.0000   1.0000   1.0000   1.0000   1.0000   1.0000   1.0000
     1.0000   1.0000   1.0000   1.0000   1.0000   1.0000   1.0000   1.0000
     1.0000   1.0000   1.0000   1.0000   1.0000   1.0000   1.0000   1.0000
     1.0000   1.0000   1.0000   1.0000   1.0000   1.0000   1.0000   1.0000
     1.0000   1.0000   1.0000   1.0000   1.0000   1.0000   1.0000   1.0000

          k = 0.0833 0.2500 0.0833 ( 50604 PWs)   bands (ev):

   -23.2628 -23.2628 -23.2628 -23.2628 -23.1378 -23.1378 -23.1378 -23.1378
   -22.2425 -22.2425 -22.2425 -22.2425 -22.1335 -22.1335 -22.1335 -22.1335
   -22.0826 -22.0826 -22.0825 -22.0825 -11.6038 -11.6038 -11.5285 -11.5285
   -11.4942 -11.4942 -11.4809 -11.4809  -7.0456  -7.0456  -6.8990  -6.8990
    -2.8070  -2.8070  -2.6435  -2.6435  -2.1557  -2.1557  -1.9711  -1.9711
    -1.8020  -1.8020  -1.5545  -1.5545  -1.2422  -1.2422  -1.1855  -1.1855
    -1.0382  -1.0382  -0.9554  -0.9554  -0.9010  -0.9010  -0.7145  -0.7145

     occupation numbers 
     1.0000   1.0000   1.0000   1.0000   1.0000   1.0000   1.0000   1.0000
     1.0000   1.0000   1.0000   1.0000   1.0000   1.0000   1.0000   1.0000
     1.0000   1.0000   1.0000   1.0000   1.0000   1.0000   1.0000   1.0000
     1.0000   1.0000   1.0000   1.0000   1.0000   1.0000   1.0000   1.0000
     1.0000   1.0000   1.0000   1.0000   1.0000   1.0000   1.0000   1.0000
     1.0000   1.0000   1.0000   1.0000   1.0000   1.0000   1.0000   1.0000
     1.0000   1.0000   1.0000   1.0000   1.0000   1.0000   1.0000   1.0000

          k = 0.0833 0.4167 0.0833 ( 50628 PWs)   bands (ev):

   -23.2628 -23.2628 -23.2628 -23.2628 -23.1378 -23.1378 -23.1378 -23.1378
   -22.2425 -22.2425 -22.2425 -22.2425 -22.1335 -22.1335 -22.1335 -22.1335
   -22.0826 -22.0826 -22.0826 -22.0826 -11.5749 -11.5749 -11.5434 -11.5434
   -11.4996 -11.4996 -11.4907 -11.4907  -6.9956  -6.9956  -6.9417  -6.9417
    -2.8598  -2.8598  -2.7929  -2.7929  -2.1003  -2.1003  -2.0125  -2.0125
    -1.7053  -1.7053  -1.6054  -1.6054  -1.2682  -1.2682  -1.2439  -1.2439
    -0.9963  -0.9963  -0.9478  -0.9478  -0.7237  -0.7237  -0.5957  -0.5957

     occupation numbers 
     1.0000   1.0000   1.0000   1.0000   1.0000   1.0000   1.0000   1.0000
     1.0000   1.0000   1.0000   1.0000   1.0000   1.0000   1.0000   1.0000
     1.0000   1.0000   1.0000   1.0000   1.0000   1.0000   1.0000   1.0000
     1.0000   1.0000   1.0000   1.0000   1.0000   1.0000   1.0000   1.0000
     1.0000   1.0000   1.0000   1.0000   1.0000   1.0000   1.0000   1.0000
     1.0000   1.0000   1.0000   1.0000   1.0000   1.0000   1.0000   1.0000
     1.0000   1.0000   1.0000   1.0000   1.0000   1.0000   1.0000   1.0000

          k = 0.2500 0.2500 0.0833 ( 50629 PWs)   bands (ev):

   -23.2628 -23.2628 -23.2628 -23.2628 -23.1378 -23.1378 -23.1378 -23.1378
   -22.2425 -22.2425 -22.2425 -22.2425 -22.1335 -22.1335 -22.1335 -22.1335
   -22.0826 -22.0826 -22.0825 -22.0825 -11.5928 -11.5928 -11.5331 -11.5331
   -11.5003 -11.5003 -11.4808 -11.4808  -7.0298  -7.0298  -6.9213  -6.9213
    -2.8593  -2.8593  -2.5518  -2.5518  -2.0851  -2.0851  -1.9798  -1.9798
    -1.8688  -1.8688  -1.5862  -1.5862  -1.2947  -1.2947  -1.2490  -1.2490
    -1.1211  -1.1211  -0.9320  -0.9320  -0.8971  -0.8971  -0.5972  -0.5972

     occupation numbers 
     1.0000   1.0000   1.0000   1.0000   1.0000   1.0000   1.0000   1.0000
     1.0000   1.0000   1.0000   1.0000   1.0000   1.0000   1.0000   1.0000
     1.0000   1.0000   1.0000   1.0000   1.0000   1.0000   1.0000   1.0000
     1.0000   1.0000   1.0000   1.0000   1.0000   1.0000   1.0000   1.0000
     1.0000   1.0000   1.0000   1.0000   1.0000   1.0000   1.0000   1.0000
     1.0000   1.0000   1.0000   1.0000   1.0000   1.0000   1.0000   1.0000
     1.0000   1.0000   1.0000   1.0000   1.0000   1.0000   1.0000   1.0000

          k = 0.2500 0.4167 0.0833 ( 50605 PWs)   bands (ev):

   -23.2628 -23.2628 -23.2628 -23.2628 -23.1378 -23.1378 -23.1378 -23.1378
   -22.2425 -22.2425 -22.2425 -22.2425 -22.1335 -22.1335 -22.1335 -22.1335
   -22.0826 -22.0826 -22.0826 -22.0826 -11.5734 -11.5734 -11.5508 -11.5508
   -11.4958 -11.4958 -11.4868 -11.4868  -6.9989  -6.9989  -6.9587  -6.9587
    -2.7901  -2.7901  -2.6396  -2.6396  -2.0649  -2.0649  -2.0067  -2.0067
    -1.7666  -1.7666  -1.6401  -1.6401  -1.3490  -1.3490  -1.3212  -1.3212
    -1.0333  -1.0333  -0.9316  -0.9316  -0.8571  -0.8571  -0.7076  -0.7076

     occupation numbers 
     1.0000   1.0000   1.0000   1.0000   1.0000   1.0000   1.0000   1.0000
     1.0000   1.0000   1.0000   1.0000   1.0000   1.0000   1.0000   1.0000
     1.0000   1.0000   1.0000   1.0000   1.0000   1.0000   1.0000   1.0000
     1.0000   1.0000   1.0000   1.0000   1.0000   1.0000   1.0000   1.0000
     1.0000   1.0000   1.0000   1.0000   1.0000   1.0000   1.0000   1.0000
     1.0000   1.0000   1.0000   1.0000   1.0000   1.0000   1.0000   1.0000
     1.0000   1.0000   1.0000   1.0000   1.0000   1.0000   1.0000   1.0000

          k = 0.4167 0.0833 0.2500 ( 50605 PWs)   bands (ev):

   -23.2628 -23.2628 -23.2628 -23.2628 -23.1378 -23.1378 -23.1378 -23.1378
   -22.2425 -22.2425 -22.2425 -22.2425 -22.1335 -22.1335 -22.1335 -22.1335
   -22.0826 -22.0826 -22.0826 -22.0826 -11.5676 -11.5676 -11.5419 -11.5419
   -11.5039 -11.5039 -11.4939 -11.4939  -6.9949  -6.9949  -6.9551  -6.9551
    -2.8832  -2.8832  -2.8104  -2.8104  -2.0480  -2.0480  -1.9600  -1.9600
    -1.7552  -1.7552  -1.5927  -1.5927  -1.2589  -1.2589  -1.2244  -1.2244
    -0.9978  -0.9978  -0.9262  -0.9262  -0.7245  -0.7245  -0.5881  -0.5881

     occupation numbers 
     1.0000   1.0000   1.0000   1.0000   1.0000   1.0000   1.0000   1.0000
     1.0000   1.0000   1.0000   1.0000   1.0000   1.0000   1.0000   1.0000
     1.0000   1.0000   1.0000   1.0000   1.0000   1.0000   1.0000   1.0000
     1.0000   1.0000   1.0000   1.0000   1.0000   1.0000   1.0000   1.0000
     1.0000   1.0000   1.0000   1.0000   1.0000   1.0000   1.0000   1.0000
     1.0000   1.0000   1.0000   1.0000   1.0000   1.0000   1.0000   1.0000
     1.0000   1.0000   1.0000   1.0000   1.0000   1.0000   1.0000   1.0000

          k = 0.4167 0.4167 0.0833 ( 50639 PWs)   bands (ev):

   -23.2628 -23.2628 -23.2628 -23.2628 -23.1378 -23.1378 -23.1378 -23.1378
   -22.2425 -22.2425 -22.2425 -22.2425 -22.1335 -22.1335 -22.1335 -22.1335
   -22.0826 -22.0826 -22.0826 -22.0826 -11.5689 -11.5689 -11.5607 -11.5607
   -11.4896 -11.4896 -11.4858 -11.4858  -6.9963  -6.9963  -6.9814  -6.9814
    -2.6350  -2.6350  -2.5415  -2.5415  -2.0224  -2.0224  -1.9602  -1.9602
    -1.8488  -1.8488  -1.7224  -1.7224  -1.4100  -1.4100  -1.4004  -1.4004
    -1.1211  -1.1211  -1.0266  -1.0266  -0.8395  -0.8395  -0.8154  -0.8154

     occupation numbers 
     1.0000   1.0000   1.0000   1.0000   1.0000   1.0000   1.0000   1.0000
     1.0000   1.0000   1.0000   1.0000   1.0000   1.0000   1.0000   1.0000
     1.0000   1.0000   1.0000   1.0000   1.0000   1.0000   1.0000   1.0000
     1.0000   1.0000   1.0000   1.0000   1.0000   1.0000   1.0000   1.0000
     1.0000   1.0000   1.0000   1.0000   1.0000   1.0000   1.0000   1.0000
     1.0000   1.0000   1.0000   1.0000   1.0000   1.0000   1.0000   1.0000
     1.0000   1.0000   1.0000   1.0000   1.0000   1.0000   1.0000   1.0000

          k = 0.2500 0.4167 0.2500 ( 50646 PWs)   bands (ev):

   -23.2628 -23.2628 -23.2628 -23.2628 -23.1378 -23.1378 -23.1378 -23.1378
   -22.2425 -22.2425 -22.2425 -22.2425 -22.1335 -22.1335 -22.1335 -22.1335
   -22.0826 -22.0826 -22.0826 -22.0826 -11.5690 -11.5690 -11.5499 -11.5499
   -11.4988 -11.4988 -11.4875 -11.4875  -7.0008  -7.0008  -6.9705  -6.9705
    -2.8088  -2.8088  -2.6438  -2.6438  -2.0657  -2.0657  -1.9615  -1.9615
    -1.8065  -1.8065  -1.6249  -1.6249  -1.3192  -1.3192  -1.2831  -1.2831
    -1.0271  -1.0271  -0.9153  -0.9153  -0.8451  -0.8451  -0.7131  -0.7131

     occupation numbers 
     1.0000   1.0000   1.0000   1.0000   1.0000   1.0000   1.0000   1.0000
     1.0000   1.0000   1.0000   1.0000   1.0000   1.0000   1.0000   1.0000
     1.0000   1.0000   1.0000   1.0000   1.0000   1.0000   1.0000   1.0000
     1.0000   1.0000   1.0000   1.0000   1.0000   1.0000   1.0000   1.0000
     1.0000   1.0000   1.0000   1.0000   1.0000   1.0000   1.0000   1.0000
     1.0000   1.0000   1.0000   1.0000   1.0000   1.0000   1.0000   1.0000
     1.0000   1.0000   1.0000   1.0000   1.0000   1.0000   1.0000   1.0000

          k = 0.4167 0.4167 0.2500 ( 50647 PWs)   bands (ev):

   -23.2628 -23.2628 -23.2628 -23.2628 -23.1378 -23.1378 -23.1378 -23.1378
   -22.2425 -22.2425 -22.2425 -22.2425 -22.1335 -22.1335 -22.1335 -22.1335
   -22.0826 -22.0826 -22.0826 -22.0826 -11.5672 -11.5672 -11.5603 -11.5603
   -11.4904 -11.4904 -11.4856 -11.4856  -7.0020  -7.0020  -6.9905  -6.9905
    -2.6405  -2.6405  -2.5316  -2.5316  -2.0693  -2.0693  -1.9621  -1.9621
    -1.8636  -1.8636  -1.7003  -1.7003  -1.3722  -1.3722  -1.3524  -1.3524
    -1.0981  -1.0981  -1.0083  -1.0083  -0.8253  -0.8253  -0.8087  -0.8087

     occupation numbers 
     1.0000   1.0000   1.0000   1.0000   1.0000   1.0000   1.0000   1.0000
     1.0000   1.0000   1.0000   1.0000   1.0000   1.0000   1.0000   1.0000
     1.0000   1.0000   1.0000   1.0000   1.0000   1.0000   1.0000   1.0000
     1.0000   1.0000   1.0000   1.0000   1.0000   1.0000   1.0000   1.0000
     1.0000   1.0000   1.0000   1.0000   1.0000   1.0000   1.0000   1.0000
     1.0000   1.0000   1.0000   1.0000   1.0000   1.0000   1.0000   1.0000
     1.0000   1.0000   1.0000   1.0000   1.0000   1.0000   1.0000   1.0000

     highest occupied level (ev):    -0.5748

!    total energy              =    -458.40990393 Ry
     estimated scf accuracy    <       0.00000043 Ry

     The total energy is the sum of the following terms:
     one-electron contribution =    -256.48913718 Ry
     hartree contribution      =     145.41087995 Ry
     xc contribution           =    -157.07988637 Ry
     ewald contribution        =    -190.25176033 Ry

     convergence has been achieved in  12 iterations

     Forces acting on atoms (cartesian axes, Ry/au):

     atom    1 type  1   force =     0.00000000    0.00000000    0.00000000
     atom    2 type  1   force =     0.00000000    0.00000000    0.00000000
     atom    3 type  2   force =    -0.01801478   -0.01801478   -0.00000000
     atom    4 type  2   force =     0.01801478    0.01801478    0.00000000
     atom    5 type  2   force =    -0.01801478    0.01801478   -0.00000000
     atom    6 type  2   force =     0.01801478   -0.01801478    0.00000000
     The non-local contrib.  to forces
     atom    1 type  1   force =     0.00000000    0.00000000    0.00000000
     atom    2 type  1   force =     0.00000000    0.00000000    0.00000000
     atom    3 type  2   force =    -0.04135097   -0.04135097    0.00000000
     atom    4 type  2   force =     0.04135097    0.04135097    0.00000000
     atom    5 type  2   force =    -0.04135097    0.04135097    0.00000000
     atom    6 type  2   force =     0.04135097   -0.04135097    0.00000000
     The ionic contribution  to forces
     atom    1 type  1   force =    -0.00000000   -0.00000000    0.00000000
     atom    2 type  1   force =    -0.00000000   -0.00000000    0.00000000
     atom    3 type  2   force =     1.38633658    1.38633658    0.00000000
     atom    4 type  2   force =    -1.38633658   -1.38633658   -0.00000000
     atom    5 type  2   force =     1.38633658   -1.38633658    0.00000000
     atom    6 type  2   force =    -1.38633658    1.38633658    0.00000000
     The local contribution  to forces
     atom    1 type  1   force =     0.00000000    0.00000000    0.00000000
     atom    2 type  1   force =     0.00000000    0.00000000    0.00000000
     atom    3 type  2   force =    -1.36702180   -1.36702180    0.00000000
     atom    4 type  2   force =     1.36702180    1.36702180   -0.00000000
     atom    5 type  2   force =    -1.36702180    1.36702180    0.00000000
     atom    6 type  2   force =     1.36702180   -1.36702180    0.00000000
     The core correction contribution to forces
     atom    1 type  1   force =     0.00000000    0.00000000    0.00000000
     atom    2 type  1   force =     0.00000000    0.00000000    0.00000000
     atom    3 type  2   force =     0.00390647    0.00390647    0.00000000
     atom    4 type  2   force =    -0.00390647   -0.00390647    0.00000000
     atom    5 type  2   force =     0.00390647   -0.00390647   -0.00000000
     atom    6 type  2   force =    -0.00390647    0.00390647   -0.00000000
     The Hubbard contrib.    to forces
     atom    1 type  1   force =     0.00000000    0.00000000    0.00000000
     atom    2 type  1   force =     0.00000000    0.00000000    0.00000000
     atom    3 type  2   force =     0.00000000    0.00000000    0.00000000
     atom    4 type  2   force =     0.00000000    0.00000000    0.00000000
     atom    5 type  2   force =     0.00000000    0.00000000    0.00000000
     atom    6 type  2   force =     0.00000000    0.00000000    0.00000000
     The SCF correction term to forces
     atom    1 type  1   force =    -0.00000000    0.00000000    0.00000000
     atom    2 type  1   force =     0.00000000    0.00000000   -0.00000000
     atom    3 type  2   force =     0.00011494    0.00011494   -0.00000000
     atom    4 type  2   force =    -0.00011494   -0.00011494   -0.00000000
     atom    5 type  2   force =     0.00011494   -0.00011494    0.00000000
     atom    6 type  2   force =    -0.00011494    0.00011494    0.00000000

     Total force =     0.050953     Total SCF correction =     0.000325


     Computing stress (Cartesian axis) and pressure

          total   stress  (Ry/bohr**3)                   (kbar)     P=      -26.96
  -0.00018566   0.00000000   0.00000000          -27.31        0.00        0.00
   0.00000000  -0.00018566   0.00000000            0.00      -27.31        0.00
   0.00000000   0.00000000  -0.00017839            0.00        0.00      -26.24

     kinetic stress (kbar)   4477.47      0.00      0.00
                                0.00   4477.47      0.00
                                0.00      0.00   4472.27

     local   stress (kbar)  -2714.58      0.00     -0.00
                                0.00  -2714.58      0.00
                               -0.00      0.00  -2198.87

     nonloc. stress (kbar)     70.42      0.00      0.00
                                0.00     70.42      0.00
                                0.00      0.00     55.21

     hartree stress (kbar)   2422.37      0.00      0.00
                                0.00   2422.37     -0.00
                                0.00     -0.00   2289.27

     exc-cor stress (kbar)   3792.40      0.00      0.00
                                0.00   3792.40      0.00
                                0.00      0.00   3791.41

     corecor stress (kbar)  -5084.41      0.00     -0.00
                                0.00  -5084.41      0.00
                               -0.00      0.00  -5083.56

     ewald   stress (kbar)  -2990.99     -0.00     -0.00
                               -0.00  -2990.99     -0.00
                               -0.00     -0.00  -3351.97

     hubbard stress (kbar)      0.00      0.00      0.00
                                0.00      0.00      0.00
                                0.00      0.00      0.00

     DFT-D   stress (kbar)      0.00      0.00      0.00
                                0.00      0.00      0.00
                                0.00      0.00      0.00

     XDM     stress (kbar)      0.00      0.00      0.00
                                0.00      0.00      0.00
                                0.00      0.00      0.00

     dft-nl  stress (kbar)      0.00      0.00      0.00
                                0.00      0.00      0.00
                                0.00      0.00      0.00

     TS-vdW  stress (kbar)      0.00      0.00      0.00
                                0.00      0.00      0.00
                                0.00      0.00      0.00



     Writing output data file ./SnI2.save/

     init_run     :     11.91s CPU      7.07s WALL (       1 calls)
     electrons    :    384.18s CPU    204.78s WALL (       1 calls)
     forces       :      4.80s CPU      3.20s WALL (       1 calls)
     stress       :     20.94s CPU     11.32s WALL (       1 calls)

     Called by init_run:
     wfcinit      :      9.44s CPU      5.19s WALL (       1 calls)
     wfcinit:atom :      0.08s CPU      0.04s WALL (      18 calls)
     wfcinit:wfcr :      9.00s CPU      4.84s WALL (      18 calls)
     potinit      :      0.39s CPU      0.24s WALL (       1 calls)
     hinit0       :      0.70s CPU      0.59s WALL (       1 calls)

     Called by electrons:
     c_bands      :    303.45s CPU    158.56s WALL (      12 calls)
     sum_band     :     65.81s CPU     36.58s WALL (      12 calls)
     v_of_rho     :      1.48s CPU      0.87s WALL (      13 calls)
     v_h          :      0.14s CPU      0.07s WALL (      13 calls)
     v_xc         :      1.55s CPU      0.92s WALL (      15 calls)
     newd         :     12.26s CPU      7.82s WALL (      13 calls)
     mix_rho      :      1.09s CPU      0.72s WALL (      12 calls)

     Called by c_bands:
     init_us_2    :      2.15s CPU      1.10s WALL (     486 calls)
     cegterg      :    289.50s CPU    150.06s WALL (     216 calls)

     Called by sum_band:
     sum_band:wei :      0.00s CPU      0.00s WALL (      12 calls)
     sum_band:loo :     54.00s CPU     27.78s WALL (      12 calls)
     sum_band:buf :      0.36s CPU      0.32s WALL (     216 calls)
     sum_band:ini :      0.89s CPU      0.45s WALL (     216 calls)
     sum_band:cal :      4.61s CPU      2.51s WALL (     216 calls)
     sum_band:bec :      5.58s CPU      2.80s WALL (     216 calls)
     addusdens    :     10.56s CPU      7.70s WALL (      12 calls)
     addusd:skk   :      0.02s CPU      0.01s WALL (      24 calls)
     addusd:dgemm :      3.45s CPU      4.11s WALL (      24 calls)
     addusd:qvan2 :      6.85s CPU      3.45s WALL (      24 calls)

     Called by *egterg:
     cdiaghg      :      9.32s CPU      4.90s WALL (    1281 calls)
     cegterg:over :     15.06s CPU      8.12s WALL (    1065 calls)
     cegterg:upda :      6.73s CPU      3.39s WALL (    1065 calls)
     cegterg:last :     11.65s CPU      5.85s WALL (     582 calls)
     h_psi        :    228.01s CPU    117.56s WALL (    1299 calls)
     s_psi        :     16.58s CPU      8.90s WALL (    1299 calls)
     g_psi        :      1.05s CPU      0.53s WALL (    1065 calls)

     Called by h_psi:
     h_psi:calbec :     15.72s CPU      8.63s WALL (    1299 calls)
     vloc_psi     :    197.31s CPU    100.90s WALL (    1299 calls)
     add_vuspsi   :     13.77s CPU      7.40s WALL (    1299 calls)

     General routines
     calbec       :     23.56s CPU     13.55s WALL (    1605 calls)
     fft          :      2.40s CPU      1.50s WALL (     303 calls)
     ffts         :      0.44s CPU      0.24s WALL (     100 calls)
     fftw         :    208.23s CPU    106.61s WALL (  180212 calls)
     interpolate  :      0.60s CPU      0.33s WALL (      52 calls)

     Parallel routines
     fft_scatt_xy :     14.58s CPU      7.38s WALL (  180615 calls)
     fft_scatt_yz :    141.04s CPU     72.80s WALL (  180615 calls)

     PWSCF        :   7m 5.67s CPU   3m54.88s WALL


   This run was terminated on:  10:38:51  31Jan2021            

=------------------------------------------------------------------------------=
   JOB DONE.
=------------------------------------------------------------------------------=
