
     Program PWSCF v.6.7MaX starts on  1Mar2021 at 19:34:21 

     This program is part of the open-source Quantum ESPRESSO suite
     for quantum simulation of materials; please cite
         "P. Giannozzi et al., J. Phys.:Condens. Matter 21 395502 (2009);
         "P. Giannozzi et al., J. Phys.:Condens. Matter 29 465901 (2017);
          URL http://www.quantum-espresso.org", 
     in publications or presentations arising from this work. More details at
     http://www.quantum-espresso.org/quote

     Parallel version (MPI & OpenMP), running on      32 processor cores
     Number of MPI processes:                32
     Threads/MPI process:                     1

     MPI processes distributed on     1 nodes
     R & G space division:  proc/nbgrp/npool/nimage =      32
     Waiting for input...
     Reading input from standard input
Warning: card  &CELL ignored
Warning: card     CELL_DYNAMICS = 'BFGS', ignored
Warning: card / ignored

     Current dimensions of program PWSCF are:
     Max number of different atomic species (ntypx) = 10
     Max number of k-points (npk) =  40000
     Max angular momentum in pseudopotentials (lmaxx) =  3
     file Sn.rel-pbe-dn-rrkjus_psl.1.0.0.UPF: wavefunction(s)  5S 4D 4D renormalized
     file I.rel-pbe-n-rrkjus_psl.1.0.0.UPF: wavefunction(s)  5S renormalized
     file Cs.rel-pbe-spn-rrkjus_psl.1.0.0.UPF: wavefunction(s)  5S 6S renormalized

     Subspace diagonalization in iterative solution of the eigenvalue problem:
     one sub-group per band group will be used
     scalapack distributed-memory algorithm (size of sub-group:  5*  5 procs)

     Found symmetry operation: I + (  0.5000 -0.5000  0.5000)
     This is a supercell, fractional translations are disabled
     Message from routine setup:
     using ibrav=0 with symmetry is DISCOURAGED, use correct ibrav instead
 
     Parallelization info
     --------------------
     sticks:   dense  smooth     PW     G-vecs:    dense   smooth      PW
     Min         576     460    121                58556    41893    5641
     Max         577     462    122                58559    41897    5647
     Sum       18449   14741   3875              1873853  1340633  180603
 

     Title: 
     perovskite                                                                 


     bravais-lattice index     =            0
     lattice parameter (alat)  =      24.3138  a.u.
     unit-cell volume          =   13868.2952 (a.u.)^3
     number of atoms/cell      =           20
     number of atomic types    =            3
     number of electrons       =       176.00
     number of Kohn-Sham states=          200
     kinetic-energy cutoff     =      80.0000  Ry
     charge density cutoff     =     400.0000  Ry
     scf convergence threshold =      1.0E-06
     mixing beta               =       0.5000
     number of iterations used =            8  plain     mixing
     energy convergence thresh.=      1.0E-04
     force convergence thresh. =      1.0E-02
     Exchange-correlation= PBE
                           (   1   4   3   4   0   0   0)
     nstep                     =           50

     Non magnetic calculation with spin-orbit


     celldm(1)=  24.313800  celldm(2)=   0.000000  celldm(3)=   0.000000
     celldm(4)=   0.000000  celldm(5)=   0.000000  celldm(6)=   0.000000

     crystal axes: (cart. coord. in units of alat)
               a(1) = (   1.000000   0.000000   0.000000 )  
               a(2) = (   0.000000   0.979341   0.000000 )  
               a(3) = (   0.000000   0.000000   0.985214 )  

     reciprocal axes: (cart. coord. in units 2 pi/alat)
               b(1) = (  1.000000  0.000000  0.000000 )  
               b(2) = (  0.000000  1.021095  0.000000 )  
               b(3) = (  0.000000  0.000000  1.015008 )  


     PseudoPot. # 1 for Sn read from file:
     ./Sn.rel-pbe-dn-rrkjus_psl.1.0.0.UPF
     MD5 check sum: e9415cc9ba1036dfb73502962f03961a
     Pseudo is Ultrasoft + core correction, Zval = 14.0
     Generated using &quot;atomic&quot; code by A. Dal Corso  v.6.3
     Using radial grid of 1243 points, 10 beta functions with: 
                l(1) =   0
                l(2) =   0
                l(3) =   1
                l(4) =   1
                l(5) =   1
                l(6) =   1
                l(7) =   2
                l(8) =   2
                l(9) =   2
               l(10) =   2
     Q(r) pseudized with 0 coefficients 


     PseudoPot. # 2 for I  read from file:
     ./I.rel-pbe-n-rrkjus_psl.1.0.0.UPF
     MD5 check sum: 6d021d2aa93960f239bd8adb25ac3fd1
     Pseudo is Ultrasoft + core correction, Zval =  7.0
     Generated using &quot;atomic&quot; code by A. Dal Corso  v.6.3
     Using radial grid of 1247 points, 10 beta functions with: 
                l(1) =   0
                l(2) =   0
                l(3) =   1
                l(4) =   1
                l(5) =   1
                l(6) =   1
                l(7) =   2
                l(8) =   2
                l(9) =   2
               l(10) =   2
     Q(r) pseudized with 0 coefficients 


     PseudoPot. # 3 for Cs read from file:
     ./Cs.rel-pbe-spn-rrkjus_psl.1.0.0.UPF
     MD5 check sum: 92f45d5fced885c1284380ec35df8368
     Pseudo is Ultrasoft + core correction, Zval =  9.0
     Generated using &quot;atomic&quot; code by A. Dal Corso  v.6.4.1
     Using radial grid of 1251 points, 15 beta functions with: 
                l(1) =   0
                l(2) =   0
                l(3) =   0
                l(4) =   1
                l(5) =   1
                l(6) =   1
                l(7) =   1
                l(8) =   2
                l(9) =   2
               l(10) =   2
               l(11) =   2
               l(12) =   3
               l(13) =   3
               l(14) =   3
               l(15) =   3
     Q(r) pseudized with 0 coefficients 


     atomic species   valence    mass     pseudopotential
        Sn            14.00   118.70000     Sn( 1.00)
        I              7.00   126.90000     I ( 1.00)
        Cs             9.00   132.90000     Cs( 1.00)

      2 Sym. Ops. (no inversion) found


                                    s                        frac. trans.

      isym =  1     identity                                     

 cryst.   s( 1) = (     1          0          0      )
                  (     0          1          0      )
                  (     0          0          1      )

 cart.    s( 1) = (  1.0000000  0.0000000  0.0000000 )
                  (  0.0000000  1.0000000  0.0000000 )
                  (  0.0000000  0.0000000  1.0000000 )


      isym =  2     180 deg rotation - cart. axis [1,0,0]        

 cryst.   s( 2) = (     1          0          0      )
                  (     0         -1          0      )
                  (     0          0         -1      )

 cart.    s( 2) = (  1.0000000  0.0000000  0.0000000 )
                  (  0.0000000 -1.0000000  0.0000000 )
                  (  0.0000000  0.0000000 -1.0000000 )


   Cartesian axes

     site n.     atom                  positions (alat units)
         1           Cs  tau(   1) = (   0.5470950   0.0000000   0.9852142  )
         2           Cs  tau(   2) = (   0.0470950   0.4896705   0.4926071  )
         3           Cs  tau(   3) = (   0.0470950   0.9793410   0.0000000  )
         4           Cs  tau(   4) = (   0.5470950   0.4896705   0.4926071  )
         5           Sn  tau(   5) = (   0.2960540   0.4896705   0.0000000  )
         6           Sn  tau(   6) = (   0.7960540   0.0000000   0.4926071  )
         7           Sn  tau(   7) = (   0.2960540   0.0000000   0.4926071  )
         8           Sn  tau(   8) = (   0.7960540   0.4896705   0.0000000  )
         9           I   tau(   9) = (   0.8899090   0.1478922   0.7108212  )
        10           I   tau(  10) = (   0.3899090   0.6375627   0.2182141  )
        11           I   tau(  11) = (   0.3899090   0.3417782   0.7670001  )
        12           I   tau(  12) = (   0.8899090   0.8314487   0.2743930  )
        13           I   tau(  13) = (   0.3899090   0.1478922   0.2743930  )
        14           I   tau(  14) = (   0.8899090   0.6375627   0.7670001  )
        15           I   tau(  15) = (   0.8899090   0.3417782   0.2182141  )
        16           I   tau(  16) = (   0.3899090   0.8314487   0.7108212  )
        17           I   tau(  17) = (   0.0739350   0.4896705   0.0000000  )
        18           I   tau(  18) = (   0.5739350   0.0000000   0.4926071  )
        19           I   tau(  19) = (   0.0739350   0.9793410   0.4926071  )
        20           I   tau(  20) = (   0.5739350   0.4896705   0.0000000  )

   Crystallographic axes

     site n.     atom                  positions (cryst. coord.)
         1           Cs  tau(   1) = (  0.5470950  0.0000000  1.0000000  )
         2           Cs  tau(   2) = (  0.0470950  0.5000000  0.5000000  )
         3           Cs  tau(   3) = (  0.0470950  1.0000000  0.0000000  )
         4           Cs  tau(   4) = (  0.5470950  0.5000000  0.5000000  )
         5           Sn  tau(   5) = (  0.2960540  0.5000000  0.0000000  )
         6           Sn  tau(   6) = (  0.7960540  0.0000000  0.5000000  )
         7           Sn  tau(   7) = (  0.2960540  0.0000000  0.5000000  )
         8           Sn  tau(   8) = (  0.7960540  0.5000000  0.0000000  )
         9           I   tau(   9) = (  0.8899090  0.1510120  0.7214890  )
        10           I   tau(  10) = (  0.3899090  0.6510120  0.2214890  )
        11           I   tau(  11) = (  0.3899090  0.3489880  0.7785110  )
        12           I   tau(  12) = (  0.8899090  0.8489880  0.2785110  )
        13           I   tau(  13) = (  0.3899090  0.1510120  0.2785110  )
        14           I   tau(  14) = (  0.8899090  0.6510120  0.7785110  )
        15           I   tau(  15) = (  0.8899090  0.3489880  0.2214890  )
        16           I   tau(  16) = (  0.3899090  0.8489880  0.7214890  )
        17           I   tau(  17) = (  0.0739350  0.5000000  0.0000000  )
        18           I   tau(  18) = (  0.5739350  0.0000000  0.5000000  )
        19           I   tau(  19) = (  0.0739350  1.0000000  0.5000000  )
        20           I   tau(  20) = (  0.5739350  0.5000000  0.0000000  )

     number of k points=     8  Marzari-Vanderbilt smearing, width (Ry)=  0.0200
                       cart. coord. in units 2pi/alat
        k(    1) = (   0.0000000   0.0000000   0.0000000), wk =   0.1250000
        k(    2) = (   0.0000000   0.0000000  -0.5075039), wk =   0.1250000
        k(    3) = (   0.0000000  -0.5105474   0.0000000), wk =   0.1250000
        k(    4) = (   0.0000000  -0.5105474  -0.5075039), wk =   0.1250000
        k(    5) = (  -0.5000000   0.0000000   0.0000000), wk =   0.1250000
        k(    6) = (  -0.5000000   0.0000000  -0.5075039), wk =   0.1250000
        k(    7) = (  -0.5000000  -0.5105474   0.0000000), wk =   0.1250000
        k(    8) = (  -0.5000000  -0.5105474  -0.5075039), wk =   0.1250000

                       cryst. coord.
        k(    1) = (   0.0000000   0.0000000   0.0000000), wk =   0.1250000
        k(    2) = (   0.0000000   0.0000000  -0.5000000), wk =   0.1250000
        k(    3) = (   0.0000000  -0.5000000   0.0000000), wk =   0.1250000
        k(    4) = (   0.0000000  -0.5000000  -0.5000000), wk =   0.1250000
        k(    5) = (  -0.5000000   0.0000000   0.0000000), wk =   0.1250000
        k(    6) = (  -0.5000000   0.0000000  -0.5000000), wk =   0.1250000
        k(    7) = (  -0.5000000  -0.5000000   0.0000000), wk =   0.1250000
        k(    8) = (  -0.5000000  -0.5000000  -0.5000000), wk =   0.1250000

     Dense  grid:  1873853 G-vectors     FFT dimensions: ( 160, 160, 160)

     Smooth grid:  1340633 G-vectors     FFT dimensions: ( 144, 135, 144)

     Dynamical RAM for                 wfc:      31.96 MB

     Dynamical RAM for     wfc (w. buffer):     287.62 MB

     Dynamical RAM for           str. fact:       2.68 MB

     Dynamical RAM for           local pot:       0.00 MB

     Dynamical RAM for          nlocal pot:      63.60 MB

     Dynamical RAM for                qrad:      38.53 MB

     Dynamical RAM for          rho,v,vnew:      22.44 MB

     Dynamical RAM for               rhoin:       7.48 MB

     Dynamical RAM for            rho*nmix:      57.19 MB

     Dynamical RAM for           G-vectors:       3.67 MB

     Dynamical RAM for          h,s,v(r/c):       0.29 MB

     Dynamical RAM for          <psi|beta>:       4.86 MB

     Dynamical RAM for                 psi:      63.92 MB

     Dynamical RAM for                hpsi:      63.92 MB

     Dynamical RAM for                spsi:      63.92 MB

     Dynamical RAM for      wfcinit/wfcrot:      50.85 MB

     Dynamical RAM for           addusdens:    1836.22 MB

     Dynamical RAM for          addusforce:    1856.88 MB

     Dynamical RAM for         addusstress:    1852.31 MB

     Estimated static dynamical RAM per process >     494.59 MB

     Estimated max dynamical RAM per process >       2.30 GB

     Estimated total dynamical RAM >      73.48 GB

     Initial potential from superposition of free atoms

     starting charge  175.83606, renormalised to  176.00000
     Starting wfcs are  208 randomized atomic wfcs

     total cpu time spent up to now is       37.1 secs

     Self-consistent Calculation

     iteration #  1     ecut=    80.00 Ry     beta= 0.50
     Davidson diagonalization with overlap
     ethr =  1.00E-02,  avg # of iterations =  2.0

     Threshold (ethr) on eigenvalues was too large:
     Diagonalizing with lowered threshold

     Davidson diagonalization with overlap
     ethr =  8.82E-04,  avg # of iterations =  1.6

     total cpu time spent up to now is      214.7 secs

     total energy              =   -1269.13670523 Ry
     estimated scf accuracy    <       1.50233611 Ry

     iteration #  2     ecut=    80.00 Ry     beta= 0.50
     Davidson diagonalization with overlap
     ethr =  8.54E-04,  avg # of iterations =  2.0

     total cpu time spent up to now is      322.8 secs

     total energy              =   -1269.41885686 Ry
     estimated scf accuracy    <       0.59120228 Ry

     iteration #  3     ecut=    80.00 Ry     beta= 0.50
     Davidson diagonalization with overlap
     ethr =  3.36E-04,  avg # of iterations =  2.0

     total cpu time spent up to now is      416.6 secs

     total energy              =   -1269.56023248 Ry
     estimated scf accuracy    <       0.06928389 Ry

     iteration #  4     ecut=    80.00 Ry     beta= 0.50
     Davidson diagonalization with overlap
     ethr =  3.94E-05,  avg # of iterations =  7.1

     total cpu time spent up to now is      530.3 secs

     total energy              =   -1269.57444071 Ry
     estimated scf accuracy    <       0.00700878 Ry

     iteration #  5     ecut=    80.00 Ry     beta= 0.50
     Davidson diagonalization with overlap
     c_bands:  4 eigenvalues not converged

 %%%%%%%%%%%%%%%%%%%%%%%%%%%%%%%%%%%%%%%%%%%%%%%%%%%%%%%%%%%%%%%%%%%%%%%%%%%%%%
     Error in routine  cdiaghg (268):
      problems computing cholesky
 %%%%%%%%%%%%%%%%%%%%%%%%%%%%%%%%%%%%%%%%%%%%%%%%%%%%%%%%%%%%%%%%%%%%%%%%%%%%%%

     stopping ...

 %%%%%%%%%%%%%%%%%%%%%%%%%%%%%%%%%%%%%%%%%%%%%%%%%%%%%%%%%%%%%%%%%%%%%%%%%%%%%%
     Error in routine  cdiaghg (268):
      problems computing cholesky
 %%%%%%%%%%%%%%%%%%%%%%%%%%%%%%%%%%%%%%%%%%%%%%%%%%%%%%%%%%%%%%%%%%%%%%%%%%%%%%

     stopping ...

 %%%%%%%%%%%%%%%%%%%%%%%%%%%%%%%%%%%%%%%%%%%%%%%%%%%%%%%%%%%%%%%%%%%%%%%%%%%%%%
     Error in routine  cdiaghg (268):
      problems computing cholesky
 %%%%%%%%%%%%%%%%%%%%%%%%%%%%%%%%%%%%%%%%%%%%%%%%%%%%%%%%%%%%%%%%%%%%%%%%%%%%%%

     stopping ...

 %%%%%%%%%%%%%%%%%%%%%%%%%%%%%%%%%%%%%%%%%%%%%%%%%%%%%%%%%%%%%%%%%%%%%%%%%%%%%%
     Error in routine  cdiaghg (268):
      problems computing cholesky
 %%%%%%%%%%%%%%%%%%%%%%%%%%%%%%%%%%%%%%%%%%%%%%%%%%%%%%%%%%%%%%%%%%%%%%%%%%%%%%

     stopping ...
