
     Program PWSCF v.6.7MaX starts on 31Jan2021 at 10:31:36 

     This program is part of the open-source Quantum ESPRESSO suite
     for quantum simulation of materials; please cite
         "P. Giannozzi et al., J. Phys.:Condens. Matter 21 395502 (2009);
         "P. Giannozzi et al., J. Phys.:Condens. Matter 29 465901 (2017);
          URL http://www.quantum-espresso.org", 
     in publications or presentations arising from this work. More details at
     http://www.quantum-espresso.org/quote

     Parallel version (MPI & OpenMP), running on      96 processor cores
     Number of MPI processes:                48
     Threads/MPI process:                     2

     MPI processes distributed on     2 nodes
     R & G space division:  proc/nbgrp/npool/nimage =      48
     Waiting for input...
     Reading input from standard input

     Current dimensions of program PWSCF are:
     Max number of different atomic species (ntypx) = 10
     Max number of k-points (npk) =  40000
     Max angular momentum in pseudopotentials (lmaxx) =  3
     file Sn.rel-pbesol-dn-rrkjus_psl.1.0.0.UPF: wavefunction(s)  5S 4D 4D renormalized
     file I.rel-pbesol-n-rrkjus_psl.1.0.0.UPF: wavefunction(s)  5S renormalized

     Subspace diagonalization in iterative solution of the eigenvalue problem:
     a serial algorithm will be used


     Parallelization info
     --------------------
     sticks:   dense  smooth     PW     G-vecs:    dense   smooth      PW
     Min         137     110     29                 8441     6034     837
     Max         138     112     30                 8446     6038     840
     Sum        6613    5297   1425               405263   289715   40243


     Title: 
     SnI2                                                                       


     bravais-lattice index     =            1
     lattice parameter (alat)  =      14.4199  a.u.
     unit-cell volume          =    2998.4083 (a.u.)^3
     number of atoms/cell      =            6
     number of atomic types    =            2
     number of electrons       =        56.00
     number of Kohn-Sham states=           56
     kinetic-energy cutoff     =      80.0000  Ry
     charge density cutoff     =     400.0000  Ry
     scf convergence threshold =      1.0E-06
     mixing beta               =       0.3500
     number of iterations used =            8  plain     mixing
     Exchange-correlation= PBESOL
                           (   1   4  10   8   0   0   0)
     Non magnetic calculation with spin-orbit


     celldm(1)=  14.419944  celldm(2)=   0.000000  celldm(3)=   0.000000
     celldm(4)=   0.000000  celldm(5)=   0.000000  celldm(6)=   0.000000

     crystal axes: (cart. coord. in units of alat)
               a(1) = (   1.000000   0.000000   0.000000 )  
               a(2) = (   0.000000   1.000000   0.000000 )  
               a(3) = (   0.000000   0.000000   1.000000 )  

     reciprocal axes: (cart. coord. in units 2 pi/alat)
               b(1) = (  1.000000  0.000000  0.000000 )  
               b(2) = (  0.000000  1.000000  0.000000 )  
               b(3) = (  0.000000  0.000000  1.000000 )  


     PseudoPot. # 1 for Sn read from file:
     /scratch/cmalosso/degironcoli/pseudo/pseudo-usp/Sn.rel-pbesol-dn-rrkjus_psl.1.0.0.UPF
     MD5 check sum: c1cf6ea56b96a3656bdf0d1db379e093
     Pseudo is Ultrasoft + core correction, Zval = 14.0
     Generated using &quot;atomic&quot; code by A. Dal Corso  v.6.3
     Using radial grid of 1243 points, 10 beta functions with: 
                l(1) =   0
                l(2) =   0
                l(3) =   1
                l(4) =   1
                l(5) =   1
                l(6) =   1
                l(7) =   2
                l(8) =   2
                l(9) =   2
               l(10) =   2
     Q(r) pseudized with 0 coefficients 


     PseudoPot. # 2 for I  read from file:
     /scratch/cmalosso/degironcoli/pseudo/pseudo-usp/I.rel-pbesol-n-rrkjus_psl.1.0.0.UPF
     MD5 check sum: 0f96c6bfb1b448f280658f96eb466b08
     Pseudo is Ultrasoft + core correction, Zval =  7.0
     Generated using &quot;atomic&quot; code by A. Dal Corso  v.6.3
     Using radial grid of 1247 points, 10 beta functions with: 
                l(1) =   0
                l(2) =   0
                l(3) =   1
                l(4) =   1
                l(5) =   1
                l(6) =   1
                l(7) =   2
                l(8) =   2
                l(9) =   2
               l(10) =   2
     Q(r) pseudized with 0 coefficients 


     atomic species   valence    mass     pseudopotential
        Sn            14.00   118.70000     Sn( 1.00)
        I              7.00   126.90000     I ( 1.00)

     16 Sym. Ops., with inversion, found ( 8 have fractional translation)


                                    s                        frac. trans.

      isym =  1     identity                                     

 cryst.   s( 1) = (     1          0          0      )
                  (     0          1          0      )
                  (     0          0          1      )

 cart.    s( 1) = (  1.0000000  0.0000000  0.0000000 )
                  (  0.0000000  1.0000000  0.0000000 )
                  (  0.0000000  0.0000000  1.0000000 )


      isym =  2     180 deg rotation - cart. axis [0,0,1]        

 cryst.   s( 2) = (    -1          0          0      )
                  (     0         -1          0      )
                  (     0          0          1      )

 cart.    s( 2) = ( -1.0000000  0.0000000  0.0000000 )
                  (  0.0000000 -1.0000000  0.0000000 )
                  (  0.0000000  0.0000000  1.0000000 )


      isym =  3     180 deg rotation - cart. axis [0,1,0]        

 cryst.   s( 3) = (    -1          0          0      )    f =(  0.5000000 )
                  (     0          1          0      )       ( -0.5000000 )
                  (     0          0         -1      )       (  0.5000000 )

 cart.    s( 3) = ( -1.0000000  0.0000000  0.0000000 )    f =(  0.5000000 )
                  (  0.0000000  1.0000000  0.0000000 )       ( -0.5000000 )
                  (  0.0000000  0.0000000 -1.0000000 )       (  0.5000000 )


      isym =  4     180 deg rotation - cart. axis [1,0,0]        

 cryst.   s( 4) = (     1          0          0      )    f =( -0.5000000 )
                  (     0         -1          0      )       (  0.5000000 )
                  (     0          0         -1      )       (  0.5000000 )

 cart.    s( 4) = (  1.0000000  0.0000000  0.0000000 )    f =( -0.5000000 )
                  (  0.0000000 -1.0000000  0.0000000 )       (  0.5000000 )
                  (  0.0000000  0.0000000 -1.0000000 )       (  0.5000000 )


      isym =  5     180 deg rotation - cart. axis [1,1,0]        

 cryst.   s( 5) = (     0          1          0      )
                  (     1          0          0      )
                  (     0          0         -1      )

 cart.    s( 5) = (  0.0000000  1.0000000  0.0000000 )
                  (  1.0000000  0.0000000  0.0000000 )
                  (  0.0000000  0.0000000 -1.0000000 )


      isym =  6     180 deg rotation - cart. axis [1,-1,0]       

 cryst.   s( 6) = (     0         -1          0      )
                  (    -1          0          0      )
                  (     0          0         -1      )

 cart.    s( 6) = (  0.0000000 -1.0000000  0.0000000 )
                  ( -1.0000000  0.0000000  0.0000000 )
                  (  0.0000000  0.0000000 -1.0000000 )


      isym =  7      90 deg rotation - cart. axis [0,0,-1]       

 cryst.   s( 7) = (     0         -1          0      )    f =( -0.5000000 )
                  (     1          0          0      )       (  0.5000000 )
                  (     0          0          1      )       ( -0.5000000 )

 cart.    s( 7) = (  0.0000000  1.0000000  0.0000000 )    f =( -0.5000000 )
                  ( -1.0000000  0.0000000  0.0000000 )       (  0.5000000 )
                  (  0.0000000  0.0000000  1.0000000 )       ( -0.5000000 )


      isym =  8      90 deg rotation - cart. axis [0,0,1]        

 cryst.   s( 8) = (     0          1          0      )    f =(  0.5000000 )
                  (    -1          0          0      )       ( -0.5000000 )
                  (     0          0          1      )       ( -0.5000000 )

 cart.    s( 8) = (  0.0000000 -1.0000000  0.0000000 )    f =(  0.5000000 )
                  (  1.0000000  0.0000000  0.0000000 )       ( -0.5000000 )
                  (  0.0000000  0.0000000  1.0000000 )       ( -0.5000000 )


      isym =  9     inversion                                    

 cryst.   s( 9) = (    -1          0          0      )
                  (     0         -1          0      )
                  (     0          0         -1      )

 cart.    s( 9) = ( -1.0000000  0.0000000  0.0000000 )
                  (  0.0000000 -1.0000000  0.0000000 )
                  (  0.0000000  0.0000000 -1.0000000 )


      isym = 10     inv. 180 deg rotation - cart. axis [0,0,1]   

 cryst.   s(10) = (     1          0          0      )
                  (     0          1          0      )
                  (     0          0         -1      )

 cart.    s(10) = (  1.0000000  0.0000000  0.0000000 )
                  (  0.0000000  1.0000000  0.0000000 )
                  (  0.0000000  0.0000000 -1.0000000 )


      isym = 11     inv. 180 deg rotation - cart. axis [0,1,0]   

 cryst.   s(11) = (     1          0          0      )    f =( -0.5000000 )
                  (     0         -1          0      )       (  0.5000000 )
                  (     0          0          1      )       ( -0.5000000 )

 cart.    s(11) = (  1.0000000  0.0000000  0.0000000 )    f =( -0.5000000 )
                  (  0.0000000 -1.0000000  0.0000000 )       (  0.5000000 )
                  (  0.0000000  0.0000000  1.0000000 )       ( -0.5000000 )


      isym = 12     inv. 180 deg rotation - cart. axis [1,0,0]   

 cryst.   s(12) = (    -1          0          0      )    f =(  0.5000000 )
                  (     0          1          0      )       ( -0.5000000 )
                  (     0          0          1      )       ( -0.5000000 )

 cart.    s(12) = ( -1.0000000  0.0000000  0.0000000 )    f =(  0.5000000 )
                  (  0.0000000  1.0000000  0.0000000 )       ( -0.5000000 )
                  (  0.0000000  0.0000000  1.0000000 )       ( -0.5000000 )


      isym = 13     inv. 180 deg rotation - cart. axis [1,1,0]   

 cryst.   s(13) = (     0         -1          0      )
                  (    -1          0          0      )
                  (     0          0          1      )

 cart.    s(13) = (  0.0000000 -1.0000000  0.0000000 )
                  ( -1.0000000  0.0000000  0.0000000 )
                  (  0.0000000  0.0000000  1.0000000 )


      isym = 14     inv. 180 deg rotation - cart. axis [1,-1,0]  

 cryst.   s(14) = (     0          1          0      )
                  (     1          0          0      )
                  (     0          0          1      )

 cart.    s(14) = (  0.0000000  1.0000000  0.0000000 )
                  (  1.0000000  0.0000000  0.0000000 )
                  (  0.0000000  0.0000000  1.0000000 )


      isym = 15     inv.  90 deg rotation - cart. axis [0,0,-1]  

 cryst.   s(15) = (     0          1          0      )    f =(  0.5000000 )
                  (    -1          0          0      )       ( -0.5000000 )
                  (     0          0         -1      )       (  0.5000000 )

 cart.    s(15) = (  0.0000000 -1.0000000  0.0000000 )    f =(  0.5000000 )
                  (  1.0000000  0.0000000  0.0000000 )       ( -0.5000000 )
                  (  0.0000000  0.0000000 -1.0000000 )       (  0.5000000 )


      isym = 16     inv.  90 deg rotation - cart. axis [0,0,1]   

 cryst.   s(16) = (     0         -1          0      )    f =( -0.5000000 )
                  (     1          0          0      )       (  0.5000000 )
                  (     0          0         -1      )       (  0.5000000 )

 cart.    s(16) = (  0.0000000  1.0000000  0.0000000 )    f =( -0.5000000 )
                  ( -1.0000000  0.0000000  0.0000000 )       (  0.5000000 )
                  (  0.0000000  0.0000000 -1.0000000 )       (  0.5000000 )


     double point group D_4h(4/mmm)
     there are 14 classes and  4 irreducible representations
     the character table:

       E     -E    2C4   -2C4   C2    2C2' 2C2'' i     -i    2S4   -2S4   s_h 
                               -C2   -2C2' -2C2'                         -s_h 
G_6+   2.00 -2.00  1.41 -1.41  0.00  0.00  0.00  2.00 -2.00  1.41 -1.41  0.00
G_7+   2.00 -2.00 -1.41  1.41  0.00  0.00  0.00  2.00 -2.00 -1.41  1.41  0.00
G_6-   2.00 -2.00  1.41 -1.41  0.00  0.00  0.00 -2.00  2.00 -1.41  1.41  0.00
G_7-   2.00 -2.00 -1.41  1.41  0.00  0.00  0.00 -2.00  2.00  1.41 -1.41  0.00

        2s_v  2s_d
       -2s_v -2s_d
G_6+   0.00  0.00
G_7+   0.00  0.00
G_6-   0.00  0.00
G_7-   0.00  0.00

     the symmetry operations in each class and the name of the first element:

     E             1
          identity                                               
     -E           -1
          identity E                                             
     2C4           7    8
           90 deg rotation - cart. axis [0,0,-1]                 
     -2C4         -7   -8
           90 deg rotation - cart. axis [0,0,-1] E               
      C2  -C2      2   -2
          180 deg rotation - cart. axis [0,0,1]                  
      2C2'-2C2'    3   -3    4   -4
          180 deg rotation - cart. axis [0,1,0]                  
     2C2''-2C2'    5   -5   -6    6
          180 deg rotation - cart. axis [1,1,0]                  
     i             9
          inversion                                              
     -i           -9
          inversion E                                            
     2S4          15   16
          inv.  90 deg rotation - cart. axis [0,0,-1]            
     -2S4        -15  -16
          inv.  90 deg rotation - cart. axis [0,0,-1] E          
      s_h -s_h    10  -10
          inv. 180 deg rotation - cart. axis [0,0,1]             
      2s_v-2s_v   11  -11   12  -12
          inv. 180 deg rotation - cart. axis [0,1,0]             
      2s_d-2s_d   13  -13  -14   14
          inv. 180 deg rotation - cart. axis [1,1,0]             

   Cartesian axes

     site n.     atom                  positions (alat units)
         1           Sn  tau(   1) = (   0.0000000   0.0000000   0.0000000  )
         2           Sn  tau(   2) = (   0.5000000   0.5000000   0.5000000  )
         3           I   tau(   3) = (   0.2985210   0.2985210   0.0000000  )
         4           I   tau(   4) = (   0.7014790   0.7014790   0.0000000  )
         5           I   tau(   5) = (   0.7985210   0.2014790   0.5000000  )
         6           I   tau(   6) = (   0.2014790   0.7985210   0.5000000  )

   Crystallographic axes

     site n.     atom                  positions (cryst. coord.)
         1           Sn  tau(   1) = (  0.0000000  0.0000000  0.0000000  )
         2           Sn  tau(   2) = (  0.5000000  0.5000000  0.5000000  )
         3           I   tau(   3) = (  0.2985210  0.2985210  0.0000000  )
         4           I   tau(   4) = (  0.7014790  0.7014790  0.0000000  )
         5           I   tau(   5) = (  0.7985210  0.2014790  0.5000000  )
         6           I   tau(   6) = (  0.2014790  0.7985210  0.5000000  )

     number of k points=    18
                       cart. coord. in units 2pi/alat
        k(    1) = (   0.0833333   0.0833333   0.0833333), wk =   0.0370370
        k(    2) = (   0.0833333   0.0833333   0.2500000), wk =   0.0370370
        k(    3) = (   0.0833333   0.0833333   0.4166667), wk =   0.0370370
        k(    4) = (   0.0833333   0.2500000   0.2500000), wk =   0.0740741
        k(    5) = (   0.0833333   0.2500000   0.4166667), wk =   0.0740741
        k(    6) = (   0.0833333   0.4166667   0.4166667), wk =   0.0740741
        k(    7) = (   0.2500000   0.2500000   0.2500000), wk =   0.0370370
        k(    8) = (   0.2500000   0.2500000   0.4166667), wk =   0.0370370
        k(    9) = (   0.2500000   0.4166667   0.4166667), wk =   0.0740741
        k(   10) = (   0.4166667   0.4166667   0.4166667), wk =   0.0370370
        k(   11) = (   0.0833333   0.2500000   0.0833333), wk =   0.0740741
        k(   12) = (   0.0833333   0.4166667   0.0833333), wk =   0.0740741
        k(   13) = (   0.2500000   0.2500000   0.0833333), wk =   0.0370370
        k(   14) = (   0.2500000   0.4166667   0.0833333), wk =   0.0740741
        k(   15) = (   0.4166667   0.0833333   0.2500000), wk =   0.0740741
        k(   16) = (   0.4166667   0.4166667   0.0833333), wk =   0.0370370
        k(   17) = (   0.2500000   0.4166667   0.2500000), wk =   0.0740741
        k(   18) = (   0.4166667   0.4166667   0.2500000), wk =   0.0370370

                       cryst. coord.
        k(    1) = (   0.0833333   0.0833333   0.0833333), wk =   0.0370370
        k(    2) = (   0.0833333   0.0833333   0.2500000), wk =   0.0370370
        k(    3) = (   0.0833333   0.0833333   0.4166667), wk =   0.0370370
        k(    4) = (   0.0833333   0.2500000   0.2500000), wk =   0.0740741
        k(    5) = (   0.0833333   0.2500000   0.4166667), wk =   0.0740741
        k(    6) = (   0.0833333   0.4166667   0.4166667), wk =   0.0740741
        k(    7) = (   0.2500000   0.2500000   0.2500000), wk =   0.0370370
        k(    8) = (   0.2500000   0.2500000   0.4166667), wk =   0.0370370
        k(    9) = (   0.2500000   0.4166667   0.4166667), wk =   0.0740741
        k(   10) = (   0.4166667   0.4166667   0.4166667), wk =   0.0370370
        k(   11) = (   0.0833333   0.2500000   0.0833333), wk =   0.0740741
        k(   12) = (   0.0833333   0.4166667   0.0833333), wk =   0.0740741
        k(   13) = (   0.2500000   0.2500000   0.0833333), wk =   0.0370370
        k(   14) = (   0.2500000   0.4166667   0.0833333), wk =   0.0740741
        k(   15) = (   0.4166667   0.0833333   0.2500000), wk =   0.0740741
        k(   16) = (   0.4166667   0.4166667   0.0833333), wk =   0.0370370
        k(   17) = (   0.2500000   0.4166667   0.2500000), wk =   0.0740741
        k(   18) = (   0.4166667   0.4166667   0.2500000), wk =   0.0370370

     Dense  grid:   405263 G-vectors     FFT dimensions: (  96,  96,  96)

     Smooth grid:   289715 G-vectors     FFT dimensions: (  90,  90,  90)

     Dynamical RAM for                 wfc:       1.29 MB

     Dynamical RAM for     wfc (w. buffer):      24.48 MB

     Dynamical RAM for           str. fact:       0.26 MB

     Dynamical RAM for           local pot:       0.00 MB

     Dynamical RAM for          nlocal pot:       2.35 MB

     Dynamical RAM for                qrad:       8.41 MB

     Dynamical RAM for          rho,v,vnew:       3.23 MB

     Dynamical RAM for               rhoin:       1.08 MB

     Dynamical RAM for            rho*nmix:       8.25 MB

     Dynamical RAM for           G-vectors:       0.53 MB

     Dynamical RAM for          h,s,v(r/c):       0.57 MB

     Dynamical RAM for          <psi|beta>:       0.35 MB

     Dynamical RAM for                 psi:       2.58 MB

     Dynamical RAM for                hpsi:       2.58 MB

     Dynamical RAM for                spsi:       2.58 MB

     Dynamical RAM for      wfcinit/wfcrot:       2.45 MB

     Dynamical RAM for           addusdens:      79.11 MB

     Dynamical RAM for          addusforce:      80.00 MB

     Dynamical RAM for         addusstress:      80.91 MB

     Estimated static dynamical RAM per process >      50.10 MB

     Estimated max dynamical RAM per process >     131.01 MB

     Estimated total dynamical RAM >       6.14 GB

     Initial potential from superposition of free atoms

     starting charge   55.99772, renormalised to   56.00000
     Starting wfcs are   68 randomized atomic wfcs

     total cpu time spent up to now is        6.7 secs

     Self-consistent Calculation

     iteration #  1     ecut=    80.00 Ry     beta= 0.35
     Davidson diagonalization with overlap
     ethr =  1.00E-02,  avg # of iterations =  1.0

     total cpu time spent up to now is       16.6 secs

     total energy              =    -458.30054399 Ry
     estimated scf accuracy    <       0.58843042 Ry

     iteration #  2     ecut=    80.00 Ry     beta= 0.35
     Davidson diagonalization with overlap
     ethr =  1.05E-03,  avg # of iterations =  3.0

     total cpu time spent up to now is       28.7 secs

     total energy              =    -458.37746480 Ry
     estimated scf accuracy    <       0.06240099 Ry

     iteration #  3     ecut=    80.00 Ry     beta= 0.35
     Davidson diagonalization with overlap
     ethr =  1.11E-04,  avg # of iterations =  5.8

     total cpu time spent up to now is       43.7 secs

     total energy              =    -458.39120515 Ry
     estimated scf accuracy    <       0.04750693 Ry

     iteration #  4     ecut=    80.00 Ry     beta= 0.35
     Davidson diagonalization with overlap
     ethr =  8.48E-05,  avg # of iterations =  5.3

     total cpu time spent up to now is       57.9 secs

     total energy              =    -458.40179713 Ry
     estimated scf accuracy    <       0.03308433 Ry

     iteration #  5     ecut=    80.00 Ry     beta= 0.35
     Davidson diagonalization with overlap
     ethr =  5.91E-05,  avg # of iterations =  5.0

     total cpu time spent up to now is       70.2 secs

     total energy              =    -458.40813427 Ry
     estimated scf accuracy    <       0.00086328 Ry

     iteration #  6     ecut=    80.00 Ry     beta= 0.35
     Davidson diagonalization with overlap
     ethr =  1.54E-06,  avg # of iterations = 10.2

     total cpu time spent up to now is       89.4 secs

     total energy              =    -458.40648228 Ry
     estimated scf accuracy    <       0.00861706 Ry

     iteration #  7     ecut=    80.00 Ry     beta= 0.35
     Davidson diagonalization with overlap
     ethr =  1.54E-06,  avg # of iterations =  7.3

     total cpu time spent up to now is      105.8 secs

     total energy              =    -458.40864897 Ry
     estimated scf accuracy    <       0.00074542 Ry

     iteration #  8     ecut=    80.00 Ry     beta= 0.35
     Davidson diagonalization with overlap
     ethr =  1.33E-06,  avg # of iterations =  2.8

     total cpu time spent up to now is      117.1 secs

     total energy              =    -458.40873641 Ry
     estimated scf accuracy    <       0.00005361 Ry

     iteration #  9     ecut=    80.00 Ry     beta= 0.35
     Davidson diagonalization with overlap
     ethr =  9.57E-08,  avg # of iterations =  6.9

     total cpu time spent up to now is      131.9 secs

     total energy              =    -458.40876952 Ry
     estimated scf accuracy    <       0.00000195 Ry

     iteration # 10     ecut=    80.00 Ry     beta= 0.35
     Davidson diagonalization with overlap
     ethr =  3.47E-09,  avg # of iterations =  8.8

     total cpu time spent up to now is      148.7 secs

     total energy              =    -458.40876935 Ry
     estimated scf accuracy    <       0.00001057 Ry

     iteration # 11     ecut=    80.00 Ry     beta= 0.35
     Davidson diagonalization with overlap
     ethr =  3.47E-09,  avg # of iterations =  4.4

     total cpu time spent up to now is      160.7 secs

     total energy              =    -458.40876887 Ry
     estimated scf accuracy    <       0.00000288 Ry

     iteration # 12     ecut=    80.00 Ry     beta= 0.35
     Davidson diagonalization with overlap
     ethr =  3.47E-09,  avg # of iterations =  5.2

     total cpu time spent up to now is      173.8 secs

     End of self-consistent calculation

          k = 0.0833 0.0833 0.0833 ( 36254 PWs)   bands (ev):

   -23.2600 -23.2600 -23.2599 -23.2599 -23.1350 -23.1350 -23.1350 -23.1350
   -22.2396 -22.2396 -22.2396 -22.2396 -22.1307 -22.1307 -22.1307 -22.1307
   -22.0798 -22.0798 -22.0797 -22.0797 -11.6213 -11.6213 -11.5307 -11.5307
   -11.4810 -11.4810 -11.4767 -11.4767  -7.0746  -7.0746  -6.8751  -6.8751
    -2.6883  -2.6883  -2.5267  -2.5267  -2.1403  -2.1403  -2.0292  -2.0292
    -1.8817  -1.8817  -1.5298  -1.5298  -1.2264  -1.2264  -1.1332  -1.1332
    -1.1083  -1.1083  -0.9959  -0.9959  -0.9242  -0.9242  -0.8837  -0.8837

     occupation numbers 
     1.0000   1.0000   1.0000   1.0000   1.0000   1.0000   1.0000   1.0000
     1.0000   1.0000   1.0000   1.0000   1.0000   1.0000   1.0000   1.0000
     1.0000   1.0000   1.0000   1.0000   1.0000   1.0000   1.0000   1.0000
     1.0000   1.0000   1.0000   1.0000   1.0000   1.0000   1.0000   1.0000
     1.0000   1.0000   1.0000   1.0000   1.0000   1.0000   1.0000   1.0000
     1.0000   1.0000   1.0000   1.0000   1.0000   1.0000   1.0000   1.0000
     1.0000   1.0000   1.0000   1.0000   1.0000   1.0000   1.0000   1.0000

          k = 0.0833 0.0833 0.2500 ( 36242 PWs)   bands (ev):

   -23.2600 -23.2600 -23.2599 -23.2599 -23.1350 -23.1350 -23.1350 -23.1350
   -22.2396 -22.2396 -22.2396 -22.2396 -22.1307 -22.1307 -22.1307 -22.1307
   -22.0798 -22.0798 -22.0797 -22.0797 -11.6090 -11.6090 -11.5425 -11.5425
   -11.4810 -11.4810 -11.4765 -11.4765  -7.0545  -7.0545  -6.9088  -6.9088
    -2.6756  -2.6756  -2.5239  -2.5239  -2.1289  -2.1289  -2.0076  -2.0076
    -1.8561  -1.8561  -1.5543  -1.5543  -1.2242  -1.2242  -1.1743  -1.1743
    -1.1317  -1.1317  -1.0239  -1.0239  -0.9345  -0.9345  -0.8971  -0.8971

     occupation numbers 
     1.0000   1.0000   1.0000   1.0000   1.0000   1.0000   1.0000   1.0000
     1.0000   1.0000   1.0000   1.0000   1.0000   1.0000   1.0000   1.0000
     1.0000   1.0000   1.0000   1.0000   1.0000   1.0000   1.0000   1.0000
     1.0000   1.0000   1.0000   1.0000   1.0000   1.0000   1.0000   1.0000
     1.0000   1.0000   1.0000   1.0000   1.0000   1.0000   1.0000   1.0000
     1.0000   1.0000   1.0000   1.0000   1.0000   1.0000   1.0000   1.0000
     1.0000   1.0000   1.0000   1.0000   1.0000   1.0000   1.0000   1.0000

          k = 0.0833 0.0833 0.4167 ( 36256 PWs)   bands (ev):

   -23.2600 -23.2600 -23.2599 -23.2599 -23.1350 -23.1350 -23.1350 -23.1350
   -22.2396 -22.2396 -22.2396 -22.2396 -22.1307 -22.1307 -22.1307 -22.1307
   -22.0798 -22.0798 -22.0797 -22.0797 -11.5878 -11.5878 -11.5631 -11.5631
   -11.4809 -11.4809 -11.4763 -11.4763  -7.0152  -7.0152  -6.9617  -6.9617
    -2.6634  -2.6634  -2.5199  -2.5199  -2.1277  -2.1277  -1.9902  -1.9902
    -1.7897  -1.7897  -1.6112  -1.6112  -1.2230  -1.2230  -1.2031  -1.2031
    -1.1354  -1.1354  -1.0586  -1.0586  -0.9615  -0.9615  -0.9112  -0.9112

     occupation numbers 
     1.0000   1.0000   1.0000   1.0000   1.0000   1.0000   1.0000   1.0000
     1.0000   1.0000   1.0000   1.0000   1.0000   1.0000   1.0000   1.0000
     1.0000   1.0000   1.0000   1.0000   1.0000   1.0000   1.0000   1.0000
     1.0000   1.0000   1.0000   1.0000   1.0000   1.0000   1.0000   1.0000
     1.0000   1.0000   1.0000   1.0000   1.0000   1.0000   1.0000   1.0000
     1.0000   1.0000   1.0000   1.0000   1.0000   1.0000   1.0000   1.0000
     1.0000   1.0000   1.0000   1.0000   1.0000   1.0000   1.0000   1.0000

          k = 0.0833 0.2500 0.2500 ( 36257 PWs)   bands (ev):

   -23.2600 -23.2600 -23.2599 -23.2599 -23.1350 -23.1350 -23.1350 -23.1350
   -22.2396 -22.2396 -22.2396 -22.2396 -22.1307 -22.1307 -22.1307 -22.1307
   -22.0798 -22.0798 -22.0797 -22.0797 -11.5940 -11.5940 -11.5377 -11.5377
   -11.4955 -11.4955 -11.4826 -11.4826  -7.0315  -7.0315  -6.9241  -6.9241
    -2.8229  -2.8229  -2.6488  -2.6488  -2.0989  -2.0989  -1.9414  -1.9414
    -1.8141  -1.8141  -1.5762  -1.5762  -1.2496  -1.2496  -1.1820  -1.1820
    -1.0525  -1.0525  -0.9638  -0.9638  -0.8990  -0.8990  -0.7151  -0.7151

     occupation numbers 
     1.0000   1.0000   1.0000   1.0000   1.0000   1.0000   1.0000   1.0000
     1.0000   1.0000   1.0000   1.0000   1.0000   1.0000   1.0000   1.0000
     1.0000   1.0000   1.0000   1.0000   1.0000   1.0000   1.0000   1.0000
     1.0000   1.0000   1.0000   1.0000   1.0000   1.0000   1.0000   1.0000
     1.0000   1.0000   1.0000   1.0000   1.0000   1.0000   1.0000   1.0000
     1.0000   1.0000   1.0000   1.0000   1.0000   1.0000   1.0000   1.0000
     1.0000   1.0000   1.0000   1.0000   1.0000   1.0000   1.0000   1.0000

          k = 0.0833 0.2500 0.4167 ( 36241 PWs)   bands (ev):

   -23.2600 -23.2600 -23.2599 -23.2599 -23.1350 -23.1350 -23.1350 -23.1350
   -22.2396 -22.2396 -22.2396 -22.2396 -22.1307 -22.1307 -22.1307 -22.1307
   -22.0798 -22.0798 -22.0797 -22.0797 -11.5765 -11.5765 -11.5534 -11.5534
   -11.4953 -11.4953 -11.4835 -11.4835  -7.0046  -7.0046  -6.9640  -6.9640
    -2.8354  -2.8354  -2.6527  -2.6527  -2.0650  -2.0650  -1.8869  -1.8869
    -1.8346  -1.8346  -1.5843  -1.5843  -1.2566  -1.2566  -1.1778  -1.1778
    -1.0678  -1.0678  -0.9798  -0.9798  -0.8923  -0.8923  -0.7144  -0.7144

     occupation numbers 
     1.0000   1.0000   1.0000   1.0000   1.0000   1.0000   1.0000   1.0000
     1.0000   1.0000   1.0000   1.0000   1.0000   1.0000   1.0000   1.0000
     1.0000   1.0000   1.0000   1.0000   1.0000   1.0000   1.0000   1.0000
     1.0000   1.0000   1.0000   1.0000   1.0000   1.0000   1.0000   1.0000
     1.0000   1.0000   1.0000   1.0000   1.0000   1.0000   1.0000   1.0000
     1.0000   1.0000   1.0000   1.0000   1.0000   1.0000   1.0000   1.0000
     1.0000   1.0000   1.0000   1.0000   1.0000   1.0000   1.0000   1.0000

          k = 0.0833 0.4167 0.4167 ( 36255 PWs)   bands (ev):

   -23.2600 -23.2600 -23.2599 -23.2599 -23.1350 -23.1350 -23.1350 -23.1350
   -22.2396 -22.2396 -22.2396 -22.2396 -22.1307 -22.1307 -22.1307 -22.1307
   -22.0798 -22.0798 -22.0797 -22.0797 -11.5577 -11.5577 -11.5444 -11.5444
   -11.5085 -11.5085 -11.4988 -11.4988  -6.9883  -6.9883  -6.9719  -6.9719
    -2.9026  -2.9026  -2.8258  -2.8258  -2.0198  -2.0198  -1.9098  -1.9098
    -1.7858  -1.7858  -1.5862  -1.5862  -1.2440  -1.2440  -1.1975  -1.1975
    -0.9684  -0.9684  -0.9351  -0.9351  -0.7182  -0.7182  -0.5753  -0.5753

     occupation numbers 
     1.0000   1.0000   1.0000   1.0000   1.0000   1.0000   1.0000   1.0000
     1.0000   1.0000   1.0000   1.0000   1.0000   1.0000   1.0000   1.0000
     1.0000   1.0000   1.0000   1.0000   1.0000   1.0000   1.0000   1.0000
     1.0000   1.0000   1.0000   1.0000   1.0000   1.0000   1.0000   1.0000
     1.0000   1.0000   1.0000   1.0000   1.0000   1.0000   1.0000   1.0000
     1.0000   1.0000   1.0000   1.0000   1.0000   1.0000   1.0000   1.0000
     1.0000   1.0000   1.0000   1.0000   1.0000   1.0000   1.0000   1.0000

          k = 0.2500 0.2500 0.2500 ( 36273 PWs)   bands (ev):

   -23.2600 -23.2600 -23.2599 -23.2599 -23.1350 -23.1350 -23.1350 -23.1350
   -22.2396 -22.2396 -22.2396 -22.2396 -22.1307 -22.1307 -22.1307 -22.1307
   -22.0798 -22.0798 -22.0797 -22.0797 -11.5855 -11.5855 -11.5376 -11.5376
   -11.5046 -11.5046 -11.4815 -11.4815  -7.0214  -7.0214  -6.9408  -6.9408
    -2.8812  -2.8812  -2.5359  -2.5359  -2.0962  -2.0962  -1.9271  -1.9271
    -1.8729  -1.8729  -1.6038  -1.6038  -1.2958  -1.2958  -1.2283  -1.2283
    -1.1216  -1.1216  -0.9334  -0.9334  -0.8783  -0.8783  -0.5885  -0.5885

     occupation numbers 
     1.0000   1.0000   1.0000   1.0000   1.0000   1.0000   1.0000   1.0000
     1.0000   1.0000   1.0000   1.0000   1.0000   1.0000   1.0000   1.0000
     1.0000   1.0000   1.0000   1.0000   1.0000   1.0000   1.0000   1.0000
     1.0000   1.0000   1.0000   1.0000   1.0000   1.0000   1.0000   1.0000
     1.0000   1.0000   1.0000   1.0000   1.0000   1.0000   1.0000   1.0000
     1.0000   1.0000   1.0000   1.0000   1.0000   1.0000   1.0000   1.0000
     1.0000   1.0000   1.0000   1.0000   1.0000   1.0000   1.0000   1.0000

          k = 0.2500 0.2500 0.4167 ( 36198 PWs)   bands (ev):

   -23.2600 -23.2600 -23.2599 -23.2599 -23.1350 -23.1350 -23.1350 -23.1350
   -22.2396 -22.2396 -22.2396 -22.2396 -22.1307 -22.1307 -22.1307 -22.1307
   -22.0797 -22.0797 -22.0797 -22.0797 -11.5742 -11.5742 -11.5448 -11.5448
   -11.5077 -11.5077 -11.4813 -11.4813  -7.0055  -7.0055  -6.9700  -6.9700
    -2.8990  -2.8990  -2.5212  -2.5212  -2.1170  -2.1170  -1.8877  -1.8877
    -1.8737  -1.8737  -1.5833  -1.5833  -1.3082  -1.3082  -1.2065  -1.2065
    -1.1210  -1.1210  -0.9277  -0.9277  -0.8680  -0.8680  -0.5780  -0.5780

     occupation numbers 
     1.0000   1.0000   1.0000   1.0000   1.0000   1.0000   1.0000   1.0000
     1.0000   1.0000   1.0000   1.0000   1.0000   1.0000   1.0000   1.0000
     1.0000   1.0000   1.0000   1.0000   1.0000   1.0000   1.0000   1.0000
     1.0000   1.0000   1.0000   1.0000   1.0000   1.0000   1.0000   1.0000
     1.0000   1.0000   1.0000   1.0000   1.0000   1.0000   1.0000   1.0000
     1.0000   1.0000   1.0000   1.0000   1.0000   1.0000   1.0000   1.0000
     1.0000   1.0000   1.0000   1.0000   1.0000   1.0000   1.0000   1.0000

          k = 0.2500 0.4167 0.4167 ( 36191 PWs)   bands (ev):

   -23.2600 -23.2600 -23.2599 -23.2599 -23.1350 -23.1350 -23.1350 -23.1350
   -22.2396 -22.2396 -22.2396 -22.2396 -22.1307 -22.1307 -22.1307 -22.1307
   -22.0797 -22.0797 -22.0797 -22.0797 -11.5647 -11.5647 -11.5504 -11.5504
   -11.5030 -11.5030 -11.4892 -11.4892  -6.9990  -6.9990  -6.9837  -6.9837
    -2.8244  -2.8244  -2.6478  -2.6478  -2.0798  -2.0798  -1.9403  -1.9403
    -1.8230  -1.8230  -1.5892  -1.5892  -1.2926  -1.2926  -1.2359  -1.2359
    -1.0296  -1.0296  -0.8982  -0.8982  -0.8319  -0.8319  -0.7220  -0.7220

     occupation numbers 
     1.0000   1.0000   1.0000   1.0000   1.0000   1.0000   1.0000   1.0000
     1.0000   1.0000   1.0000   1.0000   1.0000   1.0000   1.0000   1.0000
     1.0000   1.0000   1.0000   1.0000   1.0000   1.0000   1.0000   1.0000
     1.0000   1.0000   1.0000   1.0000   1.0000   1.0000   1.0000   1.0000
     1.0000   1.0000   1.0000   1.0000   1.0000   1.0000   1.0000   1.0000
     1.0000   1.0000   1.0000   1.0000   1.0000   1.0000   1.0000   1.0000
     1.0000   1.0000   1.0000   1.0000   1.0000   1.0000   1.0000   1.0000

          k = 0.4167 0.4167 0.4167 ( 36180 PWs)   bands (ev):

   -23.2600 -23.2600 -23.2599 -23.2599 -23.1350 -23.1350 -23.1350 -23.1350
   -22.2396 -22.2396 -22.2396 -22.2396 -22.1307 -22.1307 -22.1307 -22.1307
   -22.0797 -22.0797 -22.0797 -22.0797 -11.5663 -11.5663 -11.5607 -11.5607
   -11.4920 -11.4920 -11.4862 -11.4862  -7.0059  -7.0059  -6.9991  -6.9991
    -2.6451  -2.6451  -2.5228  -2.5228  -2.1156  -2.1156  -1.9821  -1.9821
    -1.8675  -1.8675  -1.6644  -1.6644  -1.3327  -1.3327  -1.2813  -1.2813
    -1.0936  -1.0936  -1.0114  -1.0114  -0.8103  -0.8103  -0.7955  -0.7955

     occupation numbers 
     1.0000   1.0000   1.0000   1.0000   1.0000   1.0000   1.0000   1.0000
     1.0000   1.0000   1.0000   1.0000   1.0000   1.0000   1.0000   1.0000
     1.0000   1.0000   1.0000   1.0000   1.0000   1.0000   1.0000   1.0000
     1.0000   1.0000   1.0000   1.0000   1.0000   1.0000   1.0000   1.0000
     1.0000   1.0000   1.0000   1.0000   1.0000   1.0000   1.0000   1.0000
     1.0000   1.0000   1.0000   1.0000   1.0000   1.0000   1.0000   1.0000
     1.0000   1.0000   1.0000   1.0000   1.0000   1.0000   1.0000   1.0000

          k = 0.0833 0.2500 0.0833 ( 36242 PWs)   bands (ev):

   -23.2600 -23.2600 -23.2599 -23.2599 -23.1350 -23.1350 -23.1350 -23.1350
   -22.2396 -22.2396 -22.2396 -22.2396 -22.1307 -22.1307 -22.1307 -22.1307
   -22.0798 -22.0798 -22.0797 -22.0797 -11.6046 -11.6046 -11.5293 -11.5293
   -11.4950 -11.4950 -11.4818 -11.4818  -7.0445  -7.0445  -6.8979  -6.8979
    -2.8073  -2.8073  -2.6438  -2.6438  -2.1560  -2.1560  -1.9717  -1.9717
    -1.8025  -1.8025  -1.5551  -1.5551  -1.2427  -1.2427  -1.1861  -1.1861
    -1.0387  -1.0387  -0.9561  -0.9561  -0.9016  -0.9016  -0.7150  -0.7150

     occupation numbers 
     1.0000   1.0000   1.0000   1.0000   1.0000   1.0000   1.0000   1.0000
     1.0000   1.0000   1.0000   1.0000   1.0000   1.0000   1.0000   1.0000
     1.0000   1.0000   1.0000   1.0000   1.0000   1.0000   1.0000   1.0000
     1.0000   1.0000   1.0000   1.0000   1.0000   1.0000   1.0000   1.0000
     1.0000   1.0000   1.0000   1.0000   1.0000   1.0000   1.0000   1.0000
     1.0000   1.0000   1.0000   1.0000   1.0000   1.0000   1.0000   1.0000
     1.0000   1.0000   1.0000   1.0000   1.0000   1.0000   1.0000   1.0000

          k = 0.0833 0.4167 0.0833 ( 36256 PWs)   bands (ev):

   -23.2600 -23.2600 -23.2599 -23.2599 -23.1350 -23.1350 -23.1350 -23.1350
   -22.2396 -22.2396 -22.2396 -22.2396 -22.1307 -22.1307 -22.1307 -22.1307
   -22.0798 -22.0798 -22.0797 -22.0797 -11.5757 -11.5757 -11.5442 -11.5442
   -11.5004 -11.5004 -11.4915 -11.4915  -6.9945  -6.9945  -6.9406  -6.9406
    -2.8600  -2.8600  -2.7931  -2.7931  -2.1008  -2.1008  -2.0130  -2.0130
    -1.7059  -1.7059  -1.6059  -1.6059  -1.2687  -1.2687  -1.2444  -1.2444
    -0.9970  -0.9970  -0.9484  -0.9484  -0.7242  -0.7242  -0.5962  -0.5962

     occupation numbers 
     1.0000   1.0000   1.0000   1.0000   1.0000   1.0000   1.0000   1.0000
     1.0000   1.0000   1.0000   1.0000   1.0000   1.0000   1.0000   1.0000
     1.0000   1.0000   1.0000   1.0000   1.0000   1.0000   1.0000   1.0000
     1.0000   1.0000   1.0000   1.0000   1.0000   1.0000   1.0000   1.0000
     1.0000   1.0000   1.0000   1.0000   1.0000   1.0000   1.0000   1.0000
     1.0000   1.0000   1.0000   1.0000   1.0000   1.0000   1.0000   1.0000
     1.0000   1.0000   1.0000   1.0000   1.0000   1.0000   1.0000   1.0000

          k = 0.2500 0.2500 0.0833 ( 36257 PWs)   bands (ev):

   -23.2600 -23.2600 -23.2599 -23.2599 -23.1350 -23.1350 -23.1350 -23.1350
   -22.2396 -22.2396 -22.2396 -22.2396 -22.1307 -22.1307 -22.1307 -22.1307
   -22.0798 -22.0798 -22.0797 -22.0797 -11.5936 -11.5936 -11.5340 -11.5340
   -11.5012 -11.5012 -11.4817 -11.4817  -7.0287  -7.0287  -6.9201  -6.9201
    -2.8596  -2.8596  -2.5521  -2.5521  -2.0855  -2.0855  -1.9803  -1.9803
    -1.8692  -1.8692  -1.5868  -1.5868  -1.2951  -1.2951  -1.2495  -1.2495
    -1.1217  -1.1217  -0.9327  -0.9327  -0.8977  -0.8977  -0.5977  -0.5977

     occupation numbers 
     1.0000   1.0000   1.0000   1.0000   1.0000   1.0000   1.0000   1.0000
     1.0000   1.0000   1.0000   1.0000   1.0000   1.0000   1.0000   1.0000
     1.0000   1.0000   1.0000   1.0000   1.0000   1.0000   1.0000   1.0000
     1.0000   1.0000   1.0000   1.0000   1.0000   1.0000   1.0000   1.0000
     1.0000   1.0000   1.0000   1.0000   1.0000   1.0000   1.0000   1.0000
     1.0000   1.0000   1.0000   1.0000   1.0000   1.0000   1.0000   1.0000
     1.0000   1.0000   1.0000   1.0000   1.0000   1.0000   1.0000   1.0000

          k = 0.2500 0.4167 0.0833 ( 36241 PWs)   bands (ev):

   -23.2600 -23.2600 -23.2599 -23.2599 -23.1350 -23.1350 -23.1350 -23.1350
   -22.2396 -22.2396 -22.2396 -22.2396 -22.1307 -22.1307 -22.1307 -22.1307
   -22.0798 -22.0798 -22.0797 -22.0797 -11.5742 -11.5742 -11.5516 -11.5516
   -11.4966 -11.4966 -11.4876 -11.4876  -6.9978  -6.9978  -6.9576  -6.9576
    -2.7904  -2.7904  -2.6399  -2.6399  -2.0654  -2.0654  -2.0073  -2.0073
    -1.7671  -1.7671  -1.6406  -1.6406  -1.3494  -1.3494  -1.3216  -1.3216
    -1.0338  -1.0338  -0.9322  -0.9322  -0.8577  -0.8577  -0.7081  -0.7081

     occupation numbers 
     1.0000   1.0000   1.0000   1.0000   1.0000   1.0000   1.0000   1.0000
     1.0000   1.0000   1.0000   1.0000   1.0000   1.0000   1.0000   1.0000
     1.0000   1.0000   1.0000   1.0000   1.0000   1.0000   1.0000   1.0000
     1.0000   1.0000   1.0000   1.0000   1.0000   1.0000   1.0000   1.0000
     1.0000   1.0000   1.0000   1.0000   1.0000   1.0000   1.0000   1.0000
     1.0000   1.0000   1.0000   1.0000   1.0000   1.0000   1.0000   1.0000
     1.0000   1.0000   1.0000   1.0000   1.0000   1.0000   1.0000   1.0000

          k = 0.4167 0.0833 0.2500 ( 36241 PWs)   bands (ev):

   -23.2600 -23.2600 -23.2599 -23.2599 -23.1350 -23.1350 -23.1350 -23.1350
   -22.2396 -22.2396 -22.2396 -22.2396 -22.1307 -22.1307 -22.1307 -22.1307
   -22.0798 -22.0798 -22.0797 -22.0797 -11.5684 -11.5684 -11.5428 -11.5428
   -11.5047 -11.5047 -11.4947 -11.4947  -6.9937  -6.9937  -6.9539  -6.9539
    -2.8834  -2.8834  -2.8106  -2.8106  -2.0486  -2.0486  -1.9605  -1.9605
    -1.7558  -1.7558  -1.5932  -1.5932  -1.2594  -1.2594  -1.2249  -1.2249
    -0.9985  -0.9985  -0.9269  -0.9269  -0.7250  -0.7250  -0.5886  -0.5886

     occupation numbers 
     1.0000   1.0000   1.0000   1.0000   1.0000   1.0000   1.0000   1.0000
     1.0000   1.0000   1.0000   1.0000   1.0000   1.0000   1.0000   1.0000
     1.0000   1.0000   1.0000   1.0000   1.0000   1.0000   1.0000   1.0000
     1.0000   1.0000   1.0000   1.0000   1.0000   1.0000   1.0000   1.0000
     1.0000   1.0000   1.0000   1.0000   1.0000   1.0000   1.0000   1.0000
     1.0000   1.0000   1.0000   1.0000   1.0000   1.0000   1.0000   1.0000
     1.0000   1.0000   1.0000   1.0000   1.0000   1.0000   1.0000   1.0000

          k = 0.4167 0.4167 0.0833 ( 36255 PWs)   bands (ev):

   -23.2599 -23.2599 -23.2599 -23.2599 -23.1350 -23.1350 -23.1350 -23.1350
   -22.2396 -22.2396 -22.2396 -22.2396 -22.1307 -22.1307 -22.1307 -22.1307
   -22.0797 -22.0797 -22.0797 -22.0797 -11.5697 -11.5697 -11.5616 -11.5616
   -11.4905 -11.4905 -11.4866 -11.4866  -6.9952  -6.9952  -6.9803  -6.9803
    -2.6353  -2.6353  -2.5418  -2.5418  -2.0230  -2.0230  -1.9608  -1.9608
    -1.8491  -1.8491  -1.7229  -1.7229  -1.4104  -1.4104  -1.4008  -1.4008
    -1.1216  -1.1216  -1.0271  -1.0271  -0.8403  -0.8403  -0.8161  -0.8161

     occupation numbers 
     1.0000   1.0000   1.0000   1.0000   1.0000   1.0000   1.0000   1.0000
     1.0000   1.0000   1.0000   1.0000   1.0000   1.0000   1.0000   1.0000
     1.0000   1.0000   1.0000   1.0000   1.0000   1.0000   1.0000   1.0000
     1.0000   1.0000   1.0000   1.0000   1.0000   1.0000   1.0000   1.0000
     1.0000   1.0000   1.0000   1.0000   1.0000   1.0000   1.0000   1.0000
     1.0000   1.0000   1.0000   1.0000   1.0000   1.0000   1.0000   1.0000
     1.0000   1.0000   1.0000   1.0000   1.0000   1.0000   1.0000   1.0000

          k = 0.2500 0.4167 0.2500 ( 36198 PWs)   bands (ev):

   -23.2600 -23.2600 -23.2599 -23.2599 -23.1350 -23.1350 -23.1350 -23.1350
   -22.2396 -22.2396 -22.2396 -22.2396 -22.1307 -22.1307 -22.1307 -22.1307
   -22.0797 -22.0797 -22.0797 -22.0797 -11.5699 -11.5699 -11.5508 -11.5508
   -11.4997 -11.4997 -11.4884 -11.4884  -6.9997  -6.9997  -6.9694  -6.9694
    -2.8090  -2.8090  -2.6440  -2.6440  -2.0663  -2.0663  -1.9620  -1.9620
    -1.8069  -1.8069  -1.6253  -1.6253  -1.3196  -1.3196  -1.2836  -1.2836
    -1.0276  -1.0276  -0.9159  -0.9159  -0.8458  -0.8458  -0.7136  -0.7136

     occupation numbers 
     1.0000   1.0000   1.0000   1.0000   1.0000   1.0000   1.0000   1.0000
     1.0000   1.0000   1.0000   1.0000   1.0000   1.0000   1.0000   1.0000
     1.0000   1.0000   1.0000   1.0000   1.0000   1.0000   1.0000   1.0000
     1.0000   1.0000   1.0000   1.0000   1.0000   1.0000   1.0000   1.0000
     1.0000   1.0000   1.0000   1.0000   1.0000   1.0000   1.0000   1.0000
     1.0000   1.0000   1.0000   1.0000   1.0000   1.0000   1.0000   1.0000
     1.0000   1.0000   1.0000   1.0000   1.0000   1.0000   1.0000   1.0000

          k = 0.4167 0.4167 0.2500 ( 36191 PWs)   bands (ev):

   -23.2600 -23.2600 -23.2599 -23.2599 -23.1350 -23.1350 -23.1350 -23.1350
   -22.2396 -22.2396 -22.2396 -22.2396 -22.1307 -22.1307 -22.1307 -22.1307
   -22.0797 -22.0797 -22.0797 -22.0797 -11.5681 -11.5681 -11.5611 -11.5611
   -11.4912 -11.4912 -11.4864 -11.4864  -7.0009  -7.0009  -6.9894  -6.9894
    -2.6407  -2.6407  -2.5319  -2.5319  -2.0698  -2.0698  -1.9626  -1.9626
    -1.8639  -1.8639  -1.7007  -1.7007  -1.3727  -1.3727  -1.3529  -1.3529
    -1.0986  -1.0986  -1.0088  -1.0088  -0.8261  -0.8261  -0.8094  -0.8094

     occupation numbers 
     1.0000   1.0000   1.0000   1.0000   1.0000   1.0000   1.0000   1.0000
     1.0000   1.0000   1.0000   1.0000   1.0000   1.0000   1.0000   1.0000
     1.0000   1.0000   1.0000   1.0000   1.0000   1.0000   1.0000   1.0000
     1.0000   1.0000   1.0000   1.0000   1.0000   1.0000   1.0000   1.0000
     1.0000   1.0000   1.0000   1.0000   1.0000   1.0000   1.0000   1.0000
     1.0000   1.0000   1.0000   1.0000   1.0000   1.0000   1.0000   1.0000
     1.0000   1.0000   1.0000   1.0000   1.0000   1.0000   1.0000   1.0000

     highest occupied level (ev):    -0.5753

!    total energy              =    -458.40876947 Ry
     estimated scf accuracy    <          2.7E-09 Ry

     The total energy is the sum of the following terms:
     one-electron contribution =    -256.48519078 Ry
     hartree contribution      =     145.40854264 Ry
     xc contribution           =    -157.08036100 Ry
     ewald contribution        =    -190.25176033 Ry

     convergence has been achieved in  12 iterations

     Forces acting on atoms (cartesian axes, Ry/au):

     atom    1 type  1   force =     0.00000000    0.00000000    0.00000000
     atom    2 type  1   force =     0.00000000    0.00000000    0.00000000
     atom    3 type  2   force =    -0.01800849   -0.01800849    0.00000000
     atom    4 type  2   force =     0.01800849    0.01800849    0.00000000
     atom    5 type  2   force =    -0.01800849    0.01800849   -0.00000000
     atom    6 type  2   force =     0.01800849   -0.01800849    0.00000000
     The non-local contrib.  to forces
     atom    1 type  1   force =     0.00000000    0.00000000    0.00000000
     atom    2 type  1   force =     0.00000000    0.00000000   -0.00000000
     atom    3 type  2   force =    -0.04134354   -0.04134354    0.00000000
     atom    4 type  2   force =     0.04134354    0.04134354    0.00000000
     atom    5 type  2   force =    -0.04134354    0.04134354    0.00000000
     atom    6 type  2   force =     0.04134354   -0.04134354    0.00000000
     The ionic contribution  to forces
     atom    1 type  1   force =    -0.00000000   -0.00000000    0.00000000
     atom    2 type  1   force =    -0.00000000   -0.00000000    0.00000000
     atom    3 type  2   force =     1.38633658    1.38633658    0.00000000
     atom    4 type  2   force =    -1.38633658   -1.38633658   -0.00000000
     atom    5 type  2   force =     1.38633658   -1.38633658    0.00000000
     atom    6 type  2   force =    -1.38633658    1.38633658    0.00000000
     The local contribution  to forces
     atom    1 type  1   force =    -0.00000000   -0.00000000    0.00000000
     atom    2 type  1   force =     0.00000000    0.00000000    0.00000000
     atom    3 type  2   force =    -1.36691539   -1.36691539    0.00000000
     atom    4 type  2   force =     1.36691539    1.36691539    0.00000000
     atom    5 type  2   force =    -1.36691539    1.36691539    0.00000000
     atom    6 type  2   force =     1.36691539   -1.36691539    0.00000000
     The core correction contribution to forces
     atom    1 type  1   force =    -0.00000000   -0.00000000   -0.00000000
     atom    2 type  1   force =     0.00000000    0.00000000    0.00000000
     atom    3 type  2   force =     0.00390788    0.00390788    0.00000000
     atom    4 type  2   force =    -0.00390788   -0.00390788   -0.00000000
     atom    5 type  2   force =     0.00390788   -0.00390788   -0.00000000
     atom    6 type  2   force =    -0.00390788    0.00390788   -0.00000000
     The Hubbard contrib.    to forces
     atom    1 type  1   force =     0.00000000    0.00000000    0.00000000
     atom    2 type  1   force =     0.00000000    0.00000000    0.00000000
     atom    3 type  2   force =     0.00000000    0.00000000    0.00000000
     atom    4 type  2   force =     0.00000000    0.00000000    0.00000000
     atom    5 type  2   force =     0.00000000    0.00000000    0.00000000
     atom    6 type  2   force =     0.00000000    0.00000000    0.00000000
     The SCF correction term to forces
     atom    1 type  1   force =    -0.00000000    0.00000000   -0.00000000
     atom    2 type  1   force =     0.00000000    0.00000000    0.00000000
     atom    3 type  2   force =     0.00000598    0.00000598    0.00000000
     atom    4 type  2   force =    -0.00000598   -0.00000598    0.00000000
     atom    5 type  2   force =     0.00000598   -0.00000598    0.00000000
     atom    6 type  2   force =    -0.00000598    0.00000598    0.00000000

     Total force =     0.050936     Total SCF correction =     0.000017


     Computing stress (Cartesian axis) and pressure

          total   stress  (Ry/bohr**3)                   (kbar)     P=      -27.03
  -0.00018617   0.00000000   0.00000000          -27.39        0.00        0.00
   0.00000000  -0.00018617   0.00000000            0.00      -27.39        0.00
   0.00000000   0.00000000  -0.00017893            0.00        0.00      -26.32

     kinetic stress (kbar)   4477.42      0.00      0.00
                                0.00   4477.42      0.00
                                0.00      0.00   4472.22

     local   stress (kbar)  -2714.57      0.00      0.00
                                0.00  -2714.57      0.00
                                0.00      0.00  -2198.89

     nonloc. stress (kbar)     70.47      0.00      0.00
                                0.00     70.47      0.00
                                0.00      0.00     55.26

     hartree stress (kbar)   2422.33      0.00     -0.00
                                0.00   2422.33     -0.00
                               -0.00     -0.00   2289.25

     exc-cor stress (kbar)   3792.39      0.00     -0.00
                                0.00   3792.39     -0.00
                               -0.00     -0.00   3791.39

     corecor stress (kbar)  -5084.43     -0.00     -0.00
                               -0.00  -5084.43     -0.00
                               -0.00     -0.00  -5083.58

     ewald   stress (kbar)  -2990.99      0.00     -0.00
                                0.00  -2990.99     -0.00
                               -0.00     -0.00  -3351.97

     hubbard stress (kbar)      0.00      0.00      0.00
                                0.00      0.00      0.00
                                0.00      0.00      0.00

     DFT-D   stress (kbar)      0.00      0.00      0.00
                                0.00      0.00      0.00
                                0.00      0.00      0.00

     XDM     stress (kbar)      0.00      0.00      0.00
                                0.00      0.00      0.00
                                0.00      0.00      0.00

     dft-nl  stress (kbar)      0.00      0.00      0.00
                                0.00      0.00      0.00
                                0.00      0.00      0.00

     TS-vdW  stress (kbar)      0.00      0.00      0.00
                                0.00      0.00      0.00
                                0.00      0.00      0.00



     Writing output data file ./SnI2.save/

     init_run     :      9.85s CPU      5.87s WALL (       1 calls)
     electrons    :    314.34s CPU    167.27s WALL (       1 calls)
     forces       :      3.73s CPU      2.51s WALL (       1 calls)
     stress       :     16.16s CPU      8.55s WALL (       1 calls)

     Called by init_run:
     wfcinit      :      7.90s CPU      4.40s WALL (       1 calls)
     wfcinit:atom :      0.06s CPU      0.03s WALL (      18 calls)
     wfcinit:wfcr :      7.57s CPU      4.14s WALL (      18 calls)
     potinit      :      0.31s CPU      0.19s WALL (       1 calls)
     hinit0       :      0.70s CPU      0.56s WALL (       1 calls)

     Called by electrons:
     c_bands      :    255.13s CPU    132.78s WALL (      12 calls)
     sum_band     :     47.93s CPU     26.90s WALL (      12 calls)
     v_of_rho     :      0.92s CPU      0.54s WALL (      13 calls)
     v_h          :      0.08s CPU      0.04s WALL (      13 calls)
     v_xc         :      0.97s CPU      0.58s WALL (      15 calls)
     newd         :      9.15s CPU      6.08s WALL (      13 calls)
     mix_rho      :      0.89s CPU      0.58s WALL (      12 calls)

     Called by c_bands:
     init_us_2    :      1.49s CPU      0.77s WALL (     486 calls)
     cegterg      :    244.05s CPU    126.42s WALL (     216 calls)

     Called by sum_band:
     sum_band:wei :      0.00s CPU      0.00s WALL (      12 calls)
     sum_band:loo :     39.31s CPU     20.45s WALL (      12 calls)
     sum_band:buf :      0.27s CPU      0.21s WALL (     216 calls)
     sum_band:ini :      0.61s CPU      0.32s WALL (     216 calls)
     sum_band:cal :      3.19s CPU      1.62s WALL (     216 calls)
     sum_band:bec :      5.73s CPU      2.89s WALL (     216 calls)
     addusdens    :      7.43s CPU      5.41s WALL (      12 calls)
     addusd:skk   :      0.01s CPU      0.00s WALL (      24 calls)
     addusd:dgemm :      2.39s CPU      2.86s WALL (      24 calls)
     addusd:qvan2 :      4.88s CPU      2.46s WALL (      24 calls)

     Called by *egterg:
     cdiaghg      :     10.32s CPU      5.44s WALL (    1399 calls)
     cegterg:over :     12.12s CPU      6.53s WALL (    1183 calls)
     cegterg:upda :      5.22s CPU      2.63s WALL (    1183 calls)
     cegterg:last :      8.36s CPU      4.20s WALL (     586 calls)
     h_psi        :    192.36s CPU     99.11s WALL (    1417 calls)
     s_psi        :     14.14s CPU      7.71s WALL (    1417 calls)
     g_psi        :      0.77s CPU      0.39s WALL (    1183 calls)

     Called by h_psi:
     h_psi:calbec :     11.23s CPU      5.67s WALL (    1417 calls)
     vloc_psi     :    168.99s CPU     86.84s WALL (    1417 calls)
     add_vuspsi   :     11.46s CPU      6.26s WALL (    1417 calls)

     General routines
     calbec       :     16.31s CPU      8.52s WALL (    1723 calls)
     fft          :      1.84s CPU      1.13s WALL (     303 calls)
     ffts         :      0.42s CPU      0.24s WALL (     100 calls)
     fftw         :    180.53s CPU     93.13s WALL (  184204 calls)
     interpolate  :      0.47s CPU      0.26s WALL (      52 calls)

     Parallel routines
     fft_scatt_xy :     12.80s CPU      6.51s WALL (  184607 calls)
     fft_scatt_yz :    116.99s CPU     60.99s WALL (  184607 calls)

     PWSCF        :   5m47.34s CPU   3m12.76s WALL


   This run was terminated on:  10:34:49  31Jan2021            

=------------------------------------------------------------------------------=
   JOB DONE.
=------------------------------------------------------------------------------=
