
     Program PWSCF v.6.4.1 starts on 23Jan2021 at 10:34:20 

     This program is part of the open-source Quantum ESPRESSO suite
     for quantum simulation of materials; please cite
         "P. Giannozzi et al., J. Phys.:Condens. Matter 21 395502 (2009);
         "P. Giannozzi et al., J. Phys.:Condens. Matter 29 465901 (2017);
          URL http://www.quantum-espresso.org", 
     in publications or presentations arising from this work. More details at
     http://www.quantum-espresso.org/quote

     Parallel version (MPI & OpenMP), running on      48 processor cores
     Number of MPI processes:                24
     Threads/MPI process:                     2

     MPI processes distributed on     1 nodes
     R & G space division:  proc/nbgrp/npool/nimage =      24
     Waiting for input...
     Reading input from standard input

     Current dimensions of program PWSCF are:
     Max number of different atomic species (ntypx) = 10
     Max number of k-points (npk) =  40000
     Max angular momentum in pseudopotentials (lmaxx) =  3
               file Cs.rel-pbesol-spn-kjpaw_psl.1.0.0.UPF: wavefunction(s)  5S 6S renormalized
               file Sn.rel-pbesol-dn-kjpaw_psl.1.0.0.UPF: wavefunction(s)  5S 5P 5P 4D 4D renormalized
               file I.rel-pbesol-n-kjpaw_psl.1.0.0.UPF: wavefunction(s)  5S renormalized

     Subspace diagonalization in iterative solution of the eigenvalue problem:
     one sub-group per band group will be used
     scalapack distributed-memory algorithm (size of sub-group:  3*  3 procs)

 
     Parallelization info
     --------------------
     sticks:   dense  smooth     PW     G-vecs:    dense   smooth      PW
     Min         517     344     89               109123    59400    7791
     Max         518     345     90               109128    59409    7801
     Sum       12423    8277   2139              2619015  1425715  187169
 

     Title: 
     CsSnI3                                                                     


     bravais-lattice index     =            8
     lattice parameter (alat)  =       9.1317  a.u.
     unit-cell volume          =    6370.5385 (a.u.)^3
     number of atoms/cell      =           20
     number of atomic types    =            3
     number of electrons       =       176.00
     number of Kohn-Sham states=          176
     kinetic-energy cutoff     =     140.0000  Ry
     charge density cutoff     =     840.0000  Ry
     convergence threshold     =      1.0E-06
     mixing beta               =       0.3500
     number of iterations used =            8  plain     mixing
     Exchange-correlation      = SLA PW PSX PSC ( 1  4 10  8 0 0)
     Non magnetic calculation with spin-orbit


     celldm(1)=   9.131705  celldm(2)=   2.227728  celldm(3)=   3.755420
     celldm(4)=   0.000000  celldm(5)=   0.000000  celldm(6)=   0.000000

     crystal axes: (cart. coord. in units of alat)
               a(1) = (   1.000000   0.000000   0.000000 )  
               a(2) = (   0.000000   2.227728   0.000000 )  
               a(3) = (   0.000000   0.000000   3.755420 )  

     reciprocal axes: (cart. coord. in units 2 pi/alat)
               b(1) = (  1.000000  0.000000  0.000000 )  
               b(2) = (  0.000000  0.448888  0.000000 )  
               b(3) = (  0.000000  0.000000  0.266282 )  


     PseudoPot. # 1 for Cs read from file:
     /marconi_scratch/userexternal/cmalosso/degironcoli/pseudo/Cs.rel-pbesol-spn-kjpaw_psl.1.0.0.UPF
     MD5 check sum: 2adfb289dd462649b099d7edbec69378
     Pseudo is Projector augmented-wave + core cor, Zval =  9.0
     Generated using "atomic" code by A. Dal Corso v.6.4.1
     Shape of augmentation charge: PSQ
     Using radial grid of 1251 points, 15 beta functions with: 
                l(1) =   0
                l(2) =   0
                l(3) =   0
                l(4) =   1
                l(5) =   1
                l(6) =   1
                l(7) =   1
                l(8) =   2
                l(9) =   2
               l(10) =   2
               l(11) =   2
               l(12) =   3
               l(13) =   3
               l(14) =   3
               l(15) =   3
     Q(r) pseudized with 0 coefficients 


     PseudoPot. # 2 for Sn read from file:
     /marconi_scratch/userexternal/cmalosso/degironcoli/pseudo/Sn.rel-pbesol-dn-kjpaw_psl.1.0.0.UPF
     MD5 check sum: e69eff64f15ae39ad43ef58bacbfdf88
     Pseudo is Projector augmented-wave + core cor, Zval = 14.0
     Generated using "atomic" code by A. Dal Corso v.6.3
     Shape of augmentation charge: PSQ
     Using radial grid of 1243 points, 10 beta functions with: 
                l(1) =   0
                l(2) =   0
                l(3) =   1
                l(4) =   1
                l(5) =   1
                l(6) =   1
                l(7) =   2
                l(8) =   2
                l(9) =   2
               l(10) =   2
     Q(r) pseudized with 0 coefficients 


     PseudoPot. # 3 for I  read from file:
     /marconi_scratch/userexternal/cmalosso/degironcoli/pseudo/I.rel-pbesol-n-kjpaw_psl.1.0.0.UPF
     MD5 check sum: 4478c427bd443f303eca1937a163b991
     Pseudo is Projector augmented-wave + core cor, Zval =  7.0
     Generated using "atomic" code by A. Dal Corso v.6.3
     Shape of augmentation charge: PSQ
     Using radial grid of 1247 points, 10 beta functions with: 
                l(1) =   0
                l(2) =   0
                l(3) =   1
                l(4) =   1
                l(5) =   1
                l(6) =   1
                l(7) =   2
                l(8) =   2
                l(9) =   2
               l(10) =   2
     Q(r) pseudized with 0 coefficients 


     atomic species   valence    mass     pseudopotential
        Cs             9.00   132.90000     Cs( 1.00)
        Sn            14.00   118.70000     Sn( 1.00)
        I              7.00   126.90000     I ( 1.00)

      8 Sym. Ops., with inversion, found ( 6 have fractional translation)


                                    s                        frac. trans.

      isym =  1     identity                                     

 cryst.   s( 1) = (     1          0          0      )
                  (     0          1          0      )
                  (     0          0          1      )

 cart.    s( 1) = (  1.0000000  0.0000000  0.0000000 )
                  (  0.0000000  1.0000000  0.0000000 )
                  (  0.0000000  0.0000000  1.0000000 )


      isym =  2     180 deg rotation - cart. axis [0,0,1]        

 cryst.   s( 2) = (    -1          0          0      )    f =(  0.0000000 )
                  (     0         -1          0      )       (  0.5000000 )
                  (     0          0          1      )       (  0.5000000 )

 cart.    s( 2) = ( -1.0000000  0.0000000  0.0000000 )    f =(  0.0000000 )
                  (  0.0000000 -1.0000000  0.0000000 )       (  1.1138638 )
                  (  0.0000000  0.0000000  1.0000000 )       (  1.8777098 )


      isym =  3     180 deg rotation - cart. axis [0,1,0]        

 cryst.   s( 3) = (    -1          0          0      )    f =(  0.5000000 )
                  (     0          1          0      )       ( -0.5000000 )
                  (     0          0         -1      )       ( -0.5000000 )

 cart.    s( 3) = ( -1.0000000  0.0000000  0.0000000 )    f =(  0.5000000 )
                  (  0.0000000  1.0000000  0.0000000 )       ( -1.1138638 )
                  (  0.0000000  0.0000000 -1.0000000 )       ( -1.8777098 )


      isym =  4     180 deg rotation - cart. axis [1,0,0]        

 cryst.   s( 4) = (     1          0          0      )    f =( -0.5000000 )
                  (     0         -1          0      )       (  0.0000000 )
                  (     0          0         -1      )       (  0.0000000 )

 cart.    s( 4) = (  1.0000000  0.0000000  0.0000000 )    f =( -0.5000000 )
                  (  0.0000000 -1.0000000  0.0000000 )       (  0.0000000 )
                  (  0.0000000  0.0000000 -1.0000000 )       (  0.0000000 )


      isym =  5     inversion                                    

 cryst.   s( 5) = (    -1          0          0      )
                  (     0         -1          0      )
                  (     0          0         -1      )

 cart.    s( 5) = ( -1.0000000  0.0000000  0.0000000 )
                  (  0.0000000 -1.0000000  0.0000000 )
                  (  0.0000000  0.0000000 -1.0000000 )


      isym =  6     inv. 180 deg rotation - cart. axis [0,0,1]   

 cryst.   s( 6) = (     1          0          0      )    f =(  0.0000000 )
                  (     0          1          0      )       ( -0.5000000 )
                  (     0          0         -1      )       ( -0.5000000 )

 cart.    s( 6) = (  1.0000000  0.0000000  0.0000000 )    f =(  0.0000000 )
                  (  0.0000000  1.0000000  0.0000000 )       ( -1.1138638 )
                  (  0.0000000  0.0000000 -1.0000000 )       ( -1.8777098 )


      isym =  7     inv. 180 deg rotation - cart. axis [0,1,0]   

 cryst.   s( 7) = (     1          0          0      )    f =( -0.5000000 )
                  (     0         -1          0      )       (  0.5000000 )
                  (     0          0          1      )       (  0.5000000 )

 cart.    s( 7) = (  1.0000000  0.0000000  0.0000000 )    f =( -0.5000000 )
                  (  0.0000000 -1.0000000  0.0000000 )       (  1.1138638 )
                  (  0.0000000  0.0000000  1.0000000 )       (  1.8777098 )


      isym =  8     inv. 180 deg rotation - cart. axis [1,0,0]   

 cryst.   s( 8) = (    -1          0          0      )    f =(  0.5000000 )
                  (     0          1          0      )       (  0.0000000 )
                  (     0          0          1      )       (  0.0000000 )

 cart.    s( 8) = ( -1.0000000  0.0000000  0.0000000 )    f =(  0.5000000 )
                  (  0.0000000  1.0000000  0.0000000 )       (  0.0000000 )
                  (  0.0000000  0.0000000  1.0000000 )       (  0.0000000 )


     double point group D_2h (mmm) 
     there are 10 classes and  2 irreducible representations
     the character table:

       E     -E     C2    C2'  C2''  i     -i     s_v   s_v' s_v''
                   -C2   -C2'  -C2''             -s_v  -s_v' -s_v'
G_5+   2.00 -2.00  0.00  0.00  0.00  2.00 -2.00  0.00  0.00  0.00
G_5-   2.00 -2.00  0.00  0.00  0.00 -2.00  2.00  0.00  0.00  0.00

     the symmetry operations in each class and the name of the first element:

     E             1
          identity                                               
     -E           -1
          identity E                                             
      C2  -C2      2   -2
          180 deg rotation - cart. axis [0,0,1]                  
      C2' -C2'     4   -4
          180 deg rotation - cart. axis [1,0,0]                  
     C2'' -C2''    3   -3
          180 deg rotation - cart. axis [0,1,0]                  
     i             5
          inversion                                              
     -i           -5
          inversion E                                            
      s_v -s_v     6   -6
          inv. 180 deg rotation - cart. axis [0,0,1]             
      s_v'-s_v'    8   -8
          inv. 180 deg rotation - cart. axis [1,0,0]             
     s_v''-s_v'    7   -7
          inv. 180 deg rotation - cart. axis [0,1,0]             

   Cartesian axes

     site n.     atom                  positions (alat units)
         1           Cs  tau(   1) = (   0.2500000   0.1859640   2.5168147  )
         2           Cs  tau(   2) = (   0.7500000   2.0417636   1.2386050  )
         3           Cs  tau(   3) = (   0.2500000   1.2998278   3.1163149  )
         4           Cs  tau(   4) = (   0.7500000   0.9278998   0.6391048  )
         5           Sn  tau(   5) = (   0.2500000   0.7615710   1.6485466  )
         6           Sn  tau(   6) = (   0.7500000   1.4661567   2.1068731  )
         7           Sn  tau(   7) = (   0.2500000   1.8754348   0.2291632  )
         8           Sn  tau(   8) = (   0.7500000   0.3522928   3.5262565  )
         9           I   tau(   9) = (   0.7500000   0.0581437   0.4202578  )
        10           I   tau(  10) = (   0.2500000   2.1695839   3.3351619  )
        11           I   tau(  11) = (   0.7500000   1.1720075   1.4574521  )
        12           I   tau(  12) = (   0.2500000   1.0557201   2.2979676  )
        13           I   tau(  13) = (   0.7500000   0.6531118   2.9738192  )
        14           I   tau(  14) = (   0.2500000   1.5746158   0.7816005  )
        15           I   tau(  15) = (   0.7500000   1.7669756   2.6593103  )
        16           I   tau(  16) = (   0.2500000   0.4607520   1.0961094  )
        17           I   tau(  17) = (   0.7500000   0.3753632   1.8734812  )
        18           I   tau(  18) = (   0.2500000   1.8523644   1.8819384  )
        19           I   tau(  19) = (   0.7500000   1.4892270   0.0042286  )
        20           I   tau(  20) = (   0.2500000   0.7385006   3.7511911  )

   Crystallographic axes

     site n.     atom                  positions (cryst. coord.)
         1           Cs  tau(   1) = (  0.2500000  0.0834770  0.6701820  )
         2           Cs  tau(   2) = (  0.7500000  0.9165230  0.3298180  )
         3           Cs  tau(   3) = (  0.2500000  0.5834770  0.8298180  )
         4           Cs  tau(   4) = (  0.7500000  0.4165230  0.1701820  )
         5           Sn  tau(   5) = (  0.2500000  0.3418600  0.4389780  )
         6           Sn  tau(   6) = (  0.7500000  0.6581400  0.5610220  )
         7           Sn  tau(   7) = (  0.2500000  0.8418600  0.0610220  )
         8           Sn  tau(   8) = (  0.7500000  0.1581400  0.9389780  )
         9           I   tau(   9) = (  0.7500000  0.0261000  0.1119070  )
        10           I   tau(  10) = (  0.2500000  0.9739000  0.8880930  )
        11           I   tau(  11) = (  0.7500000  0.5261000  0.3880930  )
        12           I   tau(  12) = (  0.2500000  0.4739000  0.6119070  )
        13           I   tau(  13) = (  0.7500000  0.2931740  0.7918740  )
        14           I   tau(  14) = (  0.2500000  0.7068260  0.2081260  )
        15           I   tau(  15) = (  0.7500000  0.7931740  0.7081260  )
        16           I   tau(  16) = (  0.2500000  0.2068260  0.2918740  )
        17           I   tau(  17) = (  0.7500000  0.1684960  0.4988740  )
        18           I   tau(  18) = (  0.2500000  0.8315040  0.5011260  )
        19           I   tau(  19) = (  0.7500000  0.6684960  0.0011260  )
        20           I   tau(  20) = (  0.2500000  0.3315040  0.9988740  )

     number of k points=     1
                       cart. coord. in units 2pi/alat
        k(    1) = (   0.2500000   0.1122220   0.0665705), wk =   1.0000000

                       cryst. coord.
        k(    1) = (   0.2500000   0.2500000   0.2500000), wk =   1.0000000

     Dense  grid:  2619015 G-vectors     FFT dimensions: (  90, 192, 320)

     Smooth grid:  1425715 G-vectors     FFT dimensions: (  72, 160, 270)

     Dynamical RAM for                 wfc:      39.88 MB

     Dynamical RAM for     wfc (w. buffer):      39.88 MB

     Dynamical RAM for           str. fact:       5.00 MB

     Dynamical RAM for           local pot:       0.00 MB

     Dynamical RAM for          nlocal pot:      90.18 MB

     Dynamical RAM for                qrad:      81.06 MB

     Dynamical RAM for          rho,v,vnew:      42.13 MB

     Dynamical RAM for               rhoin:      14.04 MB

     Dynamical RAM for            rho*nmix:     106.57 MB

     Dynamical RAM for           G-vectors:       6.70 MB

     Dynamical RAM for          h,s,v(r/c):       2.51 MB

     Dynamical RAM for          <psi|beta>:       4.28 MB

     Dynamical RAM for                 psi:     159.52 MB

     Dynamical RAM for                hpsi:     159.52 MB

     Dynamical RAM for                spsi:     159.52 MB

     Dynamical RAM for      wfcinit/wfcrot:      71.69 MB

     Dynamical RAM for           addusdens:    3421.91 MB

     Dynamical RAM for          addusforce:    3500.26 MB

     Dynamical RAM for         addusstress:    3451.88 MB

     Estimated static dynamical RAM per process >     406.98 MB

     Estimated max dynamical RAM per process >       3.82 GB

     Estimated total dynamical RAM >      91.58 GB

     Initial potential from superposition of free atoms

     starting charge  175.84163, renormalised to  176.00000
     Starting wfcs are  208 randomized atomic wfcs
     Checking if some PAW data can be deallocated... 
       PAW data deallocated on   16 nodes for type:  1
       PAW data deallocated on   20 nodes for type:  2
       PAW data deallocated on   12 nodes for type:  3

     total cpu time spent up to now is       64.6 secs

     Self-consistent Calculation

     iteration #  1     ecut=   140.00 Ry     beta= 0.35
     Davidson diagonalization with overlap
     ethr =  1.00E-02,  avg # of iterations =  1.0

     Threshold (ethr) on eigenvalues was too large:
     Diagonalizing with lowered threshold

     Davidson diagonalization with overlap
     ethr =  3.20E-04,  avg # of iterations = 13.0

     negative rho (up, down):  1.887E+03 0.000E+00

     total cpu time spent up to now is      348.5 secs

     total energy              =  -11184.53379838 Ry
     Harris-Foulkes estimate   =   -7900.77110079 Ry
     estimated scf accuracy    < 6204723.95618068 Ry

     iteration #  2     ecut=   140.00 Ry     beta= 0.35
     Davidson diagonalization with overlap
     ethr =  1.00E-02,  avg # of iterations = 31.0

     negative rho (up, down):  2.308E+03 0.000E+00

     total cpu time spent up to now is      839.5 secs

     total energy              =  -93154.39074050 Ry
     Harris-Foulkes estimate   =  -76590.10478917 Ry
     estimated scf accuracy    <  272854.52499840 Ry

     iteration #  3     ecut=   140.00 Ry     beta= 0.35
     Davidson diagonalization with overlap
     ethr =  1.00E-02,  avg # of iterations = 19.0

     negative rho (up, down):  5.274E+03 0.000E+00

     total cpu time spent up to now is     1075.2 secs

     total energy              = -246093.89112781 Ry
     Harris-Foulkes estimate   = -150119.53421727 Ry
     estimated scf accuracy    < 3306601.17568119 Ry

     iteration #  4     ecut=   140.00 Ry     beta= 0.35
     Davidson diagonalization with overlap
     ethr =  1.00E-02,  avg # of iterations = 22.0

     negative rho (up, down):  5.609E+03 0.000E+00

     total cpu time spent up to now is     1359.1 secs

     total energy              = -240201.07394575 Ry
     Harris-Foulkes estimate   = -246717.30007145 Ry
     estimated scf accuracy    <  218081.55785287 Ry

     iteration #  5     ecut=   140.00 Ry     beta= 0.35
     Davidson diagonalization with overlap
     ethr =  1.00E-02,  avg # of iterations =  4.0

     negative rho (up, down):  5.993E+03 0.000E+00

     total cpu time spent up to now is     1497.0 secs

     total energy              = -230619.16941026 Ry
     Harris-Foulkes estimate   = -240223.44556235 Ry
     estimated scf accuracy    <   95356.55836377 Ry

     iteration #  6     ecut=   140.00 Ry     beta= 0.35
     Davidson diagonalization with overlap
     ethr =  1.00E-02,  avg # of iterations =  5.0

     negative rho (up, down):  7.729E+03 0.000E+00

     total cpu time spent up to now is     1662.6 secs

     total energy              = -231816.83037289 Ry
     Harris-Foulkes estimate   = -230795.50303707 Ry
     estimated scf accuracy    <   10945.17387623 Ry

     iteration #  7     ecut=   140.00 Ry     beta= 0.35
     Davidson diagonalization with overlap
     ethr =  1.00E-02,  avg # of iterations =  4.0

     negative rho (up, down):  5.658E+03 0.000E+00

     total cpu time spent up to now is     1816.2 secs

     total energy              = -230459.69965158 Ry
     Harris-Foulkes estimate   = -232015.44096107 Ry
     estimated scf accuracy    <  501674.55630515 Ry

     iteration #  8     ecut=   140.00 Ry     beta= 0.35
     Davidson diagonalization with overlap
     ethr =  1.00E-02,  avg # of iterations =  5.0

     negative rho (up, down):  6.202E+03 0.000E+00

     total cpu time spent up to now is     1975.8 secs

     total energy              = -230501.30410758 Ry
     Harris-Foulkes estimate   = -230684.11656041 Ry
     estimated scf accuracy    <   66701.90127254 Ry

     iteration #  9     ecut=   140.00 Ry     beta= 0.35
     Davidson diagonalization with overlap
     ethr =  1.00E-02,  avg # of iterations =  4.0

     negative rho (up, down):  6.231E+03 0.000E+00

     total cpu time spent up to now is     2101.9 secs

     total energy              = -230521.12549794 Ry
     Harris-Foulkes estimate   = -230520.31162069 Ry
     estimated scf accuracy    <      17.57390007 Ry

     iteration # 10     ecut=   140.00 Ry     beta= 0.35
     Davidson diagonalization with overlap
     ethr =  9.99E-03,  avg # of iterations =  1.0

     negative rho (up, down):  6.257E+03 0.000E+00

     total cpu time spent up to now is     2202.3 secs

     total energy              = -230522.14481508 Ry
     Harris-Foulkes estimate   = -230521.23174437 Ry
     estimated scf accuracy    <      81.36336386 Ry

     iteration # 11     ecut=   140.00 Ry     beta= 0.35
     Davidson diagonalization with overlap
     ethr =  9.99E-03,  avg # of iterations =  1.0

     negative rho (up, down):  6.212E+03 0.000E+00

     total cpu time spent up to now is     2302.3 secs

     total energy              = -230520.52572316 Ry
     Harris-Foulkes estimate   = -230522.21861553 Ry
     estimated scf accuracy    <     456.81858789 Ry

     iteration # 12     ecut=   140.00 Ry     beta= 0.35
     Davidson diagonalization with overlap
     ethr =  9.99E-03,  avg # of iterations =  1.0

     negative rho (up, down):  6.212E+03 0.000E+00

     total cpu time spent up to now is     2401.9 secs

     total energy              = -230520.62136652 Ry
     Harris-Foulkes estimate   = -230520.62124612 Ry
     estimated scf accuracy    <       0.38987334 Ry

     iteration # 13     ecut=   140.00 Ry     beta= 0.35
     Davidson diagonalization with overlap
     ethr =  2.22E-04,  avg # of iterations =  5.0

     negative rho (up, down):  6.212E+03 0.000E+00

     total cpu time spent up to now is     2504.7 secs

     total energy              = -230520.65276955 Ry
     Harris-Foulkes estimate   = -230520.65375226 Ry
     estimated scf accuracy    <       0.50542759 Ry

     iteration # 14     ecut=   140.00 Ry     beta= 0.35
     Davidson diagonalization with overlap
     ethr =  2.22E-04,  avg # of iterations =  1.0

     negative rho (up, down):  6.212E+03 0.000E+00

     total cpu time spent up to now is     2601.3 secs

     total energy              = -230520.65815470 Ry
     Harris-Foulkes estimate   = -230520.65972711 Ry
     estimated scf accuracy    <       0.45353072 Ry

     iteration # 15     ecut=   140.00 Ry     beta= 0.35
     Davidson diagonalization with overlap
     ethr =  2.22E-04,  avg # of iterations =  1.0

     negative rho (up, down):  6.211E+03 0.000E+00

     total cpu time spent up to now is     2698.1 secs

     total energy              = -230520.66357423 Ry
     Harris-Foulkes estimate   = -230520.66349550 Ry
     estimated scf accuracy    <       0.32200006 Ry

     iteration # 16     ecut=   140.00 Ry     beta= 0.35
     Davidson diagonalization with overlap
     ethr =  1.83E-04,  avg # of iterations =  1.0

     negative rho (up, down):  6.211E+03 0.000E+00

     total cpu time spent up to now is     2796.5 secs

     total energy              = -230520.66813774 Ry
     Harris-Foulkes estimate   = -230520.66785524 Ry
     estimated scf accuracy    <       0.23855113 Ry

     iteration # 17     ecut=   140.00 Ry     beta= 0.35
     Davidson diagonalization with overlap
     ethr =  1.36E-04,  avg # of iterations =  1.0

     negative rho (up, down):  6.211E+03 0.000E+00

     total cpu time spent up to now is     2890.9 secs

     total energy              = -230520.67268123 Ry
     Harris-Foulkes estimate   = -230520.67176645 Ry
     estimated scf accuracy    <       0.15595297 Ry

     iteration # 18     ecut=   140.00 Ry     beta= 0.35
     Davidson diagonalization with overlap
     ethr =  8.86E-05,  avg # of iterations =  1.0

     negative rho (up, down):  6.211E+03 0.000E+00

     total cpu time spent up to now is     2985.0 secs

     total energy              = -230520.67641499 Ry
     Harris-Foulkes estimate   = -230520.67615260 Ry
     estimated scf accuracy    <       0.07049947 Ry

     iteration # 19     ecut=   140.00 Ry     beta= 0.35
     Davidson diagonalization with overlap
     ethr =  4.01E-05,  avg # of iterations = 18.0

     negative rho (up, down):  6.211E+03 0.000E+00

     total cpu time spent up to now is     3133.1 secs

     total energy              = -230520.96091625 Ry
     Harris-Foulkes estimate   = -230520.96118365 Ry
     estimated scf accuracy    <       0.18559042 Ry

     iteration # 20     ecut=   140.00 Ry     beta= 0.35
     Davidson diagonalization with overlap
     ethr =  4.01E-05,  avg # of iterations =  1.0

     negative rho (up, down):  6.211E+03 0.000E+00

     total cpu time spent up to now is     3233.8 secs

     total energy              = -230520.96125884 Ry
     Harris-Foulkes estimate   = -230520.96111914 Ry
     estimated scf accuracy    <       0.18674784 Ry

     iteration # 21     ecut=   140.00 Ry     beta= 0.35
     Davidson diagonalization with overlap
     ethr =  4.01E-05,  avg # of iterations =  1.0

     negative rho (up, down):  6.211E+03 0.000E+00

     total cpu time spent up to now is     3331.8 secs

     total energy              = -230520.96093573 Ry
     Harris-Foulkes estimate   = -230520.96132246 Ry
     estimated scf accuracy    <       0.20004697 Ry

     iteration # 22     ecut=   140.00 Ry     beta= 0.35
     Davidson diagonalization with overlap
     ethr =  4.01E-05,  avg # of iterations =  2.0

     negative rho (up, down):  6.211E+03 0.000E+00

     total cpu time spent up to now is     3431.1 secs

     total energy              = -230520.96450284 Ry
     Harris-Foulkes estimate   = -230520.96309365 Ry
     estimated scf accuracy    <       0.09838284 Ry

     iteration # 23     ecut=   140.00 Ry     beta= 0.35
     Davidson diagonalization with overlap
     ethr =  4.01E-05,  avg # of iterations =  3.0

     negative rho (up, down):  6.211E+03 0.000E+00

     total cpu time spent up to now is     3532.2 secs

     total energy              = -230520.95557895 Ry
     Harris-Foulkes estimate   = -230520.96637223 Ry
     estimated scf accuracy    <       0.14903016 Ry

     iteration # 24     ecut=   140.00 Ry     beta= 0.35
     Davidson diagonalization with overlap
     ethr =  4.01E-05,  avg # of iterations =  3.0

     negative rho (up, down):  6.211E+03 0.000E+00

     total cpu time spent up to now is     3630.9 secs

     total energy              = -230520.96175136 Ry
     Harris-Foulkes estimate   = -230520.95950669 Ry
     estimated scf accuracy    <       0.22585033 Ry

     iteration # 25     ecut=   140.00 Ry     beta= 0.35
     Davidson diagonalization with overlap
     ethr =  4.01E-05,  avg # of iterations =  1.0

     negative rho (up, down):  6.211E+03 0.000E+00

     total cpu time spent up to now is     3720.5 secs

     total energy              = -230520.96422708 Ry
     Harris-Foulkes estimate   = -230520.96210563 Ry
     estimated scf accuracy    <       0.16616018 Ry

     iteration # 26     ecut=   140.00 Ry     beta= 0.35
     Davidson diagonalization with overlap
     ethr =  4.01E-05,  avg # of iterations =  2.0

     negative rho (up, down):  6.211E+03 0.000E+00

     total cpu time spent up to now is     3811.4 secs

     total energy              = -230520.96656385 Ry
     Harris-Foulkes estimate   = -230520.96624439 Ry
     estimated scf accuracy    <       0.09776932 Ry

     iteration # 27     ecut=   140.00 Ry     beta= 0.35
     Davidson diagonalization with overlap
     ethr =  4.01E-05,  avg # of iterations =  1.0

     negative rho (up, down):  6.211E+03 0.000E+00

     total cpu time spent up to now is     3904.4 secs

     total energy              = -230520.95680015 Ry
     Harris-Foulkes estimate   = -230520.96700945 Ry
     estimated scf accuracy    <       0.04961048 Ry

     iteration # 28     ecut=   140.00 Ry     beta= 0.35
     Davidson diagonalization with overlap
     ethr =  2.82E-05,  avg # of iterations =  4.0

     negative rho (up, down):  6.211E+03 0.000E+00

     total cpu time spent up to now is     4020.0 secs

     total energy              = -230520.96038865 Ry
     Harris-Foulkes estimate   = -230520.97438375 Ry
     estimated scf accuracy    <       0.01633432 Ry

     iteration # 29     ecut=   140.00 Ry     beta= 0.35
     Davidson diagonalization with overlap
     ethr =  9.28E-06,  avg # of iterations = 10.0

     negative rho (up, down):  6.211E+03 0.000E+00

     total cpu time spent up to now is     4166.6 secs

     total energy              = -230520.98066301 Ry
     Harris-Foulkes estimate   = -230520.98651990 Ry
     estimated scf accuracy    <       0.02002200 Ry

     iteration # 30     ecut=   140.00 Ry     beta= 0.35
     Davidson diagonalization with overlap
     ethr =  9.28E-06,  avg # of iterations =  2.0

     negative rho (up, down):  6.211E+03 0.000E+00

     total cpu time spent up to now is     4264.5 secs

     total energy              = -230520.94181075 Ry
     Harris-Foulkes estimate   = -230520.98131146 Ry
     estimated scf accuracy    <       0.03331381 Ry

     iteration # 31     ecut=   140.00 Ry     beta= 0.35
     Davidson diagonalization with overlap
     ethr =  9.28E-06,  avg # of iterations =  4.0

     negative rho (up, down):  6.211E+03 0.000E+00

     total cpu time spent up to now is     4408.3 secs

     total energy              = -230520.99008389 Ry
     Harris-Foulkes estimate   = -230520.99592158 Ry
     estimated scf accuracy    <       0.01475313 Ry

     iteration # 32     ecut=   140.00 Ry     beta= 0.35
     Davidson diagonalization with overlap
     ethr =  8.38E-06,  avg # of iterations = 11.0

     negative rho (up, down):  6.211E+03 0.000E+00

     total cpu time spent up to now is     4559.8 secs

     total energy              = -230521.00436329 Ry
     Harris-Foulkes estimate   = -230521.00451372 Ry
     estimated scf accuracy    <       0.08233468 Ry

     iteration # 33     ecut=   140.00 Ry     beta= 0.35
     Davidson diagonalization with overlap
     ethr =  8.38E-06,  avg # of iterations =  4.0

     negative rho (up, down):  6.211E+03 0.000E+00

     total cpu time spent up to now is     4676.5 secs

     total energy              = -230521.00854145 Ry
     Harris-Foulkes estimate   = -230521.01157614 Ry
     estimated scf accuracy    <       0.07880150 Ry

     iteration # 34     ecut=   140.00 Ry     beta= 0.35
     Davidson diagonalization with overlap
     ethr =  8.38E-06,  avg # of iterations =  2.0

     negative rho (up, down):  6.211E+03 0.000E+00

     total cpu time spent up to now is     4768.4 secs

     total energy              = -230521.01051820 Ry
     Harris-Foulkes estimate   = -230521.00910900 Ry
     estimated scf accuracy    <       0.10790508 Ry

     iteration # 35     ecut=   140.00 Ry     beta= 0.35
     Davidson diagonalization with overlap
     ethr =  8.38E-06,  avg # of iterations =  2.0

     negative rho (up, down):  6.211E+03 0.000E+00

     total cpu time spent up to now is     4860.9 secs

     total energy              = -230521.00937870 Ry
     Harris-Foulkes estimate   = -230521.01086139 Ry
     estimated scf accuracy    <       0.05968763 Ry

     iteration # 36     ecut=   140.00 Ry     beta= 0.35
     Davidson diagonalization with overlap
     ethr =  8.38E-06,  avg # of iterations =  4.0

     negative rho (up, down):  6.211E+03 0.000E+00

     total cpu time spent up to now is     4985.2 secs

     total energy              = -230521.01443875 Ry
     Harris-Foulkes estimate   = -230521.01656658 Ry
     estimated scf accuracy    <       0.05595739 Ry

     iteration # 37     ecut=   140.00 Ry     beta= 0.35
     Davidson diagonalization with overlap
     ethr =  8.38E-06,  avg # of iterations =  2.0

     negative rho (up, down):  6.211E+03 0.000E+00

     total cpu time spent up to now is     5074.9 secs

     total energy              = -230521.01038233 Ry
     Harris-Foulkes estimate   = -230521.01480006 Ry
     estimated scf accuracy    <       0.07320681 Ry

     iteration # 38     ecut=   140.00 Ry     beta= 0.35
     Davidson diagonalization with overlap
     ethr =  8.38E-06,  avg # of iterations =  4.0

     negative rho (up, down):  6.211E+03 0.000E+00

     total cpu time spent up to now is     5206.5 secs

     total energy              = -230521.02361704 Ry
     Harris-Foulkes estimate   = -230521.02656228 Ry
     estimated scf accuracy    <       0.04439754 Ry

     iteration # 39     ecut=   140.00 Ry     beta= 0.35
     Davidson diagonalization with overlap
     ethr =  8.38E-06,  avg # of iterations =  2.0

     negative rho (up, down):  6.211E+03 0.000E+00

     total cpu time spent up to now is     5295.9 secs

     total energy              = -230521.02633559 Ry
     Harris-Foulkes estimate   = -230521.02413406 Ry
     estimated scf accuracy    <       0.06079269 Ry

     iteration # 40     ecut=   140.00 Ry     beta= 0.35
     Davidson diagonalization with overlap
     ethr =  8.38E-06,  avg # of iterations =  2.0

     negative rho (up, down):  6.211E+03 0.000E+00

     total cpu time spent up to now is     5387.3 secs

     total energy              = -230521.02731374 Ry
     Harris-Foulkes estimate   = -230521.02675310 Ry
     estimated scf accuracy    <       0.04171820 Ry

     iteration # 41     ecut=   140.00 Ry     beta= 0.35
     Davidson diagonalization with overlap
     ethr =  8.38E-06,  avg # of iterations =  1.0

     negative rho (up, down):  6.211E+03 0.000E+00

     total cpu time spent up to now is     5481.5 secs

     total energy              = -230521.02807260 Ry
     Harris-Foulkes estimate   = -230521.02741214 Ry
     estimated scf accuracy    <       0.03249974 Ry

     iteration # 42     ecut=   140.00 Ry     beta= 0.35
     Davidson diagonalization with overlap
     ethr =  8.38E-06,  avg # of iterations =  1.0

     negative rho (up, down):  6.211E+03 0.000E+00

     total cpu time spent up to now is     5581.1 secs

     total energy              = -230521.02838034 Ry
     Harris-Foulkes estimate   = -230521.02821778 Ry
     estimated scf accuracy    <       0.02570645 Ry

     iteration # 43     ecut=   140.00 Ry     beta= 0.35
     Davidson diagonalization with overlap
     ethr =  8.38E-06,  avg # of iterations =  1.0

     negative rho (up, down):  6.211E+03 0.000E+00

     total cpu time spent up to now is     5681.2 secs

     total energy              = -230521.02861548 Ry
     Harris-Foulkes estimate   = -230521.02847051 Ry
     estimated scf accuracy    <       0.02570596 Ry

     iteration # 44     ecut=   140.00 Ry     beta= 0.35
     Davidson diagonalization with overlap
     ethr =  8.38E-06,  avg # of iterations =  1.0

     negative rho (up, down):  6.211E+03 0.000E+00

     total cpu time spent up to now is     5779.9 secs

     total energy              = -230521.02877080 Ry
     Harris-Foulkes estimate   = -230521.02869301 Ry
     estimated scf accuracy    <       0.02564034 Ry

     iteration # 45     ecut=   140.00 Ry     beta= 0.35
     Davidson diagonalization with overlap
     ethr =  8.38E-06,  avg # of iterations =  1.0

     negative rho (up, down):  6.211E+03 0.000E+00

     total cpu time spent up to now is     5878.7 secs

     total energy              = -230521.02924749 Ry
     Harris-Foulkes estimate   = -230521.02882952 Ry
     estimated scf accuracy    <       0.02466231 Ry

     iteration # 46     ecut=   140.00 Ry     beta= 0.35
     Davidson diagonalization with overlap
     ethr =  8.38E-06,  avg # of iterations =  4.0

     negative rho (up, down):  6.211E+03 0.000E+00

     total cpu time spent up to now is     5998.4 secs

     total energy              = -230521.03278044 Ry
     Harris-Foulkes estimate   = -230521.03496782 Ry
     estimated scf accuracy    <       0.05566404 Ry

     iteration # 47     ecut=   140.00 Ry     beta= 0.35
     Davidson diagonalization with overlap
     ethr =  8.38E-06,  avg # of iterations =  2.0

     negative rho (up, down):  6.211E+03 0.000E+00

     total cpu time spent up to now is     6092.9 secs

     total energy              = -230521.03593204 Ry
     Harris-Foulkes estimate   = -230521.03311099 Ry
     estimated scf accuracy    <       0.06453319 Ry

     iteration # 48     ecut=   140.00 Ry     beta= 0.35
     Davidson diagonalization with overlap
     ethr =  8.38E-06,  avg # of iterations =  4.0

     negative rho (up, down):  6.211E+03 0.000E+00

     total cpu time spent up to now is     6194.6 secs

     total energy              = -230521.03804784 Ry
     Harris-Foulkes estimate   = -230521.03804789 Ry
     estimated scf accuracy    <       0.06403944 Ry

     iteration # 49     ecut=   140.00 Ry     beta= 0.35
     Davidson diagonalization with overlap
     ethr =  8.38E-06,  avg # of iterations =  1.0

     negative rho (up, down):  6.211E+03 0.000E+00
