
     Program PWSCF v.6.4.1 starts on 24Jan2021 at 20:16:17 

     This program is part of the open-source Quantum ESPRESSO suite
     for quantum simulation of materials; please cite
         "P. Giannozzi et al., J. Phys.:Condens. Matter 21 395502 (2009);
         "P. Giannozzi et al., J. Phys.:Condens. Matter 29 465901 (2017);
          URL http://www.quantum-espresso.org", 
     in publications or presentations arising from this work. More details at
     http://www.quantum-espresso.org/quote

     Parallel version (MPI & OpenMP), running on      48 processor cores
     Number of MPI processes:                24
     Threads/MPI process:                     2

     MPI processes distributed on     1 nodes
     R & G space division:  proc/nbgrp/npool/nimage =      24
     Waiting for input...
     Reading input from standard input

     Current dimensions of program PWSCF are:
     Max number of different atomic species (ntypx) = 10
     Max number of k-points (npk) =  40000
     Max angular momentum in pseudopotentials (lmaxx) =  3
               file Sn.rel-pbesol-dn-kjpaw_psl.1.0.0.UPF: wavefunction(s)  5S 5P 5P 4D 4D renormalized
               file I.rel-pbesol-n-kjpaw_psl.1.0.0.UPF: wavefunction(s)  5S renormalized

     Subspace diagonalization in iterative solution of the eigenvalue problem:
     one sub-group per band group will be used
     scalapack distributed-memory algorithm (size of sub-group:  3*  3 procs)

 
     Parallelization info
     --------------------
     sticks:   dense  smooth     PW     G-vecs:    dense   smooth      PW
     Min         222     148     40                12208     6652     958
     Max         223     149     41                12211     6655     961
     Sum        5345    3569    973               293027   159699   23031
 

     Title: 
     CsIsalt                                                                    


     bravais-lattice index     =            1
     lattice parameter (alat)  =      12.6355  a.u.
     unit-cell volume          =    2017.3401 (a.u.)^3
     number of atoms/cell      =            5
     number of atomic types    =            2
     number of electrons       =        42.00
     number of Kohn-Sham states=           42
     kinetic-energy cutoff     =      70.0000  Ry
     charge density cutoff     =     420.0000  Ry
     convergence threshold     =      1.0E-06
     mixing beta               =       0.3500
     number of iterations used =            8  plain     mixing
     Exchange-correlation      = SLA PW PSX PSC ( 1  4 10  8 0 0)
     Non magnetic calculation with spin-orbit


     celldm(1)=  12.635518  celldm(2)=   0.000000  celldm(3)=   0.000000
     celldm(4)=   0.000000  celldm(5)=   0.000000  celldm(6)=   0.000000

     crystal axes: (cart. coord. in units of alat)
               a(1) = (   1.000000   0.000000   0.000000 )  
               a(2) = (   0.000000   1.000000   0.000000 )  
               a(3) = (   0.000000   0.000000   1.000000 )  

     reciprocal axes: (cart. coord. in units 2 pi/alat)
               b(1) = (  1.000000  0.000000  0.000000 )  
               b(2) = (  0.000000  1.000000  0.000000 )  
               b(3) = (  0.000000  0.000000  1.000000 )  


     PseudoPot. # 1 for Sn read from file:
     /marconi_scratch/userexternal/cmalosso/degironcoli/pseudo/Sn.rel-pbesol-dn-kjpaw_psl.1.0.0.UPF
     MD5 check sum: e69eff64f15ae39ad43ef58bacbfdf88
     Pseudo is Projector augmented-wave + core cor, Zval = 14.0
     Generated using "atomic" code by A. Dal Corso v.6.3
     Shape of augmentation charge: PSQ
     Using radial grid of 1243 points, 10 beta functions with: 
                l(1) =   0
                l(2) =   0
                l(3) =   1
                l(4) =   1
                l(5) =   1
                l(6) =   1
                l(7) =   2
                l(8) =   2
                l(9) =   2
               l(10) =   2
     Q(r) pseudized with 0 coefficients 


     PseudoPot. # 2 for I  read from file:
     /marconi_scratch/userexternal/cmalosso/degironcoli/pseudo/I.rel-pbesol-n-kjpaw_psl.1.0.0.UPF
     MD5 check sum: 4478c427bd443f303eca1937a163b991
     Pseudo is Projector augmented-wave + core cor, Zval =  7.0
     Generated using "atomic" code by A. Dal Corso v.6.3
     Shape of augmentation charge: PSQ
     Using radial grid of 1247 points, 10 beta functions with: 
                l(1) =   0
                l(2) =   0
                l(3) =   1
                l(4) =   1
                l(5) =   1
                l(6) =   1
                l(7) =   2
                l(8) =   2
                l(9) =   2
               l(10) =   2
     Q(r) pseudized with 0 coefficients 


     atomic species   valence    mass     pseudopotential
        Sn            14.00   118.70000     Sn( 1.00)
        I              7.00   126.90000     I ( 1.00)

     24 Sym. Ops. (no inversion) found


                                    s                        frac. trans.

      isym =  1     identity                                     

 cryst.   s( 1) = (     1          0          0      )
                  (     0          1          0      )
                  (     0          0          1      )

 cart.    s( 1) = (  1.0000000  0.0000000  0.0000000 )
                  (  0.0000000  1.0000000  0.0000000 )
                  (  0.0000000  0.0000000  1.0000000 )


      isym =  2     180 deg rotation - cart. axis [0,0,1]        

 cryst.   s( 2) = (    -1          0          0      )
                  (     0         -1          0      )
                  (     0          0          1      )

 cart.    s( 2) = ( -1.0000000  0.0000000  0.0000000 )
                  (  0.0000000 -1.0000000  0.0000000 )
                  (  0.0000000  0.0000000  1.0000000 )


      isym =  3     180 deg rotation - cart. axis [0,1,0]        

 cryst.   s( 3) = (    -1          0          0      )
                  (     0          1          0      )
                  (     0          0         -1      )

 cart.    s( 3) = ( -1.0000000  0.0000000  0.0000000 )
                  (  0.0000000  1.0000000  0.0000000 )
                  (  0.0000000  0.0000000 -1.0000000 )


      isym =  4     180 deg rotation - cart. axis [1,0,0]        

 cryst.   s( 4) = (     1          0          0      )
                  (     0         -1          0      )
                  (     0          0         -1      )

 cart.    s( 4) = (  1.0000000  0.0000000  0.0000000 )
                  (  0.0000000 -1.0000000  0.0000000 )
                  (  0.0000000  0.0000000 -1.0000000 )


      isym =  5     120 deg rotation - cart. axis [-1,-1,-1]     

 cryst.   s( 5) = (     0          0          1      )
                  (     1          0          0      )
                  (     0          1          0      )

 cart.    s( 5) = (  0.0000000  1.0000000  0.0000000 )
                  (  0.0000000  0.0000000  1.0000000 )
                  (  1.0000000  0.0000000  0.0000000 )


      isym =  6     120 deg rotation - cart. axis [-1,1,1]       

 cryst.   s( 6) = (     0          0         -1      )
                  (    -1          0          0      )
                  (     0          1          0      )

 cart.    s( 6) = (  0.0000000 -1.0000000  0.0000000 )
                  (  0.0000000  0.0000000  1.0000000 )
                  ( -1.0000000  0.0000000  0.0000000 )


      isym =  7     120 deg rotation - cart. axis [1,1,-1]       

 cryst.   s( 7) = (     0          0         -1      )
                  (     1          0          0      )
                  (     0         -1          0      )

 cart.    s( 7) = (  0.0000000  1.0000000  0.0000000 )
                  (  0.0000000  0.0000000 -1.0000000 )
                  ( -1.0000000  0.0000000  0.0000000 )


      isym =  8     120 deg rotation - cart. axis [1,-1,1]       

 cryst.   s( 8) = (     0          0          1      )
                  (    -1          0          0      )
                  (     0         -1          0      )

 cart.    s( 8) = (  0.0000000 -1.0000000  0.0000000 )
                  (  0.0000000  0.0000000 -1.0000000 )
                  (  1.0000000  0.0000000  0.0000000 )


      isym =  9     120 deg rotation - cart. axis [1,1,1]        

 cryst.   s( 9) = (     0          1          0      )
                  (     0          0          1      )
                  (     1          0          0      )

 cart.    s( 9) = (  0.0000000  0.0000000  1.0000000 )
                  (  1.0000000  0.0000000  0.0000000 )
                  (  0.0000000  1.0000000  0.0000000 )


      isym = 10     120 deg rotation - cart. axis [-1,1,-1]      

 cryst.   s(10) = (     0         -1          0      )
                  (     0          0         -1      )
                  (     1          0          0      )

 cart.    s(10) = (  0.0000000  0.0000000  1.0000000 )
                  ( -1.0000000  0.0000000  0.0000000 )
                  (  0.0000000 -1.0000000  0.0000000 )


      isym = 11     120 deg rotation - cart. axis [1,-1,-1]      

 cryst.   s(11) = (     0         -1          0      )
                  (     0          0          1      )
                  (    -1          0          0      )

 cart.    s(11) = (  0.0000000  0.0000000 -1.0000000 )
                  ( -1.0000000  0.0000000  0.0000000 )
                  (  0.0000000  1.0000000  0.0000000 )


      isym = 12     120 deg rotation - cart. axis [-1,-1,1]      

 cryst.   s(12) = (     0          1          0      )
                  (     0          0         -1      )
                  (    -1          0          0      )

 cart.    s(12) = (  0.0000000  0.0000000 -1.0000000 )
                  (  1.0000000  0.0000000  0.0000000 )
                  (  0.0000000 -1.0000000  0.0000000 )


      isym = 13     inv. 180 deg rotation - cart. axis [1,1,0]   

 cryst.   s(13) = (     0         -1          0      )
                  (    -1          0          0      )
                  (     0          0          1      )

 cart.    s(13) = (  0.0000000 -1.0000000  0.0000000 )
                  ( -1.0000000  0.0000000  0.0000000 )
                  (  0.0000000  0.0000000  1.0000000 )


      isym = 14     inv. 180 deg rotation - cart. axis [1,-1,0]  

 cryst.   s(14) = (     0          1          0      )
                  (     1          0          0      )
                  (     0          0          1      )

 cart.    s(14) = (  0.0000000  1.0000000  0.0000000 )
                  (  1.0000000  0.0000000  0.0000000 )
                  (  0.0000000  0.0000000  1.0000000 )


      isym = 15     inv.  90 deg rotation - cart. axis [0,0,-1]  

 cryst.   s(15) = (     0          1          0      )
                  (    -1          0          0      )
                  (     0          0         -1      )

 cart.    s(15) = (  0.0000000 -1.0000000  0.0000000 )
                  (  1.0000000  0.0000000  0.0000000 )
                  (  0.0000000  0.0000000 -1.0000000 )


      isym = 16     inv.  90 deg rotation - cart. axis [0,0,1]   

 cryst.   s(16) = (     0         -1          0      )
                  (     1          0          0      )
                  (     0          0         -1      )

 cart.    s(16) = (  0.0000000  1.0000000  0.0000000 )
                  ( -1.0000000  0.0000000  0.0000000 )
                  (  0.0000000  0.0000000 -1.0000000 )


      isym = 17     inv. 180 deg rotation - cart. axis [1,0,1]   

 cryst.   s(17) = (     0          0         -1      )
                  (     0          1          0      )
                  (    -1          0          0      )

 cart.    s(17) = (  0.0000000  0.0000000 -1.0000000 )
                  (  0.0000000  1.0000000  0.0000000 )
                  ( -1.0000000  0.0000000  0.0000000 )


      isym = 18     inv. 180 deg rotation - cart. axis [-1,0,1]  

 cryst.   s(18) = (     0          0          1      )
                  (     0          1          0      )
                  (     1          0          0      )

 cart.    s(18) = (  0.0000000  0.0000000  1.0000000 )
                  (  0.0000000  1.0000000  0.0000000 )
                  (  1.0000000  0.0000000  0.0000000 )


      isym = 19     inv.  90 deg rotation - cart. axis [0,1,0]   

 cryst.   s(19) = (     0          0          1      )
                  (     0         -1          0      )
                  (    -1          0          0      )

 cart.    s(19) = (  0.0000000  0.0000000 -1.0000000 )
                  (  0.0000000 -1.0000000  0.0000000 )
                  (  1.0000000  0.0000000  0.0000000 )


      isym = 20     inv.  90 deg rotation - cart. axis [0,-1,0]  

 cryst.   s(20) = (     0          0         -1      )
                  (     0         -1          0      )
                  (     1          0          0      )

 cart.    s(20) = (  0.0000000  0.0000000  1.0000000 )
                  (  0.0000000 -1.0000000  0.0000000 )
                  ( -1.0000000  0.0000000  0.0000000 )


      isym = 21     inv. 180 deg rotation - cart. axis [0,1,1]   

 cryst.   s(21) = (     1          0          0      )
                  (     0          0         -1      )
                  (     0         -1          0      )

 cart.    s(21) = (  1.0000000  0.0000000  0.0000000 )
                  (  0.0000000  0.0000000 -1.0000000 )
                  (  0.0000000 -1.0000000  0.0000000 )


      isym = 22     inv. 180 deg rotation - cart. axis [0,1,-1]  

 cryst.   s(22) = (     1          0          0      )
                  (     0          0          1      )
                  (     0          1          0      )

 cart.    s(22) = (  1.0000000  0.0000000  0.0000000 )
                  (  0.0000000  0.0000000  1.0000000 )
                  (  0.0000000  1.0000000  0.0000000 )


      isym = 23     inv.  90 deg rotation - cart. axis [-1,0,0]  

 cryst.   s(23) = (    -1          0          0      )
                  (     0          0          1      )
                  (     0         -1          0      )

 cart.    s(23) = ( -1.0000000  0.0000000  0.0000000 )
                  (  0.0000000  0.0000000 -1.0000000 )
                  (  0.0000000  1.0000000  0.0000000 )


      isym = 24     inv.  90 deg rotation - cart. axis [1,0,0]   

 cryst.   s(24) = (    -1          0          0      )
                  (     0          0         -1      )
                  (     0          1          0      )

 cart.    s(24) = ( -1.0000000  0.0000000  0.0000000 )
                  (  0.0000000  0.0000000  1.0000000 )
                  (  0.0000000 -1.0000000  0.0000000 )


     double point group T_d (-43m) 
     there are  8 classes and  3 irreducible representations
     the character table:

       E     -E    8C3   -8C3   3C2  6S4   -6S4  6s_d 
                               -3C2              -6s_d
G_6    2.00 -2.00  1.00 -1.00  0.00  1.41 -1.41  0.00
G_7    2.00 -2.00  1.00 -1.00  0.00 -1.41  1.41  0.00
G_8    4.00 -4.00 -1.00  1.00  0.00  0.00  0.00  0.00

     the symmetry operations in each class and the name of the first element:

     E             1
          identity                                               
     -E           -1
          identity E                                             
     8C3           5    7    8    6   12    9   10   11
          120 deg rotation - cart. axis [-1,-1,-1]               
     -8C3         -5   -7   -8   -6  -12   -9  -10  -11
          120 deg rotation - cart. axis [-1,-1,-1] E             
      3C2 -3C2     2   -2    3   -3    4   -4
          180 deg rotation - cart. axis [0,0,1]                  
     6S4          15   16   20   19   23   24
          inv.  90 deg rotation - cart. axis [0,0,-1]            
     -6S4        -15  -16  -20  -19  -23  -24
          inv.  90 deg rotation - cart. axis [0,0,-1] E          
     6s_d -6s_d   13  -13  -14   14   17  -17  -18   18   21  -21   22  -22
          inv. 180 deg rotation - cart. axis [1,1,0]             

   Cartesian axes

     site n.     atom                  positions (alat units)
         1           Sn  tau(   1) = (   0.0000000   0.0000000   0.0000000  )
         2           I   tau(   2) = (   0.2339030   0.7660970   0.7660970  )
         3           I   tau(   3) = (   0.7660970   0.2339030   0.7660970  )
         4           I   tau(   4) = (   0.7660970   0.7660970   0.2339030  )
         5           I   tau(   5) = (   0.2339030   0.2339030   0.2339030  )

   Crystallographic axes

     site n.     atom                  positions (cryst. coord.)
         1           Sn  tau(   1) = (  0.0000000  0.0000000  0.0000000  )
         2           I   tau(   2) = (  0.2339030  0.7660970  0.7660970  )
         3           I   tau(   3) = (  0.7660970  0.2339030  0.7660970  )
         4           I   tau(   4) = (  0.7660970  0.7660970  0.2339030  )
         5           I   tau(   5) = (  0.2339030  0.2339030  0.2339030  )

     number of k points=    56
                       cart. coord. in units 2pi/alat
        k(    1) = (   0.0454545   0.0454545   0.0454545), wk =   0.0060105
        k(    2) = (   0.0454545   0.0454545   0.1363636), wk =   0.0180316
        k(    3) = (   0.0454545   0.0454545   0.2272727), wk =   0.0180316
        k(    4) = (   0.0454545   0.0454545   0.3181818), wk =   0.0180316
        k(    5) = (   0.0454545   0.0454545   0.4090909), wk =   0.0180316
        k(    6) = (   0.0454545   0.0454545  -0.5000000), wk =   0.0090158
        k(    7) = (   0.0454545   0.1363636   0.1363636), wk =   0.0180316
        k(    8) = (   0.0454545   0.1363636   0.2272727), wk =   0.0360631
        k(    9) = (   0.0454545   0.1363636   0.3181818), wk =   0.0360631
        k(   10) = (   0.0454545   0.1363636   0.4090909), wk =   0.0360631
        k(   11) = (   0.0454545   0.1363636  -0.5000000), wk =   0.0180316
        k(   12) = (   0.0454545   0.2272727   0.2272727), wk =   0.0180316
        k(   13) = (   0.0454545   0.2272727   0.3181818), wk =   0.0360631
        k(   14) = (   0.0454545   0.2272727   0.4090909), wk =   0.0360631
        k(   15) = (   0.0454545   0.2272727  -0.5000000), wk =   0.0180316
        k(   16) = (   0.0454545   0.3181818   0.3181818), wk =   0.0180316
        k(   17) = (   0.0454545   0.3181818   0.4090909), wk =   0.0360631
        k(   18) = (   0.0454545   0.3181818  -0.5000000), wk =   0.0180316
        k(   19) = (   0.0454545   0.4090909   0.4090909), wk =   0.0180316
        k(   20) = (   0.0454545   0.4090909  -0.5000000), wk =   0.0180316
        k(   21) = (   0.0454545  -0.5000000  -0.5000000), wk =   0.0045079
        k(   22) = (   0.1363636   0.1363636   0.1363636), wk =   0.0060105
        k(   23) = (   0.1363636   0.1363636   0.2272727), wk =   0.0180316
        k(   24) = (   0.1363636   0.1363636   0.3181818), wk =   0.0180316
        k(   25) = (   0.1363636   0.1363636   0.4090909), wk =   0.0180316
        k(   26) = (   0.1363636   0.1363636  -0.5000000), wk =   0.0090158
        k(   27) = (   0.1363636   0.2272727   0.2272727), wk =   0.0180316
        k(   28) = (   0.1363636   0.2272727   0.3181818), wk =   0.0360631
        k(   29) = (   0.1363636   0.2272727   0.4090909), wk =   0.0360631
        k(   30) = (   0.1363636   0.2272727  -0.5000000), wk =   0.0180316
        k(   31) = (   0.1363636   0.3181818   0.3181818), wk =   0.0180316
        k(   32) = (   0.1363636   0.3181818   0.4090909), wk =   0.0360631
        k(   33) = (   0.1363636   0.3181818  -0.5000000), wk =   0.0180316
        k(   34) = (   0.1363636   0.4090909   0.4090909), wk =   0.0180316
        k(   35) = (   0.1363636   0.4090909  -0.5000000), wk =   0.0180316
        k(   36) = (   0.1363636  -0.5000000  -0.5000000), wk =   0.0045079
        k(   37) = (   0.2272727   0.2272727   0.2272727), wk =   0.0060105
        k(   38) = (   0.2272727   0.2272727   0.3181818), wk =   0.0180316
        k(   39) = (   0.2272727   0.2272727   0.4090909), wk =   0.0180316
        k(   40) = (   0.2272727   0.2272727  -0.5000000), wk =   0.0090158
        k(   41) = (   0.2272727   0.3181818   0.3181818), wk =   0.0180316
        k(   42) = (   0.2272727   0.3181818   0.4090909), wk =   0.0360631
        k(   43) = (   0.2272727   0.3181818  -0.5000000), wk =   0.0180316
        k(   44) = (   0.2272727   0.4090909   0.4090909), wk =   0.0180316
        k(   45) = (   0.2272727   0.4090909  -0.5000000), wk =   0.0180316
        k(   46) = (   0.2272727  -0.5000000  -0.5000000), wk =   0.0045079
        k(   47) = (   0.3181818   0.3181818   0.3181818), wk =   0.0060105
        k(   48) = (   0.3181818   0.3181818   0.4090909), wk =   0.0180316
        k(   49) = (   0.3181818   0.3181818  -0.5000000), wk =   0.0090158
        k(   50) = (   0.3181818   0.4090909   0.4090909), wk =   0.0180316
        k(   51) = (   0.3181818   0.4090909  -0.5000000), wk =   0.0180316
        k(   52) = (   0.3181818  -0.5000000  -0.5000000), wk =   0.0045079
        k(   53) = (   0.4090909   0.4090909   0.4090909), wk =   0.0060105
        k(   54) = (   0.4090909   0.4090909  -0.5000000), wk =   0.0090158
        k(   55) = (   0.4090909  -0.5000000  -0.5000000), wk =   0.0045079
        k(   56) = (  -0.5000000  -0.5000000  -0.5000000), wk =   0.0007513

                       cryst. coord.
        k(    1) = (   0.0454545   0.0454545   0.0454545), wk =   0.0060105
        k(    2) = (   0.0454545   0.0454545   0.1363636), wk =   0.0180316
        k(    3) = (   0.0454545   0.0454545   0.2272727), wk =   0.0180316
        k(    4) = (   0.0454545   0.0454545   0.3181818), wk =   0.0180316
        k(    5) = (   0.0454545   0.0454545   0.4090909), wk =   0.0180316
        k(    6) = (   0.0454545   0.0454545  -0.5000000), wk =   0.0090158
        k(    7) = (   0.0454545   0.1363636   0.1363636), wk =   0.0180316
        k(    8) = (   0.0454545   0.1363636   0.2272727), wk =   0.0360631
        k(    9) = (   0.0454545   0.1363636   0.3181818), wk =   0.0360631
        k(   10) = (   0.0454545   0.1363636   0.4090909), wk =   0.0360631
        k(   11) = (   0.0454545   0.1363636  -0.5000000), wk =   0.0180316
        k(   12) = (   0.0454545   0.2272727   0.2272727), wk =   0.0180316
        k(   13) = (   0.0454545   0.2272727   0.3181818), wk =   0.0360631
        k(   14) = (   0.0454545   0.2272727   0.4090909), wk =   0.0360631
        k(   15) = (   0.0454545   0.2272727  -0.5000000), wk =   0.0180316
        k(   16) = (   0.0454545   0.3181818   0.3181818), wk =   0.0180316
        k(   17) = (   0.0454545   0.3181818   0.4090909), wk =   0.0360631
        k(   18) = (   0.0454545   0.3181818  -0.5000000), wk =   0.0180316
        k(   19) = (   0.0454545   0.4090909   0.4090909), wk =   0.0180316
        k(   20) = (   0.0454545   0.4090909  -0.5000000), wk =   0.0180316
        k(   21) = (   0.0454545  -0.5000000  -0.5000000), wk =   0.0045079
        k(   22) = (   0.1363636   0.1363636   0.1363636), wk =   0.0060105
        k(   23) = (   0.1363636   0.1363636   0.2272727), wk =   0.0180316
        k(   24) = (   0.1363636   0.1363636   0.3181818), wk =   0.0180316
        k(   25) = (   0.1363636   0.1363636   0.4090909), wk =   0.0180316
        k(   26) = (   0.1363636   0.1363636  -0.5000000), wk =   0.0090158
        k(   27) = (   0.1363636   0.2272727   0.2272727), wk =   0.0180316
        k(   28) = (   0.1363636   0.2272727   0.3181818), wk =   0.0360631
        k(   29) = (   0.1363636   0.2272727   0.4090909), wk =   0.0360631
        k(   30) = (   0.1363636   0.2272727  -0.5000000), wk =   0.0180316
        k(   31) = (   0.1363636   0.3181818   0.3181818), wk =   0.0180316
        k(   32) = (   0.1363636   0.3181818   0.4090909), wk =   0.0360631
        k(   33) = (   0.1363636   0.3181818  -0.5000000), wk =   0.0180316
        k(   34) = (   0.1363636   0.4090909   0.4090909), wk =   0.0180316
        k(   35) = (   0.1363636   0.4090909  -0.5000000), wk =   0.0180316
        k(   36) = (   0.1363636  -0.5000000  -0.5000000), wk =   0.0045079
        k(   37) = (   0.2272727   0.2272727   0.2272727), wk =   0.0060105
        k(   38) = (   0.2272727   0.2272727   0.3181818), wk =   0.0180316
        k(   39) = (   0.2272727   0.2272727   0.4090909), wk =   0.0180316
        k(   40) = (   0.2272727   0.2272727  -0.5000000), wk =   0.0090158
        k(   41) = (   0.2272727   0.3181818   0.3181818), wk =   0.0180316
        k(   42) = (   0.2272727   0.3181818   0.4090909), wk =   0.0360631
        k(   43) = (   0.2272727   0.3181818  -0.5000000), wk =   0.0180316
        k(   44) = (   0.2272727   0.4090909   0.4090909), wk =   0.0180316
        k(   45) = (   0.2272727   0.4090909  -0.5000000), wk =   0.0180316
        k(   46) = (   0.2272727  -0.5000000  -0.5000000), wk =   0.0045079
        k(   47) = (   0.3181818   0.3181818   0.3181818), wk =   0.0060105
        k(   48) = (   0.3181818   0.3181818   0.4090909), wk =   0.0180316
        k(   49) = (   0.3181818   0.3181818  -0.5000000), wk =   0.0090158
        k(   50) = (   0.3181818   0.4090909   0.4090909), wk =   0.0180316
        k(   51) = (   0.3181818   0.4090909  -0.5000000), wk =   0.0180316
        k(   52) = (   0.3181818  -0.5000000  -0.5000000), wk =   0.0045079
        k(   53) = (   0.4090909   0.4090909   0.4090909), wk =   0.0060105
        k(   54) = (   0.4090909   0.4090909  -0.5000000), wk =   0.0090158
        k(   55) = (   0.4090909  -0.5000000  -0.5000000), wk =   0.0045079
        k(   56) = (  -0.5000000  -0.5000000  -0.5000000), wk =   0.0007513

     Dense  grid:   293027 G-vectors     FFT dimensions: (  90,  90,  90)

     Smooth grid:   159699 G-vectors     FFT dimensions: (  72,  72,  72)

     Dynamical RAM for                 wfc:       1.07 MB

     Dynamical RAM for     wfc (w. buffer):      60.71 MB

     Dynamical RAM for           str. fact:       0.37 MB

     Dynamical RAM for           local pot:       0.00 MB

     Dynamical RAM for          nlocal pot:       2.16 MB

     Dynamical RAM for                qrad:      17.31 MB

     Dynamical RAM for          rho,v,vnew:       5.20 MB

     Dynamical RAM for               rhoin:       1.73 MB

     Dynamical RAM for            rho*nmix:      11.92 MB

     Dynamical RAM for           G-vectors:       0.75 MB

     Dynamical RAM for          h,s,v(r/c):       0.14 MB

     Dynamical RAM for          <psi|beta>:       0.22 MB

     Dynamical RAM for                 psi:       4.26 MB

     Dynamical RAM for                hpsi:       4.26 MB

     Dynamical RAM for                spsi:       4.26 MB

     Dynamical RAM for      wfcinit/wfcrot:       1.96 MB

     Dynamical RAM for           addusdens:     114.40 MB

     Dynamical RAM for          addusforce:     116.24 MB

     Dynamical RAM for         addusstress:     117.01 MB

     Estimated static dynamical RAM per process >     102.70 MB

     Estimated max dynamical RAM per process >     219.71 MB

     Estimated total dynamical RAM >       5.15 GB

     Initial potential from superposition of free atoms

     starting charge   41.99871, renormalised to   42.00000
     Starting wfcs are   50 randomized atomic wfcs
     Checking if some PAW data can be deallocated... 
       PAW data deallocated on   19 nodes for type:  1
       PAW data deallocated on    5 nodes for type:  2

     total cpu time spent up to now is       35.5 secs

     Self-consistent Calculation

     iteration #  1     ecut=    70.00 Ry     beta= 0.35
     Davidson diagonalization with overlap
     ethr =  1.00E-02,  avg # of iterations =  1.1

     Threshold (ethr) on eigenvalues was too large:
     Diagonalizing with lowered threshold

     Davidson diagonalization with overlap
     ethr =  3.85E-04,  avg # of iterations =  2.0

     total cpu time spent up to now is      185.8 secs

     total energy              =   -1933.72938831 Ry
     Harris-Foulkes estimate   =   -1933.78586075 Ry
     estimated scf accuracy    <       0.12691634 Ry

     iteration #  2     ecut=    70.00 Ry     beta= 0.35
     Davidson diagonalization with overlap
     ethr =  3.02E-04,  avg # of iterations =  2.1

     total cpu time spent up to now is      271.5 secs

     total energy              =   -1933.74520603 Ry
     Harris-Foulkes estimate   =   -1933.75172420 Ry
     estimated scf accuracy    <       0.02251384 Ry

     iteration #  3     ecut=    70.00 Ry     beta= 0.35
     Davidson diagonalization with overlap
     ethr =  5.36E-05,  avg # of iterations =  2.0

     total cpu time spent up to now is      347.7 secs

     total energy              =   -1933.74527609 Ry
     Harris-Foulkes estimate   =   -1933.74685507 Ry
     estimated scf accuracy    <       0.00534971 Ry

     iteration #  4     ecut=    70.00 Ry     beta= 0.35
     Davidson diagonalization with overlap
     ethr =  1.27E-05,  avg # of iterations =  2.7

     total cpu time spent up to now is      440.1 secs

     WARNING: integrated charge=    42.00646196, expected=    42.00000000

     total energy              =   -1933.74565297 Ry
     Harris-Foulkes estimate   =   -1933.74593514 Ry
     estimated scf accuracy    <       0.00070527 Ry

     iteration #  5     ecut=    70.00 Ry     beta= 0.35
     Davidson diagonalization with overlap
     ethr =  1.68E-06,  avg # of iterations =  3.1

     total cpu time spent up to now is      545.2 secs

     WARNING: integrated charge=    42.00468660, expected=    42.00000000

     total energy              =   -1933.74579874 Ry
     Harris-Foulkes estimate   =   -1933.74588446 Ry
     estimated scf accuracy    <       0.00025024 Ry

     iteration #  6     ecut=    70.00 Ry     beta= 0.35
     Davidson diagonalization with overlap
     ethr =  5.96E-07,  avg # of iterations =  2.3

     total cpu time spent up to now is      642.4 secs

     WARNING: integrated charge=    42.00153631, expected=    42.00000000

     total energy              =   -1933.74582938 Ry
     Harris-Foulkes estimate   =   -1933.74583091 Ry
     estimated scf accuracy    <       0.00001313 Ry

     iteration #  7     ecut=    70.00 Ry     beta= 0.35
     Davidson diagonalization with overlap
     ethr =  3.13E-08,  avg # of iterations =  4.0

     total cpu time spent up to now is      764.2 secs

     WARNING: integrated charge=    42.00059215, expected=    42.00000000

     total energy              =   -1933.74583435 Ry
     Harris-Foulkes estimate   =   -1933.74583502 Ry
     estimated scf accuracy    <       0.00000256 Ry

     iteration #  8     ecut=    70.00 Ry     beta= 0.35
     Davidson diagonalization with overlap
     ethr =  6.10E-09,  avg # of iterations =  2.0

     total cpu time spent up to now is      869.2 secs

     WARNING: integrated charge=    42.00019832, expected=    42.00000000

     total energy              =   -1933.74583373 Ry
     Harris-Foulkes estimate   =   -1933.74583480 Ry
     estimated scf accuracy    <       0.00000164 Ry

     iteration #  9     ecut=    70.00 Ry     beta= 0.35
     Davidson diagonalization with overlap
     ethr =  3.91E-09,  avg # of iterations =  3.0

     total cpu time spent up to now is      982.4 secs

     End of self-consistent calculation

          k = 0.0455 0.0455 0.0455 ( 19930 PWs)   bands (ev):

   -21.8012 -21.8012 -21.8012 -21.8012 -20.7886 -20.7886 -20.7511 -20.7511
   -20.7511 -20.7511 -11.9292 -11.9292 -11.2091 -11.2091 -11.2008 -11.2008
   -11.2002 -11.2001  -6.3718  -6.3718  -2.6858  -2.6858  -2.6847  -2.6812
    -2.4993  -2.4993  -1.4127  -1.4127  -1.4076  -1.3887  -1.0175  -1.0175
    -0.9540  -0.9540  -0.3703  -0.3612  -0.3500  -0.3500  -0.0362  -0.0362
    -0.0128  -0.0015

     occupation numbers 
     1.0000   1.0000   1.0000   1.0000   1.0000   1.0000   1.0000   1.0000
     1.0000   1.0000   1.0000   1.0000   1.0000   1.0000   1.0000   1.0000
     1.0000   1.0000   1.0000   1.0000   1.0000   1.0000   1.0000   1.0000
     1.0000   1.0000   1.0000   1.0000   1.0000   1.0000   1.0000   1.0000
     1.0000   1.0000   1.0000   1.0000   1.0000   1.0000   1.0000   1.0000
     1.0000   1.0000

          k = 0.0455 0.0455 0.1364 ( 19943 PWs)   bands (ev):

   -21.8012 -21.8012 -21.8012 -21.8012 -20.7886 -20.7886 -20.7511 -20.7511
   -20.7511 -20.7511 -11.9215 -11.9215 -11.2162 -11.2155 -11.2046 -11.2039
   -11.2002 -11.2001  -6.3633  -6.3632  -2.7044  -2.6992  -2.6849  -2.6830
    -2.5130  -2.5056  -1.4110  -1.4073  -1.3862  -1.3558  -1.0528  -1.0322
    -0.9438  -0.9295  -0.3998  -0.3842  -0.3477  -0.3451  -0.0990  -0.0924
    -0.0241  -0.0084

     occupation numbers 
     1.0000   1.0000   1.0000   1.0000   1.0000   1.0000   1.0000   1.0000
     1.0000   1.0000   1.0000   1.0000   1.0000   1.0000   1.0000   1.0000
     1.0000   1.0000   1.0000   1.0000   1.0000   1.0000   1.0000   1.0000
     1.0000   1.0000   1.0000   1.0000   1.0000   1.0000   1.0000   1.0000
     1.0000   1.0000   1.0000   1.0000   1.0000   1.0000   1.0000   1.0000
     1.0000   1.0000

          k = 0.0455 0.0455 0.2273 ( 19930 PWs)   bands (ev):

   -21.8012 -21.8012 -21.8012 -21.8012 -20.7886 -20.7886 -20.7511 -20.7511
   -20.7511 -20.7511 -11.9080 -11.9080 -11.2337 -11.2329 -11.2053 -11.2045
   -11.1997 -11.1997  -6.3489  -6.3486  -2.7362  -2.7234  -2.6858  -2.6842
    -2.5349  -2.5156  -1.3995  -1.3947  -1.3453  -1.3150  -1.0774  -1.0389
    -0.9468  -0.9195  -0.4430  -0.4257  -0.3468  -0.3446  -0.1811  -0.1724
    -0.0496  -0.0342

     occupation numbers 
     1.0000   1.0000   1.0000   1.0000   1.0000   1.0000   1.0000   1.0000
     1.0000   1.0000   1.0000   1.0000   1.0000   1.0000   1.0000   1.0000
     1.0000   1.0000   1.0000   1.0000   1.0000   1.0000   1.0000   1.0000
     1.0000   1.0000   1.0000   1.0000   1.0000   1.0000   1.0000   1.0000
     1.0000   1.0000   1.0000   1.0000   1.0000   1.0000   1.0000   1.0000
     1.0000   1.0000

          k = 0.0455 0.0455 0.3182 ( 19955 PWs)   bands (ev):

   -21.8012 -21.8012 -21.8012 -21.8012 -20.7886 -20.7886 -20.7511 -20.7511
   -20.7511 -20.7511 -11.8925 -11.8925 -11.2543 -11.2536 -11.2050 -11.2043
   -11.1993 -11.1992  -6.3331  -6.3326  -2.7707  -2.7507  -2.6890  -2.6831
    -2.5574  -2.5260  -1.3934  -1.3766  -1.2884  -1.2707  -1.0809  -1.0346
    -0.9678  -0.9270  -0.4869  -0.4801  -0.3769  -0.3527  -0.2352  -0.2226
    -0.0869  -0.0730

     occupation numbers 
     1.0000   1.0000   1.0000   1.0000   1.0000   1.0000   1.0000   1.0000
     1.0000   1.0000   1.0000   1.0000   1.0000   1.0000   1.0000   1.0000
     1.0000   1.0000   1.0000   1.0000   1.0000   1.0000   1.0000   1.0000
     1.0000   1.0000   1.0000   1.0000   1.0000   1.0000   1.0000   1.0000
     1.0000   1.0000   1.0000   1.0000   1.0000   1.0000   1.0000   1.0000
     1.0000   1.0000

          k = 0.0455 0.0455 0.4091 ( 19978 PWs)   bands (ev):

   -21.8012 -21.8012 -21.8012 -21.8012 -20.7886 -20.7886 -20.7511 -20.7511
   -20.7511 -20.7511 -11.8799 -11.8799 -11.2709 -11.2702 -11.2048 -11.2040
   -11.1989 -11.1988  -6.3210  -6.3203  -2.7971  -2.7721  -2.6916  -2.6820
    -2.5739  -2.5336  -1.3899  -1.3689  -1.2257  -1.2207  -1.0827  -1.0440
    -0.9841  -0.9379  -0.5321  -0.5162  -0.4366  -0.3807  -0.2309  -0.2140
    -0.1316  -0.1168

     occupation numbers 
     1.0000   1.0000   1.0000   1.0000   1.0000   1.0000   1.0000   1.0000
     1.0000   1.0000   1.0000   1.0000   1.0000   1.0000   1.0000   1.0000
     1.0000   1.0000   1.0000   1.0000   1.0000   1.0000   1.0000   1.0000
     1.0000   1.0000   1.0000   1.0000   1.0000   1.0000   1.0000   1.0000
     1.0000   1.0000   1.0000   1.0000   1.0000   1.0000   1.0000   1.0000
     1.0000   1.0000

          k = 0.0455 0.0455-0.5000 ( 19984 PWs)   bands (ev):

   -21.8012 -21.8012 -21.8012 -21.8012 -20.7887 -20.7886 -20.7511 -20.7511
   -20.7511 -20.7511 -11.8751 -11.8751 -11.2773 -11.2765 -11.2047 -11.2039
   -11.1988 -11.1987  -6.3164  -6.3157  -2.8069  -2.7802  -2.6926  -2.6815
    -2.5800  -2.5364  -1.3888  -1.3679  -1.1901  -1.1896  -1.0938  -1.0660
    -0.9825  -0.9397  -0.5547  -0.5240  -0.4678  -0.3945  -0.2136  -0.1809
    -0.1735  -0.1434

     occupation numbers 
     1.0000   1.0000   1.0000   1.0000   1.0000   1.0000   1.0000   1.0000
     1.0000   1.0000   1.0000   1.0000   1.0000   1.0000   1.0000   1.0000
     1.0000   1.0000   1.0000   1.0000   1.0000   1.0000   1.0000   1.0000
     1.0000   1.0000   1.0000   1.0000   1.0000   1.0000   1.0000   1.0000
     1.0000   1.0000   1.0000   1.0000   1.0000   1.0000   1.0000   1.0000
     1.0000   1.0000

          k = 0.0455 0.1364 0.1364 ( 19926 PWs)   bands (ev):

   -21.8012 -21.8012 -21.8012 -21.8012 -20.7886 -20.7886 -20.7511 -20.7511
   -20.7511 -20.7511 -11.9140 -11.9140 -11.2191 -11.2176 -11.2101 -11.2095
   -11.2023 -11.2013  -6.3560  -6.3557  -2.7223  -2.7060  -2.6945  -2.6862
    -2.5259  -2.5075  -1.4279  -1.4156  -1.3567  -1.3110  -1.0749  -1.0285
    -0.9420  -0.9118  -0.4314  -0.4058  -0.3421  -0.3314  -0.1606  -0.1466
    -0.0266  -0.0027

     occupation numbers 
     1.0000   1.0000   1.0000   1.0000   1.0000   1.0000   1.0000   1.0000
     1.0000   1.0000   1.0000   1.0000   1.0000   1.0000   1.0000   1.0000
     1.0000   1.0000   1.0000   1.0000   1.0000   1.0000   1.0000   1.0000
     1.0000   1.0000   1.0000   1.0000   1.0000   1.0000   1.0000   1.0000
     1.0000   1.0000   1.0000   1.0000   1.0000   1.0000   1.0000   1.0000
     1.0000   1.0000

          k = 0.0455 0.1364 0.2273 ( 19931 PWs)   bands (ev):

   -21.8012 -21.8012 -21.8012 -21.8012 -20.7886 -20.7886 -20.7511 -20.7511
   -20.7511 -20.7511 -11.9010 -11.9010 -11.2336 -11.2319 -11.2125 -11.2111
   -11.2029 -11.2014  -6.3438  -6.3431  -2.7563  -2.7285  -2.6979  -2.6880
    -2.5481  -2.5108  -1.4415  -1.4164  -1.3112  -1.2575  -1.0900  -1.0152
    -0.9501  -0.8982  -0.4734  -0.4408  -0.3517  -0.3164  -0.2375  -0.2078
    -0.0464  -0.0187

     occupation numbers 
     1.0000   1.0000   1.0000   1.0000   1.0000   1.0000   1.0000   1.0000
     1.0000   1.0000   1.0000   1.0000   1.0000   1.0000   1.0000   1.0000
     1.0000   1.0000   1.0000   1.0000   1.0000   1.0000   1.0000   1.0000
     1.0000   1.0000   1.0000   1.0000   1.0000   1.0000   1.0000   1.0000
     1.0000   1.0000   1.0000   1.0000   1.0000   1.0000   1.0000   1.0000
     1.0000   1.0000

          k = 0.0455 0.1364 0.3182 ( 19941 PWs)   bands (ev):

   -21.8012 -21.8012 -21.8012 -21.8012 -20.7886 -20.7886 -20.7511 -20.7511
   -20.7511 -20.7511 -11.8860 -11.8860 -11.2531 -11.2515 -11.2120 -11.2103
   -11.2032 -11.2015  -6.3304  -6.3293  -2.7931  -2.7544  -2.7012  -2.6867
    -2.5725  -2.5150  -1.4490  -1.4189  -1.2545  -1.2058  -1.0806  -1.0012
    -0.9670  -0.8977  -0.5145  -0.4919  -0.3958  -0.3223  -0.2729  -0.2314
    -0.0817  -0.0522

     occupation numbers 
     1.0000   1.0000   1.0000   1.0000   1.0000   1.0000   1.0000   1.0000
     1.0000   1.0000   1.0000   1.0000   1.0000   1.0000   1.0000   1.0000
     1.0000   1.0000   1.0000   1.0000   1.0000   1.0000   1.0000   1.0000
     1.0000   1.0000   1.0000   1.0000   1.0000   1.0000   1.0000   1.0000
     1.0000   1.0000   1.0000   1.0000   1.0000   1.0000   1.0000   1.0000
     1.0000   1.0000

          k = 0.0455 0.1364 0.4091 ( 19953 PWs)   bands (ev):

   -21.8012 -21.8012 -21.8012 -21.8012 -20.7886 -20.7886 -20.7511 -20.7511
   -20.7511 -20.7511 -11.8739 -11.8739 -11.2688 -11.2672 -11.2112 -11.2097
   -11.2031 -11.2019  -6.3201  -6.3187  -2.8207  -2.7742  -2.7045  -2.6836
    -2.5917  -2.5186  -1.4516  -1.4251  -1.1964  -1.1604  -1.0677  -1.0092
    -0.9710  -0.9014  -0.5537  -0.5300  -0.4624  -0.3484  -0.2532  -0.2125
    -0.1254  -0.0913

     occupation numbers 
     1.0000   1.0000   1.0000   1.0000   1.0000   1.0000   1.0000   1.0000
     1.0000   1.0000   1.0000   1.0000   1.0000   1.0000   1.0000   1.0000
     1.0000   1.0000   1.0000   1.0000   1.0000   1.0000   1.0000   1.0000
     1.0000   1.0000   1.0000   1.0000   1.0000   1.0000   1.0000   1.0000
     1.0000   1.0000   1.0000   1.0000   1.0000   1.0000   1.0000   1.0000
     1.0000   1.0000

          k = 0.0455 0.1364-0.5000 ( 19964 PWs)   bands (ev):

   -21.8012 -21.8012 -21.8012 -21.8012 -20.7886 -20.7886 -20.7511 -20.7511
   -20.7511 -20.7511 -11.8693 -11.8692 -11.2749 -11.2733 -11.2107 -11.2096
   -11.2029 -11.2022  -6.3162  -6.3148  -2.8309  -2.7816  -2.7058  -2.6820
    -2.5991  -2.5200  -1.4519  -1.4286  -1.1596  -1.1459  -1.0671  -1.0225
    -0.9682  -0.9008  -0.5765  -0.5283  -0.5027  -0.3580  -0.2378  -0.1835
    -0.1613  -0.1121

     occupation numbers 
     1.0000   1.0000   1.0000   1.0000   1.0000   1.0000   1.0000   1.0000
     1.0000   1.0000   1.0000   1.0000   1.0000   1.0000   1.0000   1.0000
     1.0000   1.0000   1.0000   1.0000   1.0000   1.0000   1.0000   1.0000
     1.0000   1.0000   1.0000   1.0000   1.0000   1.0000   1.0000   1.0000
     1.0000   1.0000   1.0000   1.0000   1.0000   1.0000   1.0000   1.0000
     1.0000   1.0000

          k = 0.0455 0.2273 0.2273 ( 19949 PWs)   bands (ev):

   -21.8012 -21.8012 -21.8012 -21.8012 -20.7886 -20.7886 -20.7511 -20.7511
   -20.7511 -20.7511 -11.8888 -11.8887 -11.2367 -11.2339 -11.2235 -11.2226
   -11.2048 -11.2027  -6.3351  -6.3340  -2.7883  -2.7492  -2.7089  -2.6905
    -2.5638  -2.5107  -1.4765  -1.4427  -1.2640  -1.1943  -1.0885  -1.0036
    -0.9343  -0.8774  -0.5105  -0.4653  -0.3763  -0.3147  -0.2804  -0.2367
    -0.0553  -0.0182

     occupation numbers 
     1.0000   1.0000   1.0000   1.0000   1.0000   1.0000   1.0000   1.0000
     1.0000   1.0000   1.0000   1.0000   1.0000   1.0000   1.0000   1.0000
     1.0000   1.0000   1.0000   1.0000   1.0000   1.0000   1.0000   1.0000
     1.0000   1.0000   1.0000   1.0000   1.0000   1.0000   1.0000   1.0000
     1.0000   1.0000   1.0000   1.0000   1.0000   1.0000   1.0000   1.0000
     1.0000   1.0000

          k = 0.0455 0.2273 0.3182 ( 19964 PWs)   bands (ev):

   -21.8012 -21.8012 -21.8012 -21.8012 -20.7886 -20.7886 -20.7511 -20.7511
   -20.7511 -20.7511 -11.8748 -11.8747 -11.2508 -11.2482 -11.2254 -11.2238
   -11.2066 -11.2042  -6.3255  -6.3241  -2.8228  -2.7770  -2.7146  -2.6907
    -2.5807  -2.5131  -1.4995  -1.4702  -1.2113  -1.1405  -1.0646  -1.0140
    -0.9002  -0.8638  -0.5456  -0.5059  -0.4296  -0.3628  -0.2547  -0.2328
    -0.0813  -0.0361

     occupation numbers 
     1.0000   1.0000   1.0000   1.0000   1.0000   1.0000   1.0000   1.0000
     1.0000   1.0000   1.0000   1.0000   1.0000   1.0000   1.0000   1.0000
     1.0000   1.0000   1.0000   1.0000   1.0000   1.0000   1.0000   1.0000
     1.0000   1.0000   1.0000   1.0000   1.0000   1.0000   1.0000   1.0000
     1.0000   1.0000   1.0000   1.0000   1.0000   1.0000   1.0000   1.0000
     1.0000   1.0000

          k = 0.0455 0.2273 0.4091 ( 19941 PWs)   bands (ev):

   -21.8012 -21.8012 -21.8012 -21.8012 -20.7886 -20.7886 -20.7511 -20.7511
   -20.7511 -20.7511 -11.8635 -11.8634 -11.2646 -11.2622 -11.2237 -11.2222
   -11.2080 -11.2059  -6.3182  -6.3165  -2.8488  -2.7980  -2.7182  -2.6894
    -2.5945  -2.5155  -1.5115  -1.4920  -1.1626  -1.1097  -1.0425  -1.0159
    -0.8752  -0.8517  -0.5705  -0.5516  -0.4944  -0.3735  -0.2390  -0.1999
    -0.1186  -0.0627

     occupation numbers 
     1.0000   1.0000   1.0000   1.0000   1.0000   1.0000   1.0000   1.0000
     1.0000   1.0000   1.0000   1.0000   1.0000   1.0000   1.0000   1.0000
     1.0000   1.0000   1.0000   1.0000   1.0000   1.0000   1.0000   1.0000
     1.0000   1.0000   1.0000   1.0000   1.0000   1.0000   1.0000   1.0000
     1.0000   1.0000   1.0000   1.0000   1.0000   1.0000   1.0000   1.0000
     1.0000   1.0000

          k = 0.0455 0.2273-0.5000 ( 19948 PWs)   bands (ev):

   -21.8012 -21.8012 -21.8012 -21.8012 -20.7886 -20.7886 -20.7511 -20.7511
   -20.7511 -20.7511 -11.8592 -11.8591 -11.2700 -11.2677 -11.2227 -11.2217
   -11.2085 -11.2067  -6.3154  -6.3136  -2.8584  -2.8057  -2.7196  -2.6885
    -2.6000  -2.5164  -1.5148  -1.5006  -1.1342  -1.1119  -1.0327  -1.0118
    -0.8672  -0.8443  -0.5866  -0.5570  -0.5310  -0.3743  -0.2297  -0.1668
    -0.1531  -0.0771

     occupation numbers 
     1.0000   1.0000   1.0000   1.0000   1.0000   1.0000   1.0000   1.0000
     1.0000   1.0000   1.0000   1.0000   1.0000   1.0000   1.0000   1.0000
     1.0000   1.0000   1.0000   1.0000   1.0000   1.0000   1.0000   1.0000
     1.0000   1.0000   1.0000   1.0000   1.0000   1.0000   1.0000   1.0000
     1.0000   1.0000   1.0000   1.0000   1.0000   1.0000   1.0000   1.0000
     1.0000   1.0000

          k = 0.0455 0.3182 0.3182 ( 19944 PWs)   bands (ev):

   -21.8012 -21.8012 -21.8012 -21.8012 -20.7886 -20.7886 -20.7511 -20.7511
   -20.7511 -20.7511 -11.8619 -11.8619 -11.2509 -11.2475 -11.2373 -11.2364
   -11.2103 -11.2075  -6.3201  -6.3185  -2.8521  -2.8095  -2.7216  -2.6944
    -2.5846  -2.5175  -1.5356  -1.5163  -1.1676  -1.0989  -1.0352  -1.0222
    -0.8299  -0.8292  -0.5740  -0.5299  -0.4548  -0.4338  -0.2309  -0.2058
    -0.0926  -0.0336

     occupation numbers 
     1.0000   1.0000   1.0000   1.0000   1.0000   1.0000   1.0000   1.0000
     1.0000   1.0000   1.0000   1.0000   1.0000   1.0000   1.0000   1.0000
     1.0000   1.0000   1.0000   1.0000   1.0000   1.0000   1.0000   1.0000
     1.0000   1.0000   1.0000   1.0000   1.0000   1.0000   1.0000   1.0000
     1.0000   1.0000   1.0000   1.0000   1.0000   1.0000   1.0000   1.0000
     1.0000   1.0000

          k = 0.0455 0.3182 0.4091 ( 19958 PWs)   bands (ev):

   -21.8012 -21.8012 -21.8012 -21.8012 -20.7886 -20.7886 -20.7511 -20.7511
   -20.7511 -20.7511 -11.8516 -11.8516 -11.2591 -11.2562 -11.2380 -11.2367
   -11.2135 -11.2109  -6.3159  -6.3142  -2.8738  -2.8343  -2.7248  -2.6975
    -2.5869  -2.5223  -1.5569  -1.5479  -1.1326  -1.0944  -1.0127  -1.0037
    -0.7956  -0.7754  -0.5914  -0.5661  -0.5171  -0.4398  -0.2181  -0.1707
    -0.1109  -0.0421

     occupation numbers 
     1.0000   1.0000   1.0000   1.0000   1.0000   1.0000   1.0000   1.0000
     1.0000   1.0000   1.0000   1.0000   1.0000   1.0000   1.0000   1.0000
     1.0000   1.0000   1.0000   1.0000   1.0000   1.0000   1.0000   1.0000
     1.0000   1.0000   1.0000   1.0000   1.0000   1.0000   1.0000   1.0000
     1.0000   1.0000   1.0000   1.0000   1.0000   1.0000   1.0000   1.0000
     1.0000   1.0000

          k = 0.0455 0.3182-0.5000 ( 19956 PWs)   bands (ev):

   -21.8012 -21.8012 -21.8012 -21.8012 -20.7886 -20.7886 -20.7511 -20.7511
   -20.7511 -20.7511 -11.8477 -11.8477 -11.2635 -11.2607 -11.2366 -11.2356
   -11.2149 -11.2126  -6.3143  -6.3127  -2.8819  -2.8432  -2.7259  -2.6987
    -2.5878  -2.5242  -1.5637  -1.5594  -1.1148  -1.1020  -1.0028  -0.9941
    -0.7745  -0.7568  -0.5912  -0.5816  -0.5583  -0.4349  -0.2108  -0.1556
    -0.1211  -0.0488

     occupation numbers 
     1.0000   1.0000   1.0000   1.0000   1.0000   1.0000   1.0000   1.0000
     1.0000   1.0000   1.0000   1.0000   1.0000   1.0000   1.0000   1.0000
     1.0000   1.0000   1.0000   1.0000   1.0000   1.0000   1.0000   1.0000
     1.0000   1.0000   1.0000   1.0000   1.0000   1.0000   1.0000   1.0000
     1.0000   1.0000   1.0000   1.0000   1.0000   1.0000   1.0000   1.0000
     1.0000   1.0000

          k = 0.0455 0.4091 0.4091 ( 19969 PWs)   bands (ev):

   -21.8012 -21.8012 -21.8012 -21.8012 -20.7886 -20.7886 -20.7511 -20.7511
   -20.7511 -20.7511 -11.8422 -11.8422 -11.2557 -11.2527 -11.2471 -11.2463
   -11.2186 -11.2162  -6.3140  -6.3127  -2.8901  -2.8641  -2.7261  -2.7060
    -2.5767  -2.5325  -1.5856  -1.5836  -1.1118  -1.0979  -0.9900  -0.9861
    -0.7329  -0.7013  -0.6072  -0.5898  -0.5186  -0.5098  -0.2025  -0.1597
    -0.0908  -0.0350

     occupation numbers 
     1.0000   1.0000   1.0000   1.0000   1.0000   1.0000   1.0000   1.0000
     1.0000   1.0000   1.0000   1.0000   1.0000   1.0000   1.0000   1.0000
     1.0000   1.0000   1.0000   1.0000   1.0000   1.0000   1.0000   1.0000
     1.0000   1.0000   1.0000   1.0000   1.0000   1.0000   1.0000   1.0000
     1.0000   1.0000   1.0000   1.0000   1.0000   1.0000   1.0000   1.0000
     1.0000   1.0000

          k = 0.0455 0.4091-0.5000 ( 19944 PWs)   bands (ev):

   -21.8012 -21.8012 -21.8012 -21.8012 -20.7886 -20.7886 -20.7511 -20.7511
   -20.7511 -20.7511 -11.8386 -11.8385 -11.2573 -11.2548 -11.2471 -11.2462
   -11.2208 -11.2189  -6.3132  -6.3122  -2.8953  -2.8758  -2.7255  -2.7102
    -2.5713  -2.5380  -1.5958  -1.5955  -1.1038  -1.1010  -0.9835  -0.9778
    -0.6966  -0.6727  -0.6102  -0.5851  -0.5763  -0.5080  -0.1937  -0.1630
    -0.0761  -0.0365

     occupation numbers 
     1.0000   1.0000   1.0000   1.0000   1.0000   1.0000   1.0000   1.0000
     1.0000   1.0000   1.0000   1.0000   1.0000   1.0000   1.0000   1.0000
     1.0000   1.0000   1.0000   1.0000   1.0000   1.0000   1.0000   1.0000
     1.0000   1.0000   1.0000   1.0000   1.0000   1.0000   1.0000   1.0000
     1.0000   1.0000   1.0000   1.0000   1.0000   1.0000   1.0000   1.0000
     1.0000   1.0000

          k = 0.0455-0.5000-0.5000 ( 19976 PWs)   bands (ev):

   -21.8012 -21.8012 -21.8012 -21.8012 -20.7886 -20.7886 -20.7511 -20.7511
   -20.7511 -20.7511 -11.8351 -11.8351 -11.2548 -11.2548 -11.2489 -11.2489
   -11.2228 -11.2228  -6.3124  -6.3124  -2.8939  -2.8939  -2.7198  -2.7198
    -2.5542  -2.5542  -1.6073  -1.6073  -1.1007  -1.1007  -0.9745  -0.9745
    -0.6427  -0.6427  -0.6022  -0.6022  -0.5703  -0.5703  -0.1767  -0.1767
    -0.0457  -0.0457

     occupation numbers 
     1.0000   1.0000   1.0000   1.0000   1.0000   1.0000   1.0000   1.0000
     1.0000   1.0000   1.0000   1.0000   1.0000   1.0000   1.0000   1.0000
     1.0000   1.0000   1.0000   1.0000   1.0000   1.0000   1.0000   1.0000
     1.0000   1.0000   1.0000   1.0000   1.0000   1.0000   1.0000   1.0000
     1.0000   1.0000   1.0000   1.0000   1.0000   1.0000   1.0000   1.0000
     1.0000   1.0000

          k = 0.1364 0.1364 0.1364 ( 19918 PWs)   bands (ev):

   -21.8012 -21.8012 -21.8012 -21.8012 -20.7886 -20.7886 -20.7511 -20.7511
   -20.7511 -20.7510 -11.9068 -11.9068 -11.2206 -11.2206 -11.2111 -11.2111
   -11.2076 -11.2075  -6.3498  -6.3498  -2.7247  -2.7247  -2.7038  -2.6962
    -2.5222  -2.5222  -1.4425  -1.4425  -1.3206  -1.2682  -1.0529  -1.0529
    -0.9167  -0.9167  -0.4569  -0.4296  -0.3245  -0.3245  -0.2028  -0.2028
    -0.0253   0.0035

     occupation numbers 
     1.0000   1.0000   1.0000   1.0000   1.0000   1.0000   1.0000   1.0000
     1.0000   1.0000   1.0000   1.0000   1.0000   1.0000   1.0000   1.0000
     1.0000   1.0000   1.0000   1.0000   1.0000   1.0000   1.0000   1.0000
     1.0000   1.0000   1.0000   1.0000   1.0000   1.0000   1.0000   1.0000
     1.0000   1.0000   1.0000   1.0000   1.0000   1.0000   1.0000   1.0000
     1.0000   1.0000

          k = 0.1364 0.1364 0.2273 ( 19936 PWs)   bands (ev):

   -21.8012 -21.8012 -21.8012 -21.8012 -20.7886 -20.7886 -20.7511 -20.7511
   -20.7511 -20.7511 -11.8942 -11.8942 -11.2337 -11.2317 -11.2153 -11.2130
   -11.2085 -11.2081  -6.3397  -6.3392  -2.7617  -2.7398  -2.7075  -2.7044
    -2.5471  -2.5190  -1.4689  -1.4573  -1.2684  -1.2104  -1.0639  -1.0232
    -0.9282  -0.8964  -0.4934  -0.4620  -0.3423  -0.3128  -0.2653  -0.2381
    -0.0400  -0.0073

     occupation numbers 
     1.0000   1.0000   1.0000   1.0000   1.0000   1.0000   1.0000   1.0000
     1.0000   1.0000   1.0000   1.0000   1.0000   1.0000   1.0000   1.0000
     1.0000   1.0000   1.0000   1.0000   1.0000   1.0000   1.0000   1.0000
     1.0000   1.0000   1.0000   1.0000   1.0000   1.0000   1.0000   1.0000
     1.0000   1.0000   1.0000   1.0000   1.0000   1.0000   1.0000   1.0000
     1.0000   1.0000

          k = 0.1364 0.1364 0.3182 ( 19939 PWs)   bands (ev):

   -21.8012 -21.8012 -21.8012 -21.8012 -20.7886 -20.7886 -20.7511 -20.7511
   -20.7511 -20.7511 -11.8798 -11.8798 -11.2519 -11.2498 -11.2156 -11.2132
   -11.2082 -11.2077  -6.3287  -6.3277  -2.8005  -2.7627  -2.7119  -2.7035
    -2.5745  -2.5177  -1.4875  -1.4711  -1.2058  -1.1572  -1.0471  -1.0032
    -0.9420  -0.8889  -0.5285  -0.5099  -0.4028  -0.3344  -0.2709  -0.2314
    -0.0723  -0.0366

     occupation numbers 
     1.0000   1.0000   1.0000   1.0000   1.0000   1.0000   1.0000   1.0000
     1.0000   1.0000   1.0000   1.0000   1.0000   1.0000   1.0000   1.0000
     1.0000   1.0000   1.0000   1.0000   1.0000   1.0000   1.0000   1.0000
     1.0000   1.0000   1.0000   1.0000   1.0000   1.0000   1.0000   1.0000
     1.0000   1.0000   1.0000   1.0000   1.0000   1.0000   1.0000   1.0000
     1.0000   1.0000

          k = 0.1364 0.1364 0.4091 ( 19943 PWs)   bands (ev):

   -21.8012 -21.8012 -21.8012 -21.8012 -20.7886 -20.7886 -20.7511 -20.7511
   -20.7511 -20.7511 -11.8682 -11.8681 -11.2669 -11.2647 -11.2155 -11.2130
   -11.2078 -11.2073  -6.3203  -6.3188  -2.8289  -2.7811  -2.7177  -2.6977
    -2.5966  -2.5174  -1.4975  -1.4828  -1.1448  -1.1144  -1.0231  -1.0064
    -0.9476  -0.8884  -0.5619  -0.5486  -0.4682  -0.3523  -0.2485  -0.2038
    -0.1143  -0.0728

     occupation numbers 
     1.0000   1.0000   1.0000   1.0000   1.0000   1.0000   1.0000   1.0000
     1.0000   1.0000   1.0000   1.0000   1.0000   1.0000   1.0000   1.0000
     1.0000   1.0000   1.0000   1.0000   1.0000   1.0000   1.0000   1.0000
     1.0000   1.0000   1.0000   1.0000   1.0000   1.0000   1.0000   1.0000
     1.0000   1.0000   1.0000   1.0000   1.0000   1.0000   1.0000   1.0000
     1.0000   1.0000

          k = 0.1364 0.1364-0.5000 ( 19988 PWs)   bands (ev):

   -21.8013 -21.8012 -21.8012 -21.8012 -20.7887 -20.7887 -20.7511 -20.7511
   -20.7511 -20.7511 -11.8637 -11.8637 -11.2726 -11.2705 -11.2154 -11.2129
   -11.2077 -11.2072  -6.3171  -6.3155  -2.8392  -2.7879  -2.7199  -2.6949
    -2.6054  -2.5175  -1.5006  -1.4875  -1.1143  -1.0933  -1.0180  -1.0159
    -0.9485  -0.8870  -0.5846  -0.5493  -0.5017  -0.3572  -0.2344  -0.1764
    -0.1470  -0.0919

     occupation numbers 
     1.0000   1.0000   1.0000   1.0000   1.0000   1.0000   1.0000   1.0000
     1.0000   1.0000   1.0000   1.0000   1.0000   1.0000   1.0000   1.0000
     1.0000   1.0000   1.0000   1.0000   1.0000   1.0000   1.0000   1.0000
     1.0000   1.0000   1.0000   1.0000   1.0000   1.0000   1.0000   1.0000
     1.0000   1.0000   1.0000   1.0000   1.0000   1.0000   1.0000   1.0000
     1.0000   1.0000

          k = 0.1364 0.2273 0.2273 ( 19950 PWs)   bands (ev):

   -21.8012 -21.8012 -21.8012 -21.8012 -20.7886 -20.7886 -20.7511 -20.7511
   -20.7511 -20.7511 -11.8825 -11.8825 -11.2368 -11.2346 -11.2234 -11.2225
   -11.2117 -11.2101  -6.3331  -6.3324  -2.7851  -2.7580  -2.7234  -2.7136
    -2.5567  -2.5252  -1.5060  -1.4936  -1.2130  -1.1463  -1.0458  -1.0073
    -0.9115  -0.8835  -0.5223  -0.4858  -0.3750  -0.3490  -0.2594  -0.2421
    -0.0447  -0.0063

     occupation numbers 
     1.0000   1.0000   1.0000   1.0000   1.0000   1.0000   1.0000   1.0000
     1.0000   1.0000   1.0000   1.0000   1.0000   1.0000   1.0000   1.0000
     1.0000   1.0000   1.0000   1.0000   1.0000   1.0000   1.0000   1.0000
     1.0000   1.0000   1.0000   1.0000   1.0000   1.0000   1.0000   1.0000
     1.0000   1.0000   1.0000   1.0000   1.0000   1.0000   1.0000   1.0000
     1.0000   1.0000

          k = 0.1364 0.2273 0.3182 ( 19956 PWs)   bands (ev):

   -21.8012 -21.8012 -21.8012 -21.8012 -20.7886 -20.7886 -20.7511 -20.7511
   -20.7511 -20.7511 -11.8690 -11.8690 -11.2501 -11.2474 -11.2265 -11.2242
   -11.2129 -11.2109  -6.3260  -6.3248  -2.8190  -2.7812  -2.7304  -2.7169
    -2.5771  -2.5252  -1.5348  -1.5237  -1.1523  -1.0898  -1.0187  -1.0022
    -0.8894  -0.8686  -0.5503  -0.5213  -0.4339  -0.3850  -0.2356  -0.2183
    -0.0672  -0.0225

     occupation numbers 
     1.0000   1.0000   1.0000   1.0000   1.0000   1.0000   1.0000   1.0000
     1.0000   1.0000   1.0000   1.0000   1.0000   1.0000   1.0000   1.0000
     1.0000   1.0000   1.0000   1.0000   1.0000   1.0000   1.0000   1.0000
     1.0000   1.0000   1.0000   1.0000   1.0000   1.0000   1.0000   1.0000
     1.0000   1.0000   1.0000   1.0000   1.0000   1.0000   1.0000   1.0000
     1.0000   1.0000

          k = 0.1364 0.2273 0.4091 ( 19945 PWs)   bands (ev):

   -21.8012 -21.8012 -21.8012 -21.8012 -20.7886 -20.7886 -20.7511 -20.7511
   -20.7511 -20.7511 -11.8583 -11.8582 -11.2631 -11.2603 -11.2260 -11.2234
   -11.2135 -11.2118  -6.3206  -6.3190  -2.8455  -2.7999  -2.7362  -2.7144
    -2.5952  -2.5240  -1.5514  -1.5453  -1.1006  -1.0519  -1.0074  -0.9855
    -0.8747  -0.8552  -0.5697  -0.5624  -0.4913  -0.3909  -0.2147  -0.1841
    -0.1019  -0.0483

     occupation numbers 
     1.0000   1.0000   1.0000   1.0000   1.0000   1.0000   1.0000   1.0000
     1.0000   1.0000   1.0000   1.0000   1.0000   1.0000   1.0000   1.0000
     1.0000   1.0000   1.0000   1.0000   1.0000   1.0000   1.0000   1.0000
     1.0000   1.0000   1.0000   1.0000   1.0000   1.0000   1.0000   1.0000
     1.0000   1.0000   1.0000   1.0000   1.0000   1.0000   1.0000   1.0000
     1.0000   1.0000

          k = 0.1364 0.2273-0.5000 ( 19960 PWs)   bands (ev):

   -21.8012 -21.8012 -21.8012 -21.8012 -20.7886 -20.7886 -20.7511 -20.7511
   -20.7511 -20.7511 -11.8541 -11.8541 -11.2682 -11.2654 -11.2255 -11.2230
   -11.2136 -11.2123  -6.3185  -6.3168  -2.8552  -2.8069  -2.7387  -2.7127
    -2.6023  -2.5235  -1.5567  -1.5533  -1.0799  -1.0394  -1.0016  -0.9782
    -0.8692  -0.8505  -0.5862  -0.5674  -0.5189  -0.3898  -0.2037  -0.1565
    -0.1309  -0.0626

     occupation numbers 
     1.0000   1.0000   1.0000   1.0000   1.0000   1.0000   1.0000   1.0000
     1.0000   1.0000   1.0000   1.0000   1.0000   1.0000   1.0000   1.0000
     1.0000   1.0000   1.0000   1.0000   1.0000   1.0000   1.0000   1.0000
     1.0000   1.0000   1.0000   1.0000   1.0000   1.0000   1.0000   1.0000
     1.0000   1.0000   1.0000   1.0000   1.0000   1.0000   1.0000   1.0000
     1.0000   1.0000

          k = 0.1364 0.3182 0.3182 ( 19952 PWs)   bands (ev):

   -21.8012 -21.8012 -21.8012 -21.8012 -20.7886 -20.7886 -20.7511 -20.7511
   -20.7511 -20.7511 -11.8568 -11.8567 -11.2506 -11.2475 -11.2370 -11.2362
   -11.2161 -11.2136  -6.3230  -6.3217  -2.8444  -2.8086  -2.7410  -2.7241
    -2.5823  -2.5329  -1.5720  -1.5666  -1.0998  -1.0394  -1.0046  -0.9902
    -0.8442  -0.8222  -0.5698  -0.5364  -0.4606  -0.4460  -0.2038  -0.1877
    -0.0749  -0.0204

     occupation numbers 
     1.0000   1.0000   1.0000   1.0000   1.0000   1.0000   1.0000   1.0000
     1.0000   1.0000   1.0000   1.0000   1.0000   1.0000   1.0000   1.0000
     1.0000   1.0000   1.0000   1.0000   1.0000   1.0000   1.0000   1.0000
     1.0000   1.0000   1.0000   1.0000   1.0000   1.0000   1.0000   1.0000
     1.0000   1.0000   1.0000   1.0000   1.0000   1.0000   1.0000   1.0000
     1.0000   1.0000

          k = 0.1364 0.3182 0.4091 ( 19974 PWs)   bands (ev):

   -21.8012 -21.8012 -21.8012 -21.8012 -20.7886 -20.7886 -20.7511 -20.7511
   -20.7511 -20.7511 -11.8470 -11.8469 -11.2584 -11.2551 -11.2389 -11.2367
   -11.2186 -11.2162  -6.3207  -6.3193  -2.8656  -2.8309  -2.7467  -2.7267
    -2.5891  -2.5365  -1.5952  -1.5941  -1.0627  -1.0287  -0.9844  -0.9665
    -0.8144  -0.7746  -0.5815  -0.5631  -0.5125  -0.4504  -0.1852  -0.1514
    -0.0923  -0.0292

     occupation numbers 
     1.0000   1.0000   1.0000   1.0000   1.0000   1.0000   1.0000   1.0000
     1.0000   1.0000   1.0000   1.0000   1.0000   1.0000   1.0000   1.0000
     1.0000   1.0000   1.0000   1.0000   1.0000   1.0000   1.0000   1.0000
     1.0000   1.0000   1.0000   1.0000   1.0000   1.0000   1.0000   1.0000
     1.0000   1.0000   1.0000   1.0000   1.0000   1.0000   1.0000   1.0000
     1.0000   1.0000

          k = 0.1364 0.3182-0.5000 ( 19944 PWs)   bands (ev):

   -21.8012 -21.8012 -21.8012 -21.8012 -20.7886 -20.7886 -20.7511 -20.7511
   -20.7511 -20.7511 -11.8432 -11.8432 -11.2624 -11.2592 -11.2381 -11.2358
   -11.2196 -11.2175  -6.3199  -6.3184  -2.8738  -2.8390  -2.7491  -2.7270
    -2.5922  -2.5371  -1.6049  -1.6018  -1.0560  -1.0187  -0.9709  -0.9646
    -0.7944  -0.7606  -0.5829  -0.5770  -0.5401  -0.4456  -0.1759  -0.1347
    -0.1037  -0.0362

     occupation numbers 
     1.0000   1.0000   1.0000   1.0000   1.0000   1.0000   1.0000   1.0000
     1.0000   1.0000   1.0000   1.0000   1.0000   1.0000   1.0000   1.0000
     1.0000   1.0000   1.0000   1.0000   1.0000   1.0000   1.0000   1.0000
     1.0000   1.0000   1.0000   1.0000   1.0000   1.0000   1.0000   1.0000
     1.0000   1.0000   1.0000   1.0000   1.0000   1.0000   1.0000   1.0000
     1.0000   1.0000

          k = 0.1364 0.4091 0.4091 ( 19953 PWs)   bands (ev):

   -21.8012 -21.8012 -21.8012 -21.8012 -20.7886 -20.7886 -20.7511 -20.7511
   -20.7511 -20.7511 -11.8380 -11.8380 -11.2554 -11.2525 -11.2467 -11.2460
   -11.2230 -11.2207  -6.3207  -6.3197  -2.8810  -2.8582  -2.7499  -2.7356
    -2.5826  -2.5478  -1.6253  -1.6219  -1.0348  -1.0307  -0.9579  -0.9575
    -0.7574  -0.7070  -0.5873  -0.5713  -0.5158  -0.5099  -0.1669  -0.1330
    -0.0757  -0.0224

     occupation numbers 
     1.0000   1.0000   1.0000   1.0000   1.0000   1.0000   1.0000   1.0000
     1.0000   1.0000   1.0000   1.0000   1.0000   1.0000   1.0000   1.0000
     1.0000   1.0000   1.0000   1.0000   1.0000   1.0000   1.0000   1.0000
     1.0000   1.0000   1.0000   1.0000   1.0000   1.0000   1.0000   1.0000
     1.0000   1.0000   1.0000   1.0000   1.0000   1.0000   1.0000   1.0000
     1.0000   1.0000

          k = 0.1364 0.4091-0.5000 ( 19944 PWs)   bands (ev):

   -21.8012 -21.8012 -21.8012 -21.8012 -20.7886 -20.7886 -20.7511 -20.7511
   -20.7511 -20.7511 -11.8346 -11.8346 -11.2569 -11.2540 -11.2475 -11.2457
   -11.2249 -11.2231  -6.3207  -6.3198  -2.8863  -2.8690  -2.7506  -2.7389
    -2.5796  -2.5525  -1.6353  -1.6315  -1.0370  -1.0169  -0.9575  -0.9500
    -0.7244  -0.6847  -0.5864  -0.5709  -0.5537  -0.5077  -0.1578  -0.1338
    -0.0620  -0.0239

     occupation numbers 
     1.0000   1.0000   1.0000   1.0000   1.0000   1.0000   1.0000   1.0000
     1.0000   1.0000   1.0000   1.0000   1.0000   1.0000   1.0000   1.0000
     1.0000   1.0000   1.0000   1.0000   1.0000   1.0000   1.0000   1.0000
     1.0000   1.0000   1.0000   1.0000   1.0000   1.0000   1.0000   1.0000
     1.0000   1.0000   1.0000   1.0000   1.0000   1.0000   1.0000   1.0000
     1.0000   1.0000

          k = 0.1364-0.5000-0.5000 ( 19952 PWs)   bands (ev):

   -21.8012 -21.8012 -21.8012 -21.8012 -20.7886 -20.7886 -20.7511 -20.7511
   -20.7511 -20.7511 -11.8313 -11.8313 -11.2546 -11.2546 -11.2486 -11.2486
   -11.2266 -11.2266  -6.3207  -6.3207  -2.8857  -2.8857  -2.7470  -2.7470
    -2.5665  -2.5665  -1.6436  -1.6436  -1.0233  -1.0233  -0.9500  -0.9500
    -0.6730  -0.6730  -0.5723  -0.5723  -0.5539  -0.5539  -0.1432  -0.1432
    -0.0324  -0.0324

     occupation numbers 
     1.0000   1.0000   1.0000   1.0000   1.0000   1.0000   1.0000   1.0000
     1.0000   1.0000   1.0000   1.0000   1.0000   1.0000   1.0000   1.0000
     1.0000   1.0000   1.0000   1.0000   1.0000   1.0000   1.0000   1.0000
     1.0000   1.0000   1.0000   1.0000   1.0000   1.0000   1.0000   1.0000
     1.0000   1.0000   1.0000   1.0000   1.0000   1.0000   1.0000   1.0000
     1.0000   1.0000

          k = 0.2273 0.2273 0.2273 ( 19972 PWs)   bands (ev):

   -21.8012 -21.8012 -21.8012 -21.8012 -20.7886 -20.7886 -20.7511 -20.7511
   -20.7511 -20.7511 -11.8715 -11.8715 -11.2385 -11.2385 -11.2243 -11.2243
   -11.2200 -11.2197  -6.3297  -6.3297  -2.7831  -2.7831  -2.7434  -2.7366
    -2.5496  -2.5496  -1.5443  -1.5443  -1.1498  -1.0789  -0.9979  -0.9979
    -0.8833  -0.8833  -0.5400  -0.5060  -0.4006  -0.4006  -0.2269  -0.2269
    -0.0405   0.0008

     occupation numbers 
     1.0000   1.0000   1.0000   1.0000   1.0000   1.0000   1.0000   1.0000
     1.0000   1.0000   1.0000   1.0000   1.0000   1.0000   1.0000   1.0000
     1.0000   1.0000   1.0000   1.0000   1.0000   1.0000   1.0000   1.0000
     1.0000   1.0000   1.0000   1.0000   1.0000   1.0000   1.0000   1.0000
     1.0000   1.0000   1.0000   1.0000   1.0000   1.0000   1.0000   1.0000
     1.0000   1.0000

          k = 0.2273 0.2273 0.3182 ( 19956 PWs)   bands (ev):

   -21.8012 -21.8012 -21.8012 -21.8012 -20.7886 -20.7886 -20.7511 -20.7511
   -20.7511 -20.7511 -11.8591 -11.8591 -11.2492 -11.2464 -11.2302 -11.2269
   -11.2212 -11.2206  -6.3268  -6.3261  -2.8179  -2.7936  -2.7511  -2.7508
    -2.5759  -2.5444  -1.5800  -1.5787  -1.0854  -1.0194  -0.9808  -0.9658
    -0.8630  -0.8615  -0.5572  -0.5322  -0.4546  -0.4245  -0.1987  -0.1910
    -0.0533  -0.0072

     occupation numbers 
     1.0000   1.0000   1.0000   1.0000   1.0000   1.0000   1.0000   1.0000
     1.0000   1.0000   1.0000   1.0000   1.0000   1.0000   1.0000   1.0000
     1.0000   1.0000   1.0000   1.0000   1.0000   1.0000   1.0000   1.0000
     1.0000   1.0000   1.0000   1.0000   1.0000   1.0000   1.0000   1.0000
     1.0000   1.0000   1.0000   1.0000   1.0000   1.0000   1.0000   1.0000
     1.0000   1.0000

          k = 0.2273 0.2273 0.4091 ( 19938 PWs)   bands (ev):

   -21.8012 -21.8012 -21.8012 -21.8012 -20.7886 -20.7886 -20.7511 -20.7511
   -20.7511 -20.7511 -11.8492 -11.8492 -11.2604 -11.2570 -11.2314 -11.2276
   -11.2210 -11.2204  -6.3245  -6.3233  -2.8447  -2.8093  -2.7602  -2.7485
    -2.5956  -2.5409  -1.6027  -1.6002  -1.0439  -0.9807  -0.9627  -0.9238
    -0.8525  -0.8518  -0.5677  -0.5655  -0.4985  -0.4255  -0.1714  -0.1565
    -0.0802  -0.0265

     occupation numbers 
     1.0000   1.0000   1.0000   1.0000   1.0000   1.0000   1.0000   1.0000
     1.0000   1.0000   1.0000   1.0000   1.0000   1.0000   1.0000   1.0000
     1.0000   1.0000   1.0000   1.0000   1.0000   1.0000   1.0000   1.0000
     1.0000   1.0000   1.0000   1.0000   1.0000   1.0000   1.0000   1.0000
     1.0000   1.0000   1.0000   1.0000   1.0000   1.0000   1.0000   1.0000
     1.0000   1.0000

          k = 0.2273 0.2273-0.5000 ( 19964 PWs)   bands (ev):

   -21.8012 -21.8012 -21.8012 -21.8012 -20.7886 -20.7886 -20.7511 -20.7511
   -20.7511 -20.7511 -11.8454 -11.8453 -11.2648 -11.2614 -11.2316 -11.2277
   -11.2209 -11.2202  -6.3237  -6.3222  -2.8545  -2.8158  -2.7637  -2.7468
    -2.6028  -2.5395  -1.6113  -1.6067  -1.0366  -0.9652  -0.9387  -0.9046
    -0.8580  -0.8527  -0.5802  -0.5690  -0.5176  -0.4223  -0.1582  -0.1329
    -0.1031  -0.0383

     occupation numbers 
     1.0000   1.0000   1.0000   1.0000   1.0000   1.0000   1.0000   1.0000
     1.0000   1.0000   1.0000   1.0000   1.0000   1.0000   1.0000   1.0000
     1.0000   1.0000   1.0000   1.0000   1.0000   1.0000   1.0000   1.0000
     1.0000   1.0000   1.0000   1.0000   1.0000   1.0000   1.0000   1.0000
     1.0000   1.0000   1.0000   1.0000   1.0000   1.0000   1.0000   1.0000
     1.0000   1.0000

          k = 0.2273 0.3182 0.3182 ( 19950 PWs)   bands (ev):

   -21.8012 -21.8012 -21.8012 -21.8012 -20.7886 -20.7886 -20.7511 -20.7511
   -20.7511 -20.7511 -11.8479 -11.8479 -11.2503 -11.2480 -11.2367 -11.2358
   -11.2254 -11.2238  -6.3278  -6.3272  -2.8333  -2.8117  -2.7717  -2.7650
    -2.5825  -2.5581  -1.6191  -1.6175  -1.0230  -0.9719  -0.9579  -0.9277
    -0.8460  -0.8083  -0.5628  -0.5408  -0.4763  -0.4679  -0.1608  -0.1544
    -0.0518  -0.0016

     occupation numbers 
     1.0000   1.0000   1.0000   1.0000   1.0000   1.0000   1.0000   1.0000
     1.0000   1.0000   1.0000   1.0000   1.0000   1.0000   1.0000   1.0000
     1.0000   1.0000   1.0000   1.0000   1.0000   1.0000   1.0000   1.0000
     1.0000   1.0000   1.0000   1.0000   1.0000   1.0000   1.0000   1.0000
     1.0000   1.0000   1.0000   1.0000   1.0000   1.0000   1.0000   1.0000
     1.0000   1.0000

          k = 0.2273 0.3182 0.4091 ( 19951 PWs)   bands (ev):

   -21.8012 -21.8012 -21.8012 -21.8012 -20.7886 -20.7886 -20.7511 -20.7511
   -20.7511 -20.7511 -11.8390 -11.8389 -11.2569 -11.2533 -11.2406 -11.2373
   -11.2269 -11.2251  -6.3288  -6.3278  -2.8544  -2.8295  -2.7800  -2.7693
    -2.5948  -2.5599  -1.6449  -1.6395  -0.9977  -0.9471  -0.9229  -0.8858
    -0.8347  -0.7714  -0.5654  -0.5573  -0.5097  -0.4705  -0.1331  -0.1177
    -0.0633  -0.0076

     occupation numbers 
     1.0000   1.0000   1.0000   1.0000   1.0000   1.0000   1.0000   1.0000
     1.0000   1.0000   1.0000   1.0000   1.0000   1.0000   1.0000   1.0000
     1.0000   1.0000   1.0000   1.0000   1.0000   1.0000   1.0000   1.0000
     1.0000   1.0000   1.0000   1.0000   1.0000   1.0000   1.0000   1.0000
     1.0000   1.0000   1.0000   1.0000   1.0000   1.0000   1.0000   1.0000
     1.0000   1.0000

          k = 0.2273 0.3182-0.5000 ( 19952 PWs)   bands (ev):

   -21.8012 -21.8012 -21.8012 -21.8012 -20.7886 -20.7886 -20.7511 -20.7511
   -20.7511 -20.7511 -11.8356 -11.8355 -11.2604 -11.2565 -11.2408 -11.2370
   -11.2272 -11.2257  -6.3291  -6.3281  -2.8630  -2.8367  -2.7835  -2.7694
    -2.6000  -2.5594  -1.6539  -1.6466  -0.9997  -0.9145  -0.9091  -0.8875
    -0.8179  -0.7674  -0.5673  -0.5647  -0.5234  -0.4659  -0.1199  -0.1003
    -0.0739  -0.0137

     occupation numbers 
     1.0000   1.0000   1.0000   1.0000   1.0000   1.0000   1.0000   1.0000
     1.0000   1.0000   1.0000   1.0000   1.0000   1.0000   1.0000   1.0000
     1.0000   1.0000   1.0000   1.0000   1.0000   1.0000   1.0000   1.0000
     1.0000   1.0000   1.0000   1.0000   1.0000   1.0000   1.0000   1.0000
     1.0000   1.0000   1.0000   1.0000   1.0000   1.0000   1.0000   1.0000
     1.0000   1.0000

          k = 0.2273 0.4091 0.4091 ( 19972 PWs)   bands (ev):

   -21.8012 -21.8012 -21.8012 -21.8012 -20.7887 -20.7886 -20.7511 -20.7511
   -20.7511 -20.7511 -11.8309 -11.8308 -11.2548 -11.2522 -11.2462 -11.2455
   -11.2305 -11.2285  -6.3320  -6.3313  -2.8684  -2.8521  -2.7873  -2.7797
    -2.5941  -2.5725  -1.6693  -1.6638  -0.9623  -0.9436  -0.8945  -0.8772
    -0.7845  -0.7102  -0.5606  -0.5523  -0.5130  -0.5111  -0.1094  -0.0879
    -0.0483   0.0003

     occupation numbers 
     1.0000   1.0000   1.0000   1.0000   1.0000   1.0000   1.0000   1.0000
     1.0000   1.0000   1.0000   1.0000   1.0000   1.0000   1.0000   1.0000
     1.0000   1.0000   1.0000   1.0000   1.0000   1.0000   1.0000   1.0000
     1.0000   1.0000   1.0000   1.0000   1.0000   1.0000   1.0000   1.0000
     1.0000   1.0000   1.0000   1.0000   1.0000   1.0000   1.0000   1.0000
     1.0000   1.0000

          k = 0.2273 0.4091-0.5000 ( 19978 PWs)   bands (ev):

   -21.8012 -21.8012 -21.8012 -21.8012 -20.7887 -20.7887 -20.7511 -20.7511
   -20.7511 -20.7511 -11.8278 -11.8278 -11.2561 -11.2529 -11.2480 -11.2453
   -11.2318 -11.2302  -6.3331  -6.3326  -2.8743  -2.8615  -2.7897  -2.7824
    -2.5945  -2.5761  -1.6771  -1.6720  -0.9616  -0.9148  -0.8966  -0.8845
    -0.7491  -0.6967  -0.5590  -0.5534  -0.5280  -0.5091  -0.0985  -0.0840
    -0.0359  -0.0006

     occupation numbers 
     1.0000   1.0000   1.0000   1.0000   1.0000   1.0000   1.0000   1.0000
     1.0000   1.0000   1.0000   1.0000   1.0000   1.0000   1.0000   1.0000
     1.0000   1.0000   1.0000   1.0000   1.0000   1.0000   1.0000   1.0000
     1.0000   1.0000   1.0000   1.0000   1.0000   1.0000   1.0000   1.0000
     1.0000   1.0000   1.0000   1.0000   1.0000   1.0000   1.0000   1.0000
     1.0000   1.0000

          k = 0.2273-0.5000-0.5000 ( 19964 PWs)   bands (ev):

   -21.8012 -21.8012 -21.8012 -21.8012 -20.7887 -20.7887 -20.7511 -20.7511
   -20.7511 -20.7511 -11.8248 -11.8248 -11.2542 -11.2542 -11.2480 -11.2480
   -11.2331 -11.2331  -6.3344  -6.3344  -2.8754  -2.8754  -2.7890  -2.7890
    -2.5870  -2.5870  -1.6825  -1.6825  -0.9303  -0.9303  -0.8910  -0.8910
    -0.6941  -0.6941  -0.5524  -0.5524  -0.5286  -0.5286  -0.0861  -0.0861
    -0.0076  -0.0076

     occupation numbers 
     1.0000   1.0000   1.0000   1.0000   1.0000   1.0000   1.0000   1.0000
     1.0000   1.0000   1.0000   1.0000   1.0000   1.0000   1.0000   1.0000
     1.0000   1.0000   1.0000   1.0000   1.0000   1.0000   1.0000   1.0000
     1.0000   1.0000   1.0000   1.0000   1.0000   1.0000   1.0000   1.0000
     1.0000   1.0000   1.0000   1.0000   1.0000   1.0000   1.0000   1.0000
     1.0000   1.0000

          k = 0.3182 0.3182 0.3182 ( 19973 PWs)   bands (ev):

   -21.8012 -21.8012 -21.8012 -21.8012 -20.7886 -20.7886 -20.7511 -20.7511
   -20.7511 -20.7511 -11.8379 -11.8379 -11.2503 -11.2503 -11.2373 -11.2373
   -11.2331 -11.2329  -6.3330  -6.3330  -2.8271  -2.8271  -2.7995  -2.7959
    -2.5834  -2.5834  -1.6552  -1.6552  -0.9511  -0.9229  -0.9229  -0.8945
    -0.7903  -0.7903  -0.5541  -0.5432  -0.4935  -0.4935  -0.1148  -0.1148
    -0.0372   0.0118

     occupation numbers 
     1.0000   1.0000   1.0000   1.0000   1.0000   1.0000   1.0000   1.0000
     1.0000   1.0000   1.0000   1.0000   1.0000   1.0000   1.0000   1.0000
     1.0000   1.0000   1.0000   1.0000   1.0000   1.0000   1.0000   1.0000
     1.0000   1.0000   1.0000   1.0000   1.0000   1.0000   1.0000   1.0000
     1.0000   1.0000   1.0000   1.0000   1.0000   1.0000   1.0000   1.0000
     1.0000   1.0000

          k = 0.3182 0.3182 0.4091 ( 19960 PWs)   bands (ev):

   -21.8012 -21.8012 -21.8012 -21.8012 -20.7886 -20.7886 -20.7511 -20.7511
   -20.7511 -20.7511 -11.8300 -11.8299 -11.2552 -11.2518 -11.2434 -11.2396
   -11.2344 -11.2339  -6.3374  -6.3369  -2.8493  -2.8367  -2.8093  -2.8072
    -2.6007  -2.5832  -1.6790  -1.6744  -0.9424  -0.8772  -0.8734  -0.8566
    -0.7824  -0.7548  -0.5488  -0.5473  -0.5111  -0.4961  -0.0805  -0.0771
    -0.0365   0.0138

     occupation numbers 
     1.0000   1.0000   1.0000   1.0000   1.0000   1.0000   1.0000   1.0000
     1.0000   1.0000   1.0000   1.0000   1.0000   1.0000   1.0000   1.0000
     1.0000   1.0000   1.0000   1.0000   1.0000   1.0000   1.0000   1.0000
     1.0000   1.0000   1.0000   1.0000   1.0000   1.0000   1.0000   1.0000
     1.0000   1.0000   1.0000   1.0000   1.0000   1.0000   1.0000   1.0000
     1.0000   1.0000

          k = 0.3182 0.3182-0.5000 ( 19950 PWs)   bands (ev):

   -21.8012 -21.8012 -21.8012 -21.8012 -20.7886 -20.7886 -20.7511 -20.7511
   -20.7511 -20.7511 -11.8269 -11.8269 -11.2577 -11.2534 -11.2450 -11.2402
   -11.2345 -11.2338  -6.3391  -6.3384  -2.8586  -2.8436  -2.8135  -2.8072
    -2.6066  -2.5828  -1.6871  -1.6802  -0.9476  -0.8563  -0.8421  -0.8312
    -0.7908  -0.7557  -0.5511  -0.5463  -0.5147  -0.4929  -0.0639  -0.0608
    -0.0417   0.0111

     occupation numbers 
     1.0000   1.0000   1.0000   1.0000   1.0000   1.0000   1.0000   1.0000
     1.0000   1.0000   1.0000   1.0000   1.0000   1.0000   1.0000   1.0000
     1.0000   1.0000   1.0000   1.0000   1.0000   1.0000   1.0000   1.0000
     1.0000   1.0000   1.0000   1.0000   1.0000   1.0000   1.0000   1.0000
     1.0000   1.0000   1.0000   1.0000   1.0000   1.0000   1.0000   1.0000
     1.0000   1.0000

          k = 0.3182 0.4091 0.4091 ( 19957 PWs)   bands (ev):

   -21.8012 -21.8012 -21.8012 -21.8012 -20.7886 -20.7886 -20.7511 -20.7511
   -20.7511 -20.7511 -11.8229 -11.8229 -11.2541 -11.2524 -11.2456 -11.2449
   -11.2383 -11.2371  -6.3440  -6.3437  -2.8593  -2.8514  -2.8251  -2.8222
    -2.6056  -2.5967  -1.6973  -1.6940  -0.8974  -0.8784  -0.8278  -0.8145
    -0.7661  -0.7074  -0.5404  -0.5347  -0.5130  -0.5125  -0.0482  -0.0380
    -0.0175   0.0255

     occupation numbers 
     1.0000   1.0000   1.0000   1.0000   1.0000   1.0000   1.0000   1.0000
     1.0000   1.0000   1.0000   1.0000   1.0000   1.0000   1.0000   1.0000
     1.0000   1.0000   1.0000   1.0000   1.0000   1.0000   1.0000   1.0000
     1.0000   1.0000   1.0000   1.0000   1.0000   1.0000   1.0000   1.0000
     1.0000   1.0000   1.0000   1.0000   1.0000   1.0000   1.0000   1.0000
     1.0000   1.0000

          k = 0.3182 0.4091-0.5000 ( 19978 PWs)   bands (ev):

   -21.8012 -21.8012 -21.8012 -21.8012 -20.7887 -20.7887 -20.7511 -20.7511
   -20.7511 -20.7511 -11.8202 -11.8202 -11.2552 -11.2523 -11.2480 -11.2452
   -11.2391 -11.2380  -6.3465  -6.3462  -2.8663  -2.8594  -2.8287  -2.8250
    -2.6089  -2.5994  -1.7034  -1.6996  -0.8961  -0.8546  -0.8192  -0.8032
    -0.7514  -0.6999  -0.5380  -0.5326  -0.5134  -0.5110  -0.0349  -0.0284
    -0.0051   0.0267

     occupation numbers 
     1.0000   1.0000   1.0000   1.0000   1.0000   1.0000   1.0000   1.0000
     1.0000   1.0000   1.0000   1.0000   1.0000   1.0000   1.0000   1.0000
     1.0000   1.0000   1.0000   1.0000   1.0000   1.0000   1.0000   1.0000
     1.0000   1.0000   1.0000   1.0000   1.0000   1.0000   1.0000   1.0000
     1.0000   1.0000   1.0000   1.0000   1.0000   1.0000   1.0000   1.0000
     1.0000   1.0000

          k = 0.3182-0.5000-0.5000 ( 19976 PWs)   bands (ev):

   -21.8012 -21.8012 -21.8012 -21.8012 -20.7887 -20.7887 -20.7511 -20.7511
   -20.7511 -20.7511 -11.8176 -11.8176 -11.2540 -11.2540 -11.2473 -11.2473
   -11.2401 -11.2401  -6.3492  -6.3492  -2.8699  -2.8699  -2.8306  -2.8306
    -2.6072  -2.6072  -1.7069  -1.7069  -0.8629  -0.8629  -0.8112  -0.8112
    -0.7026  -0.7026  -0.5340  -0.5340  -0.5107  -0.5107  -0.0226  -0.0226
     0.0224   0.0224

     occupation numbers 
     1.0000   1.0000   1.0000   1.0000   1.0000   1.0000   1.0000   1.0000
     1.0000   1.0000   1.0000   1.0000   1.0000   1.0000   1.0000   1.0000
     1.0000   1.0000   1.0000   1.0000   1.0000   1.0000   1.0000   1.0000
     1.0000   1.0000   1.0000   1.0000   1.0000   1.0000   1.0000   1.0000
     1.0000   1.0000   1.0000   1.0000   1.0000   1.0000   1.0000   1.0000
     1.0000   1.0000

          k = 0.4091 0.4091 0.4091 ( 19943 PWs)   bands (ev):

   -21.8012 -21.8012 -21.8012 -21.8012 -20.7886 -20.7886 -20.7511 -20.7511
   -20.7511 -20.7511 -11.8166 -11.8166 -11.2536 -11.2536 -11.2455 -11.2455
   -11.2430 -11.2429  -6.3531  -6.3531  -2.8577  -2.8577  -2.8506  -2.8494
    -2.6126  -2.6126  -1.7100  -1.7100  -0.8364  -0.8364  -0.8081  -0.7934
    -0.7084  -0.7084  -0.5326  -0.5128  -0.5128  -0.5121   0.0001   0.0001
     0.0062   0.0425

     occupation numbers 
     1.0000   1.0000   1.0000   1.0000   1.0000   1.0000   1.0000   1.0000
     1.0000   1.0000   1.0000   1.0000   1.0000   1.0000   1.0000   1.0000
     1.0000   1.0000   1.0000   1.0000   1.0000   1.0000   1.0000   1.0000
     1.0000   1.0000   1.0000   1.0000   1.0000   1.0000   1.0000   1.0000
     1.0000   1.0000   1.0000   1.0000   1.0000   1.0000   1.0000   1.0000
     1.0000   1.0000

          k = 0.4091 0.4091-0.5000 ( 19946 PWs)   bands (ev):

   -21.8012 -21.8012 -21.8012 -21.8012 -20.7886 -20.7886 -20.7511 -20.7511
   -20.7511 -20.7511 -11.8142 -11.8142 -11.2546 -11.2534 -11.2473 -11.2459
   -11.2439 -11.2435  -6.3565  -6.3564  -2.8656  -2.8639  -2.8545  -2.8539
    -2.6179  -2.6147  -1.7148  -1.7133  -0.8352  -0.8052  -0.7856  -0.7834
    -0.7171  -0.6966  -0.5240  -0.5150  -0.5122  -0.5025   0.0112   0.0179
     0.0205   0.0462

     occupation numbers 
     1.0000   1.0000   1.0000   1.0000   1.0000   1.0000   1.0000   1.0000
     1.0000   1.0000   1.0000   1.0000   1.0000   1.0000   1.0000   1.0000
     1.0000   1.0000   1.0000   1.0000   1.0000   1.0000   1.0000   1.0000
     1.0000   1.0000   1.0000   1.0000   1.0000   1.0000   1.0000   1.0000
     1.0000   1.0000   1.0000   1.0000   1.0000   1.0000   1.0000   1.0000
     1.0000   1.0000

          k = 0.4091-0.5000-0.5000 ( 19936 PWs)   bands (ev):

   -21.8012 -21.8012 -21.8012 -21.8012 -20.7886 -20.7886 -20.7511 -20.7511
   -20.7511 -20.7511 -11.8119 -11.8119 -11.2545 -11.2545 -11.2468 -11.2468
   -11.2451 -11.2451  -6.3602  -6.3602  -2.8700  -2.8700  -2.8603  -2.8603
    -2.6202  -2.6202  -1.7173  -1.7173  -0.8006  -0.8006  -0.7727  -0.7727
    -0.7037  -0.7037  -0.5156  -0.5156  -0.5015  -0.5015   0.0276   0.0276
     0.0461   0.0461

     occupation numbers 
     1.0000   1.0000   1.0000   1.0000   1.0000   1.0000   1.0000   1.0000
     1.0000   1.0000   1.0000   1.0000   1.0000   1.0000   1.0000   1.0000
     1.0000   1.0000   1.0000   1.0000   1.0000   1.0000   1.0000   1.0000
     1.0000   1.0000   1.0000   1.0000   1.0000   1.0000   1.0000   1.0000
     1.0000   1.0000   1.0000   1.0000   1.0000   1.0000   1.0000   1.0000
     1.0000   1.0000

          k =-0.5000-0.5000-0.5000 ( 19952 PWs)   bands (ev):

   -21.8012 -21.8012 -21.8012 -21.8012 -20.7886 -20.7886 -20.7511 -20.7511
   -20.7511 -20.7511 -11.8098 -11.8098 -11.2549 -11.2549 -11.2466 -11.2466
   -11.2466 -11.2466  -6.3643  -6.3643  -2.8710  -2.8710  -2.8710  -2.8710
    -2.6245  -2.6245  -1.7198  -1.7198  -0.7653  -0.7653  -0.7653  -0.7653
    -0.7120  -0.7120  -0.5024  -0.5024  -0.5024  -0.5024   0.0509   0.0509
     0.0509   0.0509

     occupation numbers 
     1.0000   1.0000   1.0000   1.0000   1.0000   1.0000   1.0000   1.0000
     1.0000   1.0000   1.0000   1.0000   1.0000   1.0000   1.0000   1.0000
     1.0000   1.0000   1.0000   1.0000   1.0000   1.0000   1.0000   1.0000
     1.0000   1.0000   1.0000   1.0000   1.0000   1.0000   1.0000   1.0000
     1.0000   1.0000   1.0000   1.0000   1.0000   1.0000   1.0000   1.0000
     1.0000   1.0000

     highest occupied level (ev):     0.0509

!    total energy              =   -1933.74583385 Ry
     Harris-Foulkes estimate   =   -1933.74583464 Ry
     estimated scf accuracy    <       0.00000097 Ry

     total all-electron energy =    -69281.863098 Ry

     The total energy is the sum of the following terms:

     one-electron contribution =    -155.34582172 Ry
     hartree contribution      =      94.83245495 Ry
     xc contribution           =    -110.25318726 Ry
     ewald contribution        =    -119.43299744 Ry
     one-center paw contrib.   =   -1643.54628239 Ry
      -> PAW hartree energy AE =     109.93717922 Ry
      -> PAW hartree energy PS =    -109.18733445 Ry
      -> PAW xc energy AE      =    -324.42100747 Ry
      -> PAW xc energy PS      =      46.78718295 Ry
      -> total E_H with PAW    =      95.58229973 Ry
      -> total E_XC with PAW   =    -387.88701177 Ry

     convergence has been achieved in   9 iterations

     Forces acting on atoms (cartesian axes, Ry/au):

     atom    1 type  1   force =     0.00000000    0.00000000    0.00000000
     atom    2 type  2   force =    -0.00386384    0.00386384    0.00386384
     atom    3 type  2   force =     0.00386384   -0.00386384    0.00386384
     atom    4 type  2   force =     0.00386384    0.00386384   -0.00386384
     atom    5 type  2   force =    -0.00386384   -0.00386384   -0.00386384
     The non-local contrib.  to forces
     atom    1 type  1   force =     0.00000000    0.00000000    0.00000000
     atom    2 type  2   force =    -0.08588060    0.08588060    0.08588060
     atom    3 type  2   force =     0.08588060   -0.08588060    0.08588060
     atom    4 type  2   force =     0.08588060    0.08588060   -0.08588060
     atom    5 type  2   force =    -0.08588060   -0.08588060   -0.08588060
     The ionic contribution  to forces
     atom    1 type  1   force =     0.00000000    0.00000000   -0.00000000
     atom    2 type  2   force =     3.79412126   -3.79412126   -3.79412126
     atom    3 type  2   force =    -3.79412126    3.79412126   -3.79412126
     atom    4 type  2   force =    -3.79412126   -3.79412126    3.79412126
     atom    5 type  2   force =     3.79412126    3.79412126    3.79412126
     The local contribution  to forces
     atom    1 type  1   force =     0.00000000    0.00000000   -0.00000000
     atom    2 type  2   force =    -3.72023504    3.72023504    3.72023504
     atom    3 type  2   force =     3.72023504   -3.72023504    3.72023504
     atom    4 type  2   force =     3.72023504    3.72023504   -3.72023504
     atom    5 type  2   force =    -3.72023504   -3.72023504   -3.72023504
     The core correction contribution to forces
     atom    1 type  1   force =     0.00000000    0.00000000    0.00000000
     atom    2 type  2   force =     0.00749377   -0.00749377   -0.00749377
     atom    3 type  2   force =    -0.00749377    0.00749377   -0.00749377
     atom    4 type  2   force =    -0.00749377   -0.00749377    0.00749377
     atom    5 type  2   force =     0.00749377    0.00749377    0.00749377
     The Hubbard contrib.    to forces
     atom    1 type  1   force =     0.00000000    0.00000000    0.00000000
     atom    2 type  2   force =     0.00000000    0.00000000    0.00000000
     atom    3 type  2   force =     0.00000000    0.00000000    0.00000000
     atom    4 type  2   force =     0.00000000    0.00000000    0.00000000
     atom    5 type  2   force =     0.00000000    0.00000000    0.00000000
     The SCF correction term to forces
     atom    1 type  1   force =    -0.00000000    0.00000000    0.00000000
     atom    2 type  2   force =     0.00063676   -0.00063676   -0.00063676
     atom    3 type  2   force =    -0.00063676    0.00063676   -0.00063676
     atom    4 type  2   force =    -0.00063676   -0.00063676    0.00063676
     atom    5 type  2   force =     0.00063676    0.00063676    0.00063676

     Total force =     0.013385     Total SCF correction =     0.002206
     SCF correction compared to forces is large: reduce conv_thr to get better values


     Computing stress (Cartesian axis) and pressure

     Message from routine stres:
     noncollinear stress + GGA not implemented

     Writing output data file CsIsalt.save/
 
     init_run     :     18.62s CPU     29.51s WALL (       1 calls)
     electrons    :    602.20s CPU    946.99s WALL (       1 calls)
     forces       :      7.51s CPU     10.78s WALL (       1 calls)

     Called by init_run:
     wfcinit      :     16.66s CPU     26.59s WALL (       1 calls)
     wfcinit:atom :      0.06s CPU      0.06s WALL (      56 calls)
     wfcinit:wfcr :     16.25s CPU     26.02s WALL (      56 calls)
     potinit      :      0.79s CPU      1.24s WALL (       1 calls)
     hinit0       :      0.31s CPU      0.46s WALL (       1 calls)

     Called by electrons:
     c_bands      :    483.41s CPU    755.11s WALL (      10 calls)
     sum_band     :    106.64s CPU    174.12s WALL (      10 calls)
     v_of_rho     :      1.48s CPU      2.21s WALL (      10 calls)
     v_h          :      0.02s CPU      0.02s WALL (      10 calls)
     v_xc         :      1.48s CPU      2.20s WALL (      11 calls)
     newd         :      5.12s CPU      7.06s WALL (      10 calls)
     PAW_pot      :      1.77s CPU      2.46s WALL (      10 calls)
     mix_rho      :      2.52s CPU      4.17s WALL (      10 calls)

     Called by c_bands:
     init_us_2    :      2.57s CPU      3.70s WALL (    1232 calls)
     cegterg      :    453.90s CPU    721.02s WALL (     560 calls)

     Called by sum_band:
     sum_band:bec :      5.44s CPU      7.30s WALL (     560 calls)
     addusdens    :      3.66s CPU      4.82s WALL (      10 calls)

     Called by *egterg:
     h_psi        :    327.27s CPU    540.89s WALL (    1979 calls)
     s_psi        :      6.74s CPU      8.06s WALL (    1979 calls)
     g_psi        :      0.50s CPU      0.52s WALL (    1363 calls)
     cdiaghg      :     30.32s CPU     49.51s WALL (    1867 calls)
     cegterg:over :     39.82s CPU     52.56s WALL (    1363 calls)
     cegterg:upda :     32.10s CPU     46.41s WALL (    1363 calls)
     cegterg:last :     10.34s CPU     14.03s WALL (     561 calls)
     cdiaghg:chol :      1.89s CPU      3.20s WALL (    1867 calls)
     cdiaghg:inve :      1.28s CPU      1.97s WALL (    1867 calls)
     cdiaghg:para :      5.55s CPU      8.35s WALL (    3734 calls)

     Called by h_psi:
     h_psi:pot    :    325.66s CPU    539.05s WALL (    1979 calls)
     h_psi:calbec :      8.27s CPU     10.03s WALL (    1979 calls)
     vloc_psi     :    310.24s CPU    520.21s WALL (    1979 calls)
     add_vuspsi   :      7.13s CPU      8.79s WALL (    1979 calls)

     General routines
     calbec       :     15.91s CPU     20.85s WALL (    2763 calls)
     fft          :      4.43s CPU      7.32s WALL (     221 calls)
     ffts         :      0.40s CPU      0.85s WALL (      80 calls)
     fftw         :    387.01s CPU    657.21s WALL (  303648 calls)
     interpolate  :      1.16s CPU      1.98s WALL (      40 calls)
 
     Parallel routines
     fft_scatt_xy :     11.13s CPU     13.81s WALL (  303949 calls)
     fft_scatt_yz :    331.63s CPU    586.10s WALL (  303949 calls)

     PAW routines
     PAW_pot      :      1.77s CPU      2.46s WALL (      10 calls)
     PAW_symme    :      0.04s CPU      0.07s WALL (      20 calls)
 
     PWSCF        :  10m40.20s CPU  16m47.88s WALL

 
   This run was terminated on:  20:33: 5  24Jan2021            

=------------------------------------------------------------------------------=
   JOB DONE.
=------------------------------------------------------------------------------=
