
     Program PWSCF v.6.7MaX starts on 15Jan2021 at 11:37:50 

     This program is part of the open-source Quantum ESPRESSO suite
     for quantum simulation of materials; please cite
         "P. Giannozzi et al., J. Phys.:Condens. Matter 21 395502 (2009);
         "P. Giannozzi et al., J. Phys.:Condens. Matter 29 465901 (2017);
          URL http://www.quantum-espresso.org", 
     in publications or presentations arising from this work. More details at
     http://www.quantum-espresso.org/quote

     Parallel version (MPI), running on    32 processors

     MPI processes distributed on     1 nodes
     R & G space division:  proc/nbgrp/npool/nimage =      32
     Waiting for input...
     Reading input from standard input

     Current dimensions of program PWSCF are:
     Max number of different atomic species (ntypx) = 10
     Max number of k-points (npk) =  40000
     Max angular momentum in pseudopotentials (lmaxx) =  3
     file Sn.pbe-dn-kjpaw_psl.1.0.0.UPF: wavefunction(s)  5S 5P 4D renormalized
     file I.pbe-n-kjpaw_psl.1.0.0.UPF: wavefunction(s)  5S renormalized
     file Cs.pbe-spn-kjpaw_psl.1.0.0.UPF: wavefunction(s)  5S 6S renormalized

     Subspace diagonalization in iterative solution of the eigenvalue problem:
     a serial algorithm will be used

     Message from routine setup:
     using ibrav=0 with symmetry is DISCOURAGED, use correct ibrav instead

     Parallelization info
     --------------------
     sticks:   dense  smooth     PW     G-vecs:    dense   smooth      PW
     Min          92      92     25                 9510     9510    1367
     Max          94      94     26                 9521     9521    1374
     Sum        2963    2963    813               304449   304449   43885


     Title: 
     CsSnI3                                                                     


     bravais-lattice index     =            0
     lattice parameter (alat)  =       9.1317  a.u.
     unit-cell volume          =    6370.5385 (a.u.)^3
     number of atoms/cell      =           20
     number of atomic types    =            3
     number of electrons       =       176.00
     number of Kohn-Sham states=           89
     kinetic-energy cutoff     =      50.0000  Ry
     charge density cutoff     =     200.0000  Ry
     scf convergence threshold =      1.0E-06
     mixing beta               =       0.7000
     number of iterations used =            8  plain     mixing
     Exchange-correlation= SLA  PW   PBX  PBC
                           (   1   4   3   4   0   0   0)

     celldm(1)=   9.131705  celldm(2)=   0.000000  celldm(3)=   0.000000
     celldm(4)=   0.000000  celldm(5)=   0.000000  celldm(6)=   0.000000

     crystal axes: (cart. coord. in units of alat)
               a(1) = (   1.000000   0.000000   0.000000 )  
               a(2) = (   0.000000   2.227728   0.000000 )  
               a(3) = (   0.000000   0.000000   3.755420 )  

     reciprocal axes: (cart. coord. in units 2 pi/alat)
               b(1) = (  1.000000  0.000000  0.000000 )  
               b(2) = (  0.000000  0.448888  0.000000 )  
               b(3) = (  0.000000  0.000000  0.266282 )  


     PseudoPot. # 1 for Sn read from file:
     ../../../pseudo/Sn.pbe-dn-kjpaw_psl.1.0.0.UPF
     MD5 check sum: 67f11dec737d427557dc41ea34975807
     Pseudo is Projector augmented-wave + core cor, Zval = 14.0
     Generated using &quot;atomic&quot; code by A. Dal Corso  v.6.3
     Shape of augmentation charge: PSQ
     Using radial grid of 1243 points,  6 beta functions with: 
                l(1) =   0
                l(2) =   0
                l(3) =   1
                l(4) =   1
                l(5) =   2
                l(6) =   2
     Q(r) pseudized with 0 coefficients 


     PseudoPot. # 2 for I  read from file:
     ../../../pseudo/I.pbe-n-kjpaw_psl.1.0.0.UPF
     MD5 check sum: cd3d296c3308a581e1559a0c8a554cb5
     Pseudo is Projector augmented-wave + core cor, Zval =  7.0
     Generated using &quot;atomic&quot; code by A. Dal Corso  v.6.3
     Shape of augmentation charge: PSQ
     Using radial grid of 1247 points,  6 beta functions with: 
                l(1) =   0
                l(2) =   0
                l(3) =   1
                l(4) =   1
                l(5) =   2
                l(6) =   2
     Q(r) pseudized with 0 coefficients 


     PseudoPot. # 3 for Cs read from file:
     ../../../pseudo/Cs.pbe-spn-kjpaw_psl.1.0.0.UPF
     MD5 check sum: b82c75cc2e1f4ff73b6412cffeb9c584
     Pseudo is Projector augmented-wave + core cor, Zval =  9.0
     Generated using &quot;atomic&quot; code by A. Dal Corso  v.6.4.1
     Shape of augmentation charge: PSQ
     Using radial grid of 1251 points,  9 beta functions with: 
                l(1) =   0
                l(2) =   0
                l(3) =   0
                l(4) =   1
                l(5) =   1
                l(6) =   2
                l(7) =   2
                l(8) =   3
                l(9) =   3
     Q(r) pseudized with 0 coefficients 


     atomic species   valence    mass     pseudopotential
        Sn            14.00   118.70000     Sn( 1.00)
        I              7.00   126.90000     I ( 1.00)
        Cs             9.00   132.90000     Cs( 1.00)

      8 Sym. Ops., with inversion, found ( 6 have fractional translation)


                                    s                        frac. trans.

      isym =  1     identity                                     

 cryst.   s( 1) = (     1          0          0      )
                  (     0          1          0      )
                  (     0          0          1      )

 cart.    s( 1) = (  1.0000000  0.0000000  0.0000000 )
                  (  0.0000000  1.0000000  0.0000000 )
                  (  0.0000000  0.0000000  1.0000000 )


      isym =  2     180 deg rotation - cart. axis [0,0,1]        

 cryst.   s( 2) = (    -1          0          0      )    f =(  0.0000000 )
                  (     0         -1          0      )       (  0.5000000 )
                  (     0          0          1      )       (  0.5000000 )

 cart.    s( 2) = ( -1.0000000  0.0000000  0.0000000 )    f =(  0.0000000 )
                  (  0.0000000 -1.0000000  0.0000000 )       (  1.1138638 )
                  (  0.0000000  0.0000000  1.0000000 )       (  1.8777098 )


      isym =  3     180 deg rotation - cart. axis [0,1,0]        

 cryst.   s( 3) = (    -1          0          0      )    f =(  0.5000000 )
                  (     0          1          0      )       ( -0.5000000 )
                  (     0          0         -1      )       ( -0.5000000 )

 cart.    s( 3) = ( -1.0000000  0.0000000  0.0000000 )    f =(  0.5000000 )
                  (  0.0000000  1.0000000  0.0000000 )       ( -1.1138638 )
                  (  0.0000000  0.0000000 -1.0000000 )       ( -1.8777098 )


      isym =  4     180 deg rotation - cart. axis [1,0,0]        

 cryst.   s( 4) = (     1          0          0      )    f =( -0.5000000 )
                  (     0         -1          0      )       (  0.0000000 )
                  (     0          0         -1      )       (  0.0000000 )

 cart.    s( 4) = (  1.0000000  0.0000000  0.0000000 )    f =( -0.5000000 )
                  (  0.0000000 -1.0000000  0.0000000 )       (  0.0000000 )
                  (  0.0000000  0.0000000 -1.0000000 )       (  0.0000000 )


      isym =  5     inversion                                    

 cryst.   s( 5) = (    -1          0          0      )
                  (     0         -1          0      )
                  (     0          0         -1      )

 cart.    s( 5) = ( -1.0000000  0.0000000  0.0000000 )
                  (  0.0000000 -1.0000000  0.0000000 )
                  (  0.0000000  0.0000000 -1.0000000 )


      isym =  6     inv. 180 deg rotation - cart. axis [0,0,1]   

 cryst.   s( 6) = (     1          0          0      )    f =(  0.0000000 )
                  (     0          1          0      )       ( -0.5000000 )
                  (     0          0         -1      )       ( -0.5000000 )

 cart.    s( 6) = (  1.0000000  0.0000000  0.0000000 )    f =(  0.0000000 )
                  (  0.0000000  1.0000000  0.0000000 )       ( -1.1138638 )
                  (  0.0000000  0.0000000 -1.0000000 )       ( -1.8777098 )


      isym =  7     inv. 180 deg rotation - cart. axis [0,1,0]   

 cryst.   s( 7) = (     1          0          0      )    f =( -0.5000000 )
                  (     0         -1          0      )       (  0.5000000 )
                  (     0          0          1      )       (  0.5000000 )

 cart.    s( 7) = (  1.0000000  0.0000000  0.0000000 )    f =( -0.5000000 )
                  (  0.0000000 -1.0000000  0.0000000 )       (  1.1138638 )
                  (  0.0000000  0.0000000  1.0000000 )       (  1.8777098 )


      isym =  8     inv. 180 deg rotation - cart. axis [1,0,0]   

 cryst.   s( 8) = (    -1          0          0      )    f =(  0.5000000 )
                  (     0          1          0      )       (  0.0000000 )
                  (     0          0          1      )       (  0.0000000 )

 cart.    s( 8) = ( -1.0000000  0.0000000  0.0000000 )    f =(  0.5000000 )
                  (  0.0000000  1.0000000  0.0000000 )       (  0.0000000 )
                  (  0.0000000  0.0000000  1.0000000 )       (  0.0000000 )


   Cartesian axes

     site n.     atom                  positions (alat units)
         1           Cs  tau(   1) = (   0.2500000   0.1859640   2.5168147  )
         2           Cs  tau(   2) = (   0.7500000   2.0417636   1.2386050  )
         3           Cs  tau(   3) = (   0.2500000   1.2998278   3.1163149  )
         4           Cs  tau(   4) = (   0.7500000   0.9278998   0.6391048  )
         5           Sn  tau(   5) = (   0.2500000   0.7615710   1.6485466  )
         6           Sn  tau(   6) = (   0.7500000   1.4661567   2.1068731  )
         7           Sn  tau(   7) = (   0.2500000   1.8754348   0.2291632  )
         8           Sn  tau(   8) = (   0.7500000   0.3522928   3.5262565  )
         9           I   tau(   9) = (   0.7500000   0.0581437   0.4202578  )
        10           I   tau(  10) = (   0.2500000   2.1695839   3.3351619  )
        11           I   tau(  11) = (   0.7500000   1.1720075   1.4574521  )
        12           I   tau(  12) = (   0.2500000   1.0557201   2.2979676  )
        13           I   tau(  13) = (   0.7500000   0.6531118   2.9738192  )
        14           I   tau(  14) = (   0.2500000   1.5746158   0.7816005  )
        15           I   tau(  15) = (   0.7500000   1.7669756   2.6593103  )
        16           I   tau(  16) = (   0.2500000   0.4607520   1.0961094  )
        17           I   tau(  17) = (   0.7500000   0.3753632   1.8734812  )
        18           I   tau(  18) = (   0.2500000   1.8523644   1.8819384  )
        19           I   tau(  19) = (   0.7500000   1.4892270   0.0042286  )
        20           I   tau(  20) = (   0.2500000   0.7385006   3.7511911  )

   Crystallographic axes

     site n.     atom                  positions (cryst. coord.)
         1           Cs  tau(   1) = (  0.2500000  0.0834770  0.6701820  )
         2           Cs  tau(   2) = (  0.7500000  0.9165230  0.3298180  )
         3           Cs  tau(   3) = (  0.2500000  0.5834770  0.8298180  )
         4           Cs  tau(   4) = (  0.7500000  0.4165230  0.1701820  )
         5           Sn  tau(   5) = (  0.2500000  0.3418600  0.4389780  )
         6           Sn  tau(   6) = (  0.7500000  0.6581400  0.5610220  )
         7           Sn  tau(   7) = (  0.2500000  0.8418600  0.0610220  )
         8           Sn  tau(   8) = (  0.7500000  0.1581400  0.9389780  )
         9           I   tau(   9) = (  0.7500000  0.0261000  0.1119070  )
        10           I   tau(  10) = (  0.2500000  0.9739000  0.8880930  )
        11           I   tau(  11) = (  0.7500000  0.5261000  0.3880930  )
        12           I   tau(  12) = (  0.2500000  0.4739000  0.6119070  )
        13           I   tau(  13) = (  0.7500000  0.2931740  0.7918740  )
        14           I   tau(  14) = (  0.2500000  0.7068260  0.2081260  )
        15           I   tau(  15) = (  0.7500000  0.7931740  0.7081260  )
        16           I   tau(  16) = (  0.2500000  0.2068260  0.2918740  )
        17           I   tau(  17) = (  0.7500000  0.1684960  0.4988740  )
        18           I   tau(  18) = (  0.2500000  0.8315040  0.5011260  )
        19           I   tau(  19) = (  0.7500000  0.6684960  0.0011260  )
        20           I   tau(  20) = (  0.2500000  0.3315040  0.9988740  )

     number of k points=   125
                       cart. coord. in units 2pi/alat
        k(    1) = (   0.0000000   0.0000000   0.0000000), wk =   0.0027435
        k(    2) = (   0.0000000   0.0000000   0.0295869), wk =   0.0054870
        k(    3) = (   0.0000000   0.0000000   0.0591737), wk =   0.0054870
        k(    4) = (   0.0000000   0.0000000   0.0887606), wk =   0.0054870
        k(    5) = (   0.0000000   0.0000000   0.1183475), wk =   0.0054870
        k(    6) = (   0.0000000   0.0498764   0.0000000), wk =   0.0054870
        k(    7) = (   0.0000000   0.0498764   0.0295869), wk =   0.0109739
        k(    8) = (   0.0000000   0.0498764   0.0591737), wk =   0.0109739
        k(    9) = (   0.0000000   0.0498764   0.0887606), wk =   0.0109739
        k(   10) = (   0.0000000   0.0498764   0.1183475), wk =   0.0109739
        k(   11) = (   0.0000000   0.0997529   0.0000000), wk =   0.0054870
        k(   12) = (   0.0000000   0.0997529   0.0295869), wk =   0.0109739
        k(   13) = (   0.0000000   0.0997529   0.0591737), wk =   0.0109739
        k(   14) = (   0.0000000   0.0997529   0.0887606), wk =   0.0109739
        k(   15) = (   0.0000000   0.0997529   0.1183475), wk =   0.0109739
        k(   16) = (   0.0000000   0.1496293   0.0000000), wk =   0.0054870
        k(   17) = (   0.0000000   0.1496293   0.0295869), wk =   0.0109739
        k(   18) = (   0.0000000   0.1496293   0.0591737), wk =   0.0109739
        k(   19) = (   0.0000000   0.1496293   0.0887606), wk =   0.0109739
        k(   20) = (   0.0000000   0.1496293   0.1183475), wk =   0.0109739
        k(   21) = (   0.0000000   0.1995057   0.0000000), wk =   0.0054870
        k(   22) = (   0.0000000   0.1995057   0.0295869), wk =   0.0109739
        k(   23) = (   0.0000000   0.1995057   0.0591737), wk =   0.0109739
        k(   24) = (   0.0000000   0.1995057   0.0887606), wk =   0.0109739
        k(   25) = (   0.0000000   0.1995057   0.1183475), wk =   0.0109739
        k(   26) = (   0.1111111   0.0000000   0.0000000), wk =   0.0054870
        k(   27) = (   0.1111111   0.0000000   0.0295869), wk =   0.0109739
        k(   28) = (   0.1111111   0.0000000   0.0591737), wk =   0.0109739
        k(   29) = (   0.1111111   0.0000000   0.0887606), wk =   0.0109739
        k(   30) = (   0.1111111   0.0000000   0.1183475), wk =   0.0109739
        k(   31) = (   0.1111111   0.0498764   0.0000000), wk =   0.0109739
        k(   32) = (   0.1111111   0.0498764   0.0295869), wk =   0.0219479
        k(   33) = (   0.1111111   0.0498764   0.0591737), wk =   0.0219479
        k(   34) = (   0.1111111   0.0498764   0.0887606), wk =   0.0219479
        k(   35) = (   0.1111111   0.0498764   0.1183475), wk =   0.0219479
        k(   36) = (   0.1111111   0.0997529   0.0000000), wk =   0.0109739
        k(   37) = (   0.1111111   0.0997529   0.0295869), wk =   0.0219479
        k(   38) = (   0.1111111   0.0997529   0.0591737), wk =   0.0219479
        k(   39) = (   0.1111111   0.0997529   0.0887606), wk =   0.0219479
        k(   40) = (   0.1111111   0.0997529   0.1183475), wk =   0.0219479
        k(   41) = (   0.1111111   0.1496293   0.0000000), wk =   0.0109739
        k(   42) = (   0.1111111   0.1496293   0.0295869), wk =   0.0219479
        k(   43) = (   0.1111111   0.1496293   0.0591737), wk =   0.0219479
        k(   44) = (   0.1111111   0.1496293   0.0887606), wk =   0.0219479
        k(   45) = (   0.1111111   0.1496293   0.1183475), wk =   0.0219479
        k(   46) = (   0.1111111   0.1995057   0.0000000), wk =   0.0109739
        k(   47) = (   0.1111111   0.1995057   0.0295869), wk =   0.0219479
        k(   48) = (   0.1111111   0.1995057   0.0591737), wk =   0.0219479
        k(   49) = (   0.1111111   0.1995057   0.0887606), wk =   0.0219479
        k(   50) = (   0.1111111   0.1995057   0.1183475), wk =   0.0219479
        k(   51) = (   0.2222222   0.0000000   0.0000000), wk =   0.0054870
        k(   52) = (   0.2222222   0.0000000   0.0295869), wk =   0.0109739
        k(   53) = (   0.2222222   0.0000000   0.0591737), wk =   0.0109739
        k(   54) = (   0.2222222   0.0000000   0.0887606), wk =   0.0109739
        k(   55) = (   0.2222222   0.0000000   0.1183475), wk =   0.0109739
        k(   56) = (   0.2222222   0.0498764   0.0000000), wk =   0.0109739
        k(   57) = (   0.2222222   0.0498764   0.0295869), wk =   0.0219479
        k(   58) = (   0.2222222   0.0498764   0.0591737), wk =   0.0219479
        k(   59) = (   0.2222222   0.0498764   0.0887606), wk =   0.0219479
        k(   60) = (   0.2222222   0.0498764   0.1183475), wk =   0.0219479
        k(   61) = (   0.2222222   0.0997529   0.0000000), wk =   0.0109739
        k(   62) = (   0.2222222   0.0997529   0.0295869), wk =   0.0219479
        k(   63) = (   0.2222222   0.0997529   0.0591737), wk =   0.0219479
        k(   64) = (   0.2222222   0.0997529   0.0887606), wk =   0.0219479
        k(   65) = (   0.2222222   0.0997529   0.1183475), wk =   0.0219479
        k(   66) = (   0.2222222   0.1496293   0.0000000), wk =   0.0109739
        k(   67) = (   0.2222222   0.1496293   0.0295869), wk =   0.0219479
        k(   68) = (   0.2222222   0.1496293   0.0591737), wk =   0.0219479
        k(   69) = (   0.2222222   0.1496293   0.0887606), wk =   0.0219479
        k(   70) = (   0.2222222   0.1496293   0.1183475), wk =   0.0219479
        k(   71) = (   0.2222222   0.1995057   0.0000000), wk =   0.0109739
        k(   72) = (   0.2222222   0.1995057   0.0295869), wk =   0.0219479
        k(   73) = (   0.2222222   0.1995057   0.0591737), wk =   0.0219479
        k(   74) = (   0.2222222   0.1995057   0.0887606), wk =   0.0219479
        k(   75) = (   0.2222222   0.1995057   0.1183475), wk =   0.0219479
        k(   76) = (   0.3333333   0.0000000   0.0000000), wk =   0.0054870
        k(   77) = (   0.3333333   0.0000000   0.0295869), wk =   0.0109739
        k(   78) = (   0.3333333   0.0000000   0.0591737), wk =   0.0109739
        k(   79) = (   0.3333333   0.0000000   0.0887606), wk =   0.0109739
        k(   80) = (   0.3333333   0.0000000   0.1183475), wk =   0.0109739
        k(   81) = (   0.3333333   0.0498764   0.0000000), wk =   0.0109739
        k(   82) = (   0.3333333   0.0498764   0.0295869), wk =   0.0219479
        k(   83) = (   0.3333333   0.0498764   0.0591737), wk =   0.0219479
        k(   84) = (   0.3333333   0.0498764   0.0887606), wk =   0.0219479
        k(   85) = (   0.3333333   0.0498764   0.1183475), wk =   0.0219479
        k(   86) = (   0.3333333   0.0997529   0.0000000), wk =   0.0109739
        k(   87) = (   0.3333333   0.0997529   0.0295869), wk =   0.0219479
        k(   88) = (   0.3333333   0.0997529   0.0591737), wk =   0.0219479
        k(   89) = (   0.3333333   0.0997529   0.0887606), wk =   0.0219479
        k(   90) = (   0.3333333   0.0997529   0.1183475), wk =   0.0219479
        k(   91) = (   0.3333333   0.1496293   0.0000000), wk =   0.0109739
        k(   92) = (   0.3333333   0.1496293   0.0295869), wk =   0.0219479
        k(   93) = (   0.3333333   0.1496293   0.0591737), wk =   0.0219479
        k(   94) = (   0.3333333   0.1496293   0.0887606), wk =   0.0219479
        k(   95) = (   0.3333333   0.1496293   0.1183475), wk =   0.0219479
        k(   96) = (   0.3333333   0.1995057   0.0000000), wk =   0.0109739
        k(   97) = (   0.3333333   0.1995057   0.0295869), wk =   0.0219479
        k(   98) = (   0.3333333   0.1995057   0.0591737), wk =   0.0219479
        k(   99) = (   0.3333333   0.1995057   0.0887606), wk =   0.0219479
        k(  100) = (   0.3333333   0.1995057   0.1183475), wk =   0.0219479
        k(  101) = (   0.4444444   0.0000000   0.0000000), wk =   0.0054870
        k(  102) = (   0.4444444   0.0000000   0.0295869), wk =   0.0109739
        k(  103) = (   0.4444444   0.0000000   0.0591737), wk =   0.0109739
        k(  104) = (   0.4444444   0.0000000   0.0887606), wk =   0.0109739
        k(  105) = (   0.4444444   0.0000000   0.1183475), wk =   0.0109739
        k(  106) = (   0.4444444   0.0498764   0.0000000), wk =   0.0109739
        k(  107) = (   0.4444444   0.0498764   0.0295869), wk =   0.0219479
        k(  108) = (   0.4444444   0.0498764   0.0591737), wk =   0.0219479
        k(  109) = (   0.4444444   0.0498764   0.0887606), wk =   0.0219479
        k(  110) = (   0.4444444   0.0498764   0.1183475), wk =   0.0219479
        k(  111) = (   0.4444444   0.0997529   0.0000000), wk =   0.0109739
        k(  112) = (   0.4444444   0.0997529   0.0295869), wk =   0.0219479
        k(  113) = (   0.4444444   0.0997529   0.0591737), wk =   0.0219479
        k(  114) = (   0.4444444   0.0997529   0.0887606), wk =   0.0219479
        k(  115) = (   0.4444444   0.0997529   0.1183475), wk =   0.0219479
        k(  116) = (   0.4444444   0.1496293   0.0000000), wk =   0.0109739
        k(  117) = (   0.4444444   0.1496293   0.0295869), wk =   0.0219479
        k(  118) = (   0.4444444   0.1496293   0.0591737), wk =   0.0219479
        k(  119) = (   0.4444444   0.1496293   0.0887606), wk =   0.0219479
        k(  120) = (   0.4444444   0.1496293   0.1183475), wk =   0.0219479
        k(  121) = (   0.4444444   0.1995057   0.0000000), wk =   0.0109739
        k(  122) = (   0.4444444   0.1995057   0.0295869), wk =   0.0219479
        k(  123) = (   0.4444444   0.1995057   0.0591737), wk =   0.0219479
        k(  124) = (   0.4444444   0.1995057   0.0887606), wk =   0.0219479
        k(  125) = (   0.4444444   0.1995057   0.1183475), wk =   0.0219479

                       cryst. coord.
        k(    1) = (   0.0000000   0.0000000   0.0000000), wk =   0.0027435
        k(    2) = (   0.0000000   0.0000000   0.1111111), wk =   0.0054870
        k(    3) = (   0.0000000   0.0000000   0.2222222), wk =   0.0054870
        k(    4) = (   0.0000000   0.0000000   0.3333333), wk =   0.0054870
        k(    5) = (   0.0000000   0.0000000   0.4444444), wk =   0.0054870
        k(    6) = (   0.0000000   0.1111111   0.0000000), wk =   0.0054870
        k(    7) = (   0.0000000   0.1111111   0.1111111), wk =   0.0109739
        k(    8) = (   0.0000000   0.1111111   0.2222222), wk =   0.0109739
        k(    9) = (   0.0000000   0.1111111   0.3333333), wk =   0.0109739
        k(   10) = (   0.0000000   0.1111111   0.4444444), wk =   0.0109739
        k(   11) = (   0.0000000   0.2222222   0.0000000), wk =   0.0054870
        k(   12) = (   0.0000000   0.2222222   0.1111111), wk =   0.0109739
        k(   13) = (   0.0000000   0.2222222   0.2222222), wk =   0.0109739
        k(   14) = (   0.0000000   0.2222222   0.3333333), wk =   0.0109739
        k(   15) = (   0.0000000   0.2222222   0.4444444), wk =   0.0109739
        k(   16) = (   0.0000000   0.3333333   0.0000000), wk =   0.0054870
        k(   17) = (   0.0000000   0.3333333   0.1111111), wk =   0.0109739
        k(   18) = (   0.0000000   0.3333333   0.2222222), wk =   0.0109739
        k(   19) = (   0.0000000   0.3333333   0.3333333), wk =   0.0109739
        k(   20) = (   0.0000000   0.3333333   0.4444444), wk =   0.0109739
        k(   21) = (   0.0000000   0.4444444   0.0000000), wk =   0.0054870
        k(   22) = (   0.0000000   0.4444444   0.1111111), wk =   0.0109739
        k(   23) = (   0.0000000   0.4444444   0.2222222), wk =   0.0109739
        k(   24) = (   0.0000000   0.4444444   0.3333333), wk =   0.0109739
        k(   25) = (   0.0000000   0.4444444   0.4444444), wk =   0.0109739
        k(   26) = (   0.1111111   0.0000000   0.0000000), wk =   0.0054870
        k(   27) = (   0.1111111   0.0000000   0.1111111), wk =   0.0109739
        k(   28) = (   0.1111111   0.0000000   0.2222222), wk =   0.0109739
        k(   29) = (   0.1111111   0.0000000   0.3333333), wk =   0.0109739
        k(   30) = (   0.1111111   0.0000000   0.4444444), wk =   0.0109739
        k(   31) = (   0.1111111   0.1111111   0.0000000), wk =   0.0109739
        k(   32) = (   0.1111111   0.1111111   0.1111111), wk =   0.0219479
        k(   33) = (   0.1111111   0.1111111   0.2222222), wk =   0.0219479
        k(   34) = (   0.1111111   0.1111111   0.3333333), wk =   0.0219479
        k(   35) = (   0.1111111   0.1111111   0.4444444), wk =   0.0219479
        k(   36) = (   0.1111111   0.2222222   0.0000000), wk =   0.0109739
        k(   37) = (   0.1111111   0.2222222   0.1111111), wk =   0.0219479
        k(   38) = (   0.1111111   0.2222222   0.2222222), wk =   0.0219479
        k(   39) = (   0.1111111   0.2222222   0.3333333), wk =   0.0219479
        k(   40) = (   0.1111111   0.2222222   0.4444444), wk =   0.0219479
        k(   41) = (   0.1111111   0.3333333   0.0000000), wk =   0.0109739
        k(   42) = (   0.1111111   0.3333333   0.1111111), wk =   0.0219479
        k(   43) = (   0.1111111   0.3333333   0.2222222), wk =   0.0219479
        k(   44) = (   0.1111111   0.3333333   0.3333333), wk =   0.0219479
        k(   45) = (   0.1111111   0.3333333   0.4444444), wk =   0.0219479
        k(   46) = (   0.1111111   0.4444444   0.0000000), wk =   0.0109739
        k(   47) = (   0.1111111   0.4444444   0.1111111), wk =   0.0219479
        k(   48) = (   0.1111111   0.4444444   0.2222222), wk =   0.0219479
        k(   49) = (   0.1111111   0.4444444   0.3333333), wk =   0.0219479
        k(   50) = (   0.1111111   0.4444444   0.4444444), wk =   0.0219479
        k(   51) = (   0.2222222   0.0000000   0.0000000), wk =   0.0054870
        k(   52) = (   0.2222222   0.0000000   0.1111111), wk =   0.0109739
        k(   53) = (   0.2222222   0.0000000   0.2222222), wk =   0.0109739
        k(   54) = (   0.2222222   0.0000000   0.3333333), wk =   0.0109739
        k(   55) = (   0.2222222   0.0000000   0.4444444), wk =   0.0109739
        k(   56) = (   0.2222222   0.1111111   0.0000000), wk =   0.0109739
        k(   57) = (   0.2222222   0.1111111   0.1111111), wk =   0.0219479
        k(   58) = (   0.2222222   0.1111111   0.2222222), wk =   0.0219479
        k(   59) = (   0.2222222   0.1111111   0.3333333), wk =   0.0219479
        k(   60) = (   0.2222222   0.1111111   0.4444444), wk =   0.0219479
        k(   61) = (   0.2222222   0.2222222   0.0000000), wk =   0.0109739
        k(   62) = (   0.2222222   0.2222222   0.1111111), wk =   0.0219479
        k(   63) = (   0.2222222   0.2222222   0.2222222), wk =   0.0219479
        k(   64) = (   0.2222222   0.2222222   0.3333333), wk =   0.0219479
        k(   65) = (   0.2222222   0.2222222   0.4444444), wk =   0.0219479
        k(   66) = (   0.2222222   0.3333333   0.0000000), wk =   0.0109739
        k(   67) = (   0.2222222   0.3333333   0.1111111), wk =   0.0219479
        k(   68) = (   0.2222222   0.3333333   0.2222222), wk =   0.0219479
        k(   69) = (   0.2222222   0.3333333   0.3333333), wk =   0.0219479
        k(   70) = (   0.2222222   0.3333333   0.4444444), wk =   0.0219479
        k(   71) = (   0.2222222   0.4444444   0.0000000), wk =   0.0109739
        k(   72) = (   0.2222222   0.4444444   0.1111111), wk =   0.0219479
        k(   73) = (   0.2222222   0.4444444   0.2222222), wk =   0.0219479
        k(   74) = (   0.2222222   0.4444444   0.3333333), wk =   0.0219479
        k(   75) = (   0.2222222   0.4444444   0.4444444), wk =   0.0219479
        k(   76) = (   0.3333333   0.0000000   0.0000000), wk =   0.0054870
        k(   77) = (   0.3333333   0.0000000   0.1111111), wk =   0.0109739
        k(   78) = (   0.3333333   0.0000000   0.2222222), wk =   0.0109739
        k(   79) = (   0.3333333   0.0000000   0.3333333), wk =   0.0109739
        k(   80) = (   0.3333333   0.0000000   0.4444444), wk =   0.0109739
        k(   81) = (   0.3333333   0.1111111   0.0000000), wk =   0.0109739
        k(   82) = (   0.3333333   0.1111111   0.1111111), wk =   0.0219479
        k(   83) = (   0.3333333   0.1111111   0.2222222), wk =   0.0219479
        k(   84) = (   0.3333333   0.1111111   0.3333333), wk =   0.0219479
        k(   85) = (   0.3333333   0.1111111   0.4444444), wk =   0.0219479
        k(   86) = (   0.3333333   0.2222222   0.0000000), wk =   0.0109739
        k(   87) = (   0.3333333   0.2222222   0.1111111), wk =   0.0219479
        k(   88) = (   0.3333333   0.2222222   0.2222222), wk =   0.0219479
        k(   89) = (   0.3333333   0.2222222   0.3333333), wk =   0.0219479
        k(   90) = (   0.3333333   0.2222222   0.4444444), wk =   0.0219479
        k(   91) = (   0.3333333   0.3333333   0.0000000), wk =   0.0109739
        k(   92) = (   0.3333333   0.3333333   0.1111111), wk =   0.0219479
        k(   93) = (   0.3333333   0.3333333   0.2222222), wk =   0.0219479
        k(   94) = (   0.3333333   0.3333333   0.3333333), wk =   0.0219479
        k(   95) = (   0.3333333   0.3333333   0.4444444), wk =   0.0219479
        k(   96) = (   0.3333333   0.4444444   0.0000000), wk =   0.0109739
        k(   97) = (   0.3333333   0.4444444   0.1111111), wk =   0.0219479
        k(   98) = (   0.3333333   0.4444444   0.2222222), wk =   0.0219479
        k(   99) = (   0.3333333   0.4444444   0.3333333), wk =   0.0219479
        k(  100) = (   0.3333333   0.4444444   0.4444444), wk =   0.0219479
        k(  101) = (   0.4444444   0.0000000   0.0000000), wk =   0.0054870
        k(  102) = (   0.4444444   0.0000000   0.1111111), wk =   0.0109739
        k(  103) = (   0.4444444   0.0000000   0.2222222), wk =   0.0109739
        k(  104) = (   0.4444444   0.0000000   0.3333333), wk =   0.0109739
        k(  105) = (   0.4444444   0.0000000   0.4444444), wk =   0.0109739
        k(  106) = (   0.4444444   0.1111111   0.0000000), wk =   0.0109739
        k(  107) = (   0.4444444   0.1111111   0.1111111), wk =   0.0219479
        k(  108) = (   0.4444444   0.1111111   0.2222222), wk =   0.0219479
        k(  109) = (   0.4444444   0.1111111   0.3333333), wk =   0.0219479
        k(  110) = (   0.4444444   0.1111111   0.4444444), wk =   0.0219479
        k(  111) = (   0.4444444   0.2222222   0.0000000), wk =   0.0109739
        k(  112) = (   0.4444444   0.2222222   0.1111111), wk =   0.0219479
        k(  113) = (   0.4444444   0.2222222   0.2222222), wk =   0.0219479
        k(  114) = (   0.4444444   0.2222222   0.3333333), wk =   0.0219479
        k(  115) = (   0.4444444   0.2222222   0.4444444), wk =   0.0219479
        k(  116) = (   0.4444444   0.3333333   0.0000000), wk =   0.0109739
        k(  117) = (   0.4444444   0.3333333   0.1111111), wk =   0.0219479
        k(  118) = (   0.4444444   0.3333333   0.2222222), wk =   0.0219479
        k(  119) = (   0.4444444   0.3333333   0.3333333), wk =   0.0219479
        k(  120) = (   0.4444444   0.3333333   0.4444444), wk =   0.0219479
        k(  121) = (   0.4444444   0.4444444   0.0000000), wk =   0.0109739
        k(  122) = (   0.4444444   0.4444444   0.1111111), wk =   0.0219479
        k(  123) = (   0.4444444   0.4444444   0.2222222), wk =   0.0219479
        k(  124) = (   0.4444444   0.4444444   0.3333333), wk =   0.0219479
        k(  125) = (   0.4444444   0.4444444   0.4444444), wk =   0.0219479

     Dense  grid:   304449 G-vectors     FFT dimensions: (  48,  96, 160)

     Dynamical RAM for                 wfc:       1.61 MB

     Dynamical RAM for     wfc (w. buffer):     203.28 MB

     Dynamical RAM for           str. fact:       0.44 MB

     Dynamical RAM for           local pot:       0.00 MB

     Dynamical RAM for          nlocal pot:       7.61 MB

     Dynamical RAM for                qrad:      10.22 MB

     Dynamical RAM for          rho,v,vnew:       0.96 MB

     Dynamical RAM for               rhoin:       0.32 MB

     Dynamical RAM for            rho*nmix:       2.32 MB

     Dynamical RAM for           G-vectors:       0.62 MB

     Dynamical RAM for          h,s,v(r/c):       1.45 MB

     Dynamical RAM for          <psi|beta>:       0.57 MB

     Dynamical RAM for                 psi:       3.23 MB

     Dynamical RAM for                hpsi:       3.23 MB

     Dynamical RAM for                spsi:       3.23 MB

     Dynamical RAM for      wfcinit/wfcrot:       4.02 MB

     Dynamical RAM for           addusdens:      87.08 MB

     Dynamical RAM for          addusforce:      90.50 MB

     Dynamical RAM for         addusstress:      89.26 MB

     Estimated static dynamical RAM per process >     227.24 MB

     Estimated max dynamical RAM per process >     317.74 MB

     Estimated total dynamical RAM >       9.93 GB

     Check: negative core charge=   -0.000002

     Initial potential from superposition of free atoms

     starting charge  175.83511, renormalised to  176.00000
     Starting wfcs are  104 randomized atomic wfcs
     Checking if some PAW data can be deallocated... 
       PAW data deallocated on   24 nodes for type:  1
       PAW data deallocated on   16 nodes for type:  2
       PAW data deallocated on   24 nodes for type:  3

     total cpu time spent up to now is     1289.1 secs

     Self-consistent Calculation

     iteration #  1     ecut=    50.00 Ry     beta= 0.70
     Davidson diagonalization with overlap
     ethr =  1.00E-02,  avg # of iterations =  2.0

     Threshold (ethr) on eigenvalues was too large:
     Diagonalizing with lowered threshold

     Davidson diagonalization with overlap
     ethr =  3.12E-04,  avg # of iterations =  3.9

     total cpu time spent up to now is     8650.5 secs

     total energy              =   -7979.41451173 Ry
     estimated scf accuracy    <       0.44253716 Ry

     iteration #  2     ecut=    50.00 Ry     beta= 0.70
     Davidson diagonalization with overlap
     ethr =  2.51E-04,  avg # of iterations =  4.2

     total cpu time spent up to now is    13213.8 secs

     total energy              =   -7979.51165082 Ry
     estimated scf accuracy    <       0.54520413 Ry

     iteration #  3     ecut=    50.00 Ry     beta= 0.70
     Davidson diagonalization with overlap
     ethr =  2.51E-04,  avg # of iterations =  4.7

     total cpu time spent up to now is    16848.0 secs

     total energy              =   -7979.61138193 Ry
     estimated scf accuracy    <       0.01465215 Ry

     iteration #  4     ecut=    50.00 Ry     beta= 0.70
     Davidson diagonalization with overlap
     c_bands:  1 eigenvalues not converged
     c_bands:  1 eigenvalues not converged
     c_bands:  1 eigenvalues not converged
     c_bands:  1 eigenvalues not converged
     c_bands:  1 eigenvalues not converged
     ethr =  8.33E-06,  avg # of iterations =  9.3

     total cpu time spent up to now is    22625.4 secs

     total energy              =   -7979.62627094 Ry
     estimated scf accuracy    <       0.00628795 Ry

     iteration #  5     ecut=    50.00 Ry     beta= 0.70
     Davidson diagonalization with overlap
     c_bands:  1 eigenvalues not converged
     c_bands:  1 eigenvalues not converged
     c_bands:  1 eigenvalues not converged
     c_bands:  1 eigenvalues not converged
     c_bands:  1 eigenvalues not converged
     c_bands:  1 eigenvalues not converged
     c_bands:  1 eigenvalues not converged
     c_bands:  1 eigenvalues not converged
     c_bands:  1 eigenvalues not converged
     c_bands:  1 eigenvalues not converged
     c_bands:  1 eigenvalues not converged
     c_bands:  1 eigenvalues not converged
     c_bands:  1 eigenvalues not converged
     c_bands:  1 eigenvalues not converged
     c_bands:  1 eigenvalues not converged
     c_bands:  1 eigenvalues not converged
     ethr =  3.57E-06,  avg # of iterations =  5.4

     total cpu time spent up to now is    26157.6 secs

     total energy              =   -7979.62664254 Ry
     estimated scf accuracy    <       0.00122313 Ry

     iteration #  6     ecut=    50.00 Ry     beta= 0.70
     Davidson diagonalization with overlap
     c_bands:  1 eigenvalues not converged
     c_bands:  1 eigenvalues not converged
     ethr =  6.95E-07,  avg # of iterations =  5.7

     total cpu time spent up to now is    30854.4 secs

     total energy              =   -7979.62718588 Ry
     estimated scf accuracy    <       0.00020023 Ry

     iteration #  7     ecut=    50.00 Ry     beta= 0.70
     Davidson diagonalization with overlap
     ethr =  1.14E-07,  avg # of iterations =  4.4

     total cpu time spent up to now is    34510.0 secs

     total energy              =   -7979.62723798 Ry
     estimated scf accuracy    <       0.00001698 Ry

     iteration #  8     ecut=    50.00 Ry     beta= 0.70
     Davidson diagonalization with overlap
     ethr =  9.65E-09,  avg # of iterations =  5.8

     total cpu time spent up to now is    39660.5 secs

     total energy              =   -7979.62723357 Ry
     estimated scf accuracy    <       0.00003124 Ry

     iteration #  9     ecut=    50.00 Ry     beta= 0.70
     Davidson diagonalization with overlap

     Maximum CPU time exceeded

     max_seconds     =   42500.00
     elapsed seconds =   42526.26
     Calculation stopped in k-point loop, point #    87
     Calculation stopped in scf loop at iteration #     8

     Writing output data file ./out/CsSnI3.save/

     init_run     :   1257.83s CPU   1282.91s WALL (       1 calls)
     electrons    :  40659.54s CPU  41244.31s WALL (       1 calls)

     Called by init_run:
     wfcinit      :   1238.88s CPU   1258.88s WALL (       1 calls)
     wfcinit:atom :      2.24s CPU      2.28s WALL (     125 calls)
     wfcinit:wfcr :   1217.31s CPU   1236.95s WALL (     125 calls)
     potinit      :      7.18s CPU      7.41s WALL (       1 calls)
     hinit0       :      6.61s CPU      6.69s WALL (       1 calls)

     Called by electrons:
     c_bands      :  37622.24s CPU  38161.59s WALL (      10 calls)
     sum_band     :   2987.35s CPU   3033.22s WALL (       9 calls)
     v_of_rho     :      2.31s CPU      2.51s WALL (       9 calls)
     v_h          :      0.22s CPU      0.23s WALL (       9 calls)
     v_xc         :      2.08s CPU      2.18s WALL (       9 calls)
     newd         :     34.30s CPU     36.32s WALL (       9 calls)
     PAW_pot      :     32.08s CPU     32.74s WALL (       9 calls)
     mix_rho      :      0.66s CPU      0.83s WALL (       9 calls)

     Called by c_bands:
     init_us_2    :    115.80s CPU    118.23s WALL (    2462 calls)
     cegterg      :  37204.63s CPU  37728.47s WALL (    1212 calls)

     Called by sum_band:
     sum_band:wei :      0.00s CPU      0.01s WALL (       9 calls)
     sum_band:loo :   2955.57s CPU   2999.09s WALL (       9 calls)
     sum_band:buf :     13.41s CPU     14.00s WALL (    1125 calls)
     sum_band:ini :     52.28s CPU     53.13s WALL (    1125 calls)
     sum_band:cal :   2225.18s CPU   2253.40s WALL (    1125 calls)
     sum_band:bec :     15.11s CPU     15.34s WALL (    1125 calls)
     addusdens    :     30.17s CPU     32.38s WALL (       9 calls)
     addusd:skk   :      0.09s CPU      0.10s WALL (      27 calls)
     addusd:dgemm :     14.75s CPU     16.70s WALL (      27 calls)
     addusd:qvan2 :     14.05s CPU     14.21s WALL (      27 calls)

     Called by *egterg:
     cdiaghg      :   1344.89s CPU   1359.41s WALL (    7214 calls)
     cegterg:over :   2184.29s CPU   2210.66s WALL (    6127 calls)
     cegterg:upda :   1593.81s CPU   1614.38s WALL (    6127 calls)
     cegterg:last :   5709.73s CPU   5784.99s WALL (    3295 calls)
     h_psi        :  19049.34s CPU  19343.05s WALL (    7464 calls)
     s_psi        :   7415.01s CPU   7512.88s WALL (    7464 calls)
     g_psi        :     13.45s CPU     13.76s WALL (    6127 calls)

     Called by h_psi:
     h_psi:calbec :   7543.46s CPU   7645.63s WALL (    7464 calls)
     vloc_psi     :   3998.75s CPU   4089.41s WALL (    7464 calls)
     add_vuspsi   :   7473.65s CPU   7573.13s WALL (    7464 calls)

     General routines
     calbec       :   9768.29s CPU   9898.76s WALL (    8589 calls)
     fft          :      1.52s CPU      1.58s WALL (     101 calls)
     ffts         :      0.09s CPU      0.09s WALL (       9 calls)
     fftw         :   4254.48s CPU   4350.98s WALL (  778405 calls)
     davcio       :      0.03s CPU      2.08s WALL (     141 calls)

     Parallel routines
     fft_scatt_xy :    306.72s CPU    313.66s WALL (  778515 calls)
     fft_scatt_yz :    753.93s CPU    775.93s WALL (  778515 calls)

     PAW routines
     PAW_pot      :     32.08s CPU     32.74s WALL (       9 calls)
     PAW_symme    :      0.25s CPU      0.26s WALL (      18 calls)

     PWSCF        :     11h38m CPU     11h49m WALL


   This run was terminated on:  23:27: 1  15Jan2021            

=------------------------------------------------------------------------------=
   JOB DONE.
=------------------------------------------------------------------------------=
