
     Program PWSCF v.6.4.1 starts on 24Jan2021 at 17:40: 3 

     This program is part of the open-source Quantum ESPRESSO suite
     for quantum simulation of materials; please cite
         "P. Giannozzi et al., J. Phys.:Condens. Matter 21 395502 (2009);
         "P. Giannozzi et al., J. Phys.:Condens. Matter 29 465901 (2017);
          URL http://www.quantum-espresso.org", 
     in publications or presentations arising from this work. More details at
     http://www.quantum-espresso.org/quote

     Parallel version (MPI & OpenMP), running on      48 processor cores
     Number of MPI processes:                24
     Threads/MPI process:                     2

     MPI processes distributed on     1 nodes
     R & G space division:  proc/nbgrp/npool/nimage =      24
     Waiting for input...
     Reading input from standard input

     Current dimensions of program PWSCF are:
     Max number of different atomic species (ntypx) = 10
     Max number of k-points (npk) =  40000
     Max angular momentum in pseudopotentials (lmaxx) =  3
               file Sn.rel-pbesol-dn-kjpaw_psl.1.0.0.UPF: wavefunction(s)  5S 5P 5P 4D 4D renormalized
               file I.rel-pbesol-n-kjpaw_psl.1.0.0.UPF: wavefunction(s)  5S renormalized

     Subspace diagonalization in iterative solution of the eigenvalue problem:
     one sub-group per band group will be used
     scalapack distributed-memory algorithm (size of sub-group:  3*  3 procs)

 
     Parallelization info
     --------------------
     sticks:   dense  smooth     PW     G-vecs:    dense   smooth      PW
     Min         372     248     67                26472    14418    2019
     Max         373     249     68                26475    14423    2023
     Sum        8945    5957   1609               635371   346083   48501
 

     Title: 
     CsIsalt                                                                    


     bravais-lattice index     =            1
     lattice parameter (alat)  =      14.4199  a.u.
     unit-cell volume          =    2998.4083 (a.u.)^3
     number of atoms/cell      =            6
     number of atomic types    =            2
     number of electrons       =        56.00
     number of Kohn-Sham states=           56
     kinetic-energy cutoff     =      90.0000  Ry
     charge density cutoff     =     540.0000  Ry
     convergence threshold     =      1.0E-06
     mixing beta               =       0.3500
     number of iterations used =            8  plain     mixing
     Exchange-correlation      = SLA PW PSX PSC ( 1  4 10  8 0 0)
     Non magnetic calculation with spin-orbit


     celldm(1)=  14.419945  celldm(2)=   0.000000  celldm(3)=   0.000000
     celldm(4)=   0.000000  celldm(5)=   0.000000  celldm(6)=   0.000000

     crystal axes: (cart. coord. in units of alat)
               a(1) = (   1.000000   0.000000   0.000000 )  
               a(2) = (   0.000000   1.000000   0.000000 )  
               a(3) = (   0.000000   0.000000   1.000000 )  

     reciprocal axes: (cart. coord. in units 2 pi/alat)
               b(1) = (  1.000000  0.000000  0.000000 )  
               b(2) = (  0.000000  1.000000  0.000000 )  
               b(3) = (  0.000000  0.000000  1.000000 )  


     PseudoPot. # 1 for Sn read from file:
     /marconi_scratch/userexternal/cmalosso/degironcoli/pseudo/Sn.rel-pbesol-dn-kjpaw_psl.1.0.0.UPF
     MD5 check sum: e69eff64f15ae39ad43ef58bacbfdf88
     Pseudo is Projector augmented-wave + core cor, Zval = 14.0
     Generated using "atomic" code by A. Dal Corso v.6.3
     Shape of augmentation charge: PSQ
     Using radial grid of 1243 points, 10 beta functions with: 
                l(1) =   0
                l(2) =   0
                l(3) =   1
                l(4) =   1
                l(5) =   1
                l(6) =   1
                l(7) =   2
                l(8) =   2
                l(9) =   2
               l(10) =   2
     Q(r) pseudized with 0 coefficients 


     PseudoPot. # 2 for I  read from file:
     /marconi_scratch/userexternal/cmalosso/degironcoli/pseudo/I.rel-pbesol-n-kjpaw_psl.1.0.0.UPF
     MD5 check sum: 4478c427bd443f303eca1937a163b991
     Pseudo is Projector augmented-wave + core cor, Zval =  7.0
     Generated using "atomic" code by A. Dal Corso v.6.3
     Shape of augmentation charge: PSQ
     Using radial grid of 1247 points, 10 beta functions with: 
                l(1) =   0
                l(2) =   0
                l(3) =   1
                l(4) =   1
                l(5) =   1
                l(6) =   1
                l(7) =   2
                l(8) =   2
                l(9) =   2
               l(10) =   2
     Q(r) pseudized with 0 coefficients 


     atomic species   valence    mass     pseudopotential
        Sn            14.00   118.70000     Sn( 1.00)
        I              7.00   126.90000     I ( 1.00)

     16 Sym. Ops., with inversion, found ( 8 have fractional translation)


                                    s                        frac. trans.

      isym =  1     identity                                     

 cryst.   s( 1) = (     1          0          0      )
                  (     0          1          0      )
                  (     0          0          1      )

 cart.    s( 1) = (  1.0000000  0.0000000  0.0000000 )
                  (  0.0000000  1.0000000  0.0000000 )
                  (  0.0000000  0.0000000  1.0000000 )


      isym =  2     180 deg rotation - cart. axis [0,0,1]        

 cryst.   s( 2) = (    -1          0          0      )
                  (     0         -1          0      )
                  (     0          0          1      )

 cart.    s( 2) = ( -1.0000000  0.0000000  0.0000000 )
                  (  0.0000000 -1.0000000  0.0000000 )
                  (  0.0000000  0.0000000  1.0000000 )


      isym =  3     180 deg rotation - cart. axis [0,1,0]        

 cryst.   s( 3) = (    -1          0          0      )    f =(  0.5000000 )
                  (     0          1          0      )       ( -0.5000000 )
                  (     0          0         -1      )       (  0.5000000 )

 cart.    s( 3) = ( -1.0000000  0.0000000  0.0000000 )    f =(  0.5000000 )
                  (  0.0000000  1.0000000  0.0000000 )       ( -0.5000000 )
                  (  0.0000000  0.0000000 -1.0000000 )       (  0.5000000 )


      isym =  4     180 deg rotation - cart. axis [1,0,0]        

 cryst.   s( 4) = (     1          0          0      )    f =( -0.5000000 )
                  (     0         -1          0      )       (  0.5000000 )
                  (     0          0         -1      )       (  0.5000000 )

 cart.    s( 4) = (  1.0000000  0.0000000  0.0000000 )    f =( -0.5000000 )
                  (  0.0000000 -1.0000000  0.0000000 )       (  0.5000000 )
                  (  0.0000000  0.0000000 -1.0000000 )       (  0.5000000 )


      isym =  5     180 deg rotation - cart. axis [1,1,0]        

 cryst.   s( 5) = (     0          1          0      )
                  (     1          0          0      )
                  (     0          0         -1      )

 cart.    s( 5) = (  0.0000000  1.0000000  0.0000000 )
                  (  1.0000000  0.0000000  0.0000000 )
                  (  0.0000000  0.0000000 -1.0000000 )


      isym =  6     180 deg rotation - cart. axis [1,-1,0]       

 cryst.   s( 6) = (     0         -1          0      )
                  (    -1          0          0      )
                  (     0          0         -1      )

 cart.    s( 6) = (  0.0000000 -1.0000000  0.0000000 )
                  ( -1.0000000  0.0000000  0.0000000 )
                  (  0.0000000  0.0000000 -1.0000000 )


      isym =  7      90 deg rotation - cart. axis [0,0,-1]       

 cryst.   s( 7) = (     0         -1          0      )    f =( -0.5000000 )
                  (     1          0          0      )       (  0.5000000 )
                  (     0          0          1      )       ( -0.5000000 )

 cart.    s( 7) = (  0.0000000  1.0000000  0.0000000 )    f =( -0.5000000 )
                  ( -1.0000000  0.0000000  0.0000000 )       (  0.5000000 )
                  (  0.0000000  0.0000000  1.0000000 )       ( -0.5000000 )


      isym =  8      90 deg rotation - cart. axis [0,0,1]        

 cryst.   s( 8) = (     0          1          0      )    f =(  0.5000000 )
                  (    -1          0          0      )       ( -0.5000000 )
                  (     0          0          1      )       ( -0.5000000 )

 cart.    s( 8) = (  0.0000000 -1.0000000  0.0000000 )    f =(  0.5000000 )
                  (  1.0000000  0.0000000  0.0000000 )       ( -0.5000000 )
                  (  0.0000000  0.0000000  1.0000000 )       ( -0.5000000 )


      isym =  9     inversion                                    

 cryst.   s( 9) = (    -1          0          0      )
                  (     0         -1          0      )
                  (     0          0         -1      )

 cart.    s( 9) = ( -1.0000000  0.0000000  0.0000000 )
                  (  0.0000000 -1.0000000  0.0000000 )
                  (  0.0000000  0.0000000 -1.0000000 )


      isym = 10     inv. 180 deg rotation - cart. axis [0,0,1]   

 cryst.   s(10) = (     1          0          0      )
                  (     0          1          0      )
                  (     0          0         -1      )

 cart.    s(10) = (  1.0000000  0.0000000  0.0000000 )
                  (  0.0000000  1.0000000  0.0000000 )
                  (  0.0000000  0.0000000 -1.0000000 )


      isym = 11     inv. 180 deg rotation - cart. axis [0,1,0]   

 cryst.   s(11) = (     1          0          0      )    f =( -0.5000000 )
                  (     0         -1          0      )       (  0.5000000 )
                  (     0          0          1      )       ( -0.5000000 )

 cart.    s(11) = (  1.0000000  0.0000000  0.0000000 )    f =( -0.5000000 )
                  (  0.0000000 -1.0000000  0.0000000 )       (  0.5000000 )
                  (  0.0000000  0.0000000  1.0000000 )       ( -0.5000000 )


      isym = 12     inv. 180 deg rotation - cart. axis [1,0,0]   

 cryst.   s(12) = (    -1          0          0      )    f =(  0.5000000 )
                  (     0          1          0      )       ( -0.5000000 )
                  (     0          0          1      )       ( -0.5000000 )

 cart.    s(12) = ( -1.0000000  0.0000000  0.0000000 )    f =(  0.5000000 )
                  (  0.0000000  1.0000000  0.0000000 )       ( -0.5000000 )
                  (  0.0000000  0.0000000  1.0000000 )       ( -0.5000000 )


      isym = 13     inv. 180 deg rotation - cart. axis [1,1,0]   

 cryst.   s(13) = (     0         -1          0      )
                  (    -1          0          0      )
                  (     0          0          1      )

 cart.    s(13) = (  0.0000000 -1.0000000  0.0000000 )
                  ( -1.0000000  0.0000000  0.0000000 )
                  (  0.0000000  0.0000000  1.0000000 )


      isym = 14     inv. 180 deg rotation - cart. axis [1,-1,0]  

 cryst.   s(14) = (     0          1          0      )
                  (     1          0          0      )
                  (     0          0          1      )

 cart.    s(14) = (  0.0000000  1.0000000  0.0000000 )
                  (  1.0000000  0.0000000  0.0000000 )
                  (  0.0000000  0.0000000  1.0000000 )


      isym = 15     inv.  90 deg rotation - cart. axis [0,0,-1]  

 cryst.   s(15) = (     0          1          0      )    f =(  0.5000000 )
                  (    -1          0          0      )       ( -0.5000000 )
                  (     0          0         -1      )       (  0.5000000 )

 cart.    s(15) = (  0.0000000 -1.0000000  0.0000000 )    f =(  0.5000000 )
                  (  1.0000000  0.0000000  0.0000000 )       ( -0.5000000 )
                  (  0.0000000  0.0000000 -1.0000000 )       (  0.5000000 )


      isym = 16     inv.  90 deg rotation - cart. axis [0,0,1]   

 cryst.   s(16) = (     0         -1          0      )    f =( -0.5000000 )
                  (     1          0          0      )       (  0.5000000 )
                  (     0          0         -1      )       (  0.5000000 )

 cart.    s(16) = (  0.0000000  1.0000000  0.0000000 )    f =( -0.5000000 )
                  ( -1.0000000  0.0000000  0.0000000 )       (  0.5000000 )
                  (  0.0000000  0.0000000 -1.0000000 )       (  0.5000000 )


     double point group D_4h(4/mmm)
     there are 14 classes and  4 irreducible representations
     the character table:

       E     -E    2C4   -2C4   C2    2C2' 2C2'' i     -i    2S4   -2S4   s_h 
                               -C2   -2C2' -2C2'                         -s_h 
G_6+   2.00 -2.00  1.41 -1.41  0.00  0.00  0.00  2.00 -2.00  1.41 -1.41  0.00
G_7+   2.00 -2.00 -1.41  1.41  0.00  0.00  0.00  2.00 -2.00 -1.41  1.41  0.00
G_6-   2.00 -2.00  1.41 -1.41  0.00  0.00  0.00 -2.00  2.00 -1.41  1.41  0.00
G_7-   2.00 -2.00 -1.41  1.41  0.00  0.00  0.00 -2.00  2.00  1.41 -1.41  0.00

        2s_v  2s_d
       -2s_v -2s_d
G_6+   0.00  0.00
G_7+   0.00  0.00
G_6-   0.00  0.00
G_7-   0.00  0.00

     the symmetry operations in each class and the name of the first element:

     E             1
          identity                                               
     -E           -1
          identity E                                             
     2C4           7    8
           90 deg rotation - cart. axis [0,0,-1]                 
     -2C4         -7   -8
           90 deg rotation - cart. axis [0,0,-1] E               
      C2  -C2      2   -2
          180 deg rotation - cart. axis [0,0,1]                  
      2C2'-2C2'    3   -3    4   -4
          180 deg rotation - cart. axis [0,1,0]                  
     2C2''-2C2'    5   -5   -6    6
          180 deg rotation - cart. axis [1,1,0]                  
     i             9
          inversion                                              
     -i           -9
          inversion E                                            
     2S4          15   16
          inv.  90 deg rotation - cart. axis [0,0,-1]            
     -2S4        -15  -16
          inv.  90 deg rotation - cart. axis [0,0,-1] E          
      s_h -s_h    10  -10
          inv. 180 deg rotation - cart. axis [0,0,1]             
      2s_v-2s_v   11  -11   12  -12
          inv. 180 deg rotation - cart. axis [0,1,0]             
      2s_d-2s_d   13  -13  -14   14
          inv. 180 deg rotation - cart. axis [1,1,0]             

   Cartesian axes

     site n.     atom                  positions (alat units)
         1           Sn  tau(   1) = (   0.0000000   0.0000000   0.0000000  )
         2           Sn  tau(   2) = (   0.5000000   0.5000000   0.5000000  )
         3           I   tau(   3) = (   0.2985210   0.2985210   0.0000000  )
         4           I   tau(   4) = (   0.7014790   0.7014790   0.0000000  )
         5           I   tau(   5) = (   0.7985210   0.2014790   0.5000000  )
         6           I   tau(   6) = (   0.2014790   0.7985210   0.5000000  )

   Crystallographic axes

     site n.     atom                  positions (cryst. coord.)
         1           Sn  tau(   1) = (  0.0000000  0.0000000  0.0000000  )
         2           Sn  tau(   2) = (  0.5000000  0.5000000  0.5000000  )
         3           I   tau(   3) = (  0.2985210  0.2985210  0.0000000  )
         4           I   tau(   4) = (  0.7014790  0.7014790  0.0000000  )
         5           I   tau(   5) = (  0.7985210  0.2014790  0.5000000  )
         6           I   tau(   6) = (  0.2014790  0.7985210  0.5000000  )

     number of k points=     6
                       cart. coord. in units 2pi/alat
        k(    1) = (   0.1666667   0.1666667   0.1666667), wk =   0.2962963
        k(    2) = (   0.1666667   0.1666667  -0.5000000), wk =   0.1481481
        k(    3) = (   0.1666667  -0.5000000  -0.5000000), wk =   0.1481481
        k(    4) = (  -0.5000000  -0.5000000  -0.5000000), wk =   0.0370370
        k(    5) = (   0.1666667  -0.5000000   0.1666667), wk =   0.2962963
        k(    6) = (  -0.5000000  -0.5000000   0.1666667), wk =   0.0740741

                       cryst. coord.
        k(    1) = (   0.1666667   0.1666667   0.1666667), wk =   0.2962963
        k(    2) = (   0.1666667   0.1666667  -0.5000000), wk =   0.1481481
        k(    3) = (   0.1666667  -0.5000000  -0.5000000), wk =   0.1481481
        k(    4) = (  -0.5000000  -0.5000000  -0.5000000), wk =   0.0370370
        k(    5) = (   0.1666667  -0.5000000   0.1666667), wk =   0.2962963
        k(    6) = (  -0.5000000  -0.5000000   0.1666667), wk =   0.0740741

     Dense  grid:   635371 G-vectors     FFT dimensions: ( 108, 108, 108)

     Smooth grid:   346083 G-vectors     FFT dimensions: (  90,  90,  90)

     Dynamical RAM for                 wfc:       3.08 MB

     Dynamical RAM for     wfc (w. buffer):      21.55 MB

     Dynamical RAM for           str. fact:       0.81 MB

     Dynamical RAM for           local pot:       0.00 MB

     Dynamical RAM for          nlocal pot:       5.61 MB

     Dynamical RAM for                qrad:      22.39 MB

     Dynamical RAM for          rho,v,vnew:      10.19 MB

     Dynamical RAM for               rhoin:       3.40 MB

     Dynamical RAM for            rho*nmix:      25.85 MB

     Dynamical RAM for           G-vectors:       1.62 MB

     Dynamical RAM for          h,s,v(r/c):       0.25 MB

     Dynamical RAM for          <psi|beta>:       0.35 MB

     Dynamical RAM for                 psi:      12.31 MB

     Dynamical RAM for                hpsi:      12.31 MB

     Dynamical RAM for                spsi:      12.31 MB

     Dynamical RAM for      wfcinit/wfcrot:       5.71 MB

     Dynamical RAM for           addusdens:     248.04 MB

     Dynamical RAM for          addusforce:     253.17 MB

     Dynamical RAM for         addusstress:     253.70 MB

     Estimated static dynamical RAM per process >      96.19 MB

     Estimated max dynamical RAM per process >     349.89 MB

     Estimated total dynamical RAM >       8.20 GB

     Initial potential from superposition of free atoms

     starting charge   55.99771, renormalised to   56.00000
     Starting wfcs are   68 randomized atomic wfcs
     Checking if some PAW data can be deallocated... 
       PAW data deallocated on   16 nodes for type:  1
       PAW data deallocated on    8 nodes for type:  2

     total cpu time spent up to now is       22.7 secs

     Self-consistent Calculation

     iteration #  1     ecut=    90.00 Ry     beta= 0.35
     Davidson diagonalization with overlap
     ethr =  1.00E-02,  avg # of iterations =  1.0

     total cpu time spent up to now is       59.2 secs

     total energy              =   -2370.83385872 Ry
     Harris-Foulkes estimate   =   -2371.11855370 Ry
     estimated scf accuracy    <       0.58853216 Ry

     iteration #  2     ecut=    90.00 Ry     beta= 0.35
     Davidson diagonalization with overlap
     ethr =  1.05E-03,  avg # of iterations =  3.0

     total cpu time spent up to now is      100.8 secs

     total energy              =   -2370.93773047 Ry
     Harris-Foulkes estimate   =   -2370.94860999 Ry
     estimated scf accuracy    <       0.04031417 Ry

     iteration #  3     ecut=    90.00 Ry     beta= 0.35
     Davidson diagonalization with overlap
     ethr =  7.20E-05,  avg # of iterations =  3.0

     total cpu time spent up to now is      141.9 secs

     total energy              =   -2370.94085348 Ry
     Harris-Foulkes estimate   =   -2370.94328008 Ry
     estimated scf accuracy    <       0.00937100 Ry

     iteration #  4     ecut=    90.00 Ry     beta= 0.35
     Davidson diagonalization with overlap
     ethr =  1.67E-05,  avg # of iterations =  3.8

     total cpu time spent up to now is      182.3 secs

     total energy              =   -2370.94224968 Ry
     Harris-Foulkes estimate   =   -2370.94232164 Ry
     estimated scf accuracy    <       0.00061636 Ry

     iteration #  5     ecut=    90.00 Ry     beta= 0.35
     Davidson diagonalization with overlap
     ethr =  1.10E-06,  avg # of iterations =  3.8

     total cpu time spent up to now is      222.8 secs

     total energy              =   -2370.94242125 Ry
     Harris-Foulkes estimate   =   -2370.94247785 Ry
     estimated scf accuracy    <       0.00014976 Ry

     iteration #  6     ecut=    90.00 Ry     beta= 0.35
     Davidson diagonalization with overlap
     ethr =  2.67E-07,  avg # of iterations =  4.0

     total cpu time spent up to now is      270.0 secs

     total energy              =   -2370.94246210 Ry
     Harris-Foulkes estimate   =   -2370.94245827 Ry
     estimated scf accuracy    <       0.00001149 Ry

     iteration #  7     ecut=    90.00 Ry     beta= 0.35
     Davidson diagonalization with overlap
     ethr =  2.05E-08,  avg # of iterations =  3.7

     total cpu time spent up to now is      307.8 secs

     total energy              =   -2370.94246442 Ry
     Harris-Foulkes estimate   =   -2370.94246441 Ry
     estimated scf accuracy    <       0.00000120 Ry

     iteration #  8     ecut=    90.00 Ry     beta= 0.35
     Davidson diagonalization with overlap
     ethr =  2.14E-09,  avg # of iterations =  5.0

     total cpu time spent up to now is      357.9 secs

     End of self-consistent calculation

          k = 0.1667 0.1667 0.1667 ( 43204 PWs)   bands (ev):

   -23.2698 -23.2698 -23.2698 -23.2698 -23.1375 -23.1375 -23.1374 -23.1374
   -22.2502 -22.2502 -22.2502 -22.2502 -22.1349 -22.1349 -22.1349 -22.1349
   -22.0812 -22.0812 -22.0812 -22.0812 -11.6106 -11.6106 -11.5384 -11.5384
   -11.4992 -11.4992 -11.4845 -11.4845  -7.0467  -7.0467  -6.9022  -6.9022
    -2.8159  -2.8159  -2.5484  -2.5484  -2.1206  -2.1206  -1.9857  -1.9857
    -1.8563  -1.8563  -1.5642  -1.5642  -1.2383  -1.2383  -1.1867  -1.1867
    -1.1335  -1.1335  -0.9643  -0.9643  -0.9083  -0.9083  -0.7210  -0.7210

     occupation numbers 
     1.0000   1.0000   1.0000   1.0000   1.0000   1.0000   1.0000   1.0000
     1.0000   1.0000   1.0000   1.0000   1.0000   1.0000   1.0000   1.0000
     1.0000   1.0000   1.0000   1.0000   1.0000   1.0000   1.0000   1.0000
     1.0000   1.0000   1.0000   1.0000   1.0000   1.0000   1.0000   1.0000
     1.0000   1.0000   1.0000   1.0000   1.0000   1.0000   1.0000   1.0000
     1.0000   1.0000   1.0000   1.0000   1.0000   1.0000   1.0000   1.0000
     1.0000   1.0000   1.0000   1.0000   1.0000   1.0000   1.0000   1.0000

          k = 0.1667 0.1667-0.5000 ( 43246 PWs)   bands (ev):

   -23.2698 -23.2698 -23.2698 -23.2698 -23.1374 -23.1374 -23.1374 -23.1374
   -22.2502 -22.2502 -22.2502 -22.2502 -22.1349 -22.1349 -22.1349 -22.1349
   -22.0812 -22.0812 -22.0812 -22.0812 -11.5807 -11.5807 -11.5659 -11.5659
   -11.5003 -11.5003 -11.4842 -11.4842  -6.9940  -6.9940  -6.9779  -6.9779
    -2.8386  -2.8386  -2.5208  -2.5208  -2.1270  -2.1270  -1.8986  -1.8986
    -1.8370  -1.8370  -1.5916  -1.5916  -1.2777  -1.2777  -1.1968  -1.1968
    -1.1270  -1.1270  -0.9941  -0.9941  -0.9147  -0.9147  -0.7196  -0.7196

     occupation numbers 
     1.0000   1.0000   1.0000   1.0000   1.0000   1.0000   1.0000   1.0000
     1.0000   1.0000   1.0000   1.0000   1.0000   1.0000   1.0000   1.0000
     1.0000   1.0000   1.0000   1.0000   1.0000   1.0000   1.0000   1.0000
     1.0000   1.0000   1.0000   1.0000   1.0000   1.0000   1.0000   1.0000
     1.0000   1.0000   1.0000   1.0000   1.0000   1.0000   1.0000   1.0000
     1.0000   1.0000   1.0000   1.0000   1.0000   1.0000   1.0000   1.0000
     1.0000   1.0000   1.0000   1.0000   1.0000   1.0000   1.0000   1.0000

          k = 0.1667-0.5000-0.5000 ( 43236 PWs)   bands (ev):

   -23.2698 -23.2698 -23.2698 -23.2698 -23.1374 -23.1374 -23.1374 -23.1374
   -22.2502 -22.2502 -22.2502 -22.2502 -22.1349 -22.1349 -22.1349 -22.1349
   -22.0812 -22.0812 -22.0812 -22.0812 -11.5580 -11.5580 -11.5577 -11.5577
   -11.5077 -11.5077 -11.5077 -11.5077  -6.9874  -6.9874  -6.9814  -6.9814
    -2.8441  -2.8441  -2.8165  -2.8165  -2.0427  -2.0427  -1.9322  -1.9322
    -1.7861  -1.7861  -1.5839  -1.5839  -1.2523  -1.2523  -1.2167  -1.2167
    -0.9352  -0.9352  -0.9191  -0.9191  -0.7248  -0.7248  -0.7179  -0.7179

     occupation numbers 
     1.0000   1.0000   1.0000   1.0000   1.0000   1.0000   1.0000   1.0000
     1.0000   1.0000   1.0000   1.0000   1.0000   1.0000   1.0000   1.0000
     1.0000   1.0000   1.0000   1.0000   1.0000   1.0000   1.0000   1.0000
     1.0000   1.0000   1.0000   1.0000   1.0000   1.0000   1.0000   1.0000
     1.0000   1.0000   1.0000   1.0000   1.0000   1.0000   1.0000   1.0000
     1.0000   1.0000   1.0000   1.0000   1.0000   1.0000   1.0000   1.0000
     1.0000   1.0000   1.0000   1.0000   1.0000   1.0000   1.0000   1.0000

          k =-0.5000-0.5000-0.5000 ( 43160 PWs)   bands (ev):

   -23.2698 -23.2698 -23.2698 -23.2698 -23.1374 -23.1374 -23.1374 -23.1374
   -22.2502 -22.2502 -22.2502 -22.2502 -22.1349 -22.1349 -22.1349 -22.1349
   -22.0812 -22.0812 -22.0812 -22.0812 -11.5708 -11.5708 -11.5708 -11.5708
   -11.4928 -11.4928 -11.4928 -11.4928  -7.0059  -7.0059  -7.0059  -7.0059
    -2.5240  -2.5240  -2.5240  -2.5240  -2.0839  -2.0839  -2.0839  -2.0839
    -1.7883  -1.7883  -1.7883  -1.7883  -1.3110  -1.3110  -1.3110  -1.3110
    -1.0957  -1.0957  -1.0957  -1.0957  -0.7921  -0.7921  -0.7921  -0.7921

     occupation numbers 
     1.0000   1.0000   1.0000   1.0000   1.0000   1.0000   1.0000   1.0000
     1.0000   1.0000   1.0000   1.0000   1.0000   1.0000   1.0000   1.0000
     1.0000   1.0000   1.0000   1.0000   1.0000   1.0000   1.0000   1.0000
     1.0000   1.0000   1.0000   1.0000   1.0000   1.0000   1.0000   1.0000
     1.0000   1.0000   1.0000   1.0000   1.0000   1.0000   1.0000   1.0000
     1.0000   1.0000   1.0000   1.0000   1.0000   1.0000   1.0000   1.0000
     1.0000   1.0000   1.0000   1.0000   1.0000   1.0000   1.0000   1.0000

          k = 0.1667-0.5000 0.1667 ( 43246 PWs)   bands (ev):

   -23.2698 -23.2698 -23.2698 -23.2698 -23.1374 -23.1374 -23.1374 -23.1374
   -22.2502 -22.2502 -22.2502 -22.2502 -22.1349 -22.1349 -22.1349 -22.1349
   -22.0812 -22.0812 -22.0812 -22.0812 -11.5651 -11.5651 -11.5650 -11.5650
   -11.5016 -11.5016 -11.5016 -11.5016  -6.9747  -6.9747  -6.9716  -6.9716
    -2.8108  -2.8108  -2.7936  -2.7936  -2.0571  -2.0571  -2.0091  -2.0091
    -1.7341  -1.7341  -1.6234  -1.6234  -1.2909  -1.2909  -1.2899  -1.2899
    -0.9842  -0.9842  -0.9257  -0.9257  -0.7190  -0.7190  -0.7188  -0.7188

     occupation numbers 
     1.0000   1.0000   1.0000   1.0000   1.0000   1.0000   1.0000   1.0000
     1.0000   1.0000   1.0000   1.0000   1.0000   1.0000   1.0000   1.0000
     1.0000   1.0000   1.0000   1.0000   1.0000   1.0000   1.0000   1.0000
     1.0000   1.0000   1.0000   1.0000   1.0000   1.0000   1.0000   1.0000
     1.0000   1.0000   1.0000   1.0000   1.0000   1.0000   1.0000   1.0000
     1.0000   1.0000   1.0000   1.0000   1.0000   1.0000   1.0000   1.0000
     1.0000   1.0000   1.0000   1.0000   1.0000   1.0000   1.0000   1.0000

          k =-0.5000-0.5000 0.1667 ( 43236 PWs)   bands (ev):

   -23.2698 -23.2698 -23.2698 -23.2698 -23.1374 -23.1374 -23.1374 -23.1374
   -22.2502 -22.2502 -22.2502 -22.2502 -22.1349 -22.1349 -22.1349 -22.1349
   -22.0812 -22.0812 -22.0812 -22.0812 -11.5718 -11.5718 -11.5718 -11.5718
   -11.4931 -11.4931 -11.4931 -11.4931  -6.9929  -6.9929  -6.9929  -6.9929
    -2.5384  -2.5384  -2.5384  -2.5384  -1.9979  -1.9979  -1.9979  -1.9979
    -1.8183  -1.8183  -1.8183  -1.8183  -1.4123  -1.4123  -1.4123  -1.4123
    -1.1084  -1.1084  -1.1084  -1.1084  -0.8237  -0.8237  -0.8237  -0.8237

     occupation numbers 
     1.0000   1.0000   1.0000   1.0000   1.0000   1.0000   1.0000   1.0000
     1.0000   1.0000   1.0000   1.0000   1.0000   1.0000   1.0000   1.0000
     1.0000   1.0000   1.0000   1.0000   1.0000   1.0000   1.0000   1.0000
     1.0000   1.0000   1.0000   1.0000   1.0000   1.0000   1.0000   1.0000
     1.0000   1.0000   1.0000   1.0000   1.0000   1.0000   1.0000   1.0000
     1.0000   1.0000   1.0000   1.0000   1.0000   1.0000   1.0000   1.0000
     1.0000   1.0000   1.0000   1.0000   1.0000   1.0000   1.0000   1.0000

     highest occupied level (ev):    -0.7179

!    total energy              =   -2370.94246463 Ry
     Harris-Foulkes estimate   =   -2370.94246514 Ry
     estimated scf accuracy    <       0.00000068 Ry

     total all-electron energy =    -81634.464670 Ry

     The total energy is the sum of the following terms:

     one-electron contribution =    -248.68117553 Ry
     hartree contribution      =     145.42976626 Ry
     xc contribution           =    -157.08839507 Ry
     ewald contribution        =    -190.25175950 Ry
     one-center paw contrib.   =   -1920.35090080 Ry
      -> PAW hartree energy AE =     107.23201480 Ry
      -> PAW hartree energy PS =    -106.44742129 Ry
      -> PAW xc energy AE      =    -324.23267555 Ry
      -> PAW xc energy PS      =      46.59305799 Ry
      -> total E_H with PAW    =     146.21435978 Ry
      -> total E_XC with PAW   =    -434.72801262 Ry

     convergence has been achieved in   8 iterations

     Forces acting on atoms (cartesian axes, Ry/au):

     atom    1 type  1   force =     0.00000000    0.00000000    0.00000000
     atom    2 type  1   force =     0.00000000    0.00000000    0.00000000
     atom    3 type  2   force =    -0.01786224   -0.01786224    0.00000000
     atom    4 type  2   force =     0.01786224    0.01786224    0.00000000
     atom    5 type  2   force =    -0.01786224    0.01786224    0.00000000
     atom    6 type  2   force =     0.01786224   -0.01786224    0.00000000
     The non-local contrib.  to forces
     atom    1 type  1   force =     0.00000000    0.00000000    0.00000000
     atom    2 type  1   force =     0.00000000    0.00000000    0.00000000
     atom    3 type  2   force =    -0.04101325   -0.04101325   -0.00000000
     atom    4 type  2   force =     0.04101325    0.04101325   -0.00000000
     atom    5 type  2   force =    -0.04101325    0.04101325    0.00000000
     atom    6 type  2   force =     0.04101325   -0.04101325    0.00000000
     The ionic contribution  to forces
     atom    1 type  1   force =    -0.00000000   -0.00000000   -0.00000000
     atom    2 type  1   force =     0.00000000    0.00000000    0.00000000
     atom    3 type  2   force =     1.38633657    1.38633657    0.00000000
     atom    4 type  2   force =    -1.38633657   -1.38633657   -0.00000000
     atom    5 type  2   force =     1.38633657   -1.38633657    0.00000000
     atom    6 type  2   force =    -1.38633657    1.38633657    0.00000000
     The local contribution  to forces
     atom    1 type  1   force =     0.00000000    0.00000000    0.00000000
     atom    2 type  1   force =     0.00000000    0.00000000    0.00000000
     atom    3 type  2   force =    -1.36685895   -1.36685895    0.00000000
     atom    4 type  2   force =     1.36685895    1.36685895    0.00000000
     atom    5 type  2   force =    -1.36685895    1.36685895    0.00000000
     atom    6 type  2   force =     1.36685895   -1.36685895    0.00000000
     The core correction contribution to forces
     atom    1 type  1   force =     0.00000000    0.00000000    0.00000000
     atom    2 type  1   force =     0.00000000    0.00000000    0.00000000
     atom    3 type  2   force =     0.00386807    0.00386807    0.00000000
     atom    4 type  2   force =    -0.00386807   -0.00386807    0.00000000
     atom    5 type  2   force =     0.00386807   -0.00386807    0.00000000
     atom    6 type  2   force =    -0.00386807    0.00386807    0.00000000
     The Hubbard contrib.    to forces
     atom    1 type  1   force =     0.00000000    0.00000000    0.00000000
     atom    2 type  1   force =     0.00000000    0.00000000    0.00000000
     atom    3 type  2   force =     0.00000000    0.00000000    0.00000000
     atom    4 type  2   force =     0.00000000    0.00000000    0.00000000
     atom    5 type  2   force =     0.00000000    0.00000000    0.00000000
     atom    6 type  2   force =     0.00000000    0.00000000    0.00000000
     The SCF correction term to forces
     atom    1 type  1   force =    -0.00000000   -0.00000000   -0.00000000
     atom    2 type  1   force =    -0.00000000    0.00000000    0.00000000
     atom    3 type  2   force =    -0.00019468   -0.00019468    0.00000000
     atom    4 type  2   force =     0.00019468    0.00019468    0.00000000
     atom    5 type  2   force =    -0.00019468    0.00019468   -0.00000000
     atom    6 type  2   force =     0.00019468   -0.00019468   -0.00000000

     Total force =     0.050522     Total SCF correction =     0.000551


     Computing stress (Cartesian axis) and pressure

     Message from routine stres:
     noncollinear stress + GGA not implemented

     Writing output data file CsIsalt.save/
 
     init_run     :     11.41s CPU     17.57s WALL (       1 calls)
     electrons    :    215.95s CPU    335.30s WALL (       1 calls)
     forces       :      2.44s CPU      3.25s WALL (       1 calls)

     Called by init_run:
     wfcinit      :      8.64s CPU     13.69s WALL (       1 calls)
     wfcinit:atom :      0.01s CPU      0.02s WALL (       6 calls)
     wfcinit:wfcr :      8.51s CPU     13.49s WALL (       6 calls)
     potinit      :      0.73s CPU      1.16s WALL (       1 calls)
     hinit0       :      0.64s CPU      0.89s WALL (       1 calls)

     Called by electrons:
     c_bands      :    156.33s CPU    243.67s WALL (       8 calls)
     sum_band     :     45.20s CPU     71.21s WALL (       8 calls)
     v_of_rho     :      1.30s CPU      2.15s WALL (       9 calls)
     v_h          :      0.07s CPU      0.10s WALL (       9 calls)
     v_xc         :      1.27s CPU      2.10s WALL (      10 calls)
     newd         :      8.62s CPU     11.48s WALL (       9 calls)
     PAW_pot      :      2.83s CPU      3.87s WALL (       9 calls)
     mix_rho      :      1.62s CPU      2.61s WALL (       8 calls)

     Called by c_bands:
     init_us_2    :      0.45s CPU      0.63s WALL (     108 calls)
     cegterg      :    150.06s CPU    236.63s WALL (      48 calls)

     Called by sum_band:
     sum_band:bec :      0.53s CPU      0.74s WALL (      48 calls)
     addusdens    :      7.03s CPU      8.75s WALL (       8 calls)

     Called by *egterg:
     h_psi        :    110.75s CPU    181.80s WALL (     218 calls)
     s_psi        :      1.65s CPU      1.87s WALL (     218 calls)
     g_psi        :      0.15s CPU      0.16s WALL (     164 calls)
     cdiaghg      :     11.32s CPU     16.85s WALL (     212 calls)
     cegterg:over :     11.82s CPU     16.79s WALL (     164 calls)
     cegterg:upda :     11.25s CPU     16.13s WALL (     164 calls)
     cegterg:last :      1.66s CPU      2.16s WALL (      48 calls)
     cdiaghg:chol :      0.49s CPU      0.77s WALL (     212 calls)
     cdiaghg:inve :      0.37s CPU      0.48s WALL (     212 calls)
     cdiaghg:para :      4.00s CPU      5.99s WALL (     424 calls)

     Called by h_psi:
     h_psi:pot    :    110.47s CPU    181.45s WALL (     218 calls)
     h_psi:calbec :      2.28s CPU      2.79s WALL (     218 calls)
     vloc_psi     :    106.42s CPU    176.64s WALL (     218 calls)
     add_vuspsi   :      1.77s CPU      2.01s WALL (     218 calls)

     General routines
     calbec       :      3.60s CPU      4.47s WALL (     290 calls)
     fft          :      3.07s CPU      5.29s WALL (     198 calls)
     ffts         :      1.47s CPU      2.40s WALL (      68 calls)
     fftw         :    135.02s CPU    227.59s WALL (   35876 calls)
     interpolate  :      1.00s CPU      1.69s WALL (      36 calls)
 
     Parallel routines
     fft_scatt_xy :      3.92s CPU      4.66s WALL (   36142 calls)
     fft_scatt_yz :    118.27s CPU    208.34s WALL (   36142 calls)

     PAW routines
     PAW_pot      :      2.83s CPU      3.87s WALL (       9 calls)
     PAW_symme    :      0.11s CPU      0.16s WALL (      17 calls)
 
     PWSCF        :   3m55.54s CPU   6m 3.43s WALL

 
   This run was terminated on:  17:46: 6  24Jan2021            

=------------------------------------------------------------------------------=
   JOB DONE.
=------------------------------------------------------------------------------=
