
     Program PWSCF v.6.4.1 starts on 24Jan2021 at 18:53:32 

     This program is part of the open-source Quantum ESPRESSO suite
     for quantum simulation of materials; please cite
         "P. Giannozzi et al., J. Phys.:Condens. Matter 21 395502 (2009);
         "P. Giannozzi et al., J. Phys.:Condens. Matter 29 465901 (2017);
          URL http://www.quantum-espresso.org", 
     in publications or presentations arising from this work. More details at
     http://www.quantum-espresso.org/quote

     Parallel version (MPI & OpenMP), running on      48 processor cores
     Number of MPI processes:                24
     Threads/MPI process:                     2

     MPI processes distributed on     1 nodes
     R & G space division:  proc/nbgrp/npool/nimage =      24
     Waiting for input...
     Reading input from standard input

     Current dimensions of program PWSCF are:
     Max number of different atomic species (ntypx) = 10
     Max number of k-points (npk) =  40000
     Max angular momentum in pseudopotentials (lmaxx) =  3
               file Sn.rel-pbesol-dn-kjpaw_psl.1.0.0.UPF: wavefunction(s)  5S 5P 5P 4D 4D renormalized
               file I.rel-pbesol-n-kjpaw_psl.1.0.0.UPF: wavefunction(s)  5S renormalized

     Subspace diagonalization in iterative solution of the eigenvalue problem:
     one sub-group per band group will be used
     scalapack distributed-memory algorithm (size of sub-group:  3*  3 procs)

 
     Parallelization info
     --------------------
     sticks:   dense  smooth     PW     G-vecs:    dense   smooth      PW
     Min         350     232     61                24086    13092    1809
     Max         351     233     62                24090    13097    1816
     Sum        8405    5589   1481               578099   314281   43507
 

     Title: 
     SnI2                                                                       


     bravais-lattice index     =            1
     lattice parameter (alat)  =      12.6355  a.u.
     unit-cell volume          =    2017.3401 (a.u.)^3
     number of atoms/cell      =            5
     number of atomic types    =            2
     number of electrons       =        42.00
     number of Kohn-Sham states=           42
     kinetic-energy cutoff     =     110.0000  Ry
     charge density cutoff     =     660.0000  Ry
     convergence threshold     =      1.0E-06
     mixing beta               =       0.3500
     number of iterations used =            8  plain     mixing
     Exchange-correlation      = SLA PW PSX PSC ( 1  4 10  8 0 0)
     Non magnetic calculation with spin-orbit


     celldm(1)=  12.635518  celldm(2)=   0.000000  celldm(3)=   0.000000
     celldm(4)=   0.000000  celldm(5)=   0.000000  celldm(6)=   0.000000

     crystal axes: (cart. coord. in units of alat)
               a(1) = (   1.000000   0.000000   0.000000 )  
               a(2) = (   0.000000   1.000000   0.000000 )  
               a(3) = (   0.000000   0.000000   1.000000 )  

     reciprocal axes: (cart. coord. in units 2 pi/alat)
               b(1) = (  1.000000  0.000000  0.000000 )  
               b(2) = (  0.000000  1.000000  0.000000 )  
               b(3) = (  0.000000  0.000000  1.000000 )  


     PseudoPot. # 1 for Sn read from file:
     /marconi_scratch/userexternal/cmalosso/degironcoli/pseudo/Sn.rel-pbesol-dn-kjpaw_psl.1.0.0.UPF
     MD5 check sum: e69eff64f15ae39ad43ef58bacbfdf88
     Pseudo is Projector augmented-wave + core cor, Zval = 14.0
     Generated using "atomic" code by A. Dal Corso v.6.3
     Shape of augmentation charge: PSQ
     Using radial grid of 1243 points, 10 beta functions with: 
                l(1) =   0
                l(2) =   0
                l(3) =   1
                l(4) =   1
                l(5) =   1
                l(6) =   1
                l(7) =   2
                l(8) =   2
                l(9) =   2
               l(10) =   2
     Q(r) pseudized with 0 coefficients 


     PseudoPot. # 2 for I  read from file:
     /marconi_scratch/userexternal/cmalosso/degironcoli/pseudo/I.rel-pbesol-n-kjpaw_psl.1.0.0.UPF
     MD5 check sum: 4478c427bd443f303eca1937a163b991
     Pseudo is Projector augmented-wave + core cor, Zval =  7.0
     Generated using "atomic" code by A. Dal Corso v.6.3
     Shape of augmentation charge: PSQ
     Using radial grid of 1247 points, 10 beta functions with: 
                l(1) =   0
                l(2) =   0
                l(3) =   1
                l(4) =   1
                l(5) =   1
                l(6) =   1
                l(7) =   2
                l(8) =   2
                l(9) =   2
               l(10) =   2
     Q(r) pseudized with 0 coefficients 


     atomic species   valence    mass     pseudopotential
        Sn            14.00   118.70000     Sn( 1.00)
        I              7.00   126.90000     I ( 1.00)

     24 Sym. Ops. (no inversion) found


                                    s                        frac. trans.

      isym =  1     identity                                     

 cryst.   s( 1) = (     1          0          0      )
                  (     0          1          0      )
                  (     0          0          1      )

 cart.    s( 1) = (  1.0000000  0.0000000  0.0000000 )
                  (  0.0000000  1.0000000  0.0000000 )
                  (  0.0000000  0.0000000  1.0000000 )


      isym =  2     180 deg rotation - cart. axis [0,0,1]        

 cryst.   s( 2) = (    -1          0          0      )
                  (     0         -1          0      )
                  (     0          0          1      )

 cart.    s( 2) = ( -1.0000000  0.0000000  0.0000000 )
                  (  0.0000000 -1.0000000  0.0000000 )
                  (  0.0000000  0.0000000  1.0000000 )


      isym =  3     180 deg rotation - cart. axis [0,1,0]        

 cryst.   s( 3) = (    -1          0          0      )
                  (     0          1          0      )
                  (     0          0         -1      )

 cart.    s( 3) = ( -1.0000000  0.0000000  0.0000000 )
                  (  0.0000000  1.0000000  0.0000000 )
                  (  0.0000000  0.0000000 -1.0000000 )


      isym =  4     180 deg rotation - cart. axis [1,0,0]        

 cryst.   s( 4) = (     1          0          0      )
                  (     0         -1          0      )
                  (     0          0         -1      )

 cart.    s( 4) = (  1.0000000  0.0000000  0.0000000 )
                  (  0.0000000 -1.0000000  0.0000000 )
                  (  0.0000000  0.0000000 -1.0000000 )


      isym =  5     120 deg rotation - cart. axis [-1,-1,-1]     

 cryst.   s( 5) = (     0          0          1      )
                  (     1          0          0      )
                  (     0          1          0      )

 cart.    s( 5) = (  0.0000000  1.0000000  0.0000000 )
                  (  0.0000000  0.0000000  1.0000000 )
                  (  1.0000000  0.0000000  0.0000000 )


      isym =  6     120 deg rotation - cart. axis [-1,1,1]       

 cryst.   s( 6) = (     0          0         -1      )
                  (    -1          0          0      )
                  (     0          1          0      )

 cart.    s( 6) = (  0.0000000 -1.0000000  0.0000000 )
                  (  0.0000000  0.0000000  1.0000000 )
                  ( -1.0000000  0.0000000  0.0000000 )


      isym =  7     120 deg rotation - cart. axis [1,1,-1]       

 cryst.   s( 7) = (     0          0         -1      )
                  (     1          0          0      )
                  (     0         -1          0      )

 cart.    s( 7) = (  0.0000000  1.0000000  0.0000000 )
                  (  0.0000000  0.0000000 -1.0000000 )
                  ( -1.0000000  0.0000000  0.0000000 )


      isym =  8     120 deg rotation - cart. axis [1,-1,1]       

 cryst.   s( 8) = (     0          0          1      )
                  (    -1          0          0      )
                  (     0         -1          0      )

 cart.    s( 8) = (  0.0000000 -1.0000000  0.0000000 )
                  (  0.0000000  0.0000000 -1.0000000 )
                  (  1.0000000  0.0000000  0.0000000 )


      isym =  9     120 deg rotation - cart. axis [1,1,1]        

 cryst.   s( 9) = (     0          1          0      )
                  (     0          0          1      )
                  (     1          0          0      )

 cart.    s( 9) = (  0.0000000  0.0000000  1.0000000 )
                  (  1.0000000  0.0000000  0.0000000 )
                  (  0.0000000  1.0000000  0.0000000 )


      isym = 10     120 deg rotation - cart. axis [-1,1,-1]      

 cryst.   s(10) = (     0         -1          0      )
                  (     0          0         -1      )
                  (     1          0          0      )

 cart.    s(10) = (  0.0000000  0.0000000  1.0000000 )
                  ( -1.0000000  0.0000000  0.0000000 )
                  (  0.0000000 -1.0000000  0.0000000 )


      isym = 11     120 deg rotation - cart. axis [1,-1,-1]      

 cryst.   s(11) = (     0         -1          0      )
                  (     0          0          1      )
                  (    -1          0          0      )

 cart.    s(11) = (  0.0000000  0.0000000 -1.0000000 )
                  ( -1.0000000  0.0000000  0.0000000 )
                  (  0.0000000  1.0000000  0.0000000 )


      isym = 12     120 deg rotation - cart. axis [-1,-1,1]      

 cryst.   s(12) = (     0          1          0      )
                  (     0          0         -1      )
                  (    -1          0          0      )

 cart.    s(12) = (  0.0000000  0.0000000 -1.0000000 )
                  (  1.0000000  0.0000000  0.0000000 )
                  (  0.0000000 -1.0000000  0.0000000 )


      isym = 13     inv. 180 deg rotation - cart. axis [1,1,0]   

 cryst.   s(13) = (     0         -1          0      )
                  (    -1          0          0      )
                  (     0          0          1      )

 cart.    s(13) = (  0.0000000 -1.0000000  0.0000000 )
                  ( -1.0000000  0.0000000  0.0000000 )
                  (  0.0000000  0.0000000  1.0000000 )


      isym = 14     inv. 180 deg rotation - cart. axis [1,-1,0]  

 cryst.   s(14) = (     0          1          0      )
                  (     1          0          0      )
                  (     0          0          1      )

 cart.    s(14) = (  0.0000000  1.0000000  0.0000000 )
                  (  1.0000000  0.0000000  0.0000000 )
                  (  0.0000000  0.0000000  1.0000000 )


      isym = 15     inv.  90 deg rotation - cart. axis [0,0,-1]  

 cryst.   s(15) = (     0          1          0      )
                  (    -1          0          0      )
                  (     0          0         -1      )

 cart.    s(15) = (  0.0000000 -1.0000000  0.0000000 )
                  (  1.0000000  0.0000000  0.0000000 )
                  (  0.0000000  0.0000000 -1.0000000 )


      isym = 16     inv.  90 deg rotation - cart. axis [0,0,1]   

 cryst.   s(16) = (     0         -1          0      )
                  (     1          0          0      )
                  (     0          0         -1      )

 cart.    s(16) = (  0.0000000  1.0000000  0.0000000 )
                  ( -1.0000000  0.0000000  0.0000000 )
                  (  0.0000000  0.0000000 -1.0000000 )


      isym = 17     inv. 180 deg rotation - cart. axis [1,0,1]   

 cryst.   s(17) = (     0          0         -1      )
                  (     0          1          0      )
                  (    -1          0          0      )

 cart.    s(17) = (  0.0000000  0.0000000 -1.0000000 )
                  (  0.0000000  1.0000000  0.0000000 )
                  ( -1.0000000  0.0000000  0.0000000 )


      isym = 18     inv. 180 deg rotation - cart. axis [-1,0,1]  

 cryst.   s(18) = (     0          0          1      )
                  (     0          1          0      )
                  (     1          0          0      )

 cart.    s(18) = (  0.0000000  0.0000000  1.0000000 )
                  (  0.0000000  1.0000000  0.0000000 )
                  (  1.0000000  0.0000000  0.0000000 )


      isym = 19     inv.  90 deg rotation - cart. axis [0,1,0]   

 cryst.   s(19) = (     0          0          1      )
                  (     0         -1          0      )
                  (    -1          0          0      )

 cart.    s(19) = (  0.0000000  0.0000000 -1.0000000 )
                  (  0.0000000 -1.0000000  0.0000000 )
                  (  1.0000000  0.0000000  0.0000000 )


      isym = 20     inv.  90 deg rotation - cart. axis [0,-1,0]  

 cryst.   s(20) = (     0          0         -1      )
                  (     0         -1          0      )
                  (     1          0          0      )

 cart.    s(20) = (  0.0000000  0.0000000  1.0000000 )
                  (  0.0000000 -1.0000000  0.0000000 )
                  ( -1.0000000  0.0000000  0.0000000 )


      isym = 21     inv. 180 deg rotation - cart. axis [0,1,1]   

 cryst.   s(21) = (     1          0          0      )
                  (     0          0         -1      )
                  (     0         -1          0      )

 cart.    s(21) = (  1.0000000  0.0000000  0.0000000 )
                  (  0.0000000  0.0000000 -1.0000000 )
                  (  0.0000000 -1.0000000  0.0000000 )


      isym = 22     inv. 180 deg rotation - cart. axis [0,1,-1]  

 cryst.   s(22) = (     1          0          0      )
                  (     0          0          1      )
                  (     0          1          0      )

 cart.    s(22) = (  1.0000000  0.0000000  0.0000000 )
                  (  0.0000000  0.0000000  1.0000000 )
                  (  0.0000000  1.0000000  0.0000000 )


      isym = 23     inv.  90 deg rotation - cart. axis [-1,0,0]  

 cryst.   s(23) = (    -1          0          0      )
                  (     0          0          1      )
                  (     0         -1          0      )

 cart.    s(23) = ( -1.0000000  0.0000000  0.0000000 )
                  (  0.0000000  0.0000000 -1.0000000 )
                  (  0.0000000  1.0000000  0.0000000 )


      isym = 24     inv.  90 deg rotation - cart. axis [1,0,0]   

 cryst.   s(24) = (    -1          0          0      )
                  (     0          0         -1      )
                  (     0          1          0      )

 cart.    s(24) = ( -1.0000000  0.0000000  0.0000000 )
                  (  0.0000000  0.0000000  1.0000000 )
                  (  0.0000000 -1.0000000  0.0000000 )


     double point group T_d (-43m) 
     there are  8 classes and  3 irreducible representations
     the character table:

       E     -E    8C3   -8C3   3C2  6S4   -6S4  6s_d 
                               -3C2              -6s_d
G_6    2.00 -2.00  1.00 -1.00  0.00  1.41 -1.41  0.00
G_7    2.00 -2.00  1.00 -1.00  0.00 -1.41  1.41  0.00
G_8    4.00 -4.00 -1.00  1.00  0.00  0.00  0.00  0.00

     the symmetry operations in each class and the name of the first element:

     E             1
          identity                                               
     -E           -1
          identity E                                             
     8C3           5    7    8    6   12    9   10   11
          120 deg rotation - cart. axis [-1,-1,-1]               
     -8C3         -5   -7   -8   -6  -12   -9  -10  -11
          120 deg rotation - cart. axis [-1,-1,-1] E             
      3C2 -3C2     2   -2    3   -3    4   -4
          180 deg rotation - cart. axis [0,0,1]                  
     6S4          15   16   20   19   23   24
          inv.  90 deg rotation - cart. axis [0,0,-1]            
     -6S4        -15  -16  -20  -19  -23  -24
          inv.  90 deg rotation - cart. axis [0,0,-1] E          
     6s_d -6s_d   13  -13  -14   14   17  -17  -18   18   21  -21   22  -22
          inv. 180 deg rotation - cart. axis [1,1,0]             

   Cartesian axes

     site n.     atom                  positions (alat units)
         1           Sn  tau(   1) = (   0.0000000   0.0000000   0.0000000  )
         2           I   tau(   2) = (   0.2339030   0.7660970   0.7660970  )
         3           I   tau(   3) = (   0.7660970   0.2339030   0.7660970  )
         4           I   tau(   4) = (   0.7660970   0.7660970   0.2339030  )
         5           I   tau(   5) = (   0.2339030   0.2339030   0.2339030  )

   Crystallographic axes

     site n.     atom                  positions (cryst. coord.)
         1           Sn  tau(   1) = (  0.0000000  0.0000000  0.0000000  )
         2           I   tau(   2) = (  0.2339030  0.7660970  0.7660970  )
         3           I   tau(   3) = (  0.7660970  0.2339030  0.7660970  )
         4           I   tau(   4) = (  0.7660970  0.7660970  0.2339030  )
         5           I   tau(   5) = (  0.2339030  0.2339030  0.2339030  )

     number of k points=    10
                       cart. coord. in units 2pi/alat
        k(    1) = (   0.0833333   0.0833333   0.0833333), wk =   0.0370370
        k(    2) = (   0.0833333   0.0833333   0.2500000), wk =   0.1111111
        k(    3) = (   0.0833333   0.0833333   0.4166667), wk =   0.1111111
        k(    4) = (   0.0833333   0.2500000   0.2500000), wk =   0.1111111
        k(    5) = (   0.0833333   0.2500000   0.4166667), wk =   0.2222222
        k(    6) = (   0.0833333   0.4166667   0.4166667), wk =   0.1111111
        k(    7) = (   0.2500000   0.2500000   0.2500000), wk =   0.0370370
        k(    8) = (   0.2500000   0.2500000   0.4166667), wk =   0.1111111
        k(    9) = (   0.2500000   0.4166667   0.4166667), wk =   0.1111111
        k(   10) = (   0.4166667   0.4166667   0.4166667), wk =   0.0370370

                       cryst. coord.
        k(    1) = (   0.0833333   0.0833333   0.0833333), wk =   0.0370370
        k(    2) = (   0.0833333   0.0833333   0.2500000), wk =   0.1111111
        k(    3) = (   0.0833333   0.0833333   0.4166667), wk =   0.1111111
        k(    4) = (   0.0833333   0.2500000   0.2500000), wk =   0.1111111
        k(    5) = (   0.0833333   0.2500000   0.4166667), wk =   0.2222222
        k(    6) = (   0.0833333   0.4166667   0.4166667), wk =   0.1111111
        k(    7) = (   0.2500000   0.2500000   0.2500000), wk =   0.0370370
        k(    8) = (   0.2500000   0.2500000   0.4166667), wk =   0.1111111
        k(    9) = (   0.2500000   0.4166667   0.4166667), wk =   0.1111111
        k(   10) = (   0.4166667   0.4166667   0.4166667), wk =   0.0370370

     Dense  grid:   578099 G-vectors     FFT dimensions: ( 108, 108, 108)

     Smooth grid:   314281 G-vectors     FFT dimensions: (  90,  90,  90)

     Dynamical RAM for                 wfc:       2.10 MB

     Dynamical RAM for     wfc (w. buffer):      23.08 MB

     Dynamical RAM for           str. fact:       0.74 MB

     Dynamical RAM for           local pot:       0.00 MB

     Dynamical RAM for          nlocal pot:       4.25 MB

     Dynamical RAM for                qrad:      21.69 MB

     Dynamical RAM for          rho,v,vnew:       9.75 MB

     Dynamical RAM for               rhoin:       3.25 MB

     Dynamical RAM for            rho*nmix:      23.52 MB

     Dynamical RAM for           G-vectors:       1.48 MB

     Dynamical RAM for          h,s,v(r/c):       0.14 MB

     Dynamical RAM for          <psi|beta>:       0.22 MB

     Dynamical RAM for                 psi:       8.39 MB

     Dynamical RAM for                hpsi:       8.39 MB

     Dynamical RAM for                spsi:       8.39 MB

     Dynamical RAM for      wfcinit/wfcrot:       3.80 MB

     Dynamical RAM for           addusdens:     225.68 MB

     Dynamical RAM for          addusforce:     229.24 MB

     Dynamical RAM for         addusstress:     230.82 MB

     Estimated static dynamical RAM per process >      92.42 MB

     Estimated max dynamical RAM per process >     323.24 MB

     Estimated total dynamical RAM >       7.58 GB

     Initial potential from superposition of free atoms

     starting charge   41.99871, renormalised to   42.00000
     Starting wfcs are   50 randomized atomic wfcs
     Checking if some PAW data can be deallocated... 
       PAW data deallocated on   19 nodes for type:  1
       PAW data deallocated on    5 nodes for type:  2

     total cpu time spent up to now is       18.5 secs

     Self-consistent Calculation

     iteration #  1     ecut=   110.00 Ry     beta= 0.35
     Davidson diagonalization with overlap
     ethr =  1.00E-02,  avg # of iterations =  1.4

     Threshold (ethr) on eigenvalues was too large:
     Diagonalizing with lowered threshold

     Davidson diagonalization with overlap
     ethr =  3.87E-04,  avg # of iterations =  2.0

     total cpu time spent up to now is       87.5 secs

     total energy              =   -1933.73091733 Ry
     Harris-Foulkes estimate   =   -1933.78742644 Ry
     estimated scf accuracy    <       0.12698219 Ry

     iteration #  2     ecut=   110.00 Ry     beta= 0.35
     Davidson diagonalization with overlap
     ethr =  3.02E-04,  avg # of iterations =  2.1

     total cpu time spent up to now is      127.4 secs

     total energy              =   -1933.74678096 Ry
     Harris-Foulkes estimate   =   -1933.75329646 Ry
     estimated scf accuracy    <       0.02250643 Ry

     iteration #  3     ecut=   110.00 Ry     beta= 0.35
     Davidson diagonalization with overlap
     ethr =  5.36E-05,  avg # of iterations =  2.0

     total cpu time spent up to now is      158.8 secs

     total energy              =   -1933.74684418 Ry
     Harris-Foulkes estimate   =   -1933.74842791 Ry
     estimated scf accuracy    <       0.00535315 Ry

     iteration #  4     ecut=   110.00 Ry     beta= 0.35
     Davidson diagonalization with overlap
     ethr =  1.27E-05,  avg # of iterations =  2.7

     total cpu time spent up to now is      200.4 secs

     total energy              =   -1933.74718883 Ry
     Harris-Foulkes estimate   =   -1933.74750854 Ry
     estimated scf accuracy    <       0.00073399 Ry

     iteration #  5     ecut=   110.00 Ry     beta= 0.35
     Davidson diagonalization with overlap
     ethr =  1.75E-06,  avg # of iterations =  3.0

     total cpu time spent up to now is      242.9 secs

     total energy              =   -1933.74732648 Ry
     Harris-Foulkes estimate   =   -1933.74752044 Ry
     estimated scf accuracy    <       0.00046222 Ry

     iteration #  6     ecut=   110.00 Ry     beta= 0.35
     Davidson diagonalization with overlap
     ethr =  1.10E-06,  avg # of iterations =  2.0

     total cpu time spent up to now is      281.6 secs

     total energy              =   -1933.74740245 Ry
     Harris-Foulkes estimate   =   -1933.74740346 Ry
     estimated scf accuracy    <       0.00000686 Ry

     iteration #  7     ecut=   110.00 Ry     beta= 0.35
     Davidson diagonalization with overlap
     ethr =  1.63E-08,  avg # of iterations =  4.0

     total cpu time spent up to now is      332.9 secs

     total energy              =   -1933.74740627 Ry
     Harris-Foulkes estimate   =   -1933.74740726 Ry
     estimated scf accuracy    <       0.00000229 Ry

     iteration #  8     ecut=   110.00 Ry     beta= 0.35
     Davidson diagonalization with overlap
     ethr =  5.46E-09,  avg # of iterations =  2.0

     total cpu time spent up to now is      371.1 secs

     total energy              =   -1933.74740618 Ry
     Harris-Foulkes estimate   =   -1933.74740679 Ry
     estimated scf accuracy    <       0.00000120 Ry

     iteration #  9     ecut=   110.00 Ry     beta= 0.35
     Davidson diagonalization with overlap
     ethr =  2.85E-09,  avg # of iterations =  3.0

     total cpu time spent up to now is      414.7 secs

     End of self-consistent calculation

          k = 0.0833 0.0833 0.0833 ( 39277 PWs)   bands (ev):

   -21.8019 -21.8019 -21.8019 -21.8019 -20.7892 -20.7892 -20.7517 -20.7517
   -20.7517 -20.7517 -11.9221 -11.9221 -11.2125 -11.2125 -11.2045 -11.2045
   -11.2026 -11.2024  -6.3639  -6.3639  -2.6971  -2.6971  -2.6903  -2.6845
    -2.5075  -2.5075  -1.4178  -1.4178  -1.3836  -1.3496  -1.0410  -1.0410
    -0.9352  -0.9352  -0.4010  -0.3839  -0.3422  -0.3422  -0.0962  -0.0962
    -0.0174   0.0021

     occupation numbers 
     1.0000   1.0000   1.0000   1.0000   1.0000   1.0000   1.0000   1.0000
     1.0000   1.0000   1.0000   1.0000   1.0000   1.0000   1.0000   1.0000
     1.0000   1.0000   1.0000   1.0000   1.0000   1.0000   1.0000   1.0000
     1.0000   1.0000   1.0000   1.0000   1.0000   1.0000   1.0000   1.0000
     1.0000   1.0000   1.0000   1.0000   1.0000   1.0000   1.0000   1.0000
     1.0000   1.0000

          k = 0.0833 0.0833 0.2500 ( 39266 PWs)   bands (ev):

   -21.8019 -21.8019 -21.8019 -21.8019 -20.7892 -20.7892 -20.7517 -20.7517
   -20.7517 -20.7517 -11.8998 -11.8998 -11.2386 -11.2373 -11.2086 -11.2071
   -11.2026 -11.2023  -6.3418  -6.3412  -2.7560  -2.7327  -2.6926  -2.6896
    -2.5484  -2.5141  -1.4292  -1.4140  -1.3054  -1.2631  -1.0825  -1.0244
    -0.9511  -0.9066  -0.4735  -0.4493  -0.3476  -0.3294  -0.2310  -0.2123
    -0.0537  -0.0293

     occupation numbers 
     1.0000   1.0000   1.0000   1.0000   1.0000   1.0000   1.0000   1.0000
     1.0000   1.0000   1.0000   1.0000   1.0000   1.0000   1.0000   1.0000
     1.0000   1.0000   1.0000   1.0000   1.0000   1.0000   1.0000   1.0000
     1.0000   1.0000   1.0000   1.0000   1.0000   1.0000   1.0000   1.0000
     1.0000   1.0000   1.0000   1.0000   1.0000   1.0000   1.0000   1.0000
     1.0000   1.0000

          k = 0.0833 0.0833 0.4167 ( 39305 PWs)   bands (ev):

   -21.8019 -21.8019 -21.8019 -21.8019 -20.7892 -20.7892 -20.7517 -20.7517
   -20.7517 -20.7517 -11.8754 -11.8753 -11.2707 -11.2694 -11.2082 -11.2067
   -11.2018 -11.2016  -6.3195  -6.3184  -2.8128  -2.7726  -2.7002  -2.6832
    -2.5888  -2.5222  -1.4330  -1.4096  -1.1924  -1.1781  -1.0679  -1.0168
    -0.9897  -0.9164  -0.5499  -0.5275  -0.4554  -0.3580  -0.2457  -0.2108
    -0.1305  -0.1031

     occupation numbers 
     1.0000   1.0000   1.0000   1.0000   1.0000   1.0000   1.0000   1.0000
     1.0000   1.0000   1.0000   1.0000   1.0000   1.0000   1.0000   1.0000
     1.0000   1.0000   1.0000   1.0000   1.0000   1.0000   1.0000   1.0000
     1.0000   1.0000   1.0000   1.0000   1.0000   1.0000   1.0000   1.0000
     1.0000   1.0000   1.0000   1.0000   1.0000   1.0000   1.0000   1.0000
     1.0000   1.0000

          k = 0.0833 0.2500 0.2500 ( 39294 PWs)   bands (ev):

   -21.8019 -21.8019 -21.8019 -21.8019 -20.7892 -20.7892 -20.7517 -20.7517
   -20.7517 -20.7517 -11.8798 -11.8798 -11.2410 -11.2381 -11.2271 -11.2262
   -11.2080 -11.2058  -6.3298  -6.3287  -2.8040  -2.7647  -2.7172  -2.6995
    -2.5688  -2.5159  -1.5019  -1.4775  -1.2184  -1.1484  -1.0650  -1.0066
    -0.9100  -0.8708  -0.5312  -0.4876  -0.3957  -0.3565  -0.2582  -0.2401
    -0.0600  -0.0185

     occupation numbers 
     1.0000   1.0000   1.0000   1.0000   1.0000   1.0000   1.0000   1.0000
     1.0000   1.0000   1.0000   1.0000   1.0000   1.0000   1.0000   1.0000
     1.0000   1.0000   1.0000   1.0000   1.0000   1.0000   1.0000   1.0000
     1.0000   1.0000   1.0000   1.0000   1.0000   1.0000   1.0000   1.0000
     1.0000   1.0000   1.0000   1.0000   1.0000   1.0000   1.0000   1.0000
     1.0000   1.0000

          k = 0.0833 0.2500 0.4167 ( 39294 PWs)   bands (ev):

   -21.8019 -21.8019 -21.8019 -21.8019 -20.7892 -20.7892 -20.7517 -20.7517
   -20.7517 -20.7517 -11.8581 -11.8581 -11.2637 -11.2611 -11.2279 -11.2260
   -11.2112 -11.2090  -6.3178  -6.3161  -2.8551  -2.8076  -2.7269  -2.6993
    -2.5939  -2.5193  -1.5384  -1.5273  -1.1277  -1.0810  -1.0252  -1.0042
    -0.8507  -0.8368  -0.5754  -0.5616  -0.5042  -0.3930  -0.2233  -0.1852
    -0.1144  -0.0540

     occupation numbers 
     1.0000   1.0000   1.0000   1.0000   1.0000   1.0000   1.0000   1.0000
     1.0000   1.0000   1.0000   1.0000   1.0000   1.0000   1.0000   1.0000
     1.0000   1.0000   1.0000   1.0000   1.0000   1.0000   1.0000   1.0000
     1.0000   1.0000   1.0000   1.0000   1.0000   1.0000   1.0000   1.0000
     1.0000   1.0000   1.0000   1.0000   1.0000   1.0000   1.0000   1.0000
     1.0000   1.0000

          k = 0.0833 0.4167 0.4167 ( 39344 PWs)   bands (ev):

   -21.8019 -21.8019 -21.8019 -21.8019 -20.7893 -20.7893 -20.7517 -20.7517
   -20.7517 -20.7517 -11.8396 -11.8396 -11.2557 -11.2529 -11.2475 -11.2468
   -11.2207 -11.2184  -6.3155  -6.3143  -2.8886  -2.8655  -2.7333  -2.7164
    -2.5766  -2.5384  -1.6019  -1.6012  -1.0820  -1.0770  -0.9790  -0.9757
    -0.7321  -0.6948  -0.6012  -0.5859  -0.5235  -0.5141  -0.1891  -0.1517
    -0.0823  -0.0311

     occupation numbers 
     1.0000   1.0000   1.0000   1.0000   1.0000   1.0000   1.0000   1.0000
     1.0000   1.0000   1.0000   1.0000   1.0000   1.0000   1.0000   1.0000
     1.0000   1.0000   1.0000   1.0000   1.0000   1.0000   1.0000   1.0000
     1.0000   1.0000   1.0000   1.0000   1.0000   1.0000   1.0000   1.0000
     1.0000   1.0000   1.0000   1.0000   1.0000   1.0000   1.0000   1.0000
     1.0000   1.0000

          k = 0.2500 0.2500 0.2500 ( 39339 PWs)   bands (ev):

   -21.8019 -21.8019 -21.8019 -21.8019 -20.7892 -20.7892 -20.7517 -20.7517
   -20.7517 -20.7517 -11.8622 -11.8622 -11.2424 -11.2424 -11.2278 -11.2278
   -11.2234 -11.2232  -6.3276  -6.3276  -2.7957  -2.7957  -2.7562  -2.7502
    -2.5574  -2.5574  -1.5748  -1.5748  -1.0997  -1.0284  -0.9779  -0.9779
    -0.8665  -0.8665  -0.5514  -0.5198  -0.4313  -0.4313  -0.2024  -0.2024
    -0.0427   0.0014

     occupation numbers 
     1.0000   1.0000   1.0000   1.0000   1.0000   1.0000   1.0000   1.0000
     1.0000   1.0000   1.0000   1.0000   1.0000   1.0000   1.0000   1.0000
     1.0000   1.0000   1.0000   1.0000   1.0000   1.0000   1.0000   1.0000
     1.0000   1.0000   1.0000   1.0000   1.0000   1.0000   1.0000   1.0000
     1.0000   1.0000   1.0000   1.0000   1.0000   1.0000   1.0000   1.0000
     1.0000   1.0000

          k = 0.2500 0.2500 0.4167 ( 39306 PWs)   bands (ev):

   -21.8019 -21.8019 -21.8019 -21.8019 -20.7893 -20.7893 -20.7517 -20.7517
   -20.7517 -20.7517 -11.8434 -11.8433 -11.2595 -11.2559 -11.2353 -11.2312
   -11.2246 -11.2239  -6.3265  -6.3254  -2.8475  -2.8174  -2.7727  -2.7630
    -2.5966  -2.5506  -1.6280  -1.6232  -1.0189  -0.9452  -0.9384  -0.8993
    -0.8414  -0.8271  -0.5663  -0.5641  -0.5058  -0.4453  -0.1458  -0.1370
    -0.0719  -0.0170

     occupation numbers 
     1.0000   1.0000   1.0000   1.0000   1.0000   1.0000   1.0000   1.0000
     1.0000   1.0000   1.0000   1.0000   1.0000   1.0000   1.0000   1.0000
     1.0000   1.0000   1.0000   1.0000   1.0000   1.0000   1.0000   1.0000
     1.0000   1.0000   1.0000   1.0000   1.0000   1.0000   1.0000   1.0000
     1.0000   1.0000   1.0000   1.0000   1.0000   1.0000   1.0000   1.0000
     1.0000   1.0000

          k = 0.2500 0.4167 0.4167 ( 39304 PWs)   bands (ev):

   -21.8019 -21.8019 -21.8019 -21.8019 -20.7893 -20.7893 -20.7517 -20.7517
   -20.7517 -20.7517 -11.8277 -11.8277 -11.2548 -11.2524 -11.2465 -11.2459
   -11.2330 -11.2312  -6.3351  -6.3346  -2.8672  -2.8538  -2.7978  -2.7918
    -2.5971  -2.5800  -1.6803  -1.6752  -0.9437  -0.9223  -0.8736  -0.8537
    -0.7798  -0.7046  -0.5532  -0.5481  -0.5147  -0.5133  -0.0905  -0.0728
    -0.0373   0.0071

     occupation numbers 
     1.0000   1.0000   1.0000   1.0000   1.0000   1.0000   1.0000   1.0000
     1.0000   1.0000   1.0000   1.0000   1.0000   1.0000   1.0000   1.0000
     1.0000   1.0000   1.0000   1.0000   1.0000   1.0000   1.0000   1.0000
     1.0000   1.0000   1.0000   1.0000   1.0000   1.0000   1.0000   1.0000
     1.0000   1.0000   1.0000   1.0000   1.0000   1.0000   1.0000   1.0000
     1.0000   1.0000

          k = 0.4167 0.4167 0.4167 ( 39321 PWs)   bands (ev):

   -21.8019 -21.8019 -21.8019 -21.8019 -20.7893 -20.7893 -20.7517 -20.7517
   -20.7517 -20.7517 -11.8153 -11.8153 -11.2538 -11.2538 -11.2459 -11.2459
   -11.2437 -11.2435  -6.3543  -6.3543  -2.8595  -2.8595  -2.8535  -2.8525
    -2.6141  -2.6141  -1.7120  -1.7120  -0.8284  -0.8284  -0.8008  -0.7887
    -0.7060  -0.7060  -0.5299  -0.5120  -0.5120  -0.5091   0.0077   0.0077
     0.0109   0.0449

     occupation numbers 
     1.0000   1.0000   1.0000   1.0000   1.0000   1.0000   1.0000   1.0000
     1.0000   1.0000   1.0000   1.0000   1.0000   1.0000   1.0000   1.0000
     1.0000   1.0000   1.0000   1.0000   1.0000   1.0000   1.0000   1.0000
     1.0000   1.0000   1.0000   1.0000   1.0000   1.0000   1.0000   1.0000
     1.0000   1.0000   1.0000   1.0000   1.0000   1.0000   1.0000   1.0000
     1.0000   1.0000

     highest occupied level (ev):     0.0449

!    total energy              =   -1933.74740645 Ry
     Harris-Foulkes estimate   =   -1933.74740657 Ry
     estimated scf accuracy    <       0.00000015 Ry

     total all-electron energy =    -69281.864671 Ry

     The total energy is the sum of the following terms:

     one-electron contribution =    -155.34275362 Ry
     hartree contribution      =      94.82874203 Ry
     xc contribution           =    -110.25335446 Ry
     ewald contribution        =    -119.43299744 Ry
     one-center paw contrib.   =   -1643.54704295 Ry
      -> PAW hartree energy AE =     109.92216705 Ry
      -> PAW hartree energy PS =    -109.17253581 Ry
      -> PAW xc energy AE      =    -324.42126338 Ry
      -> PAW xc energy PS      =      46.78691046 Ry
      -> total E_H with PAW    =      95.57837326 Ry
      -> total E_XC with PAW   =    -387.88770738 Ry

     convergence has been achieved in   9 iterations

     Forces acting on atoms (cartesian axes, Ry/au):

     atom    1 type  1   force =     0.00000000    0.00000000    0.00000000
     atom    2 type  2   force =    -0.00379432    0.00379432    0.00379432
     atom    3 type  2   force =     0.00379432   -0.00379432    0.00379432
     atom    4 type  2   force =     0.00379432    0.00379432   -0.00379432
     atom    5 type  2   force =    -0.00379432   -0.00379432   -0.00379432
     The non-local contrib.  to forces
     atom    1 type  1   force =     0.00000000    0.00000000    0.00000000
     atom    2 type  2   force =    -0.08594434    0.08594434    0.08594434
     atom    3 type  2   force =     0.08594434   -0.08594434    0.08594434
     atom    4 type  2   force =     0.08594434    0.08594434   -0.08594434
     atom    5 type  2   force =    -0.08594434   -0.08594434   -0.08594434
     The ionic contribution  to forces
     atom    1 type  1   force =    -0.00000000    0.00000000   -0.00000000
     atom    2 type  2   force =     3.79412126   -3.79412126   -3.79412126
     atom    3 type  2   force =    -3.79412126    3.79412126   -3.79412126
     atom    4 type  2   force =    -3.79412126   -3.79412126    3.79412126
     atom    5 type  2   force =     3.79412126    3.79412126    3.79412126
     The local contribution  to forces
     atom    1 type  1   force =     0.00000000    0.00000000   -0.00000000
     atom    2 type  2   force =    -3.71972297    3.71972297    3.71972297
     atom    3 type  2   force =     3.71972297   -3.71972297    3.71972297
     atom    4 type  2   force =     3.71972297    3.71972297   -3.71972297
     atom    5 type  2   force =    -3.71972297   -3.71972297   -3.71972297
     The core correction contribution to forces
     atom    1 type  1   force =     0.00000000    0.00000000    0.00000000
     atom    2 type  2   force =     0.00751401   -0.00751401   -0.00751401
     atom    3 type  2   force =    -0.00751401    0.00751401   -0.00751401
     atom    4 type  2   force =    -0.00751401   -0.00751401    0.00751401
     atom    5 type  2   force =     0.00751401    0.00751401    0.00751401
     The Hubbard contrib.    to forces
     atom    1 type  1   force =     0.00000000    0.00000000    0.00000000
     atom    2 type  2   force =     0.00000000    0.00000000    0.00000000
     atom    3 type  2   force =     0.00000000    0.00000000    0.00000000
     atom    4 type  2   force =     0.00000000    0.00000000    0.00000000
     atom    5 type  2   force =     0.00000000    0.00000000    0.00000000
     The SCF correction term to forces
     atom    1 type  1   force =    -0.00000000    0.00000000   -0.00000000
     atom    2 type  2   force =     0.00023771   -0.00023771   -0.00023771
     atom    3 type  2   force =    -0.00023771    0.00023771   -0.00023771
     atom    4 type  2   force =    -0.00023771   -0.00023771    0.00023771
     atom    5 type  2   force =     0.00023771    0.00023771    0.00023771

     Total force =     0.013144     Total SCF correction =     0.000823


     Computing stress (Cartesian axis) and pressure

     Message from routine stres:
     noncollinear stress + GGA not implemented

     Writing output data file SnI2.save/
 
     init_run     :      8.92s CPU     13.37s WALL (       1 calls)
     electrons    :    255.31s CPU    396.35s WALL (       1 calls)
     forces       :      3.03s CPU      4.44s WALL (       1 calls)

     Called by init_run:
     wfcinit      :      6.23s CPU      9.67s WALL (       1 calls)
     wfcinit:atom :      0.02s CPU      0.02s WALL (      10 calls)
     wfcinit:wfcr :      6.09s CPU      9.43s WALL (      10 calls)
     potinit      :      0.92s CPU      1.38s WALL (       1 calls)
     hinit0       :      0.63s CPU      0.83s WALL (       1 calls)

     Called by electrons:
     c_bands      :    186.65s CPU    288.20s WALL (      10 calls)
     sum_band     :     54.75s CPU     87.83s WALL (      10 calls)
     v_of_rho     :      1.03s CPU      1.63s WALL (      10 calls)
     v_h          :      0.08s CPU      0.14s WALL (      10 calls)
     v_xc         :      1.22s CPU      2.00s WALL (      11 calls)
     newd         :      8.64s CPU     11.65s WALL (      10 calls)
     PAW_pot      :      2.32s CPU      3.35s WALL (      10 calls)
     mix_rho      :      1.51s CPU      2.58s WALL (      10 calls)

     Called by c_bands:
     init_us_2    :      0.65s CPU      0.96s WALL (     220 calls)
     cegterg      :    176.44s CPU    276.00s WALL (     100 calls)

     Called by sum_band:
     sum_band:bec :      1.12s CPU      1.48s WALL (     100 calls)
     addusdens    :      7.29s CPU      9.36s WALL (      10 calls)

     Called by *egterg:
     h_psi        :    137.52s CPU    215.97s WALL (     352 calls)
     s_psi        :      2.02s CPU      2.31s WALL (     352 calls)
     g_psi        :      0.18s CPU      0.19s WALL (     242 calls)
     cdiaghg      :      7.43s CPU     12.04s WALL (     332 calls)
     cegterg:over :     14.14s CPU     21.41s WALL (     242 calls)
     cegterg:upda :     10.19s CPU     15.78s WALL (     242 calls)
     cegterg:last :      2.88s CPU      4.50s WALL (     100 calls)
     cdiaghg:chol :      0.55s CPU      0.91s WALL (     332 calls)
     cdiaghg:inve :      0.30s CPU      0.53s WALL (     332 calls)
     cdiaghg:para :      2.00s CPU      3.12s WALL (     664 calls)

     Called by h_psi:
     h_psi:pot    :    136.93s CPU    215.30s WALL (     352 calls)
     h_psi:calbec :      3.36s CPU      4.09s WALL (     352 calls)
     vloc_psi     :    131.62s CPU    208.98s WALL (     352 calls)
     add_vuspsi   :      1.94s CPU      2.23s WALL (     352 calls)

     General routines
     calbec       :      5.42s CPU      6.89s WALL (     492 calls)
     fft          :      3.59s CPU      6.01s WALL (     221 calls)
     ffts         :      1.00s CPU      1.58s WALL (      80 calls)
     fftw         :    165.89s CPU    272.00s WALL (   54288 calls)
     interpolate  :      1.39s CPU      2.34s WALL (      40 calls)
 
     Parallel routines
     fft_scatt_xy :      4.36s CPU      5.48s WALL (   54589 calls)
     fft_scatt_yz :    142.32s CPU    242.85s WALL (   54589 calls)

     PAW routines
     PAW_pot      :      2.32s CPU      3.35s WALL (      10 calls)
     PAW_symme    :      0.13s CPU      0.19s WALL (      20 calls)
 
     PWSCF        :   4m33.56s CPU   7m 2.26s WALL

 
   This run was terminated on:  19: 0:34  24Jan2021            

=------------------------------------------------------------------------------=
   JOB DONE.
=------------------------------------------------------------------------------=
