
     Program PWSCF v.6.6 starts on 31Jan2021 at 11:40:48 

     This program is part of the open-source Quantum ESPRESSO suite
     for quantum simulation of materials; please cite
         "P. Giannozzi et al., J. Phys.:Condens. Matter 21 395502 (2009);
         "P. Giannozzi et al., J. Phys.:Condens. Matter 29 465901 (2017);
          URL http://www.quantum-espresso.org", 
     in publications or presentations arising from this work. More details at
     http://www.quantum-espresso.org/quote

     Parallel version (MPI), running on    32 processors

     MPI processes distributed on     1 nodes
     R & G space division:  proc/nbgrp/npool/nimage =      32
     Fft bands division:     nmany     =       1
     Waiting for input...
     Reading input from standard input

     Current dimensions of program PWSCF are:
     Max number of different atomic species (ntypx) = 10
     Max number of k-points (npk) =  40000
     Max angular momentum in pseudopotentials (lmaxx) =  3
     file Sn.rel-pbe-dn-rrkjus_psl.1.0.0.UPF: wavefunction(s)  5S 4D 4D renormalized

     Subspace diagonalization in iterative solution of the eigenvalue problem:
     a serial algorithm will be used

 
     Parallelization info
     --------------------
     sticks:   dense  smooth     PW     G-vecs:    dense   smooth      PW
     Min         144     144     39                 4560     4560     645
     Max         145     145     41                 4563     4563     647
     Sum        4637    4637   1257               145963   145963   20665
 

     Title: 
     SnI2                                                                       


     bravais-lattice index     =            6
     lattice parameter (alat)  =      14.4199  a.u.
     unit-cell volume          =    1845.1511 (a.u.)^3
     number of atoms/cell      =            6
     number of atomic types    =            2
     number of electrons       =        56.00
     number of Kohn-Sham states=           57
     kinetic-energy cutoff     =      70.0000  Ry
     charge density cutoff     =     280.0000  Ry
     convergence threshold     =      1.0E-06
     mixing beta               =       0.6000
     number of iterations used =            8  plain     mixing
     Exchange-correlation= PBE
                           (   1   4   3   4   0   0   0)
     Non magnetic calculation with spin-orbit


     celldm(1)=  14.419944  celldm(2)=   1.000000  celldm(3)=   0.615377
     celldm(4)=   0.000000  celldm(5)=   0.000000  celldm(6)=   0.000000

     crystal axes: (cart. coord. in units of alat)
               a(1) = (   1.000000   0.000000   0.000000 )  
               a(2) = (   0.000000   1.000000   0.000000 )  
               a(3) = (   0.000000   0.000000   0.615377 )  

     reciprocal axes: (cart. coord. in units 2 pi/alat)
               b(1) = (  1.000000  0.000000  0.000000 )  
               b(2) = (  0.000000  1.000000  0.000000 )  
               b(3) = (  0.000000  0.000000  1.625020 )  


     PseudoPot. # 1 for Sn read from file:
     /scratch/afiorent/degironcoli/pseudo/pseudo-usp/Sn.rel-pbe-dn-rrkjus_psl.1.0.0.UPF
     MD5 check sum: e9415cc9ba1036dfb73502962f03961a
     Pseudo is Ultrasoft + core correction, Zval = 14.0
     Generated using "atomic" code by A. Dal Corso v.6.3
     Using radial grid of 1243 points, 10 beta functions with: 
                l(1) =   0
                l(2) =   0
                l(3) =   1
                l(4) =   1
                l(5) =   1
                l(6) =   1
                l(7) =   2
                l(8) =   2
                l(9) =   2
               l(10) =   2
     Q(r) pseudized with 0 coefficients 


     PseudoPot. # 2 for I  read from file:
     /scratch/afiorent/degironcoli/pseudo/pseudo-usp/I.rel-pbe-n-rrkjus_psl.0.2.2.UPF
     MD5 check sum: b9024a078df971004264c9bcc9ff756e
     Pseudo is Ultrasoft + core correction, Zval =  7.0
     Generated using "atomic" code by A. Dal Corso v.5.0.2 svn rev. 9415
     Using radial grid of 1247 points,  6 beta functions with: 
                l(1) =   0
                l(2) =   0
                l(3) =   1
                l(4) =   1
                l(5) =   1
                l(6) =   1
     Q(r) pseudized with 0 coefficients 


     atomic species   valence    mass     pseudopotential
        Sn            14.00   118.70000     Sn( 1.00)
        I              7.00   126.90000     I ( 1.00)

     16 Sym. Ops., with inversion, found ( 8 have fractional translation)


                                    s                        frac. trans.

      isym =  1     identity                                     

 cryst.   s( 1) = (     1          0          0      )
                  (     0          1          0      )
                  (     0          0          1      )

 cart.    s( 1) = (  1.0000000  0.0000000  0.0000000 )
                  (  0.0000000  1.0000000  0.0000000 )
                  (  0.0000000  0.0000000  1.0000000 )


      isym =  2     180 deg rotation - cart. axis [0,0,1]        

 cryst.   s( 2) = (    -1          0          0      )
                  (     0         -1          0      )
                  (     0          0          1      )

 cart.    s( 2) = ( -1.0000000  0.0000000  0.0000000 )
                  (  0.0000000 -1.0000000  0.0000000 )
                  (  0.0000000  0.0000000  1.0000000 )


      isym =  3     180 deg rotation - cart. axis [0,1,0]        

 cryst.   s( 3) = (    -1          0          0      )    f =(  0.5000000 )
                  (     0          1          0      )       ( -0.5000000 )
                  (     0          0         -1      )       (  0.5000000 )

 cart.    s( 3) = ( -1.0000000  0.0000000  0.0000000 )    f =(  0.5000000 )
                  (  0.0000000  1.0000000  0.0000000 )       ( -0.5000000 )
                  (  0.0000000  0.0000000 -1.0000000 )       (  0.3076884 )


      isym =  4     180 deg rotation - cart. axis [1,0,0]        

 cryst.   s( 4) = (     1          0          0      )    f =( -0.5000000 )
                  (     0         -1          0      )       (  0.5000000 )
                  (     0          0         -1      )       (  0.5000000 )

 cart.    s( 4) = (  1.0000000  0.0000000  0.0000000 )    f =( -0.5000000 )
                  (  0.0000000 -1.0000000  0.0000000 )       (  0.5000000 )
                  (  0.0000000  0.0000000 -1.0000000 )       (  0.3076884 )


      isym =  5     180 deg rotation - cart. axis [1,1,0]        

 cryst.   s( 5) = (     0          1          0      )
                  (     1          0          0      )
                  (     0          0         -1      )

 cart.    s( 5) = (  0.0000000  1.0000000  0.0000000 )
                  (  1.0000000  0.0000000  0.0000000 )
                  (  0.0000000  0.0000000 -1.0000000 )


      isym =  6     180 deg rotation - cart. axis [1,-1,0]       

 cryst.   s( 6) = (     0         -1          0      )
                  (    -1          0          0      )
                  (     0          0         -1      )

 cart.    s( 6) = (  0.0000000 -1.0000000  0.0000000 )
                  ( -1.0000000  0.0000000  0.0000000 )
                  (  0.0000000  0.0000000 -1.0000000 )


      isym =  7      90 deg rotation - cart. axis [0,0,-1]       

 cryst.   s( 7) = (     0         -1          0      )    f =( -0.5000000 )
                  (     1          0          0      )       (  0.5000000 )
                  (     0          0          1      )       ( -0.5000000 )

 cart.    s( 7) = (  0.0000000  1.0000000  0.0000000 )    f =( -0.5000000 )
                  ( -1.0000000  0.0000000  0.0000000 )       (  0.5000000 )
                  (  0.0000000  0.0000000  1.0000000 )       ( -0.3076884 )


      isym =  8      90 deg rotation - cart. axis [0,0,1]        

 cryst.   s( 8) = (     0          1          0      )    f =(  0.5000000 )
                  (    -1          0          0      )       ( -0.5000000 )
                  (     0          0          1      )       ( -0.5000000 )

 cart.    s( 8) = (  0.0000000 -1.0000000  0.0000000 )    f =(  0.5000000 )
                  (  1.0000000  0.0000000  0.0000000 )       ( -0.5000000 )
                  (  0.0000000  0.0000000  1.0000000 )       ( -0.3076884 )


      isym =  9     inversion                                    

 cryst.   s( 9) = (    -1          0          0      )
                  (     0         -1          0      )
                  (     0          0         -1      )

 cart.    s( 9) = ( -1.0000000  0.0000000  0.0000000 )
                  (  0.0000000 -1.0000000  0.0000000 )
                  (  0.0000000  0.0000000 -1.0000000 )


      isym = 10     inv. 180 deg rotation - cart. axis [0,0,1]   

 cryst.   s(10) = (     1          0          0      )
                  (     0          1          0      )
                  (     0          0         -1      )

 cart.    s(10) = (  1.0000000  0.0000000  0.0000000 )
                  (  0.0000000  1.0000000  0.0000000 )
                  (  0.0000000  0.0000000 -1.0000000 )


      isym = 11     inv. 180 deg rotation - cart. axis [0,1,0]   

 cryst.   s(11) = (     1          0          0      )    f =( -0.5000000 )
                  (     0         -1          0      )       (  0.5000000 )
                  (     0          0          1      )       ( -0.5000000 )

 cart.    s(11) = (  1.0000000  0.0000000  0.0000000 )    f =( -0.5000000 )
                  (  0.0000000 -1.0000000  0.0000000 )       (  0.5000000 )
                  (  0.0000000  0.0000000  1.0000000 )       ( -0.3076884 )


      isym = 12     inv. 180 deg rotation - cart. axis [1,0,0]   

 cryst.   s(12) = (    -1          0          0      )    f =(  0.5000000 )
                  (     0          1          0      )       ( -0.5000000 )
                  (     0          0          1      )       ( -0.5000000 )

 cart.    s(12) = ( -1.0000000  0.0000000  0.0000000 )    f =(  0.5000000 )
                  (  0.0000000  1.0000000  0.0000000 )       ( -0.5000000 )
                  (  0.0000000  0.0000000  1.0000000 )       ( -0.3076884 )


      isym = 13     inv. 180 deg rotation - cart. axis [1,1,0]   

 cryst.   s(13) = (     0         -1          0      )
                  (    -1          0          0      )
                  (     0          0          1      )

 cart.    s(13) = (  0.0000000 -1.0000000  0.0000000 )
                  ( -1.0000000  0.0000000  0.0000000 )
                  (  0.0000000  0.0000000  1.0000000 )


      isym = 14     inv. 180 deg rotation - cart. axis [1,-1,0]  

 cryst.   s(14) = (     0          1          0      )
                  (     1          0          0      )
                  (     0          0          1      )

 cart.    s(14) = (  0.0000000  1.0000000  0.0000000 )
                  (  1.0000000  0.0000000  0.0000000 )
                  (  0.0000000  0.0000000  1.0000000 )


      isym = 15     inv.  90 deg rotation - cart. axis [0,0,-1]  

 cryst.   s(15) = (     0          1          0      )    f =(  0.5000000 )
                  (    -1          0          0      )       ( -0.5000000 )
                  (     0          0         -1      )       (  0.5000000 )

 cart.    s(15) = (  0.0000000 -1.0000000  0.0000000 )    f =(  0.5000000 )
                  (  1.0000000  0.0000000  0.0000000 )       ( -0.5000000 )
                  (  0.0000000  0.0000000 -1.0000000 )       (  0.3076884 )


      isym = 16     inv.  90 deg rotation - cart. axis [0,0,1]   

 cryst.   s(16) = (     0         -1          0      )    f =( -0.5000000 )
                  (     1          0          0      )       (  0.5000000 )
                  (     0          0         -1      )       (  0.5000000 )

 cart.    s(16) = (  0.0000000  1.0000000  0.0000000 )    f =( -0.5000000 )
                  ( -1.0000000  0.0000000  0.0000000 )       (  0.5000000 )
                  (  0.0000000  0.0000000 -1.0000000 )       (  0.3076884 )


     double point group D_4h(4/mmm)
     there are 14 classes and  4 irreducible representations
     the character table:

       E     -E    2C4   -2C4   C2    2C2' 2C2'' i     -i    2S4   -2S4   s_h 
                               -C2   -2C2' -2C2'                         -s_h 
G_6+   2.00 -2.00  1.41 -1.41  0.00  0.00  0.00  2.00 -2.00  1.41 -1.41  0.00
G_7+   2.00 -2.00 -1.41  1.41  0.00  0.00  0.00  2.00 -2.00 -1.41  1.41  0.00
G_6-   2.00 -2.00  1.41 -1.41  0.00  0.00  0.00 -2.00  2.00 -1.41  1.41  0.00
G_7-   2.00 -2.00 -1.41  1.41  0.00  0.00  0.00 -2.00  2.00  1.41 -1.41  0.00

        2s_v  2s_d
       -2s_v -2s_d
G_6+   0.00  0.00
G_7+   0.00  0.00
G_6-   0.00  0.00
G_7-   0.00  0.00

     the symmetry operations in each class and the name of the first element:

     E             1
          identity                                               
     -E           -1
          identity E                                             
     2C4           7    8
           90 deg rotation - cart. axis [0,0,-1]                 
     -2C4         -7   -8
           90 deg rotation - cart. axis [0,0,-1] E               
      C2  -C2      2   -2
          180 deg rotation - cart. axis [0,0,1]                  
      2C2'-2C2'    3   -3    4   -4
          180 deg rotation - cart. axis [0,1,0]                  
     2C2''-2C2'    5   -5   -6    6
          180 deg rotation - cart. axis [1,1,0]                  
     i             9
          inversion                                              
     -i           -9
          inversion E                                            
     2S4          15   16
          inv.  90 deg rotation - cart. axis [0,0,-1]            
     -2S4        -15  -16
          inv.  90 deg rotation - cart. axis [0,0,-1] E          
      s_h -s_h    10  -10
          inv. 180 deg rotation - cart. axis [0,0,1]             
      2s_v-2s_v   11  -11   12  -12
          inv. 180 deg rotation - cart. axis [0,1,0]             
      2s_d-2s_d   13  -13  -14   14
          inv. 180 deg rotation - cart. axis [1,1,0]             

   Cartesian axes

     site n.     atom                  positions (alat units)
         1           Sn  tau(   1) = (   0.0000000   0.0000000   0.0000000  )
         2           Sn  tau(   2) = (   0.5000000   0.5000000   0.3076884  )
         3           I   tau(   3) = (   0.2985210   0.2985210   0.0000000  )
         4           I   tau(   4) = (   0.7014790   0.7014790   0.0000000  )
         5           I   tau(   5) = (   0.7985210   0.2014790   0.3076884  )
         6           I   tau(   6) = (   0.2014790   0.7985210   0.3076884  )

   Crystallographic axes

     site n.     atom                  positions (cryst. coord.)
         1           Sn  tau(   1) = (  0.0000000  0.0000000  0.0000000  )
         2           Sn  tau(   2) = (  0.5000000  0.5000000  0.5000000  )
         3           I   tau(   3) = (  0.2985210  0.2985210  0.0000000  )
         4           I   tau(   4) = (  0.7014790  0.7014790  0.0000000  )
         5           I   tau(   5) = (  0.7985210  0.2014790  0.5000000  )
         6           I   tau(   6) = (  0.2014790  0.7985210  0.5000000  )

     number of k points=     6
                       cart. coord. in units 2pi/alat
        k(    1) = (   0.1250000   0.1250000   0.2031276), wk =   0.1250000
        k(    2) = (   0.1250000   0.1250000   0.6093827), wk =   0.1250000
        k(    3) = (   0.1250000   0.3750000   0.2031276), wk =   0.2500000
        k(    4) = (   0.1250000   0.3750000   0.6093827), wk =   0.2500000
        k(    5) = (   0.3750000   0.3750000   0.2031276), wk =   0.1250000
        k(    6) = (   0.3750000   0.3750000   0.6093827), wk =   0.1250000

                       cryst. coord.
        k(    1) = (   0.1250000   0.1250000   0.1250000), wk =   0.1250000
        k(    2) = (   0.1250000   0.1250000   0.3750000), wk =   0.1250000
        k(    3) = (   0.1250000   0.3750000   0.1250000), wk =   0.2500000
        k(    4) = (   0.1250000   0.3750000   0.3750000), wk =   0.2500000
        k(    5) = (   0.3750000   0.3750000   0.1250000), wk =   0.1250000
        k(    6) = (   0.3750000   0.3750000   0.3750000), wk =   0.1250000

     Dense  grid:   145963 G-vectors     FFT dimensions: (  80,  80,  48)

     Dynamical RAM for                 wfc:       0.99 MB

     Dynamical RAM for     wfc (w. buffer):       6.94 MB

     Dynamical RAM for           str. fact:       0.14 MB

     Dynamical RAM for           local pot:       0.00 MB

     Dynamical RAM for          nlocal pot:       1.08 MB

     Dynamical RAM for                qrad:       7.04 MB

     Dynamical RAM for          rho,v,vnew:       2.01 MB

     Dynamical RAM for               rhoin:       0.67 MB

     Dynamical RAM for            rho*nmix:       4.46 MB

     Dynamical RAM for           G-vectors:       0.30 MB

     Dynamical RAM for          h,s,v(r/c):       0.59 MB

     Dynamical RAM for          <psi|beta>:       0.22 MB

     Dynamical RAM for                 psi:       1.98 MB

     Dynamical RAM for                hpsi:       1.98 MB

     Dynamical RAM for                spsi:       1.98 MB

     Dynamical RAM for      wfcinit/wfcrot:       1.88 MB

     Dynamical RAM for           addusdens:      42.75 MB

     Dynamical RAM for          addusforce:      43.26 MB

     Dynamical RAM for         addusstress:      43.73 MB

     Estimated static dynamical RAM per process >      23.61 MB

     Estimated max dynamical RAM per process >      67.34 MB

     Estimated total dynamical RAM >       2.10 GB

     Check: negative core charge=   -0.000001

     Initial potential from superposition of free atoms

     starting charge   55.99750, renormalised to   56.00000
     Starting wfcs are   68 randomized atomic wfcs

     total cpu time spent up to now is       14.4 secs

     Self-consistent Calculation

     iteration #  1     ecut=    70.00 Ry     beta= 0.60
     Davidson diagonalization with overlap
     ethr =  1.00E-02,  avg # of iterations =  2.0

     Threshold (ethr) on eigenvalues was too large:
     Diagonalizing with lowered threshold

     Davidson diagonalization with overlap
     ethr =  2.73E-04,  avg # of iterations =  2.7

     total cpu time spent up to now is       22.6 secs

     total energy              =    -561.61339153 Ry
     estimated scf accuracy    <       0.13894652 Ry

     iteration #  2     ecut=    70.00 Ry     beta= 0.60
     Davidson diagonalization with overlap
     ethr =  2.48E-04,  avg # of iterations =  3.3

     total cpu time spent up to now is       27.4 secs

     total energy              =    -561.65864024 Ry
     estimated scf accuracy    <       0.02784831 Ry

     iteration #  3     ecut=    70.00 Ry     beta= 0.60
     Davidson diagonalization with overlap
     ethr =  4.97E-05,  avg # of iterations =  2.0

     total cpu time spent up to now is       31.6 secs

     total energy              =    -561.66288667 Ry
     estimated scf accuracy    <       0.00129482 Ry

     iteration #  4     ecut=    70.00 Ry     beta= 0.60
     Davidson diagonalization with overlap
     ethr =  2.31E-06,  avg # of iterations =  7.2

     total cpu time spent up to now is       37.3 secs

     total energy              =    -561.66341442 Ry
     estimated scf accuracy    <       0.00072249 Ry

     iteration #  5     ecut=    70.00 Ry     beta= 0.60
     Davidson diagonalization with overlap
     ethr =  1.29E-06,  avg # of iterations =  2.0

     total cpu time spent up to now is       41.3 secs

     total energy              =    -561.66357588 Ry
     estimated scf accuracy    <       0.00000260 Ry

     iteration #  6     ecut=    70.00 Ry     beta= 0.60
     Davidson diagonalization with overlap
     ethr =  4.64E-09,  avg # of iterations =  8.0

     total cpu time spent up to now is       48.9 secs

     total energy              =    -561.66358333 Ry
     estimated scf accuracy    <       0.00000517 Ry

     iteration #  7     ecut=    70.00 Ry     beta= 0.60
     Davidson diagonalization with overlap
     ethr =  4.64E-09,  avg # of iterations =  2.0

     total cpu time spent up to now is       53.0 secs

     End of self-consistent calculation

          k = 0.1250 0.1250 0.2031 ( 18248 PWs)   bands (ev):

   -18.8630 -18.8630 -18.8622 -18.8622 -18.8578 -18.8578 -18.8576 -18.8576
   -17.8270 -17.8270 -17.8255 -17.8255 -17.8196 -17.8196 -17.8194 -17.8194
   -17.8183 -17.8183 -17.8182 -17.8182  -9.2588  -9.2588  -8.8467  -8.8467
    -8.8035  -8.8035  -8.6882  -8.6882  -3.9911  -3.9911  -2.5653  -2.5653
    -0.2985  -0.2985   0.0285   0.0285   0.3199   0.3199   0.5188   0.5188
     0.8873   0.8873   1.1809   1.1809   1.3078   1.3078   1.5455   1.5455
     2.0736   2.0736   2.2162   2.2162   2.3085   2.3085   2.9879   2.9879
     4.7855

     occupation numbers 
     1.0000   1.0000   1.0000   1.0000   1.0000   1.0000   1.0000   1.0000
     1.0000   1.0000   1.0000   1.0000   1.0000   1.0000   1.0000   1.0000
     1.0000   1.0000   1.0000   1.0000   1.0000   1.0000   1.0000   1.0000
     1.0000   1.0000   1.0000   1.0000   1.0000   1.0000   1.0000   1.0000
     1.0000   1.0000   1.0000   1.0000   1.0000   1.0000   1.0000   1.0000
     1.0000   1.0000   1.0000   1.0000   1.0000   1.0000   1.0000   1.0000
     1.0000   1.0000   1.0000   1.0000   1.0000   1.0000   1.0000   1.0000
     0.0000

          k = 0.1250 0.1250 0.6094 ( 18234 PWs)   bands (ev):

   -18.8625 -18.8625 -18.8622 -18.8622 -18.8578 -18.8578 -18.8577 -18.8577
   -17.8257 -17.8257 -17.8251 -17.8251 -17.8214 -17.8214 -17.8213 -17.8213
   -17.8171 -17.8171 -17.8170 -17.8170  -9.0040  -9.0040  -8.7842  -8.7842
    -8.7161  -8.7161  -8.7069  -8.7069  -3.8590  -3.8590  -3.2863  -3.2863
    -0.5228  -0.5228  -0.2134  -0.2134   0.0248   0.0248   0.1538   0.1538
     0.4595   0.4595   0.8594   0.8594   1.3695   1.3695   1.4471   1.4471
     1.8421   1.8421   1.9234   1.9234   2.3089   2.3089   2.8421   2.8421
     4.9734

     occupation numbers 
     1.0000   1.0000   1.0000   1.0000   1.0000   1.0000   1.0000   1.0000
     1.0000   1.0000   1.0000   1.0000   1.0000   1.0000   1.0000   1.0000
     1.0000   1.0000   1.0000   1.0000   1.0000   1.0000   1.0000   1.0000
     1.0000   1.0000   1.0000   1.0000   1.0000   1.0000   1.0000   1.0000
     1.0000   1.0000   1.0000   1.0000   1.0000   1.0000   1.0000   1.0000
     1.0000   1.0000   1.0000   1.0000   1.0000   1.0000   1.0000   1.0000
     1.0000   1.0000   1.0000   1.0000   1.0000   1.0000   1.0000   1.0000
     0.0000

          k = 0.1250 0.3750 0.2031 ( 18245 PWs)   bands (ev):

   -18.8627 -18.8627 -18.8624 -18.8624 -18.8577 -18.8577 -18.8577 -18.8577
   -17.8266 -17.8266 -17.8259 -17.8259 -17.8195 -17.8195 -17.8194 -17.8194
   -17.8183 -17.8183 -17.8183 -17.8183  -9.1556  -9.1556  -8.9891  -8.9891
    -8.7652  -8.7652  -8.7078  -8.7078  -3.6425  -3.6425  -3.0763  -3.0763
    -0.1922  -0.1922  -0.0249  -0.0249   0.5208   0.5208   0.7470   0.7470
     0.9606   0.9606   1.1805   1.1805   1.4100   1.4100   1.5020   1.5020
     1.9502   1.9502   2.1059   2.1059   2.2605   2.2605   2.5897   2.5897
     5.0342

     occupation numbers 
     1.0000   1.0000   1.0000   1.0000   1.0000   1.0000   1.0000   1.0000
     1.0000   1.0000   1.0000   1.0000   1.0000   1.0000   1.0000   1.0000
     1.0000   1.0000   1.0000   1.0000   1.0000   1.0000   1.0000   1.0000
     1.0000   1.0000   1.0000   1.0000   1.0000   1.0000   1.0000   1.0000
     1.0000   1.0000   1.0000   1.0000   1.0000   1.0000   1.0000   1.0000
     1.0000   1.0000   1.0000   1.0000   1.0000   1.0000   1.0000   1.0000
     1.0000   1.0000   1.0000   1.0000   1.0000   1.0000   1.0000   1.0000
     0.0000

          k = 0.1250 0.3750 0.6094 ( 18260 PWs)   bands (ev):

   -18.8625 -18.8625 -18.8622 -18.8622 -18.8579 -18.8579 -18.8577 -18.8577
   -17.8256 -17.8256 -17.8254 -17.8254 -17.8213 -17.8213 -17.8212 -17.8212
   -17.8171 -17.8171 -17.8171 -17.8171  -8.9438  -8.9438  -8.8536  -8.8536
    -8.7125  -8.7125  -8.7054  -8.7054  -3.7008  -3.7008  -3.4605  -3.4605
    -0.6787  -0.6787  -0.4864  -0.4864  -0.0285  -0.0285   0.1823   0.1823
     0.7972   0.7972   1.1683   1.1683   1.5056   1.5056   1.6317   1.6317
     1.8371   1.8371   1.9549   1.9549   2.3684   2.3684   2.7519   2.7519
     4.4661

     occupation numbers 
     1.0000   1.0000   1.0000   1.0000   1.0000   1.0000   1.0000   1.0000
     1.0000   1.0000   1.0000   1.0000   1.0000   1.0000   1.0000   1.0000
     1.0000   1.0000   1.0000   1.0000   1.0000   1.0000   1.0000   1.0000
     1.0000   1.0000   1.0000   1.0000   1.0000   1.0000   1.0000   1.0000
     1.0000   1.0000   1.0000   1.0000   1.0000   1.0000   1.0000   1.0000
     1.0000   1.0000   1.0000   1.0000   1.0000   1.0000   1.0000   1.0000
     1.0000   1.0000   1.0000   1.0000   1.0000   1.0000   1.0000   1.0000
     0.0000

          k = 0.3750 0.3750 0.2031 ( 18227 PWs)   bands (ev):

   -18.8626 -18.8626 -18.8625 -18.8625 -18.8577 -18.8577 -18.8577 -18.8577
   -17.8264 -17.8264 -17.8261 -17.8261 -17.8195 -17.8195 -17.8194 -17.8194
   -17.8183 -17.8183 -17.8182 -17.8182  -9.0759  -9.0759  -8.9853  -8.9853
    -8.8125  -8.8125  -8.7633  -8.7633  -3.4522  -3.4522  -3.2136  -3.2136
    -0.0995  -0.0995  -0.0356  -0.0356   0.4734   0.4734   0.7469   0.7469
     0.8128   0.8128   1.0227   1.0227   1.4769   1.4769   1.5502   1.5502
     1.9559   1.9559   2.0386   2.0386   2.3413   2.3413   2.5332   2.5332
     5.2747

     occupation numbers 
     1.0000   1.0000   1.0000   1.0000   1.0000   1.0000   1.0000   1.0000
     1.0000   1.0000   1.0000   1.0000   1.0000   1.0000   1.0000   1.0000
     1.0000   1.0000   1.0000   1.0000   1.0000   1.0000   1.0000   1.0000
     1.0000   1.0000   1.0000   1.0000   1.0000   1.0000   1.0000   1.0000
     1.0000   1.0000   1.0000   1.0000   1.0000   1.0000   1.0000   1.0000
     1.0000   1.0000   1.0000   1.0000   1.0000   1.0000   1.0000   1.0000
     1.0000   1.0000   1.0000   1.0000   1.0000   1.0000   1.0000   1.0000
     0.0000

          k = 0.3750 0.3750 0.6094 ( 18257 PWs)   bands (ev):

   -18.8624 -18.8624 -18.8623 -18.8623 -18.8578 -18.8578 -18.8577 -18.8577
   -17.8255 -17.8255 -17.8254 -17.8254 -17.8214 -17.8214 -17.8213 -17.8213
   -17.8171 -17.8171 -17.8171 -17.8171  -8.9078  -8.9078  -8.8672  -8.8672
    -8.7239  -8.7239  -8.7163  -8.7163  -3.6681  -3.6681  -3.5695  -3.5695
    -0.4253  -0.4253  -0.2467  -0.2467  -0.0692  -0.0692   0.2325   0.2325
     0.4665   0.4665   0.9668   0.9668   1.5895   1.5895   1.7000   1.7000
     1.8593   1.8593   1.9370   1.9370   2.2516   2.2516   2.4632   2.4632
     5.1266

     occupation numbers 
     1.0000   1.0000   1.0000   1.0000   1.0000   1.0000   1.0000   1.0000
     1.0000   1.0000   1.0000   1.0000   1.0000   1.0000   1.0000   1.0000
     1.0000   1.0000   1.0000   1.0000   1.0000   1.0000   1.0000   1.0000
     1.0000   1.0000   1.0000   1.0000   1.0000   1.0000   1.0000   1.0000
     1.0000   1.0000   1.0000   1.0000   1.0000   1.0000   1.0000   1.0000
     1.0000   1.0000   1.0000   1.0000   1.0000   1.0000   1.0000   1.0000
     1.0000   1.0000   1.0000   1.0000   1.0000   1.0000   1.0000   1.0000
     0.0000

     highest occupied, lowest unoccupied level (ev):     2.9879    4.4661

!    total energy              =    -561.66358303 Ry
     estimated scf accuracy    <       0.00000087 Ry

     The total energy is the sum of the following terms:
     one-electron contribution =    -209.70447282 Ry
     hartree contribution      =     130.15225789 Ry
     xc contribution           =    -262.56861972 Ry
     ewald contribution        =    -219.54274839 Ry

     convergence has been achieved in   7 iterations

     Forces acting on atoms (cartesian axes, Ry/au):

     atom    1 type  1   force =     0.00000000    0.00000000   -0.00000000
     atom    2 type  1   force =     0.00000000    0.00000000    0.00000000
     atom    3 type  2   force =    -0.00007035   -0.00007035    0.00000000
     atom    4 type  2   force =     0.00007035    0.00007035    0.00000000
     atom    5 type  2   force =    -0.00007035    0.00007035    0.00000000
     atom    6 type  2   force =     0.00007035   -0.00007035    0.00000000
     The non-local contrib.  to forces
     atom    1 type  1   force =     0.00000000    0.00000000    0.00000000
     atom    2 type  1   force =     0.00000000    0.00000000   -0.00000000
     atom    3 type  2   force =     0.01441036    0.01441036    0.00000000
     atom    4 type  2   force =    -0.01441036   -0.01441036    0.00000000
     atom    5 type  2   force =     0.01441036   -0.01441036    0.00000000
     atom    6 type  2   force =    -0.01441036    0.01441036    0.00000000
     The ionic contribution  to forces
     atom    1 type  1   force =    -0.00000000   -0.00000000    0.00000000
     atom    2 type  1   force =     0.00000000    0.00000000   -0.00000000
     atom    3 type  2   force =    -0.90990984   -0.90990984    0.00000000
     atom    4 type  2   force =     0.90990984    0.90990984   -0.00000000
     atom    5 type  2   force =    -0.90990984    0.90990984   -0.00000000
     atom    6 type  2   force =     0.90990984   -0.90990984   -0.00000000
     The local contribution  to forces
     atom    1 type  1   force =    -0.00000000   -0.00000000    0.00000000
     atom    2 type  1   force =     0.00000000    0.00000000    0.00000000
     atom    3 type  2   force =     0.89718758    0.89718758    0.00000000
     atom    4 type  2   force =    -0.89718758   -0.89718758    0.00000000
     atom    5 type  2   force =     0.89718758   -0.89718758    0.00000000
     atom    6 type  2   force =    -0.89718758    0.89718758    0.00000000
     The core correction contribution to forces
     atom    1 type  1   force =    -0.00000000   -0.00000000   -0.00000000
     atom    2 type  1   force =     0.00000000    0.00000000    0.00000000
     atom    3 type  2   force =    -0.00164955   -0.00164955    0.00000000
     atom    4 type  2   force =     0.00164955    0.00164955   -0.00000000
     atom    5 type  2   force =    -0.00164955    0.00164955    0.00000000
     atom    6 type  2   force =     0.00164955   -0.00164955    0.00000000
     The Hubbard contrib.    to forces
     atom    1 type  1   force =     0.00000000    0.00000000    0.00000000
     atom    2 type  1   force =     0.00000000    0.00000000    0.00000000
     atom    3 type  2   force =     0.00000000    0.00000000    0.00000000
     atom    4 type  2   force =     0.00000000    0.00000000    0.00000000
     atom    5 type  2   force =     0.00000000    0.00000000    0.00000000
     atom    6 type  2   force =     0.00000000    0.00000000    0.00000000
     The SCF correction term to forces
     atom    1 type  1   force =     0.00000000    0.00000000    0.00000000
     atom    2 type  1   force =     0.00000000   -0.00000000   -0.00000000
     atom    3 type  2   force =    -0.00010890   -0.00010890    0.00000000
     atom    4 type  2   force =     0.00010890    0.00010890    0.00000000
     atom    5 type  2   force =    -0.00010890    0.00010890   -0.00000000
     atom    6 type  2   force =     0.00010890   -0.00010890   -0.00000000

     Total force =     0.000199     Total SCF correction =     0.000308
     SCF correction compared to forces is large: reduce conv_thr to get better values


     Computing stress (Cartesian axis) and pressure

          total   stress  (Ry/bohr**3)                   (kbar)     P=       -0.22
  -0.00000172   0.00000000   0.00000000           -0.25        0.00        0.00
   0.00000000  -0.00000172   0.00000000            0.00       -0.25        0.00
   0.00000000   0.00000000  -0.00000108            0.00        0.00       -0.16

     kinetic stress (kbar)   7260.36      0.00      0.00
                                0.00   7260.36      0.00
                                0.00      0.00   7234.83

     local   stress (kbar)    824.31      0.00      0.00
                                0.00    824.31      0.00
                                0.00      0.00  -3590.06

     nonloc. stress (kbar)  -2042.22      0.00      0.00
                                0.00  -2042.22      0.00
                                0.00      0.00  -2034.72

     hartree stress (kbar)   2828.53      0.00     -0.00
                                0.00   2828.53     -0.00
                               -0.00     -0.00   4719.36

     exc-cor stress (kbar)  14203.64      0.00      0.00
                                0.00  14203.64      0.00
                                0.00      0.00  14204.58

     corecor stress (kbar) -16394.09      0.00     -0.00
                                0.00 -16394.09     -0.00
                               -0.00     -0.00 -16392.59

     ewald   stress (kbar)  -6680.77      0.00     -0.00
                                0.00  -6680.77     -0.00
                               -0.00     -0.00  -4141.56

     hubbard stress (kbar)      0.00      0.00      0.00
                                0.00      0.00      0.00
                                0.00      0.00      0.00

     DFT-D   stress (kbar)      0.00      0.00      0.00
                                0.00      0.00      0.00
                                0.00      0.00      0.00

     XDM     stress (kbar)      0.00      0.00      0.00
                                0.00      0.00      0.00
                                0.00      0.00      0.00

     dft-nl  stress (kbar)      0.00      0.00      0.00
                                0.00      0.00      0.00
                                0.00      0.00      0.00

     TS-vdW  stress (kbar)      0.00      0.00      0.00
                                0.00      0.00      0.00
                                0.00      0.00      0.00



     Writing output data file ./out/SnI2.save/
 
     init_run     :      2.46s CPU      3.49s WALL (       1 calls)
     electrons    :     29.56s CPU     40.26s WALL (       1 calls)
     forces       :      0.98s CPU      1.01s WALL (       1 calls)
     stress       :      2.99s CPU      3.05s WALL (       1 calls)

     Called by init_run:
     wfcinit      :      1.71s CPU      2.32s WALL (       1 calls)
     wfcinit:atom :      0.01s CPU      0.01s WALL (       6 calls)
     wfcinit:wfcr :      1.64s CPU      1.70s WALL (       6 calls)
     potinit      :      0.09s CPU      0.30s WALL (       1 calls)
     hinit0       :      0.34s CPU      0.50s WALL (       1 calls)

     Called by electrons:
     c_bands      :     22.94s CPU     29.97s WALL (       8 calls)
     sum_band     :      4.88s CPU      5.25s WALL (       8 calls)
     v_of_rho     :      0.13s CPU      0.14s WALL (       8 calls)
     v_h          :      0.01s CPU      0.01s WALL (       8 calls)
     v_xc         :      0.15s CPU      0.16s WALL (      10 calls)
     newd         :      1.62s CPU      1.87s WALL (       8 calls)
     mix_rho      :      0.13s CPU      0.14s WALL (       8 calls)

     Called by c_bands:
     init_us_2    :      0.20s CPU      0.21s WALL (     114 calls)
     cegterg      :     21.14s CPU     21.60s WALL (      48 calls)

     Called by sum_band:
     sum_band:wei :      0.00s CPU      0.00s WALL (       8 calls)
     sum_band:loo :      3.45s CPU      3.54s WALL (       8 calls)
     sum_band:buf :      0.11s CPU      0.12s WALL (      48 calls)
     sum_band:ini :      0.09s CPU      0.09s WALL (      48 calls)
     sum_band:cal :      0.30s CPU      0.31s WALL (      48 calls)
     sum_band:bec :      0.27s CPU      0.27s WALL (      48 calls)
     addusdens    :      1.29s CPU      1.55s WALL (       8 calls)
     addusd:skk   :      0.00s CPU      0.00s WALL (      16 calls)
     addusd:dgemm :      0.66s CPU      0.92s WALL (      16 calls)
     addusd:qvan2 :      0.60s CPU      0.60s WALL (      16 calls)

     Called by *egterg:
     cdiaghg      :      1.05s CPU      1.06s WALL (     217 calls)
     cegterg:over :      1.27s CPU      1.28s WALL (     175 calls)
     cegterg:upda :      0.71s CPU      0.72s WALL (     175 calls)
     cegterg:last :      1.61s CPU      1.61s WALL (     127 calls)
     h_psi        :     16.02s CPU     16.49s WALL (     229 calls)
     s_psi        :      1.22s CPU      1.22s WALL (     229 calls)
     g_psi        :      0.07s CPU      0.07s WALL (     175 calls)

     Called by h_psi:
     h_psi:calbec :      1.10s CPU      1.11s WALL (     229 calls)
     vloc_psi     :     13.43s CPU     13.86s WALL (     229 calls)
     add_vuspsi   :      1.27s CPU      1.29s WALL (     229 calls)

     General routines
     calbec       :      1.60s CPU      1.62s WALL (     307 calls)
     fft          :      0.21s CPU      0.36s WALL (     138 calls)
     ffts         :      0.03s CPU      0.03s WALL (      32 calls)
     fftw         :     14.12s CPU     14.58s WALL (   40612 calls)
 
     Parallel routines
     fft_scatt_xy :      1.26s CPU      1.30s WALL (   40782 calls)
     fft_scatt_yz :      6.49s CPU      6.81s WALL (   40782 calls)
 
     PWSCF        :     40.41s CPU   1m 7.46s WALL

 
   This run was terminated on:  11:41:56  31Jan2021            

=------------------------------------------------------------------------------=
   JOB DONE.
=------------------------------------------------------------------------------=
