
     Program PWSCF v.6.7MaX starts on 15Jan2021 at 11:43:47 

     This program is part of the open-source Quantum ESPRESSO suite
     for quantum simulation of materials; please cite
         "P. Giannozzi et al., J. Phys.:Condens. Matter 21 395502 (2009);
         "P. Giannozzi et al., J. Phys.:Condens. Matter 29 465901 (2017);
          URL http://www.quantum-espresso.org", 
     in publications or presentations arising from this work. More details at
     http://www.quantum-espresso.org/quote

     Parallel version (MPI), running on    32 processors

     MPI processes distributed on     1 nodes
     R & G space division:  proc/nbgrp/npool/nimage =      32
     Waiting for input...
     Reading input from standard input

     Current dimensions of program PWSCF are:
     Max number of different atomic species (ntypx) = 10
     Max number of k-points (npk) =  40000
     Max angular momentum in pseudopotentials (lmaxx) =  3
     file Cs.pbe-spn-kjpaw_psl.1.0.0.UPF: wavefunction(s)  5S 6S renormalized
     file I.pbe-n-kjpaw_psl.1.0.0.UPF: wavefunction(s)  5S renormalized

     Subspace diagonalization in iterative solution of the eigenvalue problem:
     a serial algorithm will be used

     Found symmetry operation: I + (  0.0000 -0.5000 -0.5000)
     This is a supercell, fractional translations are disabled
     Message from routine setup:
     using ibrav=0 with symmetry is DISCOURAGED, use correct ibrav instead

     Parallelization info
     --------------------
     sticks:   dense  smooth     PW     G-vecs:    dense   smooth      PW
     Min         131     131     35                 6419     6419     905
     Max         132     132     36                 6424     6424     910
     Sum        4197    4197   1137               205453   205453   29039


     Title: 
     CsIhexagonal                                                               


     bravais-lattice index     =            0
     lattice parameter (alat)  =      14.8517  a.u.
     unit-cell volume          =    3275.8799 (a.u.)^3
     number of atoms/cell      =            8
     number of atomic types    =            2
     number of electrons       =        64.00
     number of Kohn-Sham states=           33
     kinetic-energy cutoff     =      60.0000  Ry
     charge density cutoff     =     240.0000  Ry
     scf convergence threshold =      1.0E-06
     mixing beta               =       0.7000
     number of iterations used =            8  plain     mixing
     Exchange-correlation= SLA  PW   PBX  PBC
                           (   1   4   3   4   0   0   0)

     celldm(1)=  14.851694  celldm(2)=   0.000000  celldm(3)=   0.000000
     celldm(4)=   0.000000  celldm(5)=   0.000000  celldm(6)=   0.000000

     crystal axes: (cart. coord. in units of alat)
               a(1) = (   1.000000   0.000000   0.000000 )  
               a(2) = (   0.000000   1.000000   0.000000 )  
               a(3) = (   0.000000   0.000000   1.000000 )  

     reciprocal axes: (cart. coord. in units 2 pi/alat)
               b(1) = (  1.000000  0.000000  0.000000 )  
               b(2) = (  0.000000  1.000000  0.000000 )  
               b(3) = (  0.000000  0.000000  1.000000 )  


     PseudoPot. # 1 for Cs read from file:
     ../../../pseudo/Cs.pbe-spn-kjpaw_psl.1.0.0.UPF
     MD5 check sum: b82c75cc2e1f4ff73b6412cffeb9c584
     Pseudo is Projector augmented-wave + core cor, Zval =  9.0
     Generated using &quot;atomic&quot; code by A. Dal Corso  v.6.4.1
     Shape of augmentation charge: PSQ
     Using radial grid of 1251 points,  9 beta functions with: 
                l(1) =   0
                l(2) =   0
                l(3) =   0
                l(4) =   1
                l(5) =   1
                l(6) =   2
                l(7) =   2
                l(8) =   3
                l(9) =   3
     Q(r) pseudized with 0 coefficients 


     PseudoPot. # 2 for I  read from file:
     ../../../pseudo/I.pbe-n-kjpaw_psl.1.0.0.UPF
     MD5 check sum: cd3d296c3308a581e1559a0c8a554cb5
     Pseudo is Projector augmented-wave + core cor, Zval =  7.0
     Generated using &quot;atomic&quot; code by A. Dal Corso  v.6.3
     Shape of augmentation charge: PSQ
     Using radial grid of 1247 points,  6 beta functions with: 
                l(1) =   0
                l(2) =   0
                l(3) =   1
                l(4) =   1
                l(5) =   2
                l(6) =   2
     Q(r) pseudized with 0 coefficients 


     atomic species   valence    mass     pseudopotential
        Cs             9.00   132.90000     Cs( 1.00)
        I              7.00   126.90000     I ( 1.00)

     48 Sym. Ops., with inversion, found


                                    s                        frac. trans.

      isym =  1     identity                                     

 cryst.   s( 1) = (     1          0          0      )
                  (     0          1          0      )
                  (     0          0          1      )

 cart.    s( 1) = (  1.0000000  0.0000000  0.0000000 )
                  (  0.0000000  1.0000000  0.0000000 )
                  (  0.0000000  0.0000000  1.0000000 )


      isym =  2     180 deg rotation - cart. axis [0,0,1]        

 cryst.   s( 2) = (    -1          0          0      )
                  (     0         -1          0      )
                  (     0          0          1      )

 cart.    s( 2) = ( -1.0000000  0.0000000  0.0000000 )
                  (  0.0000000 -1.0000000  0.0000000 )
                  (  0.0000000  0.0000000  1.0000000 )


      isym =  3     180 deg rotation - cart. axis [0,1,0]        

 cryst.   s( 3) = (    -1          0          0      )
                  (     0          1          0      )
                  (     0          0         -1      )

 cart.    s( 3) = ( -1.0000000  0.0000000  0.0000000 )
                  (  0.0000000  1.0000000  0.0000000 )
                  (  0.0000000  0.0000000 -1.0000000 )


      isym =  4     180 deg rotation - cart. axis [1,0,0]        

 cryst.   s( 4) = (     1          0          0      )
                  (     0         -1          0      )
                  (     0          0         -1      )

 cart.    s( 4) = (  1.0000000  0.0000000  0.0000000 )
                  (  0.0000000 -1.0000000  0.0000000 )
                  (  0.0000000  0.0000000 -1.0000000 )


      isym =  5     180 deg rotation - cart. axis [1,1,0]        

 cryst.   s( 5) = (     0          1          0      )
                  (     1          0          0      )
                  (     0          0         -1      )

 cart.    s( 5) = (  0.0000000  1.0000000  0.0000000 )
                  (  1.0000000  0.0000000  0.0000000 )
                  (  0.0000000  0.0000000 -1.0000000 )


      isym =  6     180 deg rotation - cart. axis [1,-1,0]       

 cryst.   s( 6) = (     0         -1          0      )
                  (    -1          0          0      )
                  (     0          0         -1      )

 cart.    s( 6) = (  0.0000000 -1.0000000  0.0000000 )
                  ( -1.0000000  0.0000000  0.0000000 )
                  (  0.0000000  0.0000000 -1.0000000 )


      isym =  7      90 deg rotation - cart. axis [0,0,-1]       

 cryst.   s( 7) = (     0         -1          0      )
                  (     1          0          0      )
                  (     0          0          1      )

 cart.    s( 7) = (  0.0000000  1.0000000  0.0000000 )
                  ( -1.0000000  0.0000000  0.0000000 )
                  (  0.0000000  0.0000000  1.0000000 )


      isym =  8      90 deg rotation - cart. axis [0,0,1]        

 cryst.   s( 8) = (     0          1          0      )
                  (    -1          0          0      )
                  (     0          0          1      )

 cart.    s( 8) = (  0.0000000 -1.0000000  0.0000000 )
                  (  1.0000000  0.0000000  0.0000000 )
                  (  0.0000000  0.0000000  1.0000000 )


      isym =  9     180 deg rotation - cart. axis [1,0,1]        

 cryst.   s( 9) = (     0          0          1      )
                  (     0         -1          0      )
                  (     1          0          0      )

 cart.    s( 9) = (  0.0000000  0.0000000  1.0000000 )
                  (  0.0000000 -1.0000000  0.0000000 )
                  (  1.0000000  0.0000000  0.0000000 )


      isym = 10     180 deg rotation - cart. axis [-1,0,1]       

 cryst.   s(10) = (     0          0         -1      )
                  (     0         -1          0      )
                  (    -1          0          0      )

 cart.    s(10) = (  0.0000000  0.0000000 -1.0000000 )
                  (  0.0000000 -1.0000000  0.0000000 )
                  ( -1.0000000  0.0000000  0.0000000 )


      isym = 11      90 deg rotation - cart. axis [0,1,0]        

 cryst.   s(11) = (     0          0         -1      )
                  (     0          1          0      )
                  (     1          0          0      )

 cart.    s(11) = (  0.0000000  0.0000000  1.0000000 )
                  (  0.0000000  1.0000000  0.0000000 )
                  ( -1.0000000  0.0000000  0.0000000 )


      isym = 12      90 deg rotation - cart. axis [0,-1,0]       

 cryst.   s(12) = (     0          0          1      )
                  (     0          1          0      )
                  (    -1          0          0      )

 cart.    s(12) = (  0.0000000  0.0000000 -1.0000000 )
                  (  0.0000000  1.0000000  0.0000000 )
                  (  1.0000000  0.0000000  0.0000000 )


      isym = 13     180 deg rotation - cart. axis [0,1,1]        

 cryst.   s(13) = (    -1          0          0      )
                  (     0          0          1      )
                  (     0          1          0      )

 cart.    s(13) = ( -1.0000000  0.0000000  0.0000000 )
                  (  0.0000000  0.0000000  1.0000000 )
                  (  0.0000000  1.0000000  0.0000000 )


      isym = 14     180 deg rotation - cart. axis [0,1,-1]       

 cryst.   s(14) = (    -1          0          0      )
                  (     0          0         -1      )
                  (     0         -1          0      )

 cart.    s(14) = ( -1.0000000  0.0000000  0.0000000 )
                  (  0.0000000  0.0000000 -1.0000000 )
                  (  0.0000000 -1.0000000  0.0000000 )


      isym = 15      90 deg rotation - cart. axis [-1,0,0]       

 cryst.   s(15) = (     1          0          0      )
                  (     0          0         -1      )
                  (     0          1          0      )

 cart.    s(15) = (  1.0000000  0.0000000  0.0000000 )
                  (  0.0000000  0.0000000  1.0000000 )
                  (  0.0000000 -1.0000000  0.0000000 )


      isym = 16      90 deg rotation - cart. axis [1,0,0]        

 cryst.   s(16) = (     1          0          0      )
                  (     0          0          1      )
                  (     0         -1          0      )

 cart.    s(16) = (  1.0000000  0.0000000  0.0000000 )
                  (  0.0000000  0.0000000 -1.0000000 )
                  (  0.0000000  1.0000000  0.0000000 )


      isym = 17     120 deg rotation - cart. axis [-1,-1,-1]     

 cryst.   s(17) = (     0          0          1      )
                  (     1          0          0      )
                  (     0          1          0      )

 cart.    s(17) = (  0.0000000  1.0000000  0.0000000 )
                  (  0.0000000  0.0000000  1.0000000 )
                  (  1.0000000  0.0000000  0.0000000 )


      isym = 18     120 deg rotation - cart. axis [-1,1,1]       

 cryst.   s(18) = (     0          0         -1      )
                  (    -1          0          0      )
                  (     0          1          0      )

 cart.    s(18) = (  0.0000000 -1.0000000  0.0000000 )
                  (  0.0000000  0.0000000  1.0000000 )
                  ( -1.0000000  0.0000000  0.0000000 )


      isym = 19     120 deg rotation - cart. axis [1,1,-1]       

 cryst.   s(19) = (     0          0         -1      )
                  (     1          0          0      )
                  (     0         -1          0      )

 cart.    s(19) = (  0.0000000  1.0000000  0.0000000 )
                  (  0.0000000  0.0000000 -1.0000000 )
                  ( -1.0000000  0.0000000  0.0000000 )


      isym = 20     120 deg rotation - cart. axis [1,-1,1]       

 cryst.   s(20) = (     0          0          1      )
                  (    -1          0          0      )
                  (     0         -1          0      )

 cart.    s(20) = (  0.0000000 -1.0000000  0.0000000 )
                  (  0.0000000  0.0000000 -1.0000000 )
                  (  1.0000000  0.0000000  0.0000000 )


      isym = 21     120 deg rotation - cart. axis [1,1,1]        

 cryst.   s(21) = (     0          1          0      )
                  (     0          0          1      )
                  (     1          0          0      )

 cart.    s(21) = (  0.0000000  0.0000000  1.0000000 )
                  (  1.0000000  0.0000000  0.0000000 )
                  (  0.0000000  1.0000000  0.0000000 )


      isym = 22     120 deg rotation - cart. axis [-1,1,-1]      

 cryst.   s(22) = (     0         -1          0      )
                  (     0          0         -1      )
                  (     1          0          0      )

 cart.    s(22) = (  0.0000000  0.0000000  1.0000000 )
                  ( -1.0000000  0.0000000  0.0000000 )
                  (  0.0000000 -1.0000000  0.0000000 )


      isym = 23     120 deg rotation - cart. axis [1,-1,-1]      

 cryst.   s(23) = (     0         -1          0      )
                  (     0          0          1      )
                  (    -1          0          0      )

 cart.    s(23) = (  0.0000000  0.0000000 -1.0000000 )
                  ( -1.0000000  0.0000000  0.0000000 )
                  (  0.0000000  1.0000000  0.0000000 )


      isym = 24     120 deg rotation - cart. axis [-1,-1,1]      

 cryst.   s(24) = (     0          1          0      )
                  (     0          0         -1      )
                  (    -1          0          0      )

 cart.    s(24) = (  0.0000000  0.0000000 -1.0000000 )
                  (  1.0000000  0.0000000  0.0000000 )
                  (  0.0000000 -1.0000000  0.0000000 )


      isym = 25     inversion                                    

 cryst.   s(25) = (    -1          0          0      )
                  (     0         -1          0      )
                  (     0          0         -1      )

 cart.    s(25) = ( -1.0000000  0.0000000  0.0000000 )
                  (  0.0000000 -1.0000000  0.0000000 )
                  (  0.0000000  0.0000000 -1.0000000 )


      isym = 26     inv. 180 deg rotation - cart. axis [0,0,1]   

 cryst.   s(26) = (     1          0          0      )
                  (     0          1          0      )
                  (     0          0         -1      )

 cart.    s(26) = (  1.0000000  0.0000000  0.0000000 )
                  (  0.0000000  1.0000000  0.0000000 )
                  (  0.0000000  0.0000000 -1.0000000 )


      isym = 27     inv. 180 deg rotation - cart. axis [0,1,0]   

 cryst.   s(27) = (     1          0          0      )
                  (     0         -1          0      )
                  (     0          0          1      )

 cart.    s(27) = (  1.0000000  0.0000000  0.0000000 )
                  (  0.0000000 -1.0000000  0.0000000 )
                  (  0.0000000  0.0000000  1.0000000 )


      isym = 28     inv. 180 deg rotation - cart. axis [1,0,0]   

 cryst.   s(28) = (    -1          0          0      )
                  (     0          1          0      )
                  (     0          0          1      )

 cart.    s(28) = ( -1.0000000  0.0000000  0.0000000 )
                  (  0.0000000  1.0000000  0.0000000 )
                  (  0.0000000  0.0000000  1.0000000 )


      isym = 29     inv. 180 deg rotation - cart. axis [1,1,0]   

 cryst.   s(29) = (     0         -1          0      )
                  (    -1          0          0      )
                  (     0          0          1      )

 cart.    s(29) = (  0.0000000 -1.0000000  0.0000000 )
                  ( -1.0000000  0.0000000  0.0000000 )
                  (  0.0000000  0.0000000  1.0000000 )


      isym = 30     inv. 180 deg rotation - cart. axis [1,-1,0]  

 cryst.   s(30) = (     0          1          0      )
                  (     1          0          0      )
                  (     0          0          1      )

 cart.    s(30) = (  0.0000000  1.0000000  0.0000000 )
                  (  1.0000000  0.0000000  0.0000000 )
                  (  0.0000000  0.0000000  1.0000000 )


      isym = 31     inv.  90 deg rotation - cart. axis [0,0,-1]  

 cryst.   s(31) = (     0          1          0      )
                  (    -1          0          0      )
                  (     0          0         -1      )

 cart.    s(31) = (  0.0000000 -1.0000000  0.0000000 )
                  (  1.0000000  0.0000000  0.0000000 )
                  (  0.0000000  0.0000000 -1.0000000 )


      isym = 32     inv.  90 deg rotation - cart. axis [0,0,1]   

 cryst.   s(32) = (     0         -1          0      )
                  (     1          0          0      )
                  (     0          0         -1      )

 cart.    s(32) = (  0.0000000  1.0000000  0.0000000 )
                  ( -1.0000000  0.0000000  0.0000000 )
                  (  0.0000000  0.0000000 -1.0000000 )


      isym = 33     inv. 180 deg rotation - cart. axis [1,0,1]   

 cryst.   s(33) = (     0          0         -1      )
                  (     0          1          0      )
                  (    -1          0          0      )

 cart.    s(33) = (  0.0000000  0.0000000 -1.0000000 )
                  (  0.0000000  1.0000000  0.0000000 )
                  ( -1.0000000  0.0000000  0.0000000 )


      isym = 34     inv. 180 deg rotation - cart. axis [-1,0,1]  

 cryst.   s(34) = (     0          0          1      )
                  (     0          1          0      )
                  (     1          0          0      )

 cart.    s(34) = (  0.0000000  0.0000000  1.0000000 )
                  (  0.0000000  1.0000000  0.0000000 )
                  (  1.0000000  0.0000000  0.0000000 )


      isym = 35     inv.  90 deg rotation - cart. axis [0,1,0]   

 cryst.   s(35) = (     0          0          1      )
                  (     0         -1          0      )
                  (    -1          0          0      )

 cart.    s(35) = (  0.0000000  0.0000000 -1.0000000 )
                  (  0.0000000 -1.0000000  0.0000000 )
                  (  1.0000000  0.0000000  0.0000000 )


      isym = 36     inv.  90 deg rotation - cart. axis [0,-1,0]  

 cryst.   s(36) = (     0          0         -1      )
                  (     0         -1          0      )
                  (     1          0          0      )

 cart.    s(36) = (  0.0000000  0.0000000  1.0000000 )
                  (  0.0000000 -1.0000000  0.0000000 )
                  ( -1.0000000  0.0000000  0.0000000 )


      isym = 37     inv. 180 deg rotation - cart. axis [0,1,1]   

 cryst.   s(37) = (     1          0          0      )
                  (     0          0         -1      )
                  (     0         -1          0      )

 cart.    s(37) = (  1.0000000  0.0000000  0.0000000 )
                  (  0.0000000  0.0000000 -1.0000000 )
                  (  0.0000000 -1.0000000  0.0000000 )


      isym = 38     inv. 180 deg rotation - cart. axis [0,1,-1]  

 cryst.   s(38) = (     1          0          0      )
                  (     0          0          1      )
                  (     0          1          0      )

 cart.    s(38) = (  1.0000000  0.0000000  0.0000000 )
                  (  0.0000000  0.0000000  1.0000000 )
                  (  0.0000000  1.0000000  0.0000000 )


      isym = 39     inv.  90 deg rotation - cart. axis [-1,0,0]  

 cryst.   s(39) = (    -1          0          0      )
                  (     0          0          1      )
                  (     0         -1          0      )

 cart.    s(39) = ( -1.0000000  0.0000000  0.0000000 )
                  (  0.0000000  0.0000000 -1.0000000 )
                  (  0.0000000  1.0000000  0.0000000 )


      isym = 40     inv.  90 deg rotation - cart. axis [1,0,0]   

 cryst.   s(40) = (    -1          0          0      )
                  (     0          0         -1      )
                  (     0          1          0      )

 cart.    s(40) = ( -1.0000000  0.0000000  0.0000000 )
                  (  0.0000000  0.0000000  1.0000000 )
                  (  0.0000000 -1.0000000  0.0000000 )


      isym = 41     inv. 120 deg rotation - cart. axis [-1,-1,-1]

 cryst.   s(41) = (     0          0         -1      )
                  (    -1          0          0      )
                  (     0         -1          0      )

 cart.    s(41) = (  0.0000000 -1.0000000  0.0000000 )
                  (  0.0000000  0.0000000 -1.0000000 )
                  ( -1.0000000  0.0000000  0.0000000 )


      isym = 42     inv. 120 deg rotation - cart. axis [-1,1,1]  

 cryst.   s(42) = (     0          0          1      )
                  (     1          0          0      )
                  (     0         -1          0      )

 cart.    s(42) = (  0.0000000  1.0000000  0.0000000 )
                  (  0.0000000  0.0000000 -1.0000000 )
                  (  1.0000000  0.0000000  0.0000000 )


      isym = 43     inv. 120 deg rotation - cart. axis [1,1,-1]  

 cryst.   s(43) = (     0          0          1      )
                  (    -1          0          0      )
                  (     0          1          0      )

 cart.    s(43) = (  0.0000000 -1.0000000  0.0000000 )
                  (  0.0000000  0.0000000  1.0000000 )
                  (  1.0000000  0.0000000  0.0000000 )


      isym = 44     inv. 120 deg rotation - cart. axis [1,-1,1]  

 cryst.   s(44) = (     0          0         -1      )
                  (     1          0          0      )
                  (     0          1          0      )

 cart.    s(44) = (  0.0000000  1.0000000  0.0000000 )
                  (  0.0000000  0.0000000  1.0000000 )
                  ( -1.0000000  0.0000000  0.0000000 )


      isym = 45     inv. 120 deg rotation - cart. axis [1,1,1]   

 cryst.   s(45) = (     0         -1          0      )
                  (     0          0         -1      )
                  (    -1          0          0      )

 cart.    s(45) = (  0.0000000  0.0000000 -1.0000000 )
                  ( -1.0000000  0.0000000  0.0000000 )
                  (  0.0000000 -1.0000000  0.0000000 )


      isym = 46     inv. 120 deg rotation - cart. axis [-1,1,-1] 

 cryst.   s(46) = (     0          1          0      )
                  (     0          0          1      )
                  (    -1          0          0      )

 cart.    s(46) = (  0.0000000  0.0000000 -1.0000000 )
                  (  1.0000000  0.0000000  0.0000000 )
                  (  0.0000000  1.0000000  0.0000000 )


      isym = 47     inv. 120 deg rotation - cart. axis [1,-1,-1] 

 cryst.   s(47) = (     0          1          0      )
                  (     0          0         -1      )
                  (     1          0          0      )

 cart.    s(47) = (  0.0000000  0.0000000  1.0000000 )
                  (  1.0000000  0.0000000  0.0000000 )
                  (  0.0000000 -1.0000000  0.0000000 )


      isym = 48     inv. 120 deg rotation - cart. axis [-1,-1,1] 

 cryst.   s(48) = (     0         -1          0      )
                  (     0          0          1      )
                  (     1          0          0      )

 cart.    s(48) = (  0.0000000  0.0000000  1.0000000 )
                  ( -1.0000000  0.0000000  0.0000000 )
                  (  0.0000000  1.0000000  0.0000000 )


   Cartesian axes

     site n.     atom                  positions (alat units)
         1           Cs  tau(   1) = (   0.0000000   0.0000000   0.0000000  )
         2           Cs  tau(   2) = (   0.0000000   0.5000000   0.5000000  )
         3           Cs  tau(   3) = (   0.5000000   0.0000000   0.5000000  )
         4           Cs  tau(   4) = (   0.5000000   0.5000000   0.0000000  )
         5           I   tau(   5) = (   0.5000000   0.0000000   0.0000000  )
         6           I   tau(   6) = (   0.5000000   0.5000000   0.5000000  )
         7           I   tau(   7) = (   0.0000000   0.0000000   0.5000000  )
         8           I   tau(   8) = (   0.0000000   0.5000000   0.0000000  )

   Crystallographic axes

     site n.     atom                  positions (cryst. coord.)
         1           Cs  tau(   1) = (  0.0000000  0.0000000  0.0000000  )
         2           Cs  tau(   2) = (  0.0000000  0.5000000  0.5000000  )
         3           Cs  tau(   3) = (  0.5000000  0.0000000  0.5000000  )
         4           Cs  tau(   4) = (  0.5000000  0.5000000  0.0000000  )
         5           I   tau(   5) = (  0.5000000  0.0000000  0.0000000  )
         6           I   tau(   6) = (  0.5000000  0.5000000  0.5000000  )
         7           I   tau(   7) = (  0.0000000  0.0000000  0.5000000  )
         8           I   tau(   8) = (  0.0000000  0.5000000  0.0000000  )

     number of k points=    35
                       cart. coord. in units 2pi/alat
        k(    1) = (   0.0000000   0.0000000   0.0000000), wk =   0.0027435
        k(    2) = (   0.0000000   0.0000000   0.1111111), wk =   0.0164609
        k(    3) = (   0.0000000   0.0000000   0.2222222), wk =   0.0164609
        k(    4) = (   0.0000000   0.0000000   0.3333333), wk =   0.0164609
        k(    5) = (   0.0000000   0.0000000   0.4444444), wk =   0.0164609
        k(    6) = (   0.0000000   0.1111111   0.1111111), wk =   0.0329218
        k(    7) = (   0.0000000   0.1111111   0.2222222), wk =   0.0658436
        k(    8) = (   0.0000000   0.1111111   0.3333333), wk =   0.0658436
        k(    9) = (   0.0000000   0.1111111   0.4444444), wk =   0.0658436
        k(   10) = (   0.0000000   0.2222222   0.2222222), wk =   0.0329218
        k(   11) = (   0.0000000   0.2222222   0.3333333), wk =   0.0658436
        k(   12) = (   0.0000000   0.2222222   0.4444444), wk =   0.0658436
        k(   13) = (   0.0000000   0.3333333   0.3333333), wk =   0.0329218
        k(   14) = (   0.0000000   0.3333333   0.4444444), wk =   0.0658436
        k(   15) = (   0.0000000   0.4444444   0.4444444), wk =   0.0329218
        k(   16) = (   0.1111111   0.1111111   0.1111111), wk =   0.0219479
        k(   17) = (   0.1111111   0.1111111   0.2222222), wk =   0.0658436
        k(   18) = (   0.1111111   0.1111111   0.3333333), wk =   0.0658436
        k(   19) = (   0.1111111   0.1111111   0.4444444), wk =   0.0658436
        k(   20) = (   0.1111111   0.2222222   0.2222222), wk =   0.0658436
        k(   21) = (   0.1111111   0.2222222   0.3333333), wk =   0.1316872
        k(   22) = (   0.1111111   0.2222222   0.4444444), wk =   0.1316872
        k(   23) = (   0.1111111   0.3333333   0.3333333), wk =   0.0658436
        k(   24) = (   0.1111111   0.3333333   0.4444444), wk =   0.1316872
        k(   25) = (   0.1111111   0.4444444   0.4444444), wk =   0.0658436
        k(   26) = (   0.2222222   0.2222222   0.2222222), wk =   0.0219479
        k(   27) = (   0.2222222   0.2222222   0.3333333), wk =   0.0658436
        k(   28) = (   0.2222222   0.2222222   0.4444444), wk =   0.0658436
        k(   29) = (   0.2222222   0.3333333   0.3333333), wk =   0.0658436
        k(   30) = (   0.2222222   0.3333333   0.4444444), wk =   0.1316872
        k(   31) = (   0.2222222   0.4444444   0.4444444), wk =   0.0658436
        k(   32) = (   0.3333333   0.3333333   0.3333333), wk =   0.0219479
        k(   33) = (   0.3333333   0.3333333   0.4444444), wk =   0.0658436
        k(   34) = (   0.3333333   0.4444444   0.4444444), wk =   0.0658436
        k(   35) = (   0.4444444   0.4444444   0.4444444), wk =   0.0219479

                       cryst. coord.
        k(    1) = (   0.0000000   0.0000000   0.0000000), wk =   0.0027435
        k(    2) = (   0.0000000   0.0000000   0.1111111), wk =   0.0164609
        k(    3) = (   0.0000000   0.0000000   0.2222222), wk =   0.0164609
        k(    4) = (   0.0000000   0.0000000   0.3333333), wk =   0.0164609
        k(    5) = (   0.0000000   0.0000000   0.4444444), wk =   0.0164609
        k(    6) = (   0.0000000   0.1111111   0.1111111), wk =   0.0329218
        k(    7) = (   0.0000000   0.1111111   0.2222222), wk =   0.0658436
        k(    8) = (   0.0000000   0.1111111   0.3333333), wk =   0.0658436
        k(    9) = (   0.0000000   0.1111111   0.4444444), wk =   0.0658436
        k(   10) = (   0.0000000   0.2222222   0.2222222), wk =   0.0329218
        k(   11) = (   0.0000000   0.2222222   0.3333333), wk =   0.0658436
        k(   12) = (   0.0000000   0.2222222   0.4444444), wk =   0.0658436
        k(   13) = (   0.0000000   0.3333333   0.3333333), wk =   0.0329218
        k(   14) = (   0.0000000   0.3333333   0.4444444), wk =   0.0658436
        k(   15) = (   0.0000000   0.4444444   0.4444444), wk =   0.0329218
        k(   16) = (   0.1111111   0.1111111   0.1111111), wk =   0.0219479
        k(   17) = (   0.1111111   0.1111111   0.2222222), wk =   0.0658436
        k(   18) = (   0.1111111   0.1111111   0.3333333), wk =   0.0658436
        k(   19) = (   0.1111111   0.1111111   0.4444444), wk =   0.0658436
        k(   20) = (   0.1111111   0.2222222   0.2222222), wk =   0.0658436
        k(   21) = (   0.1111111   0.2222222   0.3333333), wk =   0.1316872
        k(   22) = (   0.1111111   0.2222222   0.4444444), wk =   0.1316872
        k(   23) = (   0.1111111   0.3333333   0.3333333), wk =   0.0658436
        k(   24) = (   0.1111111   0.3333333   0.4444444), wk =   0.1316872
        k(   25) = (   0.1111111   0.4444444   0.4444444), wk =   0.0658436
        k(   26) = (   0.2222222   0.2222222   0.2222222), wk =   0.0219479
        k(   27) = (   0.2222222   0.2222222   0.3333333), wk =   0.0658436
        k(   28) = (   0.2222222   0.2222222   0.4444444), wk =   0.0658436
        k(   29) = (   0.2222222   0.3333333   0.3333333), wk =   0.0658436
        k(   30) = (   0.2222222   0.3333333   0.4444444), wk =   0.1316872
        k(   31) = (   0.2222222   0.4444444   0.4444444), wk =   0.0658436
        k(   32) = (   0.3333333   0.3333333   0.3333333), wk =   0.0219479
        k(   33) = (   0.3333333   0.3333333   0.4444444), wk =   0.0658436
        k(   34) = (   0.3333333   0.4444444   0.4444444), wk =   0.0658436
        k(   35) = (   0.4444444   0.4444444   0.4444444), wk =   0.0219479

     Dense  grid:   205453 G-vectors     FFT dimensions: (  75,  75,  75)

     Dynamical RAM for                 wfc:       0.40 MB

     Dynamical RAM for     wfc (w. buffer):      14.56 MB

     Dynamical RAM for           str. fact:       0.20 MB

     Dynamical RAM for           local pot:       0.00 MB

     Dynamical RAM for          nlocal pot:       2.50 MB

     Dynamical RAM for                qrad:       7.46 MB

     Dynamical RAM for          rho,v,vnew:       0.68 MB

     Dynamical RAM for               rhoin:       0.23 MB

     Dynamical RAM for            rho*nmix:       1.57 MB

     Dynamical RAM for           G-vectors:       0.42 MB

     Dynamical RAM for          h,s,v(r/c):       0.20 MB

     Dynamical RAM for          <psi|beta>:       0.10 MB

     Dynamical RAM for                 psi:       0.81 MB

     Dynamical RAM for                hpsi:       0.81 MB

     Dynamical RAM for                spsi:       0.81 MB

     Dynamical RAM for      wfcinit/wfcrot:       0.91 MB

     Dynamical RAM for           addusdens:      58.00 MB

     Dynamical RAM for          addusforce:      58.69 MB

     Dynamical RAM for         addusstress:      60.26 MB

     Estimated static dynamical RAM per process >      28.54 MB

     Estimated max dynamical RAM per process >      88.80 MB

     Estimated total dynamical RAM >       2.78 GB

     Initial potential from superposition of free atoms

     starting charge   63.84126, renormalised to   64.00000
     Starting wfcs are   36 randomized atomic wfcs
     Checking if some PAW data can be deallocated... 
       PAW data deallocated on   16 nodes for type:  1
       PAW data deallocated on   16 nodes for type:  2

     total cpu time spent up to now is       14.6 secs

     Self-consistent Calculation

     iteration #  1     ecut=    60.00 Ry     beta= 0.70
     Davidson diagonalization with overlap
     ethr =  1.00E-02,  avg # of iterations =  2.0

     Threshold (ethr) on eigenvalues was too large:
     Diagonalizing with lowered threshold

     Davidson diagonalization with overlap
     ethr =  4.25E-04,  avg # of iterations =  4.5

     total cpu time spent up to now is       65.9 secs

     total energy              =   -3179.52396250 Ry
     estimated scf accuracy    <       0.19452108 Ry

     iteration #  2     ecut=    60.00 Ry     beta= 0.70
     Davidson diagonalization with overlap
     ethr =  3.04E-04,  avg # of iterations =  4.9

     total cpu time spent up to now is       98.4 secs

     total energy              =   -3179.60853044 Ry
     estimated scf accuracy    <       0.03703474 Ry

     iteration #  3     ecut=    60.00 Ry     beta= 0.70
     Davidson diagonalization with overlap
     ethr =  5.79E-05,  avg # of iterations =  6.6

     total cpu time spent up to now is      126.9 secs

     total energy              =   -3179.61255196 Ry
     estimated scf accuracy    <       0.00439385 Ry

     iteration #  4     ecut=    60.00 Ry     beta= 0.70
     Davidson diagonalization with overlap
     ethr =  6.87E-06,  avg # of iterations =  7.4

     total cpu time spent up to now is      175.4 secs

     total energy              =   -3179.61636785 Ry
     estimated scf accuracy    <       0.00373147 Ry

     iteration #  5     ecut=    60.00 Ry     beta= 0.70
     Davidson diagonalization with overlap
     ethr =  5.83E-06,  avg # of iterations =  4.7

     total cpu time spent up to now is      205.1 secs

     total energy              =   -3179.61760045 Ry
     estimated scf accuracy    <       0.00044590 Ry

     iteration #  6     ecut=    60.00 Ry     beta= 0.70
     Davidson diagonalization with overlap
     ethr =  6.97E-07,  avg # of iterations =  5.0

     total cpu time spent up to now is      241.4 secs

     total energy              =   -3179.61774646 Ry
     estimated scf accuracy    <       0.00004642 Ry

     iteration #  7     ecut=    60.00 Ry     beta= 0.70
     Davidson diagonalization with overlap
     ethr =  7.25E-08,  avg # of iterations =  8.5

     total cpu time spent up to now is      307.2 secs

     total energy              =   -3179.61782228 Ry
     estimated scf accuracy    <       0.00000125 Ry

     iteration #  8     ecut=    60.00 Ry     beta= 0.70
     Davidson diagonalization with overlap
     ethr =  1.95E-09,  avg # of iterations = 12.9

     total cpu time spent up to now is      406.3 secs

     total energy              =   -3179.61782899 Ry
     estimated scf accuracy    <       0.00000365 Ry

     iteration #  9     ecut=    60.00 Ry     beta= 0.70
     Davidson diagonalization with overlap
     ethr =  1.95E-09,  avg # of iterations =  2.0

     total cpu time spent up to now is      429.7 secs

     total energy              =   -3179.61790783 Ry
     estimated scf accuracy    <       0.00000282 Ry

     iteration # 10     ecut=    60.00 Ry     beta= 0.70
     Davidson diagonalization with overlap
     ethr =  1.95E-09,  avg # of iterations =  9.9

     total cpu time spent up to now is      502.2 secs

     total energy              =   -3179.61785890 Ry
     estimated scf accuracy    <       0.00037117 Ry

     iteration # 11     ecut=    60.00 Ry     beta= 0.70
     Davidson diagonalization with overlap
     ethr =  1.95E-09,  avg # of iterations =  7.5

     total cpu time spent up to now is      556.3 secs

     total energy              =   -3179.61791925 Ry
     estimated scf accuracy    <       0.00012057 Ry

     iteration # 12     ecut=    60.00 Ry     beta= 0.70
     Davidson diagonalization with overlap
     ethr =  1.95E-09,  avg # of iterations =  5.9

     total cpu time spent up to now is      598.4 secs

     total energy              =   -3179.61772371 Ry
     estimated scf accuracy    <       0.00024546 Ry

     iteration # 13     ecut=    60.00 Ry     beta= 0.70
     Davidson diagonalization with overlap
     ethr =  1.95E-09,  avg # of iterations = 12.0

     total cpu time spent up to now is      680.8 secs

     total energy              =   -3179.61773112 Ry
     estimated scf accuracy    <       0.00029510 Ry

     iteration # 14     ecut=    60.00 Ry     beta= 0.70
     Davidson diagonalization with overlap
     ethr =  1.95E-09,  avg # of iterations = 10.5

     total cpu time spent up to now is      753.9 secs

     total energy              =   -3179.61781907 Ry
     estimated scf accuracy    <       0.00004155 Ry

     iteration # 15     ecut=    60.00 Ry     beta= 0.70
     Davidson diagonalization with overlap
     ethr =  1.95E-09,  avg # of iterations =  7.1

     total cpu time spent up to now is      804.7 secs

     End of self-consistent calculation

          k = 0.0000 0.0000 0.0000 ( 25677 PWs)   bands (ev):

   -19.0128 -19.0044 -19.0044 -19.0044  -9.1928  -9.1634  -9.1634  -9.1634
    -5.9517  -5.9517  -5.9517  -5.8647  -5.8647  -5.8647  -5.8647  -5.8647
    -5.8647  -5.8060  -5.8060  -5.8060   0.6856   0.6856   0.6856   0.8800
     0.8800   0.8800   0.8800   0.8800   0.8800   0.9769   0.9769   0.9769
     4.8421

     occupation numbers 
     1.0000   1.0000   1.0000   1.0000   1.0000   1.0000   1.0000   1.0000
     1.0000   1.0000   1.0000   1.0000   1.0000   1.0000   1.0000   1.0000
     1.0000   1.0000   1.0000   1.0000   1.0000   1.0000   1.0000   1.0000
     1.0000   1.0000   1.0000   1.0000   1.0000   1.0000   1.0000   1.0000
     0.0000

          k = 0.0000 0.0000 0.1111 ( 25677 PWs)   bands (ev):

   -19.0125 -19.0046 -19.0044 -19.0044  -9.1941  -9.1666  -9.1657  -9.1656
    -5.9491  -5.9491  -5.9388  -5.8673  -5.8673  -5.8629  -5.8629  -5.8561
    -5.8561  -5.8078  -5.8078  -5.8017   0.6589   0.6891   0.6891   0.8429
     0.8429   0.8710   0.8710   0.8812   0.8812   0.9229   0.9721   0.9721
     4.9227

     occupation numbers 
     1.0000   1.0000   1.0000   1.0000   1.0000   1.0000   1.0000   1.0000
     1.0000   1.0000   1.0000   1.0000   1.0000   1.0000   1.0000   1.0000
     1.0000   1.0000   1.0000   1.0000   1.0000   1.0000   1.0000   1.0000
     1.0000   1.0000   1.0000   1.0000   1.0000   1.0000   1.0000   1.0000
     0.0000

          k = 0.0000 0.0000 0.2222 ( 25721 PWs)   bands (ev):

   -19.0118 -19.0053 -19.0044 -19.0043  -9.1972  -9.1751  -9.1713  -9.1713
    -5.9415  -5.9415  -5.9043  -5.8749  -5.8749  -5.8577  -5.8577  -5.8343
    -5.8343  -5.8128  -5.8128  -5.7921   0.5942   0.6996   0.6996   0.7516
     0.7516   0.7913   0.8466   0.8466   0.8852   0.8852   0.9588   0.9588
     5.1307

     occupation numbers 
     1.0000   1.0000   1.0000   1.0000   1.0000   1.0000   1.0000   1.0000
     1.0000   1.0000   1.0000   1.0000   1.0000   1.0000   1.0000   1.0000
     1.0000   1.0000   1.0000   1.0000   1.0000   1.0000   1.0000   1.0000
     1.0000   1.0000   1.0000   1.0000   1.0000   1.0000   1.0000   1.0000
     0.0000

          k = 0.0000 0.0000 0.3333 ( 25728 PWs)   bands (ev):

   -19.0106 -19.0064 -19.0043 -19.0043  -9.1998  -9.1855  -9.1777  -9.1777
    -5.9300  -5.9300  -5.8864  -5.8864  -5.8597  -5.8499  -5.8499  -5.8205
    -5.8205  -5.8094  -5.8093  -5.7861   0.5286   0.6457   0.6519   0.6519
     0.7179   0.7179   0.8128   0.8128   0.8930   0.8930   0.9406   0.9406
     5.4012

     occupation numbers 
     1.0000   1.0000   1.0000   1.0000   1.0000   1.0000   1.0000   1.0000
     1.0000   1.0000   1.0000   1.0000   1.0000   1.0000   1.0000   1.0000
     1.0000   1.0000   1.0000   1.0000   1.0000   1.0000   1.0000   1.0000
     1.0000   1.0000   1.0000   1.0000   1.0000   1.0000   1.0000   1.0000
     0.0000

          k = 0.0000 0.0000 0.4444 ( 25708 PWs)   bands (ev):

   -19.0092 -19.0078 -19.0043 -19.0043  -9.1993  -9.1944  -9.1818  -9.1818
    -5.9157  -5.9157  -5.9006  -5.9006  -5.8402  -5.8402  -5.8300  -5.8300
    -5.8192  -5.7935  -5.7929  -5.7929   0.5019   0.5403   0.5889   0.5889
     0.7440   0.7440   0.7768   0.7768   0.9052   0.9052   0.9216   0.9216
     5.6898

     occupation numbers 
     1.0000   1.0000   1.0000   1.0000   1.0000   1.0000   1.0000   1.0000
     1.0000   1.0000   1.0000   1.0000   1.0000   1.0000   1.0000   1.0000
     1.0000   1.0000   1.0000   1.0000   1.0000   1.0000   1.0000   1.0000
     1.0000   1.0000   1.0000   1.0000   1.0000   1.0000   1.0000   1.0000
     0.0000

          k = 0.0000 0.1111 0.1111 ( 25686 PWs)   bands (ev):

   -19.0123 -19.0046 -19.0046 -19.0044  -9.1955  -9.1689  -9.1688  -9.1679
    -5.9465  -5.9363  -5.9363  -5.8655  -5.8655  -5.8601  -5.8572  -5.8544
    -5.8544  -5.8095  -5.8049  -5.8017   0.6603   0.6603   0.6925   0.8150
     0.8456   0.8456   0.8540   0.8723   0.8724   0.8952   0.9425   0.9670
     5.0028

     occupation numbers 
     1.0000   1.0000   1.0000   1.0000   1.0000   1.0000   1.0000   1.0000
     1.0000   1.0000   1.0000   1.0000   1.0000   1.0000   1.0000   1.0000
     1.0000   1.0000   1.0000   1.0000   1.0000   1.0000   1.0000   1.0000
     1.0000   1.0000   1.0000   1.0000   1.0000   1.0000   1.0000   1.0000
     0.0000

          k = 0.0000 0.1111 0.2222 ( 25714 PWs)   bands (ev):

   -19.0116 -19.0053 -19.0046 -19.0044  -9.1987  -9.1772  -9.1744  -9.1737
    -5.9390  -5.9292  -5.9024  -5.8730  -5.8660  -5.8603  -5.8495  -5.8362
    -5.8329  -5.8146  -5.8085  -5.7927   0.5924   0.6597   0.7029   0.7291
     0.7641   0.7756   0.8269   0.8482   0.8514   0.8767   0.9210   0.9533
     5.2096

     occupation numbers 
     1.0000   1.0000   1.0000   1.0000   1.0000   1.0000   1.0000   1.0000
     1.0000   1.0000   1.0000   1.0000   1.0000   1.0000   1.0000   1.0000
     1.0000   1.0000   1.0000   1.0000   1.0000   1.0000   1.0000   1.0000
     1.0000   1.0000   1.0000   1.0000   1.0000   1.0000   1.0000   1.0000
     0.0000

          k = 0.0000 0.1111 0.3333 ( 25719 PWs)   bands (ev):

   -19.0104 -19.0064 -19.0045 -19.0044  -9.2013  -9.1875  -9.1806  -9.1801
    -5.9275  -5.9182  -5.8844  -5.8770  -5.8592  -5.8523  -5.8413  -5.8225
    -5.8156  -5.8106  -5.8084  -5.7862   0.5242   0.6211   0.6319   0.6342
     0.7192   0.7210   0.7942   0.8148   0.8594   0.8849   0.9031   0.9345
     5.4785

     occupation numbers 
     1.0000   1.0000   1.0000   1.0000   1.0000   1.0000   1.0000   1.0000
     1.0000   1.0000   1.0000   1.0000   1.0000   1.0000   1.0000   1.0000
     1.0000   1.0000   1.0000   1.0000   1.0000   1.0000   1.0000   1.0000
     1.0000   1.0000   1.0000   1.0000   1.0000   1.0000   1.0000   1.0000
     0.0000

          k = 0.0000 0.1111 0.4444 ( 25709 PWs)   bands (ev):

   -19.0091 -19.0077 -19.0044 -19.0044  -9.2010  -9.1962  -9.1846  -9.1844
    -5.9135  -5.9048  -5.8985  -5.8904  -5.8425  -5.8347  -5.8321  -5.8246
    -5.8170  -5.7935  -5.7928  -5.7927   0.4954   0.5316   0.5686   0.5700
     0.7322   0.7468   0.7605   0.7791   0.8706   0.8855   0.8977   0.9149
     5.7653

     occupation numbers 
     1.0000   1.0000   1.0000   1.0000   1.0000   1.0000   1.0000   1.0000
     1.0000   1.0000   1.0000   1.0000   1.0000   1.0000   1.0000   1.0000
     1.0000   1.0000   1.0000   1.0000   1.0000   1.0000   1.0000   1.0000
     1.0000   1.0000   1.0000   1.0000   1.0000   1.0000   1.0000   1.0000
     0.0000

          k = 0.0000 0.2222 0.2222 ( 25742 PWs)   bands (ev):

   -19.0109 -19.0052 -19.0052 -19.0044  -9.2021  -9.1825  -9.1824  -9.1796
    -5.9317  -5.8966  -5.8966  -5.8675  -5.8675  -5.8477  -5.8372  -5.8287
    -5.8287  -5.8200  -5.8025  -5.7913   0.5820   0.5820   0.6600   0.7073
     0.7130   0.7756   0.7756   0.7903   0.8533   0.8534   0.8574   0.9384
     5.4134

     occupation numbers 
     1.0000   1.0000   1.0000   1.0000   1.0000   1.0000   1.0000   1.0000
     1.0000   1.0000   1.0000   1.0000   1.0000   1.0000   1.0000   1.0000
     1.0000   1.0000   1.0000   1.0000   1.0000   1.0000   1.0000   1.0000
     1.0000   1.0000   1.0000   1.0000   1.0000   1.0000   1.0000   1.0000
     0.0000

          k = 0.0000 0.2222 0.3333 ( 25721 PWs)   bands (ev):

   -19.0099 -19.0061 -19.0050 -19.0045  -9.2050  -9.1924  -9.1883  -9.1865
    -5.9205  -5.8874  -5.8786  -5.8592  -5.8556  -5.8531  -5.8281  -5.8216
    -5.8137  -5.8058  -5.8057  -5.7853   0.5077   0.5491   0.5732   0.5929
     0.7191   0.7304   0.7563   0.7834   0.8211   0.8236   0.8629   0.9179
     5.6775

     occupation numbers 
     1.0000   1.0000   1.0000   1.0000   1.0000   1.0000   1.0000   1.0000
     1.0000   1.0000   1.0000   1.0000   1.0000   1.0000   1.0000   1.0000
     1.0000   1.0000   1.0000   1.0000   1.0000   1.0000   1.0000   1.0000
     1.0000   1.0000   1.0000   1.0000   1.0000   1.0000   1.0000   1.0000
     0.0000

          k = 0.0000 0.2222 0.4444 ( 25727 PWs)   bands (ev):

   -19.0086 -19.0073 -19.0048 -19.0047  -9.2051  -9.2007  -9.1918  -9.1912
    -5.9069  -5.8923  -5.8761  -5.8641  -5.8490  -5.8382  -5.8250  -5.8130
    -5.8075  -5.7948  -5.7919  -5.7895   0.4734   0.5024   0.5112   0.5154
     0.7104   0.7277   0.7553   0.7866   0.7921   0.8047   0.8773   0.8964
     5.9576

     occupation numbers 
     1.0000   1.0000   1.0000   1.0000   1.0000   1.0000   1.0000   1.0000
     1.0000   1.0000   1.0000   1.0000   1.0000   1.0000   1.0000   1.0000
     1.0000   1.0000   1.0000   1.0000   1.0000   1.0000   1.0000   1.0000
     1.0000   1.0000   1.0000   1.0000   1.0000   1.0000   1.0000   1.0000
     0.0000

          k = 0.0000 0.3333 0.3333 ( 25738 PWs)   bands (ev):

   -19.0090 -19.0058 -19.0058 -19.0048  -9.2085  -9.1977  -9.1977  -9.1939
    -5.9099  -5.8698  -5.8698  -5.8492  -5.8492  -5.8368  -5.8315  -5.8119
    -5.8018  -5.8009  -5.8009  -5.7814   0.4743   0.4743   0.4980   0.5188
     0.7187   0.7187   0.7225   0.7467   0.7630   0.8323   0.8324   0.8950
     5.9324

     occupation numbers 
     1.0000   1.0000   1.0000   1.0000   1.0000   1.0000   1.0000   1.0000
     1.0000   1.0000   1.0000   1.0000   1.0000   1.0000   1.0000   1.0000
     1.0000   1.0000   1.0000   1.0000   1.0000   1.0000   1.0000   1.0000
     1.0000   1.0000   1.0000   1.0000   1.0000   1.0000   1.0000   1.0000
     0.0000

          k = 0.0000 0.3333 0.4444 ( 25719 PWs)   bands (ev):

   -19.0079 -19.0068 -19.0055 -19.0051  -9.2091  -9.2054  -9.2005  -9.1992
    -5.8968  -5.8829  -5.8590  -5.8476  -5.8413  -5.8336  -5.8192  -5.8058
    -5.7955  -5.7925  -5.7900  -5.7825   0.4346   0.4418   0.4463   0.4519
     0.6943   0.6999   0.7221   0.7340   0.7702   0.7997   0.8491   0.8708
     6.1973

     occupation numbers 
     1.0000   1.0000   1.0000   1.0000   1.0000   1.0000   1.0000   1.0000
     1.0000   1.0000   1.0000   1.0000   1.0000   1.0000   1.0000   1.0000
     1.0000   1.0000   1.0000   1.0000   1.0000   1.0000   1.0000   1.0000
     1.0000   1.0000   1.0000   1.0000   1.0000   1.0000   1.0000   1.0000
     0.0000

          k = 0.0000 0.4444 0.4444 ( 25730 PWs)   bands (ev):

   -19.0071 -19.0063 -19.0062 -19.0057  -9.2104  -9.2075  -9.2074  -9.2053
    -5.8844  -5.8713  -5.8713  -5.8590  -5.8163  -5.8154  -5.8154  -5.8059
    -5.7905  -5.7852  -5.7852  -5.7797   0.3991   0.3991   0.4000   0.4054
     0.6850   0.6886   0.6886   0.6983   0.7917   0.8190   0.8190   0.8435
     6.4338

     occupation numbers 
     1.0000   1.0000   1.0000   1.0000   1.0000   1.0000   1.0000   1.0000
     1.0000   1.0000   1.0000   1.0000   1.0000   1.0000   1.0000   1.0000
     1.0000   1.0000   1.0000   1.0000   1.0000   1.0000   1.0000   1.0000
     1.0000   1.0000   1.0000   1.0000   1.0000   1.0000   1.0000   1.0000
     0.0000

          k = 0.1111 0.1111 0.1111 ( 25698 PWs)   bands (ev):

   -19.0120 -19.0046 -19.0046 -19.0046  -9.1969  -9.1711  -9.1711  -9.1711
    -5.9339  -5.9339  -5.9339  -5.8584  -5.8584  -5.8584  -5.8554  -5.8554
    -5.8554  -5.8065  -5.8065  -5.8017   0.6611   0.6611   0.6611   0.8202
     0.8202   0.8202   0.8550   0.8550   0.8550   0.8679   0.9379   0.9379
     5.0823

     occupation numbers 
     1.0000   1.0000   1.0000   1.0000   1.0000   1.0000   1.0000   1.0000
     1.0000   1.0000   1.0000   1.0000   1.0000   1.0000   1.0000   1.0000
     1.0000   1.0000   1.0000   1.0000   1.0000   1.0000   1.0000   1.0000
     1.0000   1.0000   1.0000   1.0000   1.0000   1.0000   1.0000   1.0000
     0.0000

          k = 0.1111 0.1111 0.2222 ( 25729 PWs)   bands (ev):

   -19.0113 -19.0053 -19.0046 -19.0046  -9.2001  -9.1793  -9.1767  -9.1767
    -5.9268  -5.9268  -5.9005  -5.8642  -5.8642  -5.8535  -5.8502  -5.8347
    -5.8347  -5.8112  -5.8093  -5.7934   0.5896   0.6555   0.6555   0.7492
     0.7492   0.7582   0.8280   0.8281   0.8294   0.8583   0.9085   0.9255
     5.2878

     occupation numbers 
     1.0000   1.0000   1.0000   1.0000   1.0000   1.0000   1.0000   1.0000
     1.0000   1.0000   1.0000   1.0000   1.0000   1.0000   1.0000   1.0000
     1.0000   1.0000   1.0000   1.0000   1.0000   1.0000   1.0000   1.0000
     1.0000   1.0000   1.0000   1.0000   1.0000   1.0000   1.0000   1.0000
     0.0000

          k = 0.1111 0.1111 0.3333 ( 25723 PWs)   bands (ev):

   -19.0102 -19.0063 -19.0046 -19.0045  -9.2029  -9.1895  -9.1831  -9.1831
    -5.9160  -5.9160  -5.8750  -5.8750  -5.8589  -5.8461  -5.8409  -5.8185
    -5.8165  -5.8097  -5.8096  -5.7863   0.5189   0.6046   0.6046   0.6216
     0.7188   0.7188   0.7958   0.7958   0.8395   0.8650   0.8877   0.9085
     5.5547

     occupation numbers 
     1.0000   1.0000   1.0000   1.0000   1.0000   1.0000   1.0000   1.0000
     1.0000   1.0000   1.0000   1.0000   1.0000   1.0000   1.0000   1.0000
     1.0000   1.0000   1.0000   1.0000   1.0000   1.0000   1.0000   1.0000
     1.0000   1.0000   1.0000   1.0000   1.0000   1.0000   1.0000   1.0000
     0.0000

          k = 0.1111 0.1111 0.4444 ( 25724 PWs)   bands (ev):

   -19.0089 -19.0076 -19.0045 -19.0045  -9.2027  -9.1981  -9.1872  -9.1872
    -5.9028  -5.9028  -5.8882  -5.8882  -5.8370  -5.8363  -5.8274  -5.8257
    -5.8152  -5.7932  -5.7932  -5.7921   0.4881   0.5220   0.5506   0.5506
     0.7340   0.7340   0.7626   0.7626   0.8523   0.8686   0.8759   0.8909
     5.8385

     occupation numbers 
     1.0000   1.0000   1.0000   1.0000   1.0000   1.0000   1.0000   1.0000
     1.0000   1.0000   1.0000   1.0000   1.0000   1.0000   1.0000   1.0000
     1.0000   1.0000   1.0000   1.0000   1.0000   1.0000   1.0000   1.0000
     1.0000   1.0000   1.0000   1.0000   1.0000   1.0000   1.0000   1.0000
     0.0000

          k = 0.1111 0.2222 0.2222 ( 25732 PWs)   bands (ev):

   -19.0107 -19.0052 -19.0052 -19.0046  -9.2036  -9.1847  -9.1847  -9.1826
    -5.9200  -5.8948  -5.8948  -5.8590  -5.8590  -5.8463  -5.8355  -5.8304
    -5.8304  -5.8154  -5.8038  -5.7918   0.5752   0.5753   0.6236   0.6889
     0.7216   0.7633   0.7633   0.7907   0.8319   0.8320   0.8536   0.9061
     5.4897

     occupation numbers 
     1.0000   1.0000   1.0000   1.0000   1.0000   1.0000   1.0000   1.0000
     1.0000   1.0000   1.0000   1.0000   1.0000   1.0000   1.0000   1.0000
     1.0000   1.0000   1.0000   1.0000   1.0000   1.0000   1.0000   1.0000
     1.0000   1.0000   1.0000   1.0000   1.0000   1.0000   1.0000   1.0000
     0.0000

          k = 0.1111 0.2222 0.3333 ( 25713 PWs)   bands (ev):

   -19.0097 -19.0061 -19.0050 -19.0047  -9.2067  -9.1945  -9.1907  -9.1893
    -5.9095  -5.8860  -5.8692  -5.8566  -5.8515  -5.8494  -5.8229  -5.8228
    -5.8127  -5.8070  -5.8068  -5.7855   0.4995   0.5360   0.5523   0.5780
     0.7153   0.7218   0.7567   0.7726   0.8008   0.8182   0.8395   0.8873
     5.7501

     occupation numbers 
     1.0000   1.0000   1.0000   1.0000   1.0000   1.0000   1.0000   1.0000
     1.0000   1.0000   1.0000   1.0000   1.0000   1.0000   1.0000   1.0000
     1.0000   1.0000   1.0000   1.0000   1.0000   1.0000   1.0000   1.0000
     1.0000   1.0000   1.0000   1.0000   1.0000   1.0000   1.0000   1.0000
     0.0000

          k = 0.1111 0.2222 0.4444 ( 25701 PWs)   bands (ev):

   -19.0085 -19.0073 -19.0049 -19.0048  -9.2068  -9.2026  -9.1943  -9.1939
    -5.8966  -5.8834  -5.8736  -5.8623  -5.8425  -5.8323  -5.8256  -5.8143
    -5.8070  -5.7944  -5.7923  -5.7890   0.4637   0.4906   0.4954   0.4982
     0.7102   0.7277   0.7411   0.7687   0.7829   0.7973   0.8516   0.8681
     6.0193

     occupation numbers 
     1.0000   1.0000   1.0000   1.0000   1.0000   1.0000   1.0000   1.0000
     1.0000   1.0000   1.0000   1.0000   1.0000   1.0000   1.0000   1.0000
     1.0000   1.0000   1.0000   1.0000   1.0000   1.0000   1.0000   1.0000
     1.0000   1.0000   1.0000   1.0000   1.0000   1.0000   1.0000   1.0000
     0.0000

          k = 0.1111 0.3333 0.3333 ( 25688 PWs)   bands (ev):

   -19.0089 -19.0058 -19.0058 -19.0049  -9.2102  -9.1999  -9.1999  -9.1966
    -5.8994  -5.8622  -5.8622  -5.8473  -5.8473  -5.8310  -5.8305  -5.8106
    -5.8027  -5.8017  -5.8017  -5.7817   0.4622   0.4622   0.4811   0.5036
     0.7140   0.7141   0.7221   0.7332   0.7601   0.8102   0.8102   0.8659
     5.9978

     occupation numbers 
     1.0000   1.0000   1.0000   1.0000   1.0000   1.0000   1.0000   1.0000
     1.0000   1.0000   1.0000   1.0000   1.0000   1.0000   1.0000   1.0000
     1.0000   1.0000   1.0000   1.0000   1.0000   1.0000   1.0000   1.0000
     1.0000   1.0000   1.0000   1.0000   1.0000   1.0000   1.0000   1.0000
     0.0000

          k = 0.1111 0.3333 0.4444 ( 25712 PWs)   bands (ev):

   -19.0078 -19.0068 -19.0055 -19.0052  -9.2110  -9.2074  -9.2029  -9.2018
    -5.8871  -5.8741  -5.8517  -5.8410  -5.8400  -5.8325  -5.8189  -5.8064
    -5.7948  -5.7926  -5.7901  -5.7824   0.4221   0.4277   0.4311   0.4381
     0.6927   0.6992   0.7178   0.7306   0.7530   0.7798   0.8246   0.8438
     6.2441

     occupation numbers 
     1.0000   1.0000   1.0000   1.0000   1.0000   1.0000   1.0000   1.0000
     1.0000   1.0000   1.0000   1.0000   1.0000   1.0000   1.0000   1.0000
     1.0000   1.0000   1.0000   1.0000   1.0000   1.0000   1.0000   1.0000
     1.0000   1.0000   1.0000   1.0000   1.0000   1.0000   1.0000   1.0000
     0.0000

          k = 0.1111 0.4444 0.4444 ( 25738 PWs)   bands (ev):

   -19.0071 -19.0063 -19.0062 -19.0057  -9.2125  -9.2097  -9.2097  -9.2077
    -5.8755  -5.8632  -5.8632  -5.8517  -5.8159  -5.8151  -5.8151  -5.8062
    -5.7896  -5.7849  -5.7849  -5.7794   0.3853   0.3853   0.3857   0.3914
     0.6837   0.6867   0.6867   0.6963   0.7719   0.7966   0.7967   0.8188
     6.4590

     occupation numbers 
     1.0000   1.0000   1.0000   1.0000   1.0000   1.0000   1.0000   1.0000
     1.0000   1.0000   1.0000   1.0000   1.0000   1.0000   1.0000   1.0000
     1.0000   1.0000   1.0000   1.0000   1.0000   1.0000   1.0000   1.0000
     1.0000   1.0000   1.0000   1.0000   1.0000   1.0000   1.0000   1.0000
     0.0000

          k = 0.2222 0.2222 0.2222 ( 25701 PWs)   bands (ev):

   -19.0101 -19.0052 -19.0052 -19.0051  -9.2072  -9.1903  -9.1903  -9.1903
    -5.8894  -5.8894  -5.8893  -5.8423  -5.8423  -5.8423  -5.8305  -5.8305
    -5.8305  -5.8076  -5.8076  -5.7909   0.5475   0.5475   0.5475   0.6262
     0.7306   0.7307   0.7307   0.7923   0.7923   0.7923   0.8432   0.8432
     5.6856

     occupation numbers 
     1.0000   1.0000   1.0000   1.0000   1.0000   1.0000   1.0000   1.0000
     1.0000   1.0000   1.0000   1.0000   1.0000   1.0000   1.0000   1.0000
     1.0000   1.0000   1.0000   1.0000   1.0000   1.0000   1.0000   1.0000
     1.0000   1.0000   1.0000   1.0000   1.0000   1.0000   1.0000   1.0000
     0.0000

          k = 0.2222 0.2222 0.3333 ( 25688 PWs)   bands (ev):

   -19.0092 -19.0060 -19.0051 -19.0051  -9.2106  -9.1997  -9.1966  -9.1966
    -5.8808  -5.8808  -5.8525  -5.8468  -5.8468  -5.8361  -5.8210  -5.8135
    -5.8093  -5.8093  -5.8090  -5.7851   0.4717   0.4939   0.4939   0.5305
     0.7083   0.7083   0.7388   0.7585   0.7585   0.7964   0.7967   0.8293
     5.9339

     occupation numbers 
     1.0000   1.0000   1.0000   1.0000   1.0000   1.0000   1.0000   1.0000
     1.0000   1.0000   1.0000   1.0000   1.0000   1.0000   1.0000   1.0000
     1.0000   1.0000   1.0000   1.0000   1.0000   1.0000   1.0000   1.0000
     1.0000   1.0000   1.0000   1.0000   1.0000   1.0000   1.0000   1.0000
     0.0000

          k = 0.2222 0.2222 0.4444 ( 25712 PWs)   bands (ev):

   -19.0081 -19.0070 -19.0051 -19.0051  -9.2112  -9.2074  -9.2007  -9.2007
    -5.8710  -5.8710  -5.8562  -5.8562  -5.8287  -5.8281  -5.8208  -5.8164
    -5.8029  -5.7931  -5.7931  -5.7869   0.4329   0.4490   0.4490   0.4537
     0.7108   0.7109   0.7311   0.7311   0.7504   0.7684   0.8039   0.8153
     6.1729

     occupation numbers 
     1.0000   1.0000   1.0000   1.0000   1.0000   1.0000   1.0000   1.0000
     1.0000   1.0000   1.0000   1.0000   1.0000   1.0000   1.0000   1.0000
     1.0000   1.0000   1.0000   1.0000   1.0000   1.0000   1.0000   1.0000
     1.0000   1.0000   1.0000   1.0000   1.0000   1.0000   1.0000   1.0000
     0.0000

          k = 0.2222 0.3333 0.3333 ( 25687 PWs)   bands (ev):

   -19.0085 -19.0058 -19.0058 -19.0052  -9.2145  -9.2055  -9.2055  -9.2035
    -5.8726  -5.8486  -5.8486  -5.8375  -5.8375  -5.8278  -5.8178  -5.8064
    -5.8051  -5.8029  -5.8029  -5.7815   0.4251   0.4251   0.4327   0.4578
     0.7023   0.7023   0.7073   0.7215   0.7522   0.7628   0.7628   0.8013
     6.1597

     occupation numbers 
     1.0000   1.0000   1.0000   1.0000   1.0000   1.0000   1.0000   1.0000
     1.0000   1.0000   1.0000   1.0000   1.0000   1.0000   1.0000   1.0000
     1.0000   1.0000   1.0000   1.0000   1.0000   1.0000   1.0000   1.0000
     1.0000   1.0000   1.0000   1.0000   1.0000   1.0000   1.0000   1.0000
     0.0000

          k = 0.2222 0.3333 0.4444 ( 25708 PWs)   bands (ev):

   -19.0076 -19.0066 -19.0056 -19.0054  -9.2157  -9.2126  -9.2089  -9.2082
    -5.8626  -5.8528  -5.8353  -5.8345  -5.8292  -5.8256  -5.8185  -5.8083
    -5.7925  -5.7917  -5.7900  -5.7814   0.3850   0.3864   0.3878   0.3976
     0.6893   0.6977   0.7059   0.7171   0.7211   0.7364   0.7712   0.7841
     6.3617

     occupation numbers 
     1.0000   1.0000   1.0000   1.0000   1.0000   1.0000   1.0000   1.0000
     1.0000   1.0000   1.0000   1.0000   1.0000   1.0000   1.0000   1.0000
     1.0000   1.0000   1.0000   1.0000   1.0000   1.0000   1.0000   1.0000
     1.0000   1.0000   1.0000   1.0000   1.0000   1.0000   1.0000   1.0000
     0.0000

          k = 0.2222 0.4444 0.4444 ( 25705 PWs)   bands (ev):

   -19.0069 -19.0062 -19.0062 -19.0058  -9.2176  -9.2153  -9.2152  -9.2137
    -5.8530  -5.8432  -5.8432  -5.8339  -5.8149  -5.8142  -5.8142  -5.8069
    -5.7867  -5.7834  -5.7834  -5.7781   0.3452   0.3458   0.3458   0.3512
     0.6808   0.6818   0.6819   0.6909   0.7285   0.7469   0.7469   0.7629
     6.5361

     occupation numbers 
     1.0000   1.0000   1.0000   1.0000   1.0000   1.0000   1.0000   1.0000
     1.0000   1.0000   1.0000   1.0000   1.0000   1.0000   1.0000   1.0000
     1.0000   1.0000   1.0000   1.0000   1.0000   1.0000   1.0000   1.0000
     1.0000   1.0000   1.0000   1.0000   1.0000   1.0000   1.0000   1.0000
     0.0000

          k = 0.3333 0.3333 0.3333 ( 25695 PWs)   bands (ev):

   -19.0079 -19.0058 -19.0058 -19.0057  -9.2189  -9.2118  -9.2118  -9.2118
    -5.8414  -5.8414  -5.8414  -5.8237  -5.8237  -5.8237  -5.8089  -5.8089
    -5.7984  -5.7984  -5.7984  -5.7787   0.3716   0.3716   0.3716   0.3927
     0.6904   0.6904   0.6904   0.7222   0.7222   0.7222   0.7421   0.7421
     6.3502

     occupation numbers 
     1.0000   1.0000   1.0000   1.0000   1.0000   1.0000   1.0000   1.0000
     1.0000   1.0000   1.0000   1.0000   1.0000   1.0000   1.0000   1.0000
     1.0000   1.0000   1.0000   1.0000   1.0000   1.0000   1.0000   1.0000
     1.0000   1.0000   1.0000   1.0000   1.0000   1.0000   1.0000   1.0000
     0.0000

          k = 0.3333 0.3333 0.4444 ( 25685 PWs)   bands (ev):

   -19.0072 -19.0064 -19.0058 -19.0057  -9.2207  -9.2182  -9.2159  -9.2158
    -5.8360  -5.8360  -5.8232  -5.8232  -5.8199  -5.8188  -5.8136  -5.8102
    -5.7875  -5.7875  -5.7862  -5.7777   0.3314   0.3314   0.3328   0.3410
     0.6872   0.6872   0.6893   0.6983   0.6983   0.7055   0.7256   0.7325
     6.5095

     occupation numbers 
     1.0000   1.0000   1.0000   1.0000   1.0000   1.0000   1.0000   1.0000
     1.0000   1.0000   1.0000   1.0000   1.0000   1.0000   1.0000   1.0000
     1.0000   1.0000   1.0000   1.0000   1.0000   1.0000   1.0000   1.0000
     1.0000   1.0000   1.0000   1.0000   1.0000   1.0000   1.0000   1.0000
     0.0000

          k = 0.3333 0.4444 0.4444 ( 25685 PWs)   bands (ev):

   -19.0067 -19.0062 -19.0062 -19.0060  -9.2232  -9.2215  -9.2215  -9.2207
    -5.8285  -5.8229  -5.8229  -5.8167  -5.8133  -5.8131  -5.8131  -5.8081
    -5.7810  -5.7793  -5.7793  -5.7746   0.2921   0.2931   0.2931   0.2971
     0.6764   0.6764   0.6779   0.6845   0.6904   0.7013   0.7013   0.7101
     6.6427

     occupation numbers 
     1.0000   1.0000   1.0000   1.0000   1.0000   1.0000   1.0000   1.0000
     1.0000   1.0000   1.0000   1.0000   1.0000   1.0000   1.0000   1.0000
     1.0000   1.0000   1.0000   1.0000   1.0000   1.0000   1.0000   1.0000
     1.0000   1.0000   1.0000   1.0000   1.0000   1.0000   1.0000   1.0000
     0.0000

          k = 0.4444 0.4444 0.4444 ( 25675 PWs)   bands (ev):

   -19.0064 -19.0062 -19.0062 -19.0061  -9.2264  -9.2256  -9.2256  -9.2256
    -5.8134  -5.8134  -5.8134  -5.8115  -5.8115  -5.8115  -5.8097  -5.8097
    -5.7734  -5.7734  -5.7734  -5.7708   0.2549   0.2549   0.2549   0.2568
     0.6730   0.6730   0.6730   0.6770   0.6770   0.6770   0.6793   0.6793
     6.7367

     occupation numbers 
     1.0000   1.0000   1.0000   1.0000   1.0000   1.0000   1.0000   1.0000
     1.0000   1.0000   1.0000   1.0000   1.0000   1.0000   1.0000   1.0000
     1.0000   1.0000   1.0000   1.0000   1.0000   1.0000   1.0000   1.0000
     1.0000   1.0000   1.0000   1.0000   1.0000   1.0000   1.0000   1.0000
     0.0000

     highest occupied, lowest unoccupied level (ev):     0.9769    4.8421

!    total energy              =   -3179.61782816 Ry

     total all-electron energy =   -119228.281845 Ry
     estimated scf accuracy    <       0.00000008 Ry

     The total energy is the sum of the following terms:
     one-electron contribution =     -41.42276708 Ry
     hartree contribution      =      44.68776525 Ry
     xc contribution           =    -147.82270877 Ry
     ewald contribution        =    -197.50970197 Ry
     one-center paw contrib.   =   -2837.55041560 Ry
      -> PAW hartree energy AE =      25.66362071 Ry
      -> PAW hartree energy PS =     -25.55400297 Ry
      -> PAW xc energy AE      =    -383.53522865 Ry
      -> PAW xc energy PS      =      20.51934909 Ry
      -> total E_H with PAW    =      44.79738299 Ry
      -> total E_XC with PAW   =    -510.83858832 Ry

     convergence has been achieved in  15 iterations

     Forces acting on atoms (cartesian axes, Ry/au):

     atom    1 type  1   force =     0.00000000    0.00000000    0.00000000
     atom    2 type  1   force =     0.00000000    0.00000000    0.00000000
     atom    3 type  1   force =     0.00000000    0.00000000    0.00000000
     atom    4 type  1   force =     0.00000000    0.00000000    0.00000000
     atom    5 type  2   force =     0.00000000    0.00000000    0.00000000
     atom    6 type  2   force =     0.00000000    0.00000000    0.00000000
     atom    7 type  2   force =     0.00000000    0.00000000    0.00000000
     atom    8 type  2   force =     0.00000000    0.00000000    0.00000000
     The non-local contrib.  to forces
     atom    1 type  1   force =     0.00000000    0.00000000    0.00000000
     atom    2 type  1   force =     0.00000000    0.00000000    0.00000000
     atom    3 type  1   force =     0.00000000    0.00000000    0.00000000
     atom    4 type  1   force =     0.00000000    0.00000000    0.00000000
     atom    5 type  2   force =     0.00000000    0.00000000    0.00000000
     atom    6 type  2   force =     0.00000000    0.00000000    0.00000000
     atom    7 type  2   force =     0.00000000    0.00000000    0.00000000
     atom    8 type  2   force =     0.00000000    0.00000000    0.00000000
     The ionic contribution  to forces
     atom    1 type  1   force =    -0.00000000   -0.00000000   -0.00000000
     atom    2 type  1   force =    -0.00000000    0.00000000    0.00000000
     atom    3 type  1   force =     0.00000000   -0.00000000    0.00000000
     atom    4 type  1   force =     0.00000000    0.00000000   -0.00000000
     atom    5 type  2   force =     0.00000000   -0.00000000   -0.00000000
     atom    6 type  2   force =     0.00000000    0.00000000    0.00000000
     atom    7 type  2   force =    -0.00000000   -0.00000000    0.00000000
     atom    8 type  2   force =    -0.00000000    0.00000000   -0.00000000
     The local contribution  to forces
     atom    1 type  1   force =    -0.00000000   -0.00000000    0.00000000
     atom    2 type  1   force =    -0.00000000    0.00000000    0.00000000
     atom    3 type  1   force =     0.00000000   -0.00000000    0.00000000
     atom    4 type  1   force =     0.00000000    0.00000000    0.00000000
     atom    5 type  2   force =     0.00000000   -0.00000000   -0.00000000
     atom    6 type  2   force =     0.00000000    0.00000000    0.00000000
     atom    7 type  2   force =    -0.00000000   -0.00000000    0.00000000
     atom    8 type  2   force =    -0.00000000    0.00000000   -0.00000000
     The core correction contribution to forces
     atom    1 type  1   force =     0.00000000    0.00000000    0.00000000
     atom    2 type  1   force =     0.00000000   -0.00000000   -0.00000000
     atom    3 type  1   force =    -0.00000000    0.00000000    0.00000000
     atom    4 type  1   force =    -0.00000000   -0.00000000    0.00000000
     atom    5 type  2   force =    -0.00000000    0.00000000    0.00000000
     atom    6 type  2   force =     0.00000000   -0.00000000    0.00000000
     atom    7 type  2   force =     0.00000000   -0.00000000    0.00000000
     atom    8 type  2   force =     0.00000000    0.00000000    0.00000000
     The Hubbard contrib.    to forces
     atom    1 type  1   force =     0.00000000    0.00000000    0.00000000
     atom    2 type  1   force =     0.00000000    0.00000000    0.00000000
     atom    3 type  1   force =     0.00000000    0.00000000    0.00000000
     atom    4 type  1   force =     0.00000000    0.00000000    0.00000000
     atom    5 type  2   force =     0.00000000    0.00000000    0.00000000
     atom    6 type  2   force =     0.00000000    0.00000000    0.00000000
     atom    7 type  2   force =     0.00000000    0.00000000    0.00000000
     atom    8 type  2   force =     0.00000000    0.00000000    0.00000000
     The SCF correction term to forces
     atom    1 type  1   force =     0.00000000    0.00000000   -0.00000000
     atom    2 type  1   force =    -0.00000000   -0.00000000   -0.00000000
     atom    3 type  1   force =    -0.00000000    0.00000000    0.00000000
     atom    4 type  1   force =     0.00000000   -0.00000000   -0.00000000
     atom    5 type  2   force =    -0.00000000    0.00000000   -0.00000000
     atom    6 type  2   force =    -0.00000000   -0.00000000    0.00000000
     atom    7 type  2   force =    -0.00000000    0.00000000   -0.00000000
     atom    8 type  2   force =    -0.00000000   -0.00000000   -0.00000000

     Total force =     0.000000     Total SCF correction =     0.000000


     Computing stress (Cartesian axis) and pressure

          total   stress  (Ry/bohr**3)                   (kbar)     P=       -0.34
  -0.00000228   0.00000000   0.00000000           -0.34        0.00        0.00
   0.00000000  -0.00000228   0.00000000            0.00       -0.34        0.00
   0.00000000   0.00000000  -0.00000228            0.00        0.00       -0.34

     kinetic stress (kbar)   2520.85      0.00      0.00
                                0.00   2520.85      0.00
                                0.00      0.00   2520.85

     local   stress (kbar)  -1291.40      0.00      0.00
                                0.00  -1291.40      0.00
                                0.00      0.00  -1291.40

     nonloc. stress (kbar)   2086.27      0.00      0.00
                                0.00   2086.27      0.00
                                0.00      0.00   2086.27

     hartree stress (kbar)    668.91      0.00     -0.00
                                0.00    668.91     -0.00
                               -0.00     -0.00    668.91

     exc-cor stress (kbar)   3650.91     -0.00     -0.00
                               -0.00   3650.91     -0.00
                               -0.00     -0.00   3650.91

     corecor stress (kbar)  -4679.45     -0.00      0.00
                               -0.00  -4679.45      0.00
                                0.00      0.00  -4679.45

     ewald   stress (kbar)  -2956.43      0.00      0.00
                                0.00  -2956.43      0.00
                                0.00      0.00  -2956.43

     hubbard stress (kbar)      0.00      0.00      0.00
                                0.00      0.00      0.00
                                0.00      0.00      0.00

     DFT-D   stress (kbar)      0.00      0.00      0.00
                                0.00      0.00      0.00
                                0.00      0.00      0.00

     XDM     stress (kbar)      0.00      0.00      0.00
                                0.00      0.00      0.00
                                0.00      0.00      0.00

     dft-nl  stress (kbar)      0.00      0.00      0.00
                                0.00      0.00      0.00
                                0.00      0.00      0.00

     TS-vdW  stress (kbar)      0.00      0.00      0.00
                                0.00      0.00      0.00
                                0.00      0.00      0.00



     Writing output data file ./out/CsIhex.save/

     init_run     :     10.91s CPU     11.61s WALL (       1 calls)
     electrons    :    783.25s CPU    790.22s WALL (       1 calls)
     forces       :      8.99s CPU      9.09s WALL (       1 calls)
     stress       :     13.30s CPU     13.53s WALL (       1 calls)

     Called by init_run:
     wfcinit      :      9.16s CPU      9.30s WALL (       1 calls)
     wfcinit:atom :      0.03s CPU      0.03s WALL (      35 calls)
     wfcinit:wfcr :      8.82s CPU      8.93s WALL (      35 calls)
     potinit      :      0.73s CPU      0.86s WALL (       1 calls)
     hinit0       :      0.34s CPU      0.62s WALL (       1 calls)

     Called by electrons:
     c_bands      :    716.14s CPU    720.91s WALL (      16 calls)
     sum_band     :     53.36s CPU     54.54s WALL (      16 calls)
     v_of_rho     :      0.61s CPU      0.69s WALL (      16 calls)
     v_h          :      0.04s CPU      0.04s WALL (      16 calls)
     v_xc         :      0.69s CPU      0.76s WALL (      18 calls)
     newd         :      5.98s CPU      6.77s WALL (      16 calls)
     PAW_pot      :      7.73s CPU      7.82s WALL (      16 calls)
     mix_rho      :      0.23s CPU      0.24s WALL (      16 calls)

     Called by c_bands:
     init_us_2    :      5.58s CPU      5.67s WALL (    1225 calls)
     cegterg      :    702.02s CPU    706.00s WALL (     560 calls)

     Called by sum_band:
     sum_band:wei :      0.00s CPU      0.00s WALL (      16 calls)
     sum_band:loo :     48.70s CPU     49.06s WALL (      16 calls)
     sum_band:buf :      0.33s CPU      0.35s WALL (     560 calls)
     sum_band:ini :      2.60s CPU      2.62s WALL (     560 calls)
     sum_band:cal :     27.84s CPU     27.92s WALL (     560 calls)
     sum_band:bec :      0.27s CPU      0.27s WALL (     560 calls)
     addusdens    :      4.44s CPU      5.25s WALL (      16 calls)
     addusd:skk   :      0.01s CPU      0.01s WALL (      32 calls)
     addusd:dgemm :      2.08s CPU      2.86s WALL (      32 calls)
     addusd:qvan2 :      2.02s CPU      2.02s WALL (      32 calls)

     Called by *egterg:
     cdiaghg      :     12.55s CPU     12.64s WALL (    4425 calls)
     cegterg:over :     28.64s CPU     28.76s WALL (    3900 calls)
     cegterg:upda :     14.42s CPU     14.50s WALL (    3900 calls)
     cegterg:last :     41.38s CPU     41.50s WALL (    2699 calls)
     h_psi        :    456.34s CPU    459.49s WALL (    4495 calls)
     s_psi        :    149.10s CPU    149.54s WALL (    4495 calls)
     g_psi        :      0.68s CPU      0.69s WALL (    3900 calls)

     Called by h_psi:
     h_psi:calbec :    140.49s CPU    140.92s WALL (    4495 calls)
     vloc_psi     :    163.83s CPU    166.02s WALL (    4495 calls)
     add_vuspsi   :    151.10s CPU    151.64s WALL (    4495 calls)

     General routines
     calbec       :    177.03s CPU    177.56s WALL (    5230 calls)
     fft          :      0.60s CPU      0.61s WALL (     202 calls)
     ffts         :      0.03s CPU      0.03s WALL (      16 calls)
     fftw         :    171.18s CPU    173.45s WALL (  202430 calls)

     Parallel routines
     fft_scatt_xy :     13.75s CPU     13.94s WALL (  202648 calls)
     fft_scatt_yz :     30.86s CPU     31.30s WALL (  202648 calls)

     PAW routines
     PAW_pot      :      7.73s CPU      7.82s WALL (      16 calls)
     PAW_symme    :      0.19s CPU      0.19s WALL (      32 calls)

     PWSCF        :  13m38.65s CPU  13m53.48s WALL


   This run was terminated on:  11:57:41  15Jan2021            

=------------------------------------------------------------------------------=
   JOB DONE.
=------------------------------------------------------------------------------=
