
     Program PWSCF v.6.4.1 starts on 23Jan2021 at 11:42:25 

     This program is part of the open-source Quantum ESPRESSO suite
     for quantum simulation of materials; please cite
         "P. Giannozzi et al., J. Phys.:Condens. Matter 21 395502 (2009);
         "P. Giannozzi et al., J. Phys.:Condens. Matter 29 465901 (2017);
          URL http://www.quantum-espresso.org", 
     in publications or presentations arising from this work. More details at
     http://www.quantum-espresso.org/quote

     Parallel version (MPI & OpenMP), running on      48 processor cores
     Number of MPI processes:                24
     Threads/MPI process:                     2

     MPI processes distributed on     1 nodes
     R & G space division:  proc/nbgrp/npool/nimage =      24
     Waiting for input...
     Reading input from standard input

     Current dimensions of program PWSCF are:
     Max number of different atomic species (ntypx) = 10
     Max number of k-points (npk) =  40000
     Max angular momentum in pseudopotentials (lmaxx) =  3
               file Cs.rel-pbesol-spn-kjpaw_psl.1.0.0.UPF: wavefunction(s)  5S 6S renormalized
               file I.rel-pbesol-n-kjpaw_psl.1.0.0.UPF: wavefunction(s)  5S renormalized

     Subspace diagonalization in iterative solution of the eigenvalue problem:
     one sub-group per band group will be used
     scalapack distributed-memory algorithm (size of sub-group:  3*  3 procs)

 
     Parallelization info
     --------------------
     sticks:   dense  smooth     PW     G-vecs:    dense   smooth      PW
     Min          92      61     17                 3288     1789     275
     Max          93      62     18                 3295     1794     280
     Sum        2225    1481    429                78997    43003    6667
 

     Title: 
     CsIsalt                                                                    


     bravais-lattice index     =            1
     lattice parameter (alat)  =       8.8160  a.u.
     unit-cell volume          =     685.1896 (a.u.)^3
     number of atoms/cell      =            2
     number of atomic types    =            2
     number of electrons       =        16.00
     number of Kohn-Sham states=           16
     kinetic-energy cutoff     =      60.0000  Ry
     charge density cutoff     =     360.0000  Ry
     convergence threshold     =      1.0E-06
     mixing beta               =       0.5000
     number of iterations used =            8  plain     mixing
     Exchange-correlation      = SLA PW PSX PSC ( 1  4 10  8 0 0)
     Non magnetic calculation with spin-orbit


     celldm(1)=   8.815973  celldm(2)=   0.000000  celldm(3)=   0.000000
     celldm(4)=   0.000000  celldm(5)=   0.000000  celldm(6)=   0.000000

     crystal axes: (cart. coord. in units of alat)
               a(1) = (   1.000000   0.000000   0.000000 )  
               a(2) = (   0.000000   1.000000   0.000000 )  
               a(3) = (   0.000000   0.000000   1.000000 )  

     reciprocal axes: (cart. coord. in units 2 pi/alat)
               b(1) = (  1.000000  0.000000  0.000000 )  
               b(2) = (  0.000000  1.000000  0.000000 )  
               b(3) = (  0.000000  0.000000  1.000000 )  


     PseudoPot. # 1 for Cs read from file:
     /marconi_scratch/userexternal/cmalosso/degironcoli/pseudo/Cs.rel-pbesol-spn-kjpaw_psl.1.0.0.UPF
     MD5 check sum: 2adfb289dd462649b099d7edbec69378
     Pseudo is Projector augmented-wave + core cor, Zval =  9.0
     Generated using "atomic" code by A. Dal Corso v.6.4.1
     Shape of augmentation charge: PSQ
     Using radial grid of 1251 points, 15 beta functions with: 
                l(1) =   0
                l(2) =   0
                l(3) =   0
                l(4) =   1
                l(5) =   1
                l(6) =   1
                l(7) =   1
                l(8) =   2
                l(9) =   2
               l(10) =   2
               l(11) =   2
               l(12) =   3
               l(13) =   3
               l(14) =   3
               l(15) =   3
     Q(r) pseudized with 0 coefficients 


     PseudoPot. # 2 for I  read from file:
     /marconi_scratch/userexternal/cmalosso/degironcoli/pseudo/I.rel-pbesol-n-kjpaw_psl.1.0.0.UPF
     MD5 check sum: 4478c427bd443f303eca1937a163b991
     Pseudo is Projector augmented-wave + core cor, Zval =  7.0
     Generated using "atomic" code by A. Dal Corso v.6.3
     Shape of augmentation charge: PSQ
     Using radial grid of 1247 points, 10 beta functions with: 
                l(1) =   0
                l(2) =   0
                l(3) =   1
                l(4) =   1
                l(5) =   1
                l(6) =   1
                l(7) =   2
                l(8) =   2
                l(9) =   2
               l(10) =   2
     Q(r) pseudized with 0 coefficients 


     atomic species   valence    mass     pseudopotential
        Cs             9.00   132.90000     Cs( 1.00)
        I              7.00   126.90000     I ( 1.00)

     48 Sym. Ops., with inversion, found


                                    s                        frac. trans.

      isym =  1     identity                                     

 cryst.   s( 1) = (     1          0          0      )
                  (     0          1          0      )
                  (     0          0          1      )

 cart.    s( 1) = (  1.0000000  0.0000000  0.0000000 )
                  (  0.0000000  1.0000000  0.0000000 )
                  (  0.0000000  0.0000000  1.0000000 )


      isym =  2     180 deg rotation - cart. axis [0,0,1]        

 cryst.   s( 2) = (    -1          0          0      )
                  (     0         -1          0      )
                  (     0          0          1      )

 cart.    s( 2) = ( -1.0000000  0.0000000  0.0000000 )
                  (  0.0000000 -1.0000000  0.0000000 )
                  (  0.0000000  0.0000000  1.0000000 )


      isym =  3     180 deg rotation - cart. axis [0,1,0]        

 cryst.   s( 3) = (    -1          0          0      )
                  (     0          1          0      )
                  (     0          0         -1      )

 cart.    s( 3) = ( -1.0000000  0.0000000  0.0000000 )
                  (  0.0000000  1.0000000  0.0000000 )
                  (  0.0000000  0.0000000 -1.0000000 )


      isym =  4     180 deg rotation - cart. axis [1,0,0]        

 cryst.   s( 4) = (     1          0          0      )
                  (     0         -1          0      )
                  (     0          0         -1      )

 cart.    s( 4) = (  1.0000000  0.0000000  0.0000000 )
                  (  0.0000000 -1.0000000  0.0000000 )
                  (  0.0000000  0.0000000 -1.0000000 )


      isym =  5     180 deg rotation - cart. axis [1,1,0]        

 cryst.   s( 5) = (     0          1          0      )
                  (     1          0          0      )
                  (     0          0         -1      )

 cart.    s( 5) = (  0.0000000  1.0000000  0.0000000 )
                  (  1.0000000  0.0000000  0.0000000 )
                  (  0.0000000  0.0000000 -1.0000000 )


      isym =  6     180 deg rotation - cart. axis [1,-1,0]       

 cryst.   s( 6) = (     0         -1          0      )
                  (    -1          0          0      )
                  (     0          0         -1      )

 cart.    s( 6) = (  0.0000000 -1.0000000  0.0000000 )
                  ( -1.0000000  0.0000000  0.0000000 )
                  (  0.0000000  0.0000000 -1.0000000 )


      isym =  7      90 deg rotation - cart. axis [0,0,-1]       

 cryst.   s( 7) = (     0         -1          0      )
                  (     1          0          0      )
                  (     0          0          1      )

 cart.    s( 7) = (  0.0000000  1.0000000  0.0000000 )
                  ( -1.0000000  0.0000000  0.0000000 )
                  (  0.0000000  0.0000000  1.0000000 )


      isym =  8      90 deg rotation - cart. axis [0,0,1]        

 cryst.   s( 8) = (     0          1          0      )
                  (    -1          0          0      )
                  (     0          0          1      )

 cart.    s( 8) = (  0.0000000 -1.0000000  0.0000000 )
                  (  1.0000000  0.0000000  0.0000000 )
                  (  0.0000000  0.0000000  1.0000000 )


      isym =  9     180 deg rotation - cart. axis [1,0,1]        

 cryst.   s( 9) = (     0          0          1      )
                  (     0         -1          0      )
                  (     1          0          0      )

 cart.    s( 9) = (  0.0000000  0.0000000  1.0000000 )
                  (  0.0000000 -1.0000000  0.0000000 )
                  (  1.0000000  0.0000000  0.0000000 )


      isym = 10     180 deg rotation - cart. axis [-1,0,1]       

 cryst.   s(10) = (     0          0         -1      )
                  (     0         -1          0      )
                  (    -1          0          0      )

 cart.    s(10) = (  0.0000000  0.0000000 -1.0000000 )
                  (  0.0000000 -1.0000000  0.0000000 )
                  ( -1.0000000  0.0000000  0.0000000 )


      isym = 11      90 deg rotation - cart. axis [0,1,0]        

 cryst.   s(11) = (     0          0         -1      )
                  (     0          1          0      )
                  (     1          0          0      )

 cart.    s(11) = (  0.0000000  0.0000000  1.0000000 )
                  (  0.0000000  1.0000000  0.0000000 )
                  ( -1.0000000  0.0000000  0.0000000 )


      isym = 12      90 deg rotation - cart. axis [0,-1,0]       

 cryst.   s(12) = (     0          0          1      )
                  (     0          1          0      )
                  (    -1          0          0      )

 cart.    s(12) = (  0.0000000  0.0000000 -1.0000000 )
                  (  0.0000000  1.0000000  0.0000000 )
                  (  1.0000000  0.0000000  0.0000000 )


      isym = 13     180 deg rotation - cart. axis [0,1,1]        

 cryst.   s(13) = (    -1          0          0      )
                  (     0          0          1      )
                  (     0          1          0      )

 cart.    s(13) = ( -1.0000000  0.0000000  0.0000000 )
                  (  0.0000000  0.0000000  1.0000000 )
                  (  0.0000000  1.0000000  0.0000000 )


      isym = 14     180 deg rotation - cart. axis [0,1,-1]       

 cryst.   s(14) = (    -1          0          0      )
                  (     0          0         -1      )
                  (     0         -1          0      )

 cart.    s(14) = ( -1.0000000  0.0000000  0.0000000 )
                  (  0.0000000  0.0000000 -1.0000000 )
                  (  0.0000000 -1.0000000  0.0000000 )


      isym = 15      90 deg rotation - cart. axis [-1,0,0]       

 cryst.   s(15) = (     1          0          0      )
                  (     0          0         -1      )
                  (     0          1          0      )

 cart.    s(15) = (  1.0000000  0.0000000  0.0000000 )
                  (  0.0000000  0.0000000  1.0000000 )
                  (  0.0000000 -1.0000000  0.0000000 )


      isym = 16      90 deg rotation - cart. axis [1,0,0]        

 cryst.   s(16) = (     1          0          0      )
                  (     0          0          1      )
                  (     0         -1          0      )

 cart.    s(16) = (  1.0000000  0.0000000  0.0000000 )
                  (  0.0000000  0.0000000 -1.0000000 )
                  (  0.0000000  1.0000000  0.0000000 )


      isym = 17     120 deg rotation - cart. axis [-1,-1,-1]     

 cryst.   s(17) = (     0          0          1      )
                  (     1          0          0      )
                  (     0          1          0      )

 cart.    s(17) = (  0.0000000  1.0000000  0.0000000 )
                  (  0.0000000  0.0000000  1.0000000 )
                  (  1.0000000  0.0000000  0.0000000 )


      isym = 18     120 deg rotation - cart. axis [-1,1,1]       

 cryst.   s(18) = (     0          0         -1      )
                  (    -1          0          0      )
                  (     0          1          0      )

 cart.    s(18) = (  0.0000000 -1.0000000  0.0000000 )
                  (  0.0000000  0.0000000  1.0000000 )
                  ( -1.0000000  0.0000000  0.0000000 )


      isym = 19     120 deg rotation - cart. axis [1,1,-1]       

 cryst.   s(19) = (     0          0         -1      )
                  (     1          0          0      )
                  (     0         -1          0      )

 cart.    s(19) = (  0.0000000  1.0000000  0.0000000 )
                  (  0.0000000  0.0000000 -1.0000000 )
                  ( -1.0000000  0.0000000  0.0000000 )


      isym = 20     120 deg rotation - cart. axis [1,-1,1]       

 cryst.   s(20) = (     0          0          1      )
                  (    -1          0          0      )
                  (     0         -1          0      )

 cart.    s(20) = (  0.0000000 -1.0000000  0.0000000 )
                  (  0.0000000  0.0000000 -1.0000000 )
                  (  1.0000000  0.0000000  0.0000000 )


      isym = 21     120 deg rotation - cart. axis [1,1,1]        

 cryst.   s(21) = (     0          1          0      )
                  (     0          0          1      )
                  (     1          0          0      )

 cart.    s(21) = (  0.0000000  0.0000000  1.0000000 )
                  (  1.0000000  0.0000000  0.0000000 )
                  (  0.0000000  1.0000000  0.0000000 )


      isym = 22     120 deg rotation - cart. axis [-1,1,-1]      

 cryst.   s(22) = (     0         -1          0      )
                  (     0          0         -1      )
                  (     1          0          0      )

 cart.    s(22) = (  0.0000000  0.0000000  1.0000000 )
                  ( -1.0000000  0.0000000  0.0000000 )
                  (  0.0000000 -1.0000000  0.0000000 )


      isym = 23     120 deg rotation - cart. axis [1,-1,-1]      

 cryst.   s(23) = (     0         -1          0      )
                  (     0          0          1      )
                  (    -1          0          0      )

 cart.    s(23) = (  0.0000000  0.0000000 -1.0000000 )
                  ( -1.0000000  0.0000000  0.0000000 )
                  (  0.0000000  1.0000000  0.0000000 )


      isym = 24     120 deg rotation - cart. axis [-1,-1,1]      

 cryst.   s(24) = (     0          1          0      )
                  (     0          0         -1      )
                  (    -1          0          0      )

 cart.    s(24) = (  0.0000000  0.0000000 -1.0000000 )
                  (  1.0000000  0.0000000  0.0000000 )
                  (  0.0000000 -1.0000000  0.0000000 )


      isym = 25     inversion                                    

 cryst.   s(25) = (    -1          0          0      )
                  (     0         -1          0      )
                  (     0          0         -1      )

 cart.    s(25) = ( -1.0000000  0.0000000  0.0000000 )
                  (  0.0000000 -1.0000000  0.0000000 )
                  (  0.0000000  0.0000000 -1.0000000 )


      isym = 26     inv. 180 deg rotation - cart. axis [0,0,1]   

 cryst.   s(26) = (     1          0          0      )
                  (     0          1          0      )
                  (     0          0         -1      )

 cart.    s(26) = (  1.0000000  0.0000000  0.0000000 )
                  (  0.0000000  1.0000000  0.0000000 )
                  (  0.0000000  0.0000000 -1.0000000 )


      isym = 27     inv. 180 deg rotation - cart. axis [0,1,0]   

 cryst.   s(27) = (     1          0          0      )
                  (     0         -1          0      )
                  (     0          0          1      )

 cart.    s(27) = (  1.0000000  0.0000000  0.0000000 )
                  (  0.0000000 -1.0000000  0.0000000 )
                  (  0.0000000  0.0000000  1.0000000 )


      isym = 28     inv. 180 deg rotation - cart. axis [1,0,0]   

 cryst.   s(28) = (    -1          0          0      )
                  (     0          1          0      )
                  (     0          0          1      )

 cart.    s(28) = ( -1.0000000  0.0000000  0.0000000 )
                  (  0.0000000  1.0000000  0.0000000 )
                  (  0.0000000  0.0000000  1.0000000 )


      isym = 29     inv. 180 deg rotation - cart. axis [1,1,0]   

 cryst.   s(29) = (     0         -1          0      )
                  (    -1          0          0      )
                  (     0          0          1      )

 cart.    s(29) = (  0.0000000 -1.0000000  0.0000000 )
                  ( -1.0000000  0.0000000  0.0000000 )
                  (  0.0000000  0.0000000  1.0000000 )


      isym = 30     inv. 180 deg rotation - cart. axis [1,-1,0]  

 cryst.   s(30) = (     0          1          0      )
                  (     1          0          0      )
                  (     0          0          1      )

 cart.    s(30) = (  0.0000000  1.0000000  0.0000000 )
                  (  1.0000000  0.0000000  0.0000000 )
                  (  0.0000000  0.0000000  1.0000000 )


      isym = 31     inv.  90 deg rotation - cart. axis [0,0,-1]  

 cryst.   s(31) = (     0          1          0      )
                  (    -1          0          0      )
                  (     0          0         -1      )

 cart.    s(31) = (  0.0000000 -1.0000000  0.0000000 )
                  (  1.0000000  0.0000000  0.0000000 )
                  (  0.0000000  0.0000000 -1.0000000 )


      isym = 32     inv.  90 deg rotation - cart. axis [0,0,1]   

 cryst.   s(32) = (     0         -1          0      )
                  (     1          0          0      )
                  (     0          0         -1      )

 cart.    s(32) = (  0.0000000  1.0000000  0.0000000 )
                  ( -1.0000000  0.0000000  0.0000000 )
                  (  0.0000000  0.0000000 -1.0000000 )


      isym = 33     inv. 180 deg rotation - cart. axis [1,0,1]   

 cryst.   s(33) = (     0          0         -1      )
                  (     0          1          0      )
                  (    -1          0          0      )

 cart.    s(33) = (  0.0000000  0.0000000 -1.0000000 )
                  (  0.0000000  1.0000000  0.0000000 )
                  ( -1.0000000  0.0000000  0.0000000 )


      isym = 34     inv. 180 deg rotation - cart. axis [-1,0,1]  

 cryst.   s(34) = (     0          0          1      )
                  (     0          1          0      )
                  (     1          0          0      )

 cart.    s(34) = (  0.0000000  0.0000000  1.0000000 )
                  (  0.0000000  1.0000000  0.0000000 )
                  (  1.0000000  0.0000000  0.0000000 )


      isym = 35     inv.  90 deg rotation - cart. axis [0,1,0]   

 cryst.   s(35) = (     0          0          1      )
                  (     0         -1          0      )
                  (    -1          0          0      )

 cart.    s(35) = (  0.0000000  0.0000000 -1.0000000 )
                  (  0.0000000 -1.0000000  0.0000000 )
                  (  1.0000000  0.0000000  0.0000000 )


      isym = 36     inv.  90 deg rotation - cart. axis [0,-1,0]  

 cryst.   s(36) = (     0          0         -1      )
                  (     0         -1          0      )
                  (     1          0          0      )

 cart.    s(36) = (  0.0000000  0.0000000  1.0000000 )
                  (  0.0000000 -1.0000000  0.0000000 )
                  ( -1.0000000  0.0000000  0.0000000 )


      isym = 37     inv. 180 deg rotation - cart. axis [0,1,1]   

 cryst.   s(37) = (     1          0          0      )
                  (     0          0         -1      )
                  (     0         -1          0      )

 cart.    s(37) = (  1.0000000  0.0000000  0.0000000 )
                  (  0.0000000  0.0000000 -1.0000000 )
                  (  0.0000000 -1.0000000  0.0000000 )


      isym = 38     inv. 180 deg rotation - cart. axis [0,1,-1]  

 cryst.   s(38) = (     1          0          0      )
                  (     0          0          1      )
                  (     0          1          0      )

 cart.    s(38) = (  1.0000000  0.0000000  0.0000000 )
                  (  0.0000000  0.0000000  1.0000000 )
                  (  0.0000000  1.0000000  0.0000000 )


      isym = 39     inv.  90 deg rotation - cart. axis [-1,0,0]  

 cryst.   s(39) = (    -1          0          0      )
                  (     0          0          1      )
                  (     0         -1          0      )

 cart.    s(39) = ( -1.0000000  0.0000000  0.0000000 )
                  (  0.0000000  0.0000000 -1.0000000 )
                  (  0.0000000  1.0000000  0.0000000 )


      isym = 40     inv.  90 deg rotation - cart. axis [1,0,0]   

 cryst.   s(40) = (    -1          0          0      )
                  (     0          0         -1      )
                  (     0          1          0      )

 cart.    s(40) = ( -1.0000000  0.0000000  0.0000000 )
                  (  0.0000000  0.0000000  1.0000000 )
                  (  0.0000000 -1.0000000  0.0000000 )


      isym = 41     inv. 120 deg rotation - cart. axis [-1,-1,-1]

 cryst.   s(41) = (     0          0         -1      )
                  (    -1          0          0      )
                  (     0         -1          0      )

 cart.    s(41) = (  0.0000000 -1.0000000  0.0000000 )
                  (  0.0000000  0.0000000 -1.0000000 )
                  ( -1.0000000  0.0000000  0.0000000 )


      isym = 42     inv. 120 deg rotation - cart. axis [-1,1,1]  

 cryst.   s(42) = (     0          0          1      )
                  (     1          0          0      )
                  (     0         -1          0      )

 cart.    s(42) = (  0.0000000  1.0000000  0.0000000 )
                  (  0.0000000  0.0000000 -1.0000000 )
                  (  1.0000000  0.0000000  0.0000000 )


      isym = 43     inv. 120 deg rotation - cart. axis [1,1,-1]  

 cryst.   s(43) = (     0          0          1      )
                  (    -1          0          0      )
                  (     0          1          0      )

 cart.    s(43) = (  0.0000000 -1.0000000  0.0000000 )
                  (  0.0000000  0.0000000  1.0000000 )
                  (  1.0000000  0.0000000  0.0000000 )


      isym = 44     inv. 120 deg rotation - cart. axis [1,-1,1]  

 cryst.   s(44) = (     0          0         -1      )
                  (     1          0          0      )
                  (     0          1          0      )

 cart.    s(44) = (  0.0000000  1.0000000  0.0000000 )
                  (  0.0000000  0.0000000  1.0000000 )
                  ( -1.0000000  0.0000000  0.0000000 )


      isym = 45     inv. 120 deg rotation - cart. axis [1,1,1]   

 cryst.   s(45) = (     0         -1          0      )
                  (     0          0         -1      )
                  (    -1          0          0      )

 cart.    s(45) = (  0.0000000  0.0000000 -1.0000000 )
                  ( -1.0000000  0.0000000  0.0000000 )
                  (  0.0000000 -1.0000000  0.0000000 )


      isym = 46     inv. 120 deg rotation - cart. axis [-1,1,-1] 

 cryst.   s(46) = (     0          1          0      )
                  (     0          0          1      )
                  (    -1          0          0      )

 cart.    s(46) = (  0.0000000  0.0000000 -1.0000000 )
                  (  1.0000000  0.0000000  0.0000000 )
                  (  0.0000000  1.0000000  0.0000000 )


      isym = 47     inv. 120 deg rotation - cart. axis [1,-1,-1] 

 cryst.   s(47) = (     0          1          0      )
                  (     0          0         -1      )
                  (     1          0          0      )

 cart.    s(47) = (  0.0000000  0.0000000  1.0000000 )
                  (  1.0000000  0.0000000  0.0000000 )
                  (  0.0000000 -1.0000000  0.0000000 )


      isym = 48     inv. 120 deg rotation - cart. axis [-1,-1,1] 

 cryst.   s(48) = (     0         -1          0      )
                  (     0          0          1      )
                  (     1          0          0      )

 cart.    s(48) = (  0.0000000  0.0000000  1.0000000 )
                  ( -1.0000000  0.0000000  0.0000000 )
                  (  0.0000000  1.0000000  0.0000000 )


     double point group O_h (m-3m) 
     there are 16 classes and  6 irreducible representations
     the character table:

       E     -E    8C3   -8C3   3C2  6C4   -6C4   6C2' i     -i    8S6   -8S6 
                               -3C2              -6C2'                        
G_6+   2.00 -2.00  1.00 -1.00  0.00  1.41 -1.41  0.00  2.00 -2.00  1.00 -1.00
G_7+   2.00 -2.00  1.00 -1.00  0.00 -1.41  1.41  0.00  2.00 -2.00  1.00 -1.00
G_8+   4.00 -4.00 -1.00  1.00  0.00  0.00  0.00  0.00  4.00 -4.00 -1.00  1.00
G_6-   2.00 -2.00  1.00 -1.00  0.00  1.41 -1.41  0.00 -2.00  2.00 -1.00  1.00
G_7-   2.00 -2.00  1.00 -1.00  0.00 -1.41  1.41  0.00 -2.00  2.00 -1.00  1.00
G_8-   4.00 -4.00 -1.00  1.00  0.00  0.00  0.00  0.00 -4.00  4.00  1.00 -1.00

        3s_h 6S4   -6S4   6s_d
       -3s_h             -6s_d
G_6+   0.00  1.41 -1.41  0.00
G_7+   0.00 -1.41  1.41  0.00
G_8+   0.00  0.00  0.00  0.00
G_6-   0.00 -1.41  1.41  0.00
G_7-   0.00  1.41 -1.41  0.00
G_8-   0.00  0.00  0.00  0.00

     the symmetry operations in each class and the name of the first element:

     E             1
          identity                                               
     -E           -1
          identity E                                             
     8C3          17   19   20   18   24   21   22   23
          120 deg rotation - cart. axis [-1,-1,-1]               
     -8C3        -17  -19  -20  -18  -24  -21  -22  -23
          120 deg rotation - cart. axis [-1,-1,-1] E             
      3C2 -3C2     2   -2    4   -4    3   -3
          180 deg rotation - cart. axis [0,0,1]                  
     6C4           7    8   15   16   12   11
           90 deg rotation - cart. axis [0,0,-1]                 
     -6C4         -7   -8  -15  -16  -12  -11
           90 deg rotation - cart. axis [0,0,-1] E               
      6C2'-6C2'    5   -5   -6    6   14  -13  -14   13   10   -9  -10    9
          180 deg rotation - cart. axis [1,1,0]                  
     i            25
          inversion                                              
     -i          -25
          inversion E                                            
     8S6          41   43   44   42   48   45   46   47
          inv. 120 deg rotation - cart. axis [-1,-1,-1]          
     -8S6        -41  -43  -44  -42  -48  -45  -46  -47
          inv. 120 deg rotation - cart. axis [-1,-1,-1] E        
      3s_h-3s_h   26  -26   28  -28   27  -27
          inv. 180 deg rotation - cart. axis [0,0,1]             
     6S4          31   32   39   40   36   35
          inv.  90 deg rotation - cart. axis [0,0,-1]            
     -6S4        -31  -32  -39  -40  -36  -35
          inv.  90 deg rotation - cart. axis [0,0,-1] E          
      6s_d-6s_d   29  -29  -30   30   38  -37  -38   37   34  -33  -34   33
          inv. 180 deg rotation - cart. axis [1,1,0]             

   Cartesian axes

     site n.     atom                  positions (alat units)
         1           Cs  tau(   1) = (   0.0000000   0.0000000   0.0000000  )
         2           I   tau(   2) = (   0.5000000   0.5000000   0.5000000  )

   Crystallographic axes

     site n.     atom                  positions (cryst. coord.)
         1           Cs  tau(   1) = (  0.0000000  0.0000000  0.0000000  )
         2           I   tau(   2) = (  0.5000000  0.5000000  0.5000000  )

     number of k points=    56
                       cart. coord. in units 2pi/alat
        k(    1) = (   0.0416667   0.0416667   0.0416667), wk =   0.0046296
        k(    2) = (   0.0416667   0.0416667   0.1250000), wk =   0.0138889
        k(    3) = (   0.0416667   0.0416667   0.2083333), wk =   0.0138889
        k(    4) = (   0.0416667   0.0416667   0.2916667), wk =   0.0138889
        k(    5) = (   0.0416667   0.0416667   0.3750000), wk =   0.0138889
        k(    6) = (   0.0416667   0.0416667   0.4583333), wk =   0.0138889
        k(    7) = (   0.0416667   0.1250000   0.1250000), wk =   0.0138889
        k(    8) = (   0.0416667   0.1250000   0.2083333), wk =   0.0277778
        k(    9) = (   0.0416667   0.1250000   0.2916667), wk =   0.0277778
        k(   10) = (   0.0416667   0.1250000   0.3750000), wk =   0.0277778
        k(   11) = (   0.0416667   0.1250000   0.4583333), wk =   0.0277778
        k(   12) = (   0.0416667   0.2083333   0.2083333), wk =   0.0138889
        k(   13) = (   0.0416667   0.2083333   0.2916667), wk =   0.0277778
        k(   14) = (   0.0416667   0.2083333   0.3750000), wk =   0.0277778
        k(   15) = (   0.0416667   0.2083333   0.4583333), wk =   0.0277778
        k(   16) = (   0.0416667   0.2916667   0.2916667), wk =   0.0138889
        k(   17) = (   0.0416667   0.2916667   0.3750000), wk =   0.0277778
        k(   18) = (   0.0416667   0.2916667   0.4583333), wk =   0.0277778
        k(   19) = (   0.0416667   0.3750000   0.3750000), wk =   0.0138889
        k(   20) = (   0.0416667   0.3750000   0.4583333), wk =   0.0277778
        k(   21) = (   0.0416667   0.4583333   0.4583333), wk =   0.0138889
        k(   22) = (   0.1250000   0.1250000   0.1250000), wk =   0.0046296
        k(   23) = (   0.1250000   0.1250000   0.2083333), wk =   0.0138889
        k(   24) = (   0.1250000   0.1250000   0.2916667), wk =   0.0138889
        k(   25) = (   0.1250000   0.1250000   0.3750000), wk =   0.0138889
        k(   26) = (   0.1250000   0.1250000   0.4583333), wk =   0.0138889
        k(   27) = (   0.1250000   0.2083333   0.2083333), wk =   0.0138889
        k(   28) = (   0.1250000   0.2083333   0.2916667), wk =   0.0277778
        k(   29) = (   0.1250000   0.2083333   0.3750000), wk =   0.0277778
        k(   30) = (   0.1250000   0.2083333   0.4583333), wk =   0.0277778
        k(   31) = (   0.1250000   0.2916667   0.2916667), wk =   0.0138889
        k(   32) = (   0.1250000   0.2916667   0.3750000), wk =   0.0277778
        k(   33) = (   0.1250000   0.2916667   0.4583333), wk =   0.0277778
        k(   34) = (   0.1250000   0.3750000   0.3750000), wk =   0.0138889
        k(   35) = (   0.1250000   0.3750000   0.4583333), wk =   0.0277778
        k(   36) = (   0.1250000   0.4583333   0.4583333), wk =   0.0138889
        k(   37) = (   0.2083333   0.2083333   0.2083333), wk =   0.0046296
        k(   38) = (   0.2083333   0.2083333   0.2916667), wk =   0.0138889
        k(   39) = (   0.2083333   0.2083333   0.3750000), wk =   0.0138889
        k(   40) = (   0.2083333   0.2083333   0.4583333), wk =   0.0138889
        k(   41) = (   0.2083333   0.2916667   0.2916667), wk =   0.0138889
        k(   42) = (   0.2083333   0.2916667   0.3750000), wk =   0.0277778
        k(   43) = (   0.2083333   0.2916667   0.4583333), wk =   0.0277778
        k(   44) = (   0.2083333   0.3750000   0.3750000), wk =   0.0138889
        k(   45) = (   0.2083333   0.3750000   0.4583333), wk =   0.0277778
        k(   46) = (   0.2083333   0.4583333   0.4583333), wk =   0.0138889
        k(   47) = (   0.2916667   0.2916667   0.2916667), wk =   0.0046296
        k(   48) = (   0.2916667   0.2916667   0.3750000), wk =   0.0138889
        k(   49) = (   0.2916667   0.2916667   0.4583333), wk =   0.0138889
        k(   50) = (   0.2916667   0.3750000   0.3750000), wk =   0.0138889
        k(   51) = (   0.2916667   0.3750000   0.4583333), wk =   0.0277778
        k(   52) = (   0.2916667   0.4583333   0.4583333), wk =   0.0138889
        k(   53) = (   0.3750000   0.3750000   0.3750000), wk =   0.0046296
        k(   54) = (   0.3750000   0.3750000   0.4583333), wk =   0.0138889
        k(   55) = (   0.3750000   0.4583333   0.4583333), wk =   0.0138889
        k(   56) = (   0.4583333   0.4583333   0.4583333), wk =   0.0046296

                       cryst. coord.
        k(    1) = (   0.0416667   0.0416667   0.0416667), wk =   0.0046296
        k(    2) = (   0.0416667   0.0416667   0.1250000), wk =   0.0138889
        k(    3) = (   0.0416667   0.0416667   0.2083333), wk =   0.0138889
        k(    4) = (   0.0416667   0.0416667   0.2916667), wk =   0.0138889
        k(    5) = (   0.0416667   0.0416667   0.3750000), wk =   0.0138889
        k(    6) = (   0.0416667   0.0416667   0.4583333), wk =   0.0138889
        k(    7) = (   0.0416667   0.1250000   0.1250000), wk =   0.0138889
        k(    8) = (   0.0416667   0.1250000   0.2083333), wk =   0.0277778
        k(    9) = (   0.0416667   0.1250000   0.2916667), wk =   0.0277778
        k(   10) = (   0.0416667   0.1250000   0.3750000), wk =   0.0277778
        k(   11) = (   0.0416667   0.1250000   0.4583333), wk =   0.0277778
        k(   12) = (   0.0416667   0.2083333   0.2083333), wk =   0.0138889
        k(   13) = (   0.0416667   0.2083333   0.2916667), wk =   0.0277778
        k(   14) = (   0.0416667   0.2083333   0.3750000), wk =   0.0277778
        k(   15) = (   0.0416667   0.2083333   0.4583333), wk =   0.0277778
        k(   16) = (   0.0416667   0.2916667   0.2916667), wk =   0.0138889
        k(   17) = (   0.0416667   0.2916667   0.3750000), wk =   0.0277778
        k(   18) = (   0.0416667   0.2916667   0.4583333), wk =   0.0277778
        k(   19) = (   0.0416667   0.3750000   0.3750000), wk =   0.0138889
        k(   20) = (   0.0416667   0.3750000   0.4583333), wk =   0.0277778
        k(   21) = (   0.0416667   0.4583333   0.4583333), wk =   0.0138889
        k(   22) = (   0.1250000   0.1250000   0.1250000), wk =   0.0046296
        k(   23) = (   0.1250000   0.1250000   0.2083333), wk =   0.0138889
        k(   24) = (   0.1250000   0.1250000   0.2916667), wk =   0.0138889
        k(   25) = (   0.1250000   0.1250000   0.3750000), wk =   0.0138889
        k(   26) = (   0.1250000   0.1250000   0.4583333), wk =   0.0138889
        k(   27) = (   0.1250000   0.2083333   0.2083333), wk =   0.0138889
        k(   28) = (   0.1250000   0.2083333   0.2916667), wk =   0.0277778
        k(   29) = (   0.1250000   0.2083333   0.3750000), wk =   0.0277778
        k(   30) = (   0.1250000   0.2083333   0.4583333), wk =   0.0277778
        k(   31) = (   0.1250000   0.2916667   0.2916667), wk =   0.0138889
        k(   32) = (   0.1250000   0.2916667   0.3750000), wk =   0.0277778
        k(   33) = (   0.1250000   0.2916667   0.4583333), wk =   0.0277778
        k(   34) = (   0.1250000   0.3750000   0.3750000), wk =   0.0138889
        k(   35) = (   0.1250000   0.3750000   0.4583333), wk =   0.0277778
        k(   36) = (   0.1250000   0.4583333   0.4583333), wk =   0.0138889
        k(   37) = (   0.2083333   0.2083333   0.2083333), wk =   0.0046296
        k(   38) = (   0.2083333   0.2083333   0.2916667), wk =   0.0138889
        k(   39) = (   0.2083333   0.2083333   0.3750000), wk =   0.0138889
        k(   40) = (   0.2083333   0.2083333   0.4583333), wk =   0.0138889
        k(   41) = (   0.2083333   0.2916667   0.2916667), wk =   0.0138889
        k(   42) = (   0.2083333   0.2916667   0.3750000), wk =   0.0277778
        k(   43) = (   0.2083333   0.2916667   0.4583333), wk =   0.0277778
        k(   44) = (   0.2083333   0.3750000   0.3750000), wk =   0.0138889
        k(   45) = (   0.2083333   0.3750000   0.4583333), wk =   0.0277778
        k(   46) = (   0.2083333   0.4583333   0.4583333), wk =   0.0138889
        k(   47) = (   0.2916667   0.2916667   0.2916667), wk =   0.0046296
        k(   48) = (   0.2916667   0.2916667   0.3750000), wk =   0.0138889
        k(   49) = (   0.2916667   0.2916667   0.4583333), wk =   0.0138889
        k(   50) = (   0.2916667   0.3750000   0.3750000), wk =   0.0138889
        k(   51) = (   0.2916667   0.3750000   0.4583333), wk =   0.0277778
        k(   52) = (   0.2916667   0.4583333   0.4583333), wk =   0.0138889
        k(   53) = (   0.3750000   0.3750000   0.3750000), wk =   0.0046296
        k(   54) = (   0.3750000   0.3750000   0.4583333), wk =   0.0138889
        k(   55) = (   0.3750000   0.4583333   0.4583333), wk =   0.0138889
        k(   56) = (   0.4583333   0.4583333   0.4583333), wk =   0.0046296

     Dense  grid:    78997 G-vectors     FFT dimensions: (  54,  54,  54)

     Smooth grid:    43003 G-vectors     FFT dimensions: (  45,  45,  45)

     Dynamical RAM for                 wfc:       0.11 MB

     Dynamical RAM for     wfc (w. buffer):       6.23 MB

     Dynamical RAM for           str. fact:       0.10 MB

     Dynamical RAM for           local pot:       0.00 MB

     Dynamical RAM for          nlocal pot:       0.33 MB

     Dynamical RAM for                qrad:      34.17 MB

     Dynamical RAM for          rho,v,vnew:       1.40 MB

     Dynamical RAM for               rhoin:       0.47 MB

     Dynamical RAM for            rho*nmix:       3.21 MB

     Dynamical RAM for           G-vectors:       0.20 MB

     Dynamical RAM for          h,s,v(r/c):       0.02 MB

     Dynamical RAM for          <psi|beta>:       0.05 MB

     Dynamical RAM for                 psi:       0.44 MB

     Dynamical RAM for                hpsi:       0.44 MB

     Dynamical RAM for                spsi:       0.44 MB

     Dynamical RAM for      wfcinit/wfcrot:       0.19 MB

     Dynamical RAM for           addusdens:     102.61 MB

     Dynamical RAM for          addusforce:     102.88 MB

     Dynamical RAM for         addusstress:     104.07 MB

     Estimated static dynamical RAM per process >      46.81 MB

     Estimated max dynamical RAM per process >     150.88 MB

     Estimated total dynamical RAM >       3.54 GB

     Initial potential from superposition of free atoms

     starting charge   15.96155, renormalised to   16.00000
     Starting wfcs are   18 randomized atomic wfcs
     Checking if some PAW data can be deallocated... 
       PAW data deallocated on   12 nodes for type:  1
       PAW data deallocated on   12 nodes for type:  2

     total cpu time spent up to now is       20.4 secs

     Self-consistent Calculation

     iteration #  1     ecut=    60.00 Ry     beta= 0.50
     Davidson diagonalization with overlap
     ethr =  1.00E-02,  avg # of iterations =  1.0

     Threshold (ethr) on eigenvalues was too large:
     Diagonalizing with lowered threshold

     Davidson diagonalization with overlap
     ethr =  3.40E-04,  avg # of iterations =  4.0

     total cpu time spent up to now is      126.3 secs

     total energy              =    -785.05892229 Ry
     Harris-Foulkes estimate   =    -785.07259196 Ry
     estimated scf accuracy    <       0.02548162 Ry

     iteration #  2     ecut=    60.00 Ry     beta= 0.50
     Davidson diagonalization with overlap
     ethr =  1.59E-04,  avg # of iterations =  2.0

     total cpu time spent up to now is      182.8 secs

     total energy              =    -785.06393780 Ry
     Harris-Foulkes estimate   =    -785.06381067 Ry
     estimated scf accuracy    <       0.00183163 Ry

     iteration #  3     ecut=    60.00 Ry     beta= 0.50
     Davidson diagonalization with overlap
     ethr =  1.14E-05,  avg # of iterations =  3.4

     total cpu time spent up to now is      238.5 secs

     total energy              =    -785.06459540 Ry
     Harris-Foulkes estimate   =    -785.06449637 Ry
     estimated scf accuracy    <       0.00032923 Ry

     iteration #  4     ecut=    60.00 Ry     beta= 0.50
     Davidson diagonalization with overlap
     ethr =  2.06E-06,  avg # of iterations =  2.9

     total cpu time spent up to now is      304.2 secs

     total energy              =    -785.06466507 Ry
     Harris-Foulkes estimate   =    -785.06464941 Ry
     estimated scf accuracy    <       0.00001662 Ry

     iteration #  5     ecut=    60.00 Ry     beta= 0.50
     Davidson diagonalization with overlap
     ethr =  1.04E-07,  avg # of iterations =  3.9

     total cpu time spent up to now is      365.4 secs

     total energy              =    -785.06467604 Ry
     Harris-Foulkes estimate   =    -785.06467574 Ry
     estimated scf accuracy    <       0.00000126 Ry

     iteration #  6     ecut=    60.00 Ry     beta= 0.50
     Davidson diagonalization with overlap
     ethr =  7.89E-09,  avg # of iterations =  2.9

     total cpu time spent up to now is      432.3 secs

     End of self-consistent calculation

          k = 0.0417 0.0417 0.0417 (  5395 PWs)   bands (ev):

   -17.9063 -17.9063  -8.0842  -8.0842  -5.7661  -5.7661  -4.1170  -4.1170
    -4.1097  -4.1097   1.6539   1.6539   2.6707   2.6707   2.7079   2.7079

     occupation numbers 
     1.0000   1.0000   1.0000   1.0000   1.0000   1.0000   1.0000   1.0000
     1.0000   1.0000   1.0000   1.0000   1.0000   1.0000   1.0000   1.0000

          k = 0.0417 0.0417 0.1250 (  5377 PWs)   bands (ev):

   -17.9039 -17.9039  -8.0838  -8.0838  -5.7671  -5.7671  -4.1307  -4.1307
    -4.1035  -4.1035   1.5807   1.5807   2.5161   2.5161   2.6857   2.6857

     occupation numbers 
     1.0000   1.0000   1.0000   1.0000   1.0000   1.0000   1.0000   1.0000
     1.0000   1.0000   1.0000   1.0000   1.0000   1.0000   1.0000   1.0000

          k = 0.0417 0.0417 0.2083 (  5376 PWs)   bands (ev):

   -17.8997 -17.8997  -8.0834  -8.0834  -5.7684  -5.7684  -4.1534  -4.1534
    -4.0923  -4.0923   1.4267   1.4267   2.3220   2.3220   2.6589   2.6589

     occupation numbers 
     1.0000   1.0000   1.0000   1.0000   1.0000   1.0000   1.0000   1.0000
     1.0000   1.0000   1.0000   1.0000   1.0000   1.0000   1.0000   1.0000

          k = 0.0417 0.0417 0.2917 (  5358 PWs)   bands (ev):

   -17.8949 -17.8949  -8.0835  -8.0835  -5.7696  -5.7696  -4.1771  -4.1771
    -4.0792  -4.0792   1.2203   1.2203   2.1843   2.1843   2.6275   2.6275

     occupation numbers 
     1.0000   1.0000   1.0000   1.0000   1.0000   1.0000   1.0000   1.0000
     1.0000   1.0000   1.0000   1.0000   1.0000   1.0000   1.0000   1.0000

          k = 0.0417 0.0417 0.3750 (  5373 PWs)   bands (ev):

   -17.8907 -17.8907  -8.0841  -8.0841  -5.7700  -5.7700  -4.1955  -4.1955
    -4.0679  -4.0679   1.0326   1.0326   2.1070   2.1070   2.5994   2.5994

     occupation numbers 
     1.0000   1.0000   1.0000   1.0000   1.0000   1.0000   1.0000   1.0000
     1.0000   1.0000   1.0000   1.0000   1.0000   1.0000   1.0000   1.0000

          k = 0.0417 0.0417 0.4583 (  5376 PWs)   bands (ev):

   -17.8883 -17.8883  -8.0847  -8.0847  -5.7701  -5.7701  -4.2053  -4.2053
    -4.0614  -4.0614   0.9245   0.9245   2.0725   2.0725   2.5828   2.5828

     occupation numbers 
     1.0000   1.0000   1.0000   1.0000   1.0000   1.0000   1.0000   1.0000
     1.0000   1.0000   1.0000   1.0000   1.0000   1.0000   1.0000   1.0000

          k = 0.0417 0.1250 0.1250 (  5370 PWs)   bands (ev):

   -17.9015 -17.9015  -8.0810  -8.0810  -5.7703  -5.7703  -4.1443  -4.1443
    -4.1025  -4.1025   1.5263   1.5263   2.4239   2.4239   2.6289   2.6289

     occupation numbers 
     1.0000   1.0000   1.0000   1.0000   1.0000   1.0000   1.0000   1.0000
     1.0000   1.0000   1.0000   1.0000   1.0000   1.0000   1.0000   1.0000

          k = 0.0417 0.1250 0.2083 (  5366 PWs)   bands (ev):

   -17.8974 -17.8974  -8.0766  -8.0766  -5.7755  -5.7755  -4.1693  -4.1693
    -4.0979  -4.0979   1.4068   1.4068   2.2666   2.2666   2.5967   2.5967

     occupation numbers 
     1.0000   1.0000   1.0000   1.0000   1.0000   1.0000   1.0000   1.0000
     1.0000   1.0000   1.0000   1.0000   1.0000   1.0000   1.0000   1.0000

          k = 0.0417 0.1250 0.2917 (  5367 PWs)   bands (ev):

   -17.8926 -17.8926  -8.0720  -8.0720  -5.7810  -5.7810  -4.1966  -4.1966
    -4.0919  -4.0919   1.2381   1.2381   2.1440   2.1440   2.5758   2.5758

     occupation numbers 
     1.0000   1.0000   1.0000   1.0000   1.0000   1.0000   1.0000   1.0000
     1.0000   1.0000   1.0000   1.0000   1.0000   1.0000   1.0000   1.0000

          k = 0.0417 0.1250 0.3750 (  5371 PWs)   bands (ev):

   -17.8885 -17.8885  -8.0686  -8.0686  -5.7853  -5.7853  -4.2185  -4.2185
    -4.0868  -4.0868   1.0786   1.0786   2.0753   2.0753   2.5596   2.5596

     occupation numbers 
     1.0000   1.0000   1.0000   1.0000   1.0000   1.0000   1.0000   1.0000
     1.0000   1.0000   1.0000   1.0000   1.0000   1.0000   1.0000   1.0000

          k = 0.0417 0.1250 0.4583 (  5370 PWs)   bands (ev):

   -17.8861 -17.8861  -8.0668  -8.0668  -5.7875  -5.7875  -4.2303  -4.2303
    -4.0839  -4.0839   0.9849   0.9849   2.0455   2.0455   2.5502   2.5502

     occupation numbers 
     1.0000   1.0000   1.0000   1.0000   1.0000   1.0000   1.0000   1.0000
     1.0000   1.0000   1.0000   1.0000   1.0000   1.0000   1.0000   1.0000

          k = 0.0417 0.2083 0.2083 (  5370 PWs)   bands (ev):

   -17.8934 -17.8934  -8.0651  -8.0651  -5.7875  -5.7875  -4.1996  -4.1996
    -4.1034  -4.1034   1.3512   1.3512   2.1599   2.1599   2.5492   2.5492

     occupation numbers 
     1.0000   1.0000   1.0000   1.0000   1.0000   1.0000   1.0000   1.0000
     1.0000   1.0000   1.0000   1.0000   1.0000   1.0000   1.0000   1.0000

          k = 0.0417 0.2083 0.2917 (  5368 PWs)   bands (ev):

   -17.8887 -17.8887  -8.0521  -8.0521  -5.8010  -5.8010  -4.2354  -4.2354
    -4.1073  -4.1073   1.2541   1.2541   2.0626   2.0626   2.5327   2.5327

     occupation numbers 
     1.0000   1.0000   1.0000   1.0000   1.0000   1.0000   1.0000   1.0000
     1.0000   1.0000   1.0000   1.0000   1.0000   1.0000   1.0000   1.0000

          k = 0.0417 0.2083 0.3750 (  5380 PWs)   bands (ev):

   -17.8846 -17.8846  -8.0412  -8.0412  -5.8123  -5.8123  -4.2658  -4.2658
    -4.1099  -4.1099   1.1485   1.1485   2.0082   2.0082   2.5293   2.5293

     occupation numbers 
     1.0000   1.0000   1.0000   1.0000   1.0000   1.0000   1.0000   1.0000
     1.0000   1.0000   1.0000   1.0000   1.0000   1.0000   1.0000   1.0000

          k = 0.0417 0.2083 0.4583 (  5378 PWs)   bands (ev):

   -17.8822 -17.8822  -8.0350  -8.0350  -5.8185  -5.8185  -4.2830  -4.2830
    -4.1113  -4.1113   1.0819   1.0819   1.9866   1.9866   2.5293   2.5293

     occupation numbers 
     1.0000   1.0000   1.0000   1.0000   1.0000   1.0000   1.0000   1.0000
     1.0000   1.0000   1.0000   1.0000   1.0000   1.0000   1.0000   1.0000

          k = 0.0417 0.2917 0.2917 (  5390 PWs)   bands (ev):

   -17.8841 -17.8841  -8.0290  -8.0290  -5.8242  -5.8242  -4.2839  -4.2839
    -4.1193  -4.1193   1.2438   1.2438   1.9803   1.9803   2.5240   2.5240

     occupation numbers 
     1.0000   1.0000   1.0000   1.0000   1.0000   1.0000   1.0000   1.0000
     1.0000   1.0000   1.0000   1.0000   1.0000   1.0000   1.0000   1.0000

          k = 0.0417 0.2917 0.3750 (  5373 PWs)   bands (ev):

   -17.8801 -17.8801  -8.0088  -8.0088  -5.8443  -5.8443  -4.3268  -4.3268
    -4.1275  -4.1275   1.2075   1.2075   1.9351   1.9351   2.5332   2.5332

     occupation numbers 
     1.0000   1.0000   1.0000   1.0000   1.0000   1.0000   1.0000   1.0000
     1.0000   1.0000   1.0000   1.0000   1.0000   1.0000   1.0000   1.0000

          k = 0.0417 0.2917 0.4583 (  5372 PWs)   bands (ev):

   -17.8778 -17.8778  -7.9971  -7.9971  -5.8558  -5.8558  -4.3516  -4.3516
    -4.1316  -4.1316   1.1762   1.1762   1.9208   1.9208   2.5426   2.5426

     occupation numbers 
     1.0000   1.0000   1.0000   1.0000   1.0000   1.0000   1.0000   1.0000
     1.0000   1.0000   1.0000   1.0000   1.0000   1.0000   1.0000   1.0000

          k = 0.0417 0.3750 0.3750 (  5374 PWs)   bands (ev):

   -17.8762 -17.8762  -7.9801  -7.9801  -5.8728  -5.8728  -4.3815  -4.3815
    -4.1387  -4.1387   1.2321   1.2321   1.8954   1.8954   2.5555   2.5555

     occupation numbers 
     1.0000   1.0000   1.0000   1.0000   1.0000   1.0000   1.0000   1.0000
     1.0000   1.0000   1.0000   1.0000   1.0000   1.0000   1.0000   1.0000

          k = 0.0417 0.3750 0.4583 (  5369 PWs)   bands (ev):

   -17.8740 -17.8740  -7.9632  -7.9632  -5.8895  -5.8895  -4.4133  -4.4133
    -4.1443  -4.1443   1.2329   1.2329   1.8867   1.8867   2.5737   2.5737

     occupation numbers 
     1.0000   1.0000   1.0000   1.0000   1.0000   1.0000   1.0000   1.0000
     1.0000   1.0000   1.0000   1.0000   1.0000   1.0000   1.0000   1.0000

          k = 0.0417 0.4583 0.4583 (  5366 PWs)   bands (ev):

   -17.8717 -17.8717  -7.9430  -7.9430  -5.9095  -5.9095  -4.4491  -4.4491
    -4.1505  -4.1505   1.2511   1.2511   1.8830   1.8830   2.5974   2.5974

     occupation numbers 
     1.0000   1.0000   1.0000   1.0000   1.0000   1.0000   1.0000   1.0000
     1.0000   1.0000   1.0000   1.0000   1.0000   1.0000   1.0000   1.0000

          k = 0.1250 0.1250 0.1250 (  5386 PWs)   bands (ev):

   -17.8992 -17.8992  -8.0765  -8.0765  -5.7750  -5.7750  -4.1547  -4.1547
    -4.1088  -4.1088   1.4871   1.4871   2.3700   2.3700   2.5464   2.5464

     occupation numbers 
     1.0000   1.0000   1.0000   1.0000   1.0000   1.0000   1.0000   1.0000
     1.0000   1.0000   1.0000   1.0000   1.0000   1.0000   1.0000   1.0000

          k = 0.1250 0.1250 0.2083 (  5368 PWs)   bands (ev):

   -17.8951 -17.8951  -8.0688  -8.0688  -5.7830  -5.7830  -4.1787  -4.1787
    -4.1121  -4.1121   1.3943   1.3943   2.2373   2.2373   2.5049   2.5049

     occupation numbers 
     1.0000   1.0000   1.0000   1.0000   1.0000   1.0000   1.0000   1.0000
     1.0000   1.0000   1.0000   1.0000   1.0000   1.0000   1.0000   1.0000

          k = 0.1250 0.1250 0.2917 (  5371 PWs)   bands (ev):

   -17.8904 -17.8904  -8.0603  -8.0603  -5.7918  -5.7918  -4.2085  -4.2085
    -4.1119  -4.1119   1.2536   1.2536   2.1180   2.1180   2.4970   2.4970

     occupation numbers 
     1.0000   1.0000   1.0000   1.0000   1.0000   1.0000   1.0000   1.0000
     1.0000   1.0000   1.0000   1.0000   1.0000   1.0000   1.0000   1.0000

          k = 0.1250 0.1250 0.3750 (  5367 PWs)   bands (ev):

   -17.8862 -17.8862  -8.0534  -8.0534  -5.7990  -5.7990  -4.2335  -4.2335
    -4.1109  -4.1109   1.1141   1.1141   2.0483   2.0483   2.4979   2.4979

     occupation numbers 
     1.0000   1.0000   1.0000   1.0000   1.0000   1.0000   1.0000   1.0000
     1.0000   1.0000   1.0000   1.0000   1.0000   1.0000   1.0000   1.0000

          k = 0.1250 0.1250 0.4583 (  5363 PWs)   bands (ev):

   -17.8839 -17.8839  -8.0496  -8.0496  -5.8029  -5.8029  -4.2474  -4.2474
    -4.1102  -4.1102   1.0302   1.0302   2.0175   2.0175   2.5001   2.5001

     occupation numbers 
     1.0000   1.0000   1.0000   1.0000   1.0000   1.0000   1.0000   1.0000
     1.0000   1.0000   1.0000   1.0000   1.0000   1.0000   1.0000   1.0000

          k = 0.1250 0.2083 0.2083 (  5369 PWs)   bands (ev):

   -17.8911 -17.8911  -8.0553  -8.0553  -5.7959  -5.7959  -4.2028  -4.2028
    -4.1276  -4.1276   1.3499   1.3499   2.1557   2.1557   2.4294   2.4294

     occupation numbers 
     1.0000   1.0000   1.0000   1.0000   1.0000   1.0000   1.0000   1.0000
     1.0000   1.0000   1.0000   1.0000   1.0000   1.0000   1.0000   1.0000

          k = 0.1250 0.2083 0.2917 (  5373 PWs)   bands (ev):

   -17.8864 -17.8864  -8.0399  -8.0399  -5.8107  -5.8107  -4.2377  -4.2377
    -4.1363  -4.1363   1.2629   1.2629   2.0562   2.0562   2.4168   2.4168

     occupation numbers 
     1.0000   1.0000   1.0000   1.0000   1.0000   1.0000   1.0000   1.0000
     1.0000   1.0000   1.0000   1.0000   1.0000   1.0000   1.0000   1.0000

          k = 0.1250 0.2083 0.3750 (  5379 PWs)   bands (ev):

   -17.8824 -17.8824  -8.0268  -8.0268  -5.8234  -5.8234  -4.2695  -4.2695
    -4.1406  -4.1406   1.1633   1.1633   1.9904   1.9904   2.4311   2.4311

     occupation numbers 
     1.0000   1.0000   1.0000   1.0000   1.0000   1.0000   1.0000   1.0000
     1.0000   1.0000   1.0000   1.0000   1.0000   1.0000   1.0000   1.0000

          k = 0.1250 0.2083 0.4583 (  5375 PWs)   bands (ev):

   -17.8801 -17.8801  -8.0193  -8.0193  -5.8305  -5.8305  -4.2880  -4.2880
    -4.1424  -4.1424   1.0993   1.0993   1.9602   1.9602   2.4451   2.4451

     occupation numbers 
     1.0000   1.0000   1.0000   1.0000   1.0000   1.0000   1.0000   1.0000
     1.0000   1.0000   1.0000   1.0000   1.0000   1.0000   1.0000   1.0000

          k = 0.1250 0.2917 0.2917 (  5379 PWs)   bands (ev):

   -17.8819 -17.8819  -8.0161  -8.0161  -5.8330  -5.8330  -4.2813  -4.2813
    -4.1521  -4.1521   1.2419   1.2419   1.9775   1.9775   2.3904   2.3904

     occupation numbers 
     1.0000   1.0000   1.0000   1.0000   1.0000   1.0000   1.0000   1.0000
     1.0000   1.0000   1.0000   1.0000   1.0000   1.0000   1.0000   1.0000

          k = 0.1250 0.2917 0.3750 (  5376 PWs)   bands (ev):

   -17.8779 -17.8779  -7.9953  -7.9953  -5.8525  -5.8525  -4.3228  -4.3228
    -4.1602  -4.1602   1.1959   1.1959   1.9211   1.9211   2.4016   2.4016

     occupation numbers 
     1.0000   1.0000   1.0000   1.0000   1.0000   1.0000   1.0000   1.0000
     1.0000   1.0000   1.0000   1.0000   1.0000   1.0000   1.0000   1.0000

          k = 0.1250 0.2917 0.4583 (  5376 PWs)   bands (ev):

   -17.8757 -17.8757  -7.9832  -7.9832  -5.8639  -5.8639  -4.3472  -4.3472
    -4.1638  -4.1638   1.1595   1.1595   1.8954   1.8954   2.4178   2.4178

     occupation numbers 
     1.0000   1.0000   1.0000   1.0000   1.0000   1.0000   1.0000   1.0000
     1.0000   1.0000   1.0000   1.0000   1.0000   1.0000   1.0000   1.0000

          k = 0.1250 0.3750 0.3750 (  5379 PWs)   bands (ev):

   -17.8741 -17.8741  -7.9674  -7.9674  -5.8787  -5.8787  -4.3734  -4.3734
    -4.1707  -4.1707   1.1987   1.1987   1.8741   1.8741   2.4039   2.4039

     occupation numbers 
     1.0000   1.0000   1.0000   1.0000   1.0000   1.0000   1.0000   1.0000
     1.0000   1.0000   1.0000   1.0000   1.0000   1.0000   1.0000   1.0000

          k = 0.1250 0.3750 0.4583 (  5385 PWs)   bands (ev):

   -17.8718 -17.8718  -7.9510  -7.9510  -5.8941  -5.8941  -4.4032  -4.4032
    -4.1752  -4.1752   1.1890   1.1890   1.8550   1.8550   2.4141   2.4141

     occupation numbers 
     1.0000   1.0000   1.0000   1.0000   1.0000   1.0000   1.0000   1.0000
     1.0000   1.0000   1.0000   1.0000   1.0000   1.0000   1.0000   1.0000

          k = 0.1250 0.4583 0.4583 (  5378 PWs)   bands (ev):

   -17.8696 -17.8696  -7.9319  -7.9319  -5.9120  -5.9120  -4.4361  -4.4361
    -4.1802  -4.1802   1.1946   1.1946   1.8419   1.8419   2.4178   2.4178

     occupation numbers 
     1.0000   1.0000   1.0000   1.0000   1.0000   1.0000   1.0000   1.0000
     1.0000   1.0000   1.0000   1.0000   1.0000   1.0000   1.0000   1.0000

          k = 0.2083 0.2083 0.2083 (  5371 PWs)   bands (ev):

   -17.8871 -17.8871  -8.0382  -8.0382  -5.8107  -5.8107  -4.2150  -4.2150
    -4.1610  -4.1610   1.3247   1.3247   2.1334   2.1334   2.2891   2.2891

     occupation numbers 
     1.0000   1.0000   1.0000   1.0000   1.0000   1.0000   1.0000   1.0000
     1.0000   1.0000   1.0000   1.0000   1.0000   1.0000   1.0000   1.0000

          k = 0.2083 0.2083 0.2917 (  5377 PWs)   bands (ev):

   -17.8826 -17.8826  -8.0185  -8.0185  -5.8281  -5.8281  -4.2470  -4.2470
    -4.1792  -4.1792   1.2587   1.2587   2.0417   2.0417   2.2638   2.2638

     occupation numbers 
     1.0000   1.0000   1.0000   1.0000   1.0000   1.0000   1.0000   1.0000
     1.0000   1.0000   1.0000   1.0000   1.0000   1.0000   1.0000   1.0000

          k = 0.2083 0.2083 0.3750 (  5367 PWs)   bands (ev):

   -17.8786 -17.8786  -8.0015  -8.0015  -5.8433  -5.8433  -4.2830  -4.2830
    -4.1845  -4.1845   1.1749   1.1749   1.9547   1.9547   2.2985   2.2985

     occupation numbers 
     1.0000   1.0000   1.0000   1.0000   1.0000   1.0000   1.0000   1.0000
     1.0000   1.0000   1.0000   1.0000   1.0000   1.0000   1.0000   1.0000

          k = 0.2083 0.2083 0.4583 (  5375 PWs)   bands (ev):

   -17.8763 -17.8763  -7.9917  -7.9917  -5.8522  -5.8522  -4.3046  -4.3046
    -4.1860  -4.1860   1.1186   1.1186   1.9110   1.9110   2.3279   2.3279

     occupation numbers 
     1.0000   1.0000   1.0000   1.0000   1.0000   1.0000   1.0000   1.0000
     1.0000   1.0000   1.0000   1.0000   1.0000   1.0000   1.0000   1.0000

          k = 0.2083 0.2917 0.2917 (  5377 PWs)   bands (ev):

   -17.8781 -17.8781  -7.9935  -7.9935  -5.8490  -5.8490  -4.2770  -4.2770
    -4.2063  -4.2063   1.2216   1.2216   1.9829   1.9829   2.1912   2.1912

     occupation numbers 
     1.0000   1.0000   1.0000   1.0000   1.0000   1.0000   1.0000   1.0000
     1.0000   1.0000   1.0000   1.0000   1.0000   1.0000   1.0000   1.0000

          k = 0.2083 0.2917 0.3750 (  5386 PWs)   bands (ev):

   -17.8742 -17.8742  -7.9716  -7.9716  -5.8676  -5.8676  -4.3170  -4.3170
    -4.2136  -4.2136   1.1641   1.1641   1.8990   1.8990   2.2067   2.2067

     occupation numbers 
     1.0000   1.0000   1.0000   1.0000   1.0000   1.0000   1.0000   1.0000
     1.0000   1.0000   1.0000   1.0000   1.0000   1.0000   1.0000   1.0000

          k = 0.2083 0.2917 0.4583 (  5383 PWs)   bands (ev):

   -17.8720 -17.8720  -7.9588  -7.9588  -5.8786  -5.8786  -4.3418  -4.3418
    -4.2152  -4.2152   1.1224   1.1224   1.8509   1.8509   2.2309   2.2309

     occupation numbers 
     1.0000   1.0000   1.0000   1.0000   1.0000   1.0000   1.0000   1.0000
     1.0000   1.0000   1.0000   1.0000   1.0000   1.0000   1.0000   1.0000

          k = 0.2083 0.3750 0.3750 (  5387 PWs)   bands (ev):

   -17.8704 -17.8704  -7.9452  -7.9452  -5.8897  -5.8897  -4.3592  -4.3592
    -4.2236  -4.2236   1.1341   1.1341   1.8376   1.8376   2.1759   2.1759

     occupation numbers 
     1.0000   1.0000   1.0000   1.0000   1.0000   1.0000   1.0000   1.0000
     1.0000   1.0000   1.0000   1.0000   1.0000   1.0000   1.0000   1.0000

          k = 0.2083 0.3750 0.4583 (  5383 PWs)   bands (ev):

   -17.8682 -17.8682  -7.9296  -7.9296  -5.9028  -5.9028  -4.3857  -4.3857
    -4.2262  -4.2262   1.1090   1.1090   1.7996   1.7996   2.1735   2.1735

     occupation numbers 
     1.0000   1.0000   1.0000   1.0000   1.0000   1.0000   1.0000   1.0000
     1.0000   1.0000   1.0000   1.0000   1.0000   1.0000   1.0000   1.0000

          k = 0.2083 0.4583 0.4583 (  5387 PWs)   bands (ev):

   -17.8660 -17.8660  -7.9124  -7.9124  -5.9173  -5.9173  -4.4133  -4.4133
    -4.2293  -4.2293   1.0947   1.0947   1.7712   1.7712   2.1493   2.1493

     occupation numbers 
     1.0000   1.0000   1.0000   1.0000   1.0000   1.0000   1.0000   1.0000
     1.0000   1.0000   1.0000   1.0000   1.0000   1.0000   1.0000   1.0000

          k = 0.2917 0.2917 0.2917 (  5382 PWs)   bands (ev):

   -17.8737 -17.8737  -7.9670  -7.9670  -5.8685  -5.8685  -4.2768  -4.2768
    -4.2608  -4.2608   1.1723   1.1723   1.9964   1.9964   2.0096   2.0096

     occupation numbers 
     1.0000   1.0000   1.0000   1.0000   1.0000   1.0000   1.0000   1.0000
     1.0000   1.0000   1.0000   1.0000   1.0000   1.0000   1.0000   1.0000

          k = 0.2917 0.2917 0.3750 (  5380 PWs)   bands (ev):

   -17.8699 -17.8699  -7.9437  -7.9437  -5.8864  -5.8864  -4.3175  -4.3175
    -4.2644  -4.2644   1.1101   1.1101   1.8642   1.8642   2.0347   2.0347

     occupation numbers 
     1.0000   1.0000   1.0000   1.0000   1.0000   1.0000   1.0000   1.0000
     1.0000   1.0000   1.0000   1.0000   1.0000   1.0000   1.0000   1.0000

          k = 0.2917 0.2917 0.4583 (  5393 PWs)   bands (ev):

   -17.8677 -17.8677  -7.9301  -7.9301  -5.8971  -5.8971  -4.3446  -4.3446
    -4.2620  -4.2620   1.0675   1.0675   1.7948   1.7948   2.0552   2.0552

     occupation numbers 
     1.0000   1.0000   1.0000   1.0000   1.0000   1.0000   1.0000   1.0000
     1.0000   1.0000   1.0000   1.0000   1.0000   1.0000   1.0000   1.0000

          k = 0.2917 0.3750 0.3750 (  5392 PWs)   bands (ev):

   -17.8661 -17.8661  -7.9190  -7.9190  -5.9038  -5.9038  -4.3428  -4.3428
    -4.2810  -4.2810   1.0503   1.0503   1.7929   1.7929   1.9560   1.9560

     occupation numbers 
     1.0000   1.0000   1.0000   1.0000   1.0000   1.0000   1.0000   1.0000
     1.0000   1.0000   1.0000   1.0000   1.0000   1.0000   1.0000   1.0000

          k = 0.2917 0.3750 0.4583 (  5388 PWs)   bands (ev):

   -17.8639 -17.8639  -7.9046  -7.9046  -5.9143  -5.9143  -4.3663  -4.3663
    -4.2805  -4.2805   1.0113   1.0113   1.7338   1.7338   1.9386   1.9386

     occupation numbers 
     1.0000   1.0000   1.0000   1.0000   1.0000   1.0000   1.0000   1.0000
     1.0000   1.0000   1.0000   1.0000   1.0000   1.0000   1.0000   1.0000

          k = 0.2917 0.4583 0.4583 (  5393 PWs)   bands (ev):

   -17.8618 -17.8618  -7.8896  -7.8896  -5.9247  -5.9247  -4.3866  -4.3866
    -4.2824  -4.2824   0.9759   0.9759   1.6901   1.6901   1.8875   1.8875

     occupation numbers 
     1.0000   1.0000   1.0000   1.0000   1.0000   1.0000   1.0000   1.0000
     1.0000   1.0000   1.0000   1.0000   1.0000   1.0000   1.0000   1.0000

          k = 0.3750 0.3750 0.3750 (  5382 PWs)   bands (ev):

   -17.8624 -17.8624  -7.8960  -7.8960  -5.9172  -5.9172  -4.3327  -4.3327
    -4.3235  -4.3235   0.9709   0.9709   1.7342   1.7342   1.8122   1.8122

     occupation numbers 
     1.0000   1.0000   1.0000   1.0000   1.0000   1.0000   1.0000   1.0000
     1.0000   1.0000   1.0000   1.0000   1.0000   1.0000   1.0000   1.0000

          k = 0.3750 0.3750 0.4583 (  5389 PWs)   bands (ev):

   -17.8602 -17.8602  -7.8825  -7.8825  -5.9254  -5.9254  -4.3548  -4.3548
    -4.3189  -4.3189   0.9227   0.9227   1.6701   1.6701   1.7681   1.7681

     occupation numbers 
     1.0000   1.0000   1.0000   1.0000   1.0000   1.0000   1.0000   1.0000
     1.0000   1.0000   1.0000   1.0000   1.0000   1.0000   1.0000   1.0000

          k = 0.3750 0.4583 0.4583 (  5406 PWs)   bands (ev):

   -17.8581 -17.8581  -7.8696  -7.8696  -5.9324  -5.9324  -4.3629  -4.3629
    -4.3251  -4.3251   0.8700   0.8700   1.6202   1.6202   1.6917   1.6917

     occupation numbers 
     1.0000   1.0000   1.0000   1.0000   1.0000   1.0000   1.0000   1.0000
     1.0000   1.0000   1.0000   1.0000   1.0000   1.0000   1.0000   1.0000

          k = 0.4583 0.4583 0.4583 (  5421 PWs)   bands (ev):

   -17.8560 -17.8560  -7.8579  -7.8579  -5.9373  -5.9373  -4.3502  -4.3502
    -4.3475  -4.3475   0.8075   0.8075   1.5777   1.5777   1.5915   1.5915

     occupation numbers 
     1.0000   1.0000   1.0000   1.0000   1.0000   1.0000   1.0000   1.0000
     1.0000   1.0000   1.0000   1.0000   1.0000   1.0000   1.0000   1.0000

     highest occupied level (ev):     2.7079

!    total energy              =    -785.06467631 Ry
     Harris-Foulkes estimate   =    -785.06467641 Ry
     estimated scf accuracy    <       0.00000021 Ry

     total all-electron energy =    -29806.828708 Ry

     The total energy is the sum of the following terms:

     one-electron contribution =      -3.95520890 Ry
     hartree contribution      =       8.70320763 Ry
     xc contribution           =     -36.85002770 Ry
     ewald contribution        =     -53.30014088 Ry
     one-center paw contrib.   =    -699.66250646 Ry
      -> PAW hartree energy AE =      25.59596736 Ry
      -> PAW hartree energy PS =     -25.48155006 Ry
      -> PAW xc energy AE      =    -378.57374338 Ry
      -> PAW xc energy PS      =      20.46240924 Ry
      -> total E_H with PAW    =       8.81762493 Ry
      -> total E_XC with PAW   =    -394.96136185 Ry

     convergence has been achieved in   6 iterations

     Forces acting on atoms (cartesian axes, Ry/au):

     atom    1 type  1   force =     0.00000000    0.00000000    0.00000000
     atom    2 type  2   force =     0.00000000    0.00000000    0.00000000
     The non-local contrib.  to forces
     atom    1 type  1   force =     0.00000000    0.00000000    0.00000000
     atom    2 type  2   force =     0.00000000    0.00000000    0.00000000
     The ionic contribution  to forces
     atom    1 type  1   force =    -0.00000000   -0.00000000   -0.00000000
     atom    2 type  2   force =     0.00000000    0.00000000    0.00000000
     The local contribution  to forces
     atom    1 type  1   force =     0.00000000    0.00000000    0.00000000
     atom    2 type  2   force =     0.00000000    0.00000000    0.00000000
     The core correction contribution to forces
     atom    1 type  1   force =     0.00000000    0.00000000    0.00000000
     atom    2 type  2   force =     0.00000000    0.00000000    0.00000000
     The Hubbard contrib.    to forces
     atom    1 type  1   force =     0.00000000    0.00000000    0.00000000
     atom    2 type  2   force =     0.00000000    0.00000000    0.00000000
     The SCF correction term to forces
     atom    1 type  1   force =     0.00000000    0.00000000   -0.00000000
     atom    2 type  2   force =     0.00000000   -0.00000000   -0.00000000

     Total force =     0.000000     Total SCF correction =     0.000000


     Computing stress (Cartesian axis) and pressure

     Message from routine stres:
     noncollinear stress + GGA not implemented

     Writing output data file CsIsalt.save/
 
     init_run     :      8.24s CPU     13.05s WALL (       1 calls)
     electrons    :    243.08s CPU    411.99s WALL (       1 calls)
     forces       :      4.01s CPU      6.26s WALL (       1 calls)

     Called by init_run:
     wfcinit      :      4.90s CPU      8.15s WALL (       1 calls)
     wfcinit:atom :      0.00s CPU      0.01s WALL (      56 calls)
     wfcinit:wfcr :      4.85s CPU      8.08s WALL (      56 calls)
     potinit      :      1.81s CPU      2.73s WALL (       1 calls)
     hinit0       :      0.74s CPU      1.11s WALL (       1 calls)

     Called by electrons:
     c_bands      :    181.42s CPU    309.00s WALL (       7 calls)
     sum_band     :     49.44s CPU     85.62s WALL (       7 calls)
     v_of_rho     :      1.09s CPU      1.58s WALL (       7 calls)
     v_h          :      0.00s CPU      0.01s WALL (       7 calls)
     v_xc         :      1.09s CPU      1.58s WALL (       8 calls)
     newd         :      4.02s CPU      5.25s WALL (       7 calls)
     PAW_pot      :      4.62s CPU      6.00s WALL (       7 calls)
     mix_rho      :      1.40s CPU      2.36s WALL (       7 calls)

     Called by c_bands:
     init_us_2    :      0.75s CPU      1.37s WALL (     896 calls)
     cegterg      :    174.72s CPU    298.96s WALL (     392 calls)

     Called by sum_band:
     sum_band:bec :      4.60s CPU      6.79s WALL (     392 calls)
     addusdens    :      1.73s CPU      2.32s WALL (       7 calls)

     Called by *egterg:
     h_psi        :    134.94s CPU    234.13s WALL (    1584 calls)
     s_psi        :      1.43s CPU      2.01s WALL (    1584 calls)
     g_psi        :      0.19s CPU      0.21s WALL (    1136 calls)
     cdiaghg      :      8.53s CPU     14.46s WALL (    1472 calls)
     cegterg:over :      8.55s CPU     14.16s WALL (    1136 calls)
     cegterg:upda :     13.67s CPU     21.57s WALL (    1136 calls)
     cegterg:last :      4.16s CPU      6.72s WALL (     431 calls)
     cdiaghg:chol :      0.41s CPU      0.60s WALL (    1472 calls)
     cdiaghg:inve :      0.35s CPU      0.52s WALL (    1472 calls)
     cdiaghg:para :      1.27s CPU      2.04s WALL (    2944 calls)

     Called by h_psi:
     h_psi:pot    :    134.47s CPU    233.62s WALL (    1584 calls)
     h_psi:calbec :      1.40s CPU      2.20s WALL (    1584 calls)
     vloc_psi     :    131.87s CPU    229.63s WALL (    1584 calls)
     add_vuspsi   :      1.20s CPU      1.78s WALL (    1584 calls)

     General routines
     calbec       :      4.01s CPU      6.49s WALL (    2200 calls)
     fft          :      4.12s CPU      6.58s WALL (     155 calls)
     ffts         :      1.95s CPU      3.45s WALL (      56 calls)
     fftw         :    171.26s CPU    300.35s WALL (   91236 calls)
     interpolate  :      2.35s CPU      3.94s WALL (      28 calls)
 
     Parallel routines
     fft_scatt_xy :      3.38s CPU      3.94s WALL (   91447 calls)
     fft_scatt_yz :    158.22s CPU    288.10s WALL (   91447 calls)

     PAW routines
     PAW_pot      :      4.62s CPU      6.00s WALL (       7 calls)
     PAW_symme    :      0.31s CPU      0.50s WALL (      14 calls)
 
     PWSCF        :   4m24.77s CPU   7m23.21s WALL

 
   This run was terminated on:  11:49:48  23Jan2021            

=------------------------------------------------------------------------------=
   JOB DONE.
=------------------------------------------------------------------------------=
