
     Program PWSCF v.6.7MaX starts on 15Jan2021 at 15:39:23 

     This program is part of the open-source Quantum ESPRESSO suite
     for quantum simulation of materials; please cite
         "P. Giannozzi et al., J. Phys.:Condens. Matter 21 395502 (2009);
         "P. Giannozzi et al., J. Phys.:Condens. Matter 29 465901 (2017);
          URL http://www.quantum-espresso.org", 
     in publications or presentations arising from this work. More details at
     http://www.quantum-espresso.org/quote

     Parallel version (MPI), running on    32 processors

     MPI processes distributed on     1 nodes
     R & G space division:  proc/nbgrp/npool/nimage =      32
     Waiting for input...
     Reading input from standard input

     Current dimensions of program PWSCF are:
     Max number of different atomic species (ntypx) = 10
     Max number of k-points (npk) =  40000
     Max angular momentum in pseudopotentials (lmaxx) =  3
     file Sn.pbe-dn-kjpaw_psl.1.0.0.UPF: wavefunction(s)  5S 5P 4D renormalized
     file I.pbe-n-kjpaw_psl.1.0.0.UPF: wavefunction(s)  5S renormalized

     Subspace diagonalization in iterative solution of the eigenvalue problem:
     a serial algorithm will be used

     Message from routine setup:
     using ibrav=0 with symmetry is DISCOURAGED, use correct ibrav instead

     Parallelization info
     --------------------
     sticks:   dense  smooth     PW     G-vecs:    dense   smooth      PW
     Min         111     111     30                 4989     4989     718
     Max         112     112     31                 4992     4992     723
     Sum        3569    3569    973               159699   159699   23031


     Title: 
     SnI4un                                                                     


     bravais-lattice index     =            0
     lattice parameter (alat)  =      12.6355  a.u.
     unit-cell volume          =    2017.3401 (a.u.)^3
     number of atoms/cell      =            5
     number of atomic types    =            2
     number of electrons       =        42.00
     number of Kohn-Sham states=           23
     kinetic-energy cutoff     =      70.0000  Ry
     charge density cutoff     =     280.0000  Ry
     scf convergence threshold =      1.0E-06
     mixing beta               =       0.5000
     number of iterations used =            8  plain     mixing
     energy convergence thresh.=      1.0E-04
     force convergence thresh. =      1.0E-04
     press convergence thresh. =      5.0E-01
     Exchange-correlation= SLA  PW   PBX  PBC
                           (   1   4   3   4   0   0   0)
     nstep                     =           50


     celldm(1)=  12.635518  celldm(2)=   0.000000  celldm(3)=   0.000000
     celldm(4)=   0.000000  celldm(5)=   0.000000  celldm(6)=   0.000000

     crystal axes: (cart. coord. in units of alat)
               a(1) = (   1.000000   0.000000   0.000000 )  
               a(2) = (   0.000000   1.000000   0.000000 )  
               a(3) = (   0.000000   0.000000   1.000000 )  

     reciprocal axes: (cart. coord. in units 2 pi/alat)
               b(1) = (  1.000000  0.000000  0.000000 )  
               b(2) = (  0.000000  1.000000  0.000000 )  
               b(3) = (  0.000000  0.000000  1.000000 )  


     PseudoPot. # 1 for Sn read from file:
     ../../pseudo/Sn.pbe-dn-kjpaw_psl.1.0.0.UPF
     MD5 check sum: 67f11dec737d427557dc41ea34975807
     Pseudo is Projector augmented-wave + core cor, Zval = 14.0
     Generated using &quot;atomic&quot; code by A. Dal Corso  v.6.3
     Shape of augmentation charge: PSQ
     Using radial grid of 1243 points,  6 beta functions with: 
                l(1) =   0
                l(2) =   0
                l(3) =   1
                l(4) =   1
                l(5) =   2
                l(6) =   2
     Q(r) pseudized with 0 coefficients 


     PseudoPot. # 2 for I  read from file:
     ../../pseudo/I.pbe-n-kjpaw_psl.1.0.0.UPF
     MD5 check sum: cd3d296c3308a581e1559a0c8a554cb5
     Pseudo is Projector augmented-wave + core cor, Zval =  7.0
     Generated using &quot;atomic&quot; code by A. Dal Corso  v.6.3
     Shape of augmentation charge: PSQ
     Using radial grid of 1247 points,  6 beta functions with: 
                l(1) =   0
                l(2) =   0
                l(3) =   1
                l(4) =   1
                l(5) =   2
                l(6) =   2
     Q(r) pseudized with 0 coefficients 


     atomic species   valence    mass     pseudopotential
        Sn            14.00   118.70000     Sn( 1.00)
        I              7.00   126.90000     I ( 1.00)

     24 Sym. Ops. (no inversion) found


                                    s                        frac. trans.

      isym =  1     identity                                     

 cryst.   s( 1) = (     1          0          0      )
                  (     0          1          0      )
                  (     0          0          1      )

 cart.    s( 1) = (  1.0000000  0.0000000  0.0000000 )
                  (  0.0000000  1.0000000  0.0000000 )
                  (  0.0000000  0.0000000  1.0000000 )


      isym =  2     180 deg rotation - cart. axis [0,0,1]        

 cryst.   s( 2) = (    -1          0          0      )
                  (     0         -1          0      )
                  (     0          0          1      )

 cart.    s( 2) = ( -1.0000000  0.0000000  0.0000000 )
                  (  0.0000000 -1.0000000  0.0000000 )
                  (  0.0000000  0.0000000  1.0000000 )


      isym =  3     180 deg rotation - cart. axis [0,1,0]        

 cryst.   s( 3) = (    -1          0          0      )
                  (     0          1          0      )
                  (     0          0         -1      )

 cart.    s( 3) = ( -1.0000000  0.0000000  0.0000000 )
                  (  0.0000000  1.0000000  0.0000000 )
                  (  0.0000000  0.0000000 -1.0000000 )


      isym =  4     180 deg rotation - cart. axis [1,0,0]        

 cryst.   s( 4) = (     1          0          0      )
                  (     0         -1          0      )
                  (     0          0         -1      )

 cart.    s( 4) = (  1.0000000  0.0000000  0.0000000 )
                  (  0.0000000 -1.0000000  0.0000000 )
                  (  0.0000000  0.0000000 -1.0000000 )


      isym =  5     120 deg rotation - cart. axis [-1,-1,-1]     

 cryst.   s( 5) = (     0          0          1      )
                  (     1          0          0      )
                  (     0          1          0      )

 cart.    s( 5) = (  0.0000000  1.0000000  0.0000000 )
                  (  0.0000000  0.0000000  1.0000000 )
                  (  1.0000000  0.0000000  0.0000000 )


      isym =  6     120 deg rotation - cart. axis [-1,1,1]       

 cryst.   s( 6) = (     0          0         -1      )
                  (    -1          0          0      )
                  (     0          1          0      )

 cart.    s( 6) = (  0.0000000 -1.0000000  0.0000000 )
                  (  0.0000000  0.0000000  1.0000000 )
                  ( -1.0000000  0.0000000  0.0000000 )


      isym =  7     120 deg rotation - cart. axis [1,1,-1]       

 cryst.   s( 7) = (     0          0         -1      )
                  (     1          0          0      )
                  (     0         -1          0      )

 cart.    s( 7) = (  0.0000000  1.0000000  0.0000000 )
                  (  0.0000000  0.0000000 -1.0000000 )
                  ( -1.0000000  0.0000000  0.0000000 )


      isym =  8     120 deg rotation - cart. axis [1,-1,1]       

 cryst.   s( 8) = (     0          0          1      )
                  (    -1          0          0      )
                  (     0         -1          0      )

 cart.    s( 8) = (  0.0000000 -1.0000000  0.0000000 )
                  (  0.0000000  0.0000000 -1.0000000 )
                  (  1.0000000  0.0000000  0.0000000 )


      isym =  9     120 deg rotation - cart. axis [1,1,1]        

 cryst.   s( 9) = (     0          1          0      )
                  (     0          0          1      )
                  (     1          0          0      )

 cart.    s( 9) = (  0.0000000  0.0000000  1.0000000 )
                  (  1.0000000  0.0000000  0.0000000 )
                  (  0.0000000  1.0000000  0.0000000 )


      isym = 10     120 deg rotation - cart. axis [-1,1,-1]      

 cryst.   s(10) = (     0         -1          0      )
                  (     0          0         -1      )
                  (     1          0          0      )

 cart.    s(10) = (  0.0000000  0.0000000  1.0000000 )
                  ( -1.0000000  0.0000000  0.0000000 )
                  (  0.0000000 -1.0000000  0.0000000 )


      isym = 11     120 deg rotation - cart. axis [1,-1,-1]      

 cryst.   s(11) = (     0         -1          0      )
                  (     0          0          1      )
                  (    -1          0          0      )

 cart.    s(11) = (  0.0000000  0.0000000 -1.0000000 )
                  ( -1.0000000  0.0000000  0.0000000 )
                  (  0.0000000  1.0000000  0.0000000 )


      isym = 12     120 deg rotation - cart. axis [-1,-1,1]      

 cryst.   s(12) = (     0          1          0      )
                  (     0          0         -1      )
                  (    -1          0          0      )

 cart.    s(12) = (  0.0000000  0.0000000 -1.0000000 )
                  (  1.0000000  0.0000000  0.0000000 )
                  (  0.0000000 -1.0000000  0.0000000 )


      isym = 13     inv. 180 deg rotation - cart. axis [1,1,0]   

 cryst.   s(13) = (     0         -1          0      )
                  (    -1          0          0      )
                  (     0          0          1      )

 cart.    s(13) = (  0.0000000 -1.0000000  0.0000000 )
                  ( -1.0000000  0.0000000  0.0000000 )
                  (  0.0000000  0.0000000  1.0000000 )


      isym = 14     inv. 180 deg rotation - cart. axis [1,-1,0]  

 cryst.   s(14) = (     0          1          0      )
                  (     1          0          0      )
                  (     0          0          1      )

 cart.    s(14) = (  0.0000000  1.0000000  0.0000000 )
                  (  1.0000000  0.0000000  0.0000000 )
                  (  0.0000000  0.0000000  1.0000000 )


      isym = 15     inv.  90 deg rotation - cart. axis [0,0,-1]  

 cryst.   s(15) = (     0          1          0      )
                  (    -1          0          0      )
                  (     0          0         -1      )

 cart.    s(15) = (  0.0000000 -1.0000000  0.0000000 )
                  (  1.0000000  0.0000000  0.0000000 )
                  (  0.0000000  0.0000000 -1.0000000 )


      isym = 16     inv.  90 deg rotation - cart. axis [0,0,1]   

 cryst.   s(16) = (     0         -1          0      )
                  (     1          0          0      )
                  (     0          0         -1      )

 cart.    s(16) = (  0.0000000  1.0000000  0.0000000 )
                  ( -1.0000000  0.0000000  0.0000000 )
                  (  0.0000000  0.0000000 -1.0000000 )


      isym = 17     inv. 180 deg rotation - cart. axis [1,0,1]   

 cryst.   s(17) = (     0          0         -1      )
                  (     0          1          0      )
                  (    -1          0          0      )

 cart.    s(17) = (  0.0000000  0.0000000 -1.0000000 )
                  (  0.0000000  1.0000000  0.0000000 )
                  ( -1.0000000  0.0000000  0.0000000 )


      isym = 18     inv. 180 deg rotation - cart. axis [-1,0,1]  

 cryst.   s(18) = (     0          0          1      )
                  (     0          1          0      )
                  (     1          0          0      )

 cart.    s(18) = (  0.0000000  0.0000000  1.0000000 )
                  (  0.0000000  1.0000000  0.0000000 )
                  (  1.0000000  0.0000000  0.0000000 )


      isym = 19     inv.  90 deg rotation - cart. axis [0,1,0]   

 cryst.   s(19) = (     0          0          1      )
                  (     0         -1          0      )
                  (    -1          0          0      )

 cart.    s(19) = (  0.0000000  0.0000000 -1.0000000 )
                  (  0.0000000 -1.0000000  0.0000000 )
                  (  1.0000000  0.0000000  0.0000000 )


      isym = 20     inv.  90 deg rotation - cart. axis [0,-1,0]  

 cryst.   s(20) = (     0          0         -1      )
                  (     0         -1          0      )
                  (     1          0          0      )

 cart.    s(20) = (  0.0000000  0.0000000  1.0000000 )
                  (  0.0000000 -1.0000000  0.0000000 )
                  ( -1.0000000  0.0000000  0.0000000 )


      isym = 21     inv. 180 deg rotation - cart. axis [0,1,1]   

 cryst.   s(21) = (     1          0          0      )
                  (     0          0         -1      )
                  (     0         -1          0      )

 cart.    s(21) = (  1.0000000  0.0000000  0.0000000 )
                  (  0.0000000  0.0000000 -1.0000000 )
                  (  0.0000000 -1.0000000  0.0000000 )


      isym = 22     inv. 180 deg rotation - cart. axis [0,1,-1]  

 cryst.   s(22) = (     1          0          0      )
                  (     0          0          1      )
                  (     0          1          0      )

 cart.    s(22) = (  1.0000000  0.0000000  0.0000000 )
                  (  0.0000000  0.0000000  1.0000000 )
                  (  0.0000000  1.0000000  0.0000000 )


      isym = 23     inv.  90 deg rotation - cart. axis [-1,0,0]  

 cryst.   s(23) = (    -1          0          0      )
                  (     0          0          1      )
                  (     0         -1          0      )

 cart.    s(23) = ( -1.0000000  0.0000000  0.0000000 )
                  (  0.0000000  0.0000000 -1.0000000 )
                  (  0.0000000  1.0000000  0.0000000 )


      isym = 24     inv.  90 deg rotation - cart. axis [1,0,0]   

 cryst.   s(24) = (    -1          0          0      )
                  (     0          0         -1      )
                  (     0          1          0      )

 cart.    s(24) = ( -1.0000000  0.0000000  0.0000000 )
                  (  0.0000000  0.0000000  1.0000000 )
                  (  0.0000000 -1.0000000  0.0000000 )


   Cartesian axes

     site n.     atom                  positions (alat units)
         1           Sn  tau(   1) = (   0.0000000   0.0000000   0.0000000  )
         2           I   tau(   2) = (   0.2339030   0.7660970   0.7660970  )
         3           I   tau(   3) = (   0.7660970   0.2339030   0.7660970  )
         4           I   tau(   4) = (   0.7660970   0.7660970   0.2339030  )
         5           I   tau(   5) = (   0.2339030   0.2339030   0.2339030  )

   Crystallographic axes

     site n.     atom                  positions (cryst. coord.)
         1           Sn  tau(   1) = (  0.0000000  0.0000000  0.0000000  )
         2           I   tau(   2) = (  0.2339030  0.7660970  0.7660970  )
         3           I   tau(   3) = (  0.7660970  0.2339030  0.7660970  )
         4           I   tau(   4) = (  0.7660970  0.7660970  0.2339030  )
         5           I   tau(   5) = (  0.2339030  0.2339030  0.2339030  )

     number of k points=    10
                       cart. coord. in units 2pi/alat
        k(    1) = (   0.0000000   0.0000000   0.0000000), wk =   0.0312500
        k(    2) = (   0.0000000   0.0000000   0.2500000), wk =   0.1875000
        k(    3) = (   0.0000000   0.0000000  -0.5000000), wk =   0.0937500
        k(    4) = (   0.0000000   0.2500000   0.2500000), wk =   0.3750000
        k(    5) = (   0.0000000   0.2500000  -0.5000000), wk =   0.3750000
        k(    6) = (   0.0000000  -0.5000000  -0.5000000), wk =   0.0937500
        k(    7) = (   0.2500000   0.2500000   0.2500000), wk =   0.2500000
        k(    8) = (   0.2500000   0.2500000  -0.5000000), wk =   0.3750000
        k(    9) = (   0.2500000  -0.5000000  -0.5000000), wk =   0.1875000
        k(   10) = (  -0.5000000  -0.5000000  -0.5000000), wk =   0.0312500

                       cryst. coord.
        k(    1) = (   0.0000000   0.0000000   0.0000000), wk =   0.0312500
        k(    2) = (   0.0000000   0.0000000   0.2500000), wk =   0.1875000
        k(    3) = (   0.0000000   0.0000000  -0.5000000), wk =   0.0937500
        k(    4) = (   0.0000000   0.2500000   0.2500000), wk =   0.3750000
        k(    5) = (   0.0000000   0.2500000  -0.5000000), wk =   0.3750000
        k(    6) = (   0.0000000  -0.5000000  -0.5000000), wk =   0.0937500
        k(    7) = (   0.2500000   0.2500000   0.2500000), wk =   0.2500000
        k(    8) = (   0.2500000   0.2500000  -0.5000000), wk =   0.3750000
        k(    9) = (   0.2500000  -0.5000000  -0.5000000), wk =   0.1875000
        k(   10) = (  -0.5000000  -0.5000000  -0.5000000), wk =   0.0312500

     Dense  grid:   159699 G-vectors     FFT dimensions: (  72,  72,  72)

     Dynamical RAM for                 wfc:       0.22 MB

     Dynamical RAM for     wfc (w. buffer):       2.41 MB

     Dynamical RAM for           str. fact:       0.15 MB

     Dynamical RAM for           local pot:       0.00 MB

     Dynamical RAM for          nlocal pot:       0.86 MB

     Dynamical RAM for                qrad:       5.37 MB

     Dynamical RAM for          rho,v,vnew:       0.58 MB

     Dynamical RAM for               rhoin:       0.19 MB

     Dynamical RAM for            rho*nmix:       1.22 MB

     Dynamical RAM for           G-vectors:       0.32 MB

     Dynamical RAM for          h,s,v(r/c):       0.10 MB

     Dynamical RAM for          <psi|beta>:       0.03 MB

     Dynamical RAM for                 psi:       0.44 MB

     Dynamical RAM for                hpsi:       0.44 MB

     Dynamical RAM for                spsi:       0.44 MB

     Dynamical RAM for      wfcinit/wfcrot:       0.49 MB

     Dynamical RAM for           addusdens:      14.47 MB

     Dynamical RAM for          addusforce:      14.98 MB

     Dynamical RAM for         addusstress:      15.31 MB

     Estimated static dynamical RAM per process >      11.93 MB

     Estimated max dynamical RAM per process >      27.24 MB

     Estimated total dynamical RAM >     871.70 MB

     Initial potential from superposition of free atoms

     starting charge   41.99831, renormalised to   42.00000
     Starting wfcs are   25 randomized atomic wfcs
     Checking if some PAW data can be deallocated... 
       PAW data deallocated on   25 nodes for type:  1
       PAW data deallocated on    7 nodes for type:  2

     total cpu time spent up to now is       14.6 secs

     Self-consistent Calculation

     iteration #  1     ecut=    70.00 Ry     beta= 0.50
     Davidson diagonalization with overlap
     ethr =  1.00E-02,  avg # of iterations =  2.2

     Threshold (ethr) on eigenvalues was too large:
     Diagonalizing with lowered threshold

     Davidson diagonalization with overlap
     ethr =  3.49E-04,  avg # of iterations =  3.3

     total cpu time spent up to now is       34.9 secs

     total energy              =   -1957.81014172 Ry
     estimated scf accuracy    <       0.12075232 Ry

     iteration #  2     ecut=    70.00 Ry     beta= 0.50
     Davidson diagonalization with overlap
     ethr =  2.88E-04,  avg # of iterations =  3.0

     total cpu time spent up to now is       47.1 secs

     total energy              =   -1957.83375329 Ry
     estimated scf accuracy    <       0.03682342 Ry

     iteration #  3     ecut=    70.00 Ry     beta= 0.50
     Davidson diagonalization with overlap
     ethr =  8.77E-05,  avg # of iterations =  2.1

     total cpu time spent up to now is       58.6 secs

     total energy              =   -1957.84054053 Ry
     estimated scf accuracy    <       0.00258647 Ry

     iteration #  4     ecut=    70.00 Ry     beta= 0.50
     Davidson diagonalization with overlap
     ethr =  6.16E-06,  avg # of iterations =  3.9

     total cpu time spent up to now is       69.7 secs

     total energy              =   -1957.84069185 Ry
     estimated scf accuracy    <       0.00037275 Ry

     iteration #  5     ecut=    70.00 Ry     beta= 0.50
     Davidson diagonalization with overlap
     ethr =  8.88E-07,  avg # of iterations =  3.5

     total cpu time spent up to now is       81.6 secs

     total energy              =   -1957.84077392 Ry
     estimated scf accuracy    <       0.00001565 Ry

     iteration #  6     ecut=    70.00 Ry     beta= 0.50
     Davidson diagonalization with overlap
     ethr =  3.73E-08,  avg # of iterations =  4.5

     total cpu time spent up to now is       95.1 secs

     total energy              =   -1957.84077968 Ry
     estimated scf accuracy    <       0.00000213 Ry

     iteration #  7     ecut=    70.00 Ry     beta= 0.50
     Davidson diagonalization with overlap
     ethr =  5.07E-09,  avg # of iterations =  3.7

     total cpu time spent up to now is      107.7 secs

     End of self-consistent calculation

          k = 0.0000 0.0000 0.0000 ( 20005 PWs)   bands (ev):

   -21.3150 -21.3150 -21.3150 -21.2595 -21.2595 -11.8500 -11.1185 -11.1185
   -11.1185  -6.2851  -2.4215  -2.4215  -2.4215  -1.3503  -1.3503  -0.4687
    -0.4687  -0.4687  -0.2574  -0.2574  -0.2574   1.4110   4.1427

     occupation numbers 
     1.0000   1.0000   1.0000   1.0000   1.0000   1.0000   1.0000   1.0000
     1.0000   1.0000   1.0000   1.0000   1.0000   1.0000   1.0000   1.0000
     1.0000   1.0000   1.0000   1.0000   1.0000   0.0000   0.0000

          k = 0.0000 0.0000 0.2500 ( 19982 PWs)   bands (ev):

   -21.3150 -21.3150 -21.3150 -21.2594 -21.2594 -11.8239 -11.1546 -11.1177
   -11.1177  -6.2555  -2.5007  -2.4369  -2.4369  -1.2615  -1.2265  -0.5981
    -0.4960  -0.4833  -0.4833  -0.2669  -0.2669   1.6825   4.0983

     occupation numbers 
     1.0000   1.0000   1.0000   1.0000   1.0000   1.0000   1.0000   1.0000
     1.0000   1.0000   1.0000   1.0000   1.0000   1.0000   1.0000   1.0000
     1.0000   1.0000   1.0000   1.0000   1.0000   0.0000   0.0000

          k = 0.0000 0.0000-0.5000 ( 19946 PWs)   bands (ev):

   -21.3150 -21.3150 -21.3150 -21.2594 -21.2594 -11.7948 -11.1935 -11.1169
   -11.1169  -6.2254  -2.5753  -2.4524  -2.4524  -1.1179  -0.9375  -0.8785
    -0.7810  -0.4858  -0.4858  -0.2883  -0.2883   1.9624   3.9967

     occupation numbers 
     1.0000   1.0000   1.0000   1.0000   1.0000   1.0000   1.0000   1.0000
     1.0000   1.0000   1.0000   1.0000   1.0000   1.0000   1.0000   1.0000
     1.0000   1.0000   1.0000   1.0000   1.0000   0.0000   0.0000

          k = 0.0000 0.2500 0.2500 ( 19926 PWs)   bands (ev):

   -21.3150 -21.3150 -21.3149 -21.2594 -21.2594 -11.8008 -11.1549 -11.1433
   -11.1207  -6.2392  -2.5796  -2.4508  -2.4418  -1.1708  -1.1504  -0.7387
    -0.6112  -0.4714  -0.4357  -0.3265  -0.2042   1.8077   4.1973

     occupation numbers 
     1.0000   1.0000   1.0000   1.0000   1.0000   1.0000   1.0000   1.0000
     1.0000   1.0000   1.0000   1.0000   1.0000   1.0000   1.0000   1.0000
     1.0000   1.0000   1.0000   1.0000   1.0000   0.0000   0.0000

          k = 0.0000 0.2500-0.5000 ( 19942 PWs)   bands (ev):

   -21.3150 -21.3149 -21.3149 -21.2594 -21.2594 -11.7753 -11.1833 -11.1415
   -11.1255  -6.2228  -2.6467  -2.4598  -2.4570  -1.0518  -1.0044  -0.9358
    -0.7167  -0.4549  -0.4361  -0.3409  -0.2031   1.9563   4.1224

     occupation numbers 
     1.0000   1.0000   1.0000   1.0000   1.0000   1.0000   1.0000   1.0000
     1.0000   1.0000   1.0000   1.0000   1.0000   1.0000   1.0000   1.0000
     1.0000   1.0000   1.0000   1.0000   1.0000   0.0000   0.0000

          k = 0.0000-0.5000-0.5000 ( 19968 PWs)   bands (ev):

   -21.3150 -21.3150 -21.3150 -21.2594 -21.2594 -11.7542 -11.1678 -11.1678
   -11.1394  -6.2202  -2.7090  -2.4655  -2.4655  -1.0538  -1.0538  -0.9097
    -0.6841  -0.4115  -0.4115  -0.3809  -0.1183   1.9445   4.1303

     occupation numbers 
     1.0000   1.0000   1.0000   1.0000   1.0000   1.0000   1.0000   1.0000
     1.0000   1.0000   1.0000   1.0000   1.0000   1.0000   1.0000   1.0000
     1.0000   1.0000   1.0000   1.0000   1.0000   0.0000   0.0000

          k = 0.2500 0.2500 0.2500 ( 19951 PWs)   bands (ev):

   -21.3150 -21.3150 -21.3150 -21.2594 -21.2594 -11.7808 -11.1576 -11.1424
   -11.1424  -6.2372  -2.5890  -2.4939  -2.4939  -1.1017  -1.1017  -0.8329
    -0.5593  -0.5593  -0.3235  -0.2452  -0.2452   1.7844   4.2926

     occupation numbers 
     1.0000   1.0000   1.0000   1.0000   1.0000   1.0000   1.0000   1.0000
     1.0000   1.0000   1.0000   1.0000   1.0000   1.0000   1.0000   1.0000
     1.0000   1.0000   1.0000   1.0000   1.0000   0.0000   0.0000

          k = 0.2500 0.2500-0.5000 ( 19960 PWs)   bands (ev):

   -21.3150 -21.3150 -21.3150 -21.2594 -21.2594 -11.7591 -11.1767 -11.1492
   -11.1414  -6.2351  -2.6309  -2.5425  -2.4978  -1.0240  -1.0188  -0.9683
    -0.5990  -0.4277  -0.3287  -0.2555  -0.2307   1.7939   4.2559

     occupation numbers 
     1.0000   1.0000   1.0000   1.0000   1.0000   1.0000   1.0000   1.0000
     1.0000   1.0000   1.0000   1.0000   1.0000   1.0000   1.0000   1.0000
     1.0000   1.0000   1.0000   1.0000   1.0000   0.0000   0.0000

          k = 0.2500-0.5000-0.5000 ( 20016 PWs)   bands (ev):

   -21.3150 -21.3150 -21.3150 -21.2594 -21.2594 -11.7419 -11.1666 -11.1666
   -11.1521  -6.2472  -2.6646  -2.5518  -2.5518  -1.0117  -1.0117  -0.9921
    -0.4717  -0.3581  -0.2923  -0.2923  -0.1393   1.6507   4.2870

     occupation numbers 
     1.0000   1.0000   1.0000   1.0000   1.0000   1.0000   1.0000   1.0000
     1.0000   1.0000   1.0000   1.0000   1.0000   1.0000   1.0000   1.0000
     1.0000   1.0000   1.0000   1.0000   1.0000   0.0000   0.0000

          k =-0.5000-0.5000-0.5000 ( 19952 PWs)   bands (ev):

   -21.3150 -21.3150 -21.3150 -21.2594 -21.2594 -11.7289 -11.1655 -11.1655
   -11.1655  -6.2733  -2.6281  -2.6281  -2.6281  -0.9823  -0.9823  -0.9823
    -0.3295  -0.3295  -0.1662  -0.1662  -0.1662   1.3744   4.4157

     occupation numbers 
     1.0000   1.0000   1.0000   1.0000   1.0000   1.0000   1.0000   1.0000
     1.0000   1.0000   1.0000   1.0000   1.0000   1.0000   1.0000   1.0000
     1.0000   1.0000   1.0000   1.0000   1.0000   0.0000   0.0000

     highest occupied, lowest unoccupied level (ev):    -0.1183    1.3744

!    total energy              =   -1957.84077992 Ry

     total all-electron energy =    -69286.458341 Ry
     estimated scf accuracy    <       0.00000095 Ry

     The total energy is the sum of the following terms:
     one-electron contribution =    -155.26412833 Ry
     hartree contribution      =      94.71747853 Ry
     xc contribution           =    -110.98798690 Ry
     ewald contribution        =    -119.43299796 Ry
     one-center paw contrib.   =   -1666.87314525 Ry
      -> PAW hartree energy AE =     109.60397813 Ry
      -> PAW hartree energy PS =    -108.85916248 Ry
      -> PAW xc energy AE      =    -329.04025648 Ry
      -> PAW xc energy PS      =      47.34326262 Ry
      -> total E_H with PAW    =      95.46229418 Ry
      -> total E_XC with PAW   =    -392.68498076 Ry

     convergence has been achieved in   7 iterations

     Forces acting on atoms (cartesian axes, Ry/au):

     atom    1 type  1   force =     0.00000000    0.00000000    0.00000000
     atom    2 type  2   force =    -0.00038253    0.00038253    0.00038253
     atom    3 type  2   force =     0.00038253   -0.00038253    0.00038253
     atom    4 type  2   force =     0.00038253    0.00038253   -0.00038253
     atom    5 type  2   force =    -0.00038253   -0.00038253   -0.00038253
     The non-local contrib.  to forces
     atom    1 type  1   force =     0.00000000    0.00000000    0.00000000
     atom    2 type  2   force =    -0.09031110    0.09031110    0.09031110
     atom    3 type  2   force =     0.09031110   -0.09031110    0.09031110
     atom    4 type  2   force =     0.09031110    0.09031110   -0.09031110
     atom    5 type  2   force =    -0.09031110   -0.09031110   -0.09031110
     The ionic contribution  to forces
     atom    1 type  1   force =    -0.00000000   -0.00000000    0.00000000
     atom    2 type  2   force =     3.79412130   -3.79412130   -3.79412130
     atom    3 type  2   force =    -3.79412130    3.79412130   -3.79412130
     atom    4 type  2   force =    -3.79412130   -3.79412130    3.79412130
     atom    5 type  2   force =     3.79412130    3.79412130    3.79412130
     The local contribution  to forces
     atom    1 type  1   force =     0.00000000    0.00000000   -0.00000000
     atom    2 type  2   force =    -3.71501144    3.71501144    3.71501144
     atom    3 type  2   force =     3.71501144   -3.71501144    3.71501144
     atom    4 type  2   force =     3.71501144    3.71501144   -3.71501144
     atom    5 type  2   force =    -3.71501144   -3.71501144   -3.71501144
     The core correction contribution to forces
     atom    1 type  1   force =     0.00000000    0.00000000   -0.00000000
     atom    2 type  2   force =     0.01133699   -0.01133699   -0.01133699
     atom    3 type  2   force =    -0.01133699    0.01133699   -0.01133699
     atom    4 type  2   force =    -0.01133699   -0.01133699    0.01133699
     atom    5 type  2   force =     0.01133699    0.01133699    0.01133699
     The Hubbard contrib.    to forces
     atom    1 type  1   force =     0.00000000    0.00000000    0.00000000
     atom    2 type  2   force =     0.00000000    0.00000000    0.00000000
     atom    3 type  2   force =     0.00000000    0.00000000    0.00000000
     atom    4 type  2   force =     0.00000000    0.00000000    0.00000000
     atom    5 type  2   force =     0.00000000    0.00000000    0.00000000
     The SCF correction term to forces
     atom    1 type  1   force =     0.00000000   -0.00000000   -0.00000000
     atom    2 type  2   force =    -0.00051827    0.00051827    0.00051827
     atom    3 type  2   force =     0.00051827   -0.00051827    0.00051827
     atom    4 type  2   force =     0.00051827    0.00051827   -0.00051827
     atom    5 type  2   force =    -0.00051827   -0.00051827   -0.00051827

     Total force =     0.001325     Total SCF correction =     0.001795
     SCF correction compared to forces is large: reduce conv_thr to get better values


     Computing stress (Cartesian axis) and pressure

          total   stress  (Ry/bohr**3)                   (kbar)     P=       -0.29
  -0.00000197   0.00000000   0.00000000           -0.29        0.00        0.00
   0.00000000  -0.00000197   0.00000000            0.00       -0.29        0.00
   0.00000000   0.00000000  -0.00000197            0.00        0.00       -0.29

     kinetic stress (kbar)   4002.74      0.00      0.00
                                0.00   4002.74      0.00
                                0.00      0.00   4002.74

     local   stress (kbar)  -2877.67      0.00     -0.00
                                0.00  -2877.67     -0.00
                               -0.00     -0.00  -2877.67

     nonloc. stress (kbar)    794.22      0.00      0.00
                                0.00    794.22      0.00
                                0.00      0.00    794.22

     hartree stress (kbar)   2302.28      0.00      0.00
                                0.00   2302.28      0.00
                                0.00      0.00   2302.28

     exc-cor stress (kbar)   4100.23      0.00      0.00
                                0.00   4100.23      0.00
                                0.00      0.00   4100.23

     corecor stress (kbar)  -5419.05     -0.00     -0.00
                               -0.00  -5419.05     -0.00
                               -0.00     -0.00  -5419.05

     ewald   stress (kbar)  -2903.03      0.00     -0.00
                                0.00  -2903.03     -0.00
                               -0.00     -0.00  -2903.03

     hubbard stress (kbar)      0.00      0.00      0.00
                                0.00      0.00      0.00
                                0.00      0.00      0.00

     DFT-D   stress (kbar)      0.00      0.00      0.00
                                0.00      0.00      0.00
                                0.00      0.00      0.00

     XDM     stress (kbar)      0.00      0.00      0.00
                                0.00      0.00      0.00
                                0.00      0.00      0.00

     dft-nl  stress (kbar)      0.00      0.00      0.00
                                0.00      0.00      0.00
                                0.00      0.00      0.00

     TS-vdW  stress (kbar)      0.00      0.00      0.00
                                0.00      0.00      0.00
                                0.00      0.00      0.00



     BFGS Geometry Optimization
     Energy error            =      0.0E+00
     Gradient error          =      3.8E-04
     Cell gradient error     =      2.0E-06


     number of scf cycles    =   1
     number of bfgs steps    =   0

     enthalpy new            =   -1957.8407799169 Ry

     new trust radius        =       0.0006625544 bohr
     new conv_thr            =       0.0000010000 Ry

     new unit-cell volume =   2017.04196 a.u.^3 (   298.89478 Ang^3 )
     density =      3.47947 g/cm^3

CELL_PARAMETERS (angstrom)
   6.686098608   0.000000000   0.000000000
   0.000000000   6.686098608   0.000000000
   0.000000000   0.000000000   6.686098608

ATOMIC_POSITIONS (crystal)
Sn            0.0000000000        0.0000000000        0.0000000000
I             0.2338727261        0.7661272739        0.7661272739
I             0.7661272739        0.2338727261        0.7661272739
I             0.7661272739        0.7661272739        0.2338727261
I             0.2338727261        0.2338727261        0.2338727261



     Writing output data file ./out/SnI4un.save/
     NEW-OLD atomic charge density approx. for the potential
     extrapolated charge   41.99379, renormalised to   42.00000

     total cpu time spent up to now is      142.3 secs

     Self-consistent Calculation

     iteration #  1     ecut=    70.00 Ry     beta= 0.50
     Davidson diagonalization with overlap
     ethr =  1.00E-06,  avg # of iterations =  2.0

     Threshold (ethr) on eigenvalues was too large:
     Diagonalizing with lowered threshold

     Davidson diagonalization with overlap
     ethr =  3.20E-08,  avg # of iterations =  3.9

     total cpu time spent up to now is      163.3 secs

     total energy              =   -1957.84076362 Ry
     estimated scf accuracy    <       0.00002383 Ry

     iteration #  2     ecut=    70.00 Ry     beta= 0.50
     Davidson diagonalization with overlap
     ethr =  5.67E-08,  avg # of iterations =  3.9

     total cpu time spent up to now is      176.2 secs

     total energy              =   -1957.84077829 Ry
     estimated scf accuracy    <       0.00003097 Ry

     iteration #  3     ecut=    70.00 Ry     beta= 0.50
     Davidson diagonalization with overlap
     ethr =  5.67E-08,  avg # of iterations =  2.0

     total cpu time spent up to now is      186.7 secs

     total energy              =   -1957.84078057 Ry
     estimated scf accuracy    <       0.00000280 Ry

     iteration #  4     ecut=    70.00 Ry     beta= 0.50
     Davidson diagonalization with overlap
     ethr =  6.66E-09,  avg # of iterations =  3.9

     total cpu time spent up to now is      197.8 secs

     End of self-consistent calculation

          k = 0.0000 0.0000 0.0000 ( 20005 PWs)   bands (ev):

   -21.3159 -21.3159 -21.3159 -21.2602 -21.2602 -11.8505 -11.1177 -11.1177
   -11.1177  -6.2855  -2.4220  -2.4220  -2.4220  -1.3495  -1.3495  -0.4674
    -0.4674  -0.4674  -0.2564  -0.2564  -0.2564   1.4142   4.1446

     occupation numbers 
     1.0000   1.0000   1.0000   1.0000   1.0000   1.0000   1.0000   1.0000
     1.0000   1.0000   1.0000   1.0000   1.0000   1.0000   1.0000   1.0000
     1.0000   1.0000   1.0000   1.0000   1.0000   0.0000   0.0000

          k = 0.0000 0.0000 0.2500 ( 19982 PWs)   bands (ev):

   -21.3159 -21.3158 -21.3158 -21.2602 -21.2602 -11.8244 -11.1538 -11.1169
   -11.1169  -6.2558  -2.5010  -2.4373  -2.4373  -1.2607  -1.2256  -0.5969
    -0.4950  -0.4821  -0.4821  -0.2657  -0.2657   1.6857   4.1000

     occupation numbers 
     1.0000   1.0000   1.0000   1.0000   1.0000   1.0000   1.0000   1.0000
     1.0000   1.0000   1.0000   1.0000   1.0000   1.0000   1.0000   1.0000
     1.0000   1.0000   1.0000   1.0000   1.0000   0.0000   0.0000

          k = 0.0000 0.0000-0.5000 ( 19946 PWs)   bands (ev):

   -21.3158 -21.3158 -21.3158 -21.2602 -21.2601 -11.7954 -11.1927 -11.1161
   -11.1161  -6.2257  -2.5756  -2.4529  -2.4529  -1.1172  -0.9366  -0.8775
    -0.7797  -0.4847  -0.4847  -0.2869  -0.2869   1.9656   3.9985

     occupation numbers 
     1.0000   1.0000   1.0000   1.0000   1.0000   1.0000   1.0000   1.0000
     1.0000   1.0000   1.0000   1.0000   1.0000   1.0000   1.0000   1.0000
     1.0000   1.0000   1.0000   1.0000   1.0000   0.0000   0.0000

          k = 0.0000 0.2500 0.2500 ( 19926 PWs)   bands (ev):

   -21.3158 -21.3158 -21.3158 -21.2601 -21.2601 -11.8013 -11.1541 -11.1425
   -11.1199  -6.2395  -2.5799  -2.4513  -2.4422  -1.1700  -1.1496  -0.7376
    -0.6101  -0.4702  -0.4344  -0.3253  -0.2030   1.8109   4.1991

     occupation numbers 
     1.0000   1.0000   1.0000   1.0000   1.0000   1.0000   1.0000   1.0000
     1.0000   1.0000   1.0000   1.0000   1.0000   1.0000   1.0000   1.0000
     1.0000   1.0000   1.0000   1.0000   1.0000   0.0000   0.0000

          k = 0.0000 0.2500-0.5000 ( 19942 PWs)   bands (ev):

   -21.3159 -21.3158 -21.3158 -21.2601 -21.2601 -11.7759 -11.1825 -11.1407
   -11.1247  -6.2231  -2.6470  -2.4603  -2.4575  -1.0510  -1.0034  -0.9348
    -0.7154  -0.4537  -0.4351  -0.3396  -0.2017   1.9595   4.1242

     occupation numbers 
     1.0000   1.0000   1.0000   1.0000   1.0000   1.0000   1.0000   1.0000
     1.0000   1.0000   1.0000   1.0000   1.0000   1.0000   1.0000   1.0000
     1.0000   1.0000   1.0000   1.0000   1.0000   0.0000   0.0000

          k = 0.0000-0.5000-0.5000 ( 19968 PWs)   bands (ev):

   -21.3159 -21.3158 -21.3158 -21.2602 -21.2601 -11.7548 -11.1670 -11.1670
   -11.1385  -6.2204  -2.7094  -2.4660  -2.4660  -1.0528  -1.0528  -0.9089
    -0.6829  -0.4102  -0.4102  -0.3800  -0.1168   1.9477   4.1320

     occupation numbers 
     1.0000   1.0000   1.0000   1.0000   1.0000   1.0000   1.0000   1.0000
     1.0000   1.0000   1.0000   1.0000   1.0000   1.0000   1.0000   1.0000
     1.0000   1.0000   1.0000   1.0000   1.0000   0.0000   0.0000

          k = 0.2500 0.2500 0.2500 ( 19951 PWs)   bands (ev):

   -21.3159 -21.3158 -21.3158 -21.2601 -21.2601 -11.7813 -11.1568 -11.1416
   -11.1416  -6.2375  -2.5894  -2.4943  -2.4943  -1.1008  -1.1008  -0.8318
    -0.5582  -0.5582  -0.3222  -0.2440  -0.2440   1.7875   4.2946

     occupation numbers 
     1.0000   1.0000   1.0000   1.0000   1.0000   1.0000   1.0000   1.0000
     1.0000   1.0000   1.0000   1.0000   1.0000   1.0000   1.0000   1.0000
     1.0000   1.0000   1.0000   1.0000   1.0000   0.0000   0.0000

          k = 0.2500 0.2500-0.5000 ( 19960 PWs)   bands (ev):

   -21.3159 -21.3158 -21.3158 -21.2601 -21.2601 -11.7597 -11.1759 -11.1484
   -11.1406  -6.2354  -2.6312  -2.5429  -2.4983  -1.0232  -1.0178  -0.9673
    -0.5978  -0.4267  -0.3275  -0.2541  -0.2293   1.7971   4.2572

     occupation numbers 
     1.0000   1.0000   1.0000   1.0000   1.0000   1.0000   1.0000   1.0000
     1.0000   1.0000   1.0000   1.0000   1.0000   1.0000   1.0000   1.0000
     1.0000   1.0000   1.0000   1.0000   1.0000   0.0000   0.0000

          k = 0.2500-0.5000-0.5000 ( 20016 PWs)   bands (ev):

   -21.3159 -21.3159 -21.3159 -21.2602 -21.2602 -11.7424 -11.1659 -11.1659
   -11.1513  -6.2474  -2.6650  -2.5522  -2.5522  -1.0108  -1.0108  -0.9912
    -0.4707  -0.3571  -0.2910  -0.2910  -0.1379   1.6538   4.2881

     occupation numbers 
     1.0000   1.0000   1.0000   1.0000   1.0000   1.0000   1.0000   1.0000
     1.0000   1.0000   1.0000   1.0000   1.0000   1.0000   1.0000   1.0000
     1.0000   1.0000   1.0000   1.0000   1.0000   0.0000   0.0000

          k =-0.5000-0.5000-0.5000 ( 19952 PWs)   bands (ev):

   -21.3158 -21.3158 -21.3158 -21.2601 -21.2601 -11.7294 -11.1647 -11.1647
   -11.1647  -6.2735  -2.6285  -2.6285  -2.6285  -0.9813  -0.9813  -0.9813
    -0.3285  -0.3285  -0.1649  -0.1649  -0.1649   1.3775   4.4174

     occupation numbers 
     1.0000   1.0000   1.0000   1.0000   1.0000   1.0000   1.0000   1.0000
     1.0000   1.0000   1.0000   1.0000   1.0000   1.0000   1.0000   1.0000
     1.0000   1.0000   1.0000   1.0000   1.0000   0.0000   0.0000

     highest occupied, lowest unoccupied level (ev):    -0.1168    1.3775

!    total energy              =   -1957.84078069 Ry

     total all-electron energy =    -69286.458342 Ry
     estimated scf accuracy    <       0.00000036 Ry

     The total energy is the sum of the following terms:
     one-electron contribution =    -155.29117151 Ry
     hartree contribution      =      94.73385586 Ry
     xc contribution           =    -110.98869606 Ry
     ewald contribution        =    -119.42146062 Ry
     one-center paw contrib.   =   -1666.87330837 Ry
      -> PAW hartree energy AE =     109.62122171 Ry
      -> PAW hartree energy PS =    -108.87663565 Ry
      -> PAW xc energy AE      =    -329.04150568 Ry
      -> PAW xc energy PS      =      47.34454459 Ry
      -> total E_H with PAW    =      95.47844192 Ry
      -> total E_XC with PAW   =    -392.68565715 Ry

     convergence has been achieved in   4 iterations

     Forces acting on atoms (cartesian axes, Ry/au):

     atom    1 type  1   force =     0.00000000    0.00000000    0.00000000
     atom    2 type  2   force =    -0.00021673    0.00021673    0.00021673
     atom    3 type  2   force =     0.00021673   -0.00021673    0.00021673
     atom    4 type  2   force =     0.00021673    0.00021673   -0.00021673
     atom    5 type  2   force =    -0.00021673   -0.00021673   -0.00021673
     The non-local contrib.  to forces
     atom    1 type  1   force =     0.00000000    0.00000000    0.00000000
     atom    2 type  2   force =    -0.09019448    0.09019448    0.09019448
     atom    3 type  2   force =     0.09019448   -0.09019448    0.09019448
     atom    4 type  2   force =     0.09019448    0.09019448   -0.09019448
     atom    5 type  2   force =    -0.09019448   -0.09019448   -0.09019448
     The ionic contribution  to forces
     atom    1 type  1   force =     0.00000000    0.00000000   -0.00000000
     atom    2 type  2   force =     3.79631561   -3.79631561   -3.79631561
     atom    3 type  2   force =    -3.79631561    3.79631561   -3.79631561
     atom    4 type  2   force =    -3.79631561   -3.79631561    3.79631561
     atom    5 type  2   force =     3.79631561    3.79631561    3.79631561
     The local contribution  to forces
     atom    1 type  1   force =     0.00000000    0.00000000    0.00000000
     atom    2 type  2   force =    -3.71733435    3.71733435    3.71733435
     atom    3 type  2   force =     3.71733435   -3.71733435    3.71733435
     atom    4 type  2   force =     3.71733435    3.71733435   -3.71733435
     atom    5 type  2   force =    -3.71733435   -3.71733435   -3.71733435
     The core correction contribution to forces
     atom    1 type  1   force =     0.00000000    0.00000000    0.00000000
     atom    2 type  2   force =     0.01132829   -0.01132829   -0.01132829
     atom    3 type  2   force =    -0.01132829    0.01132829   -0.01132829
     atom    4 type  2   force =    -0.01132829   -0.01132829    0.01132829
     atom    5 type  2   force =     0.01132829    0.01132829    0.01132829
     The Hubbard contrib.    to forces
     atom    1 type  1   force =     0.00000000    0.00000000    0.00000000
     atom    2 type  2   force =     0.00000000    0.00000000    0.00000000
     atom    3 type  2   force =     0.00000000    0.00000000    0.00000000
     atom    4 type  2   force =     0.00000000    0.00000000    0.00000000
     atom    5 type  2   force =     0.00000000    0.00000000    0.00000000
     The SCF correction term to forces
     atom    1 type  1   force =    -0.00000000   -0.00000000   -0.00000000
     atom    2 type  2   force =    -0.00033179    0.00033179    0.00033179
     atom    3 type  2   force =     0.00033179   -0.00033179    0.00033179
     atom    4 type  2   force =     0.00033179    0.00033179   -0.00033179
     atom    5 type  2   force =    -0.00033179   -0.00033179   -0.00033179

     Total force =     0.000751     Total SCF correction =     0.001149
     SCF correction compared to forces is large: reduce conv_thr to get better values


     Computing stress (Cartesian axis) and pressure

          total   stress  (Ry/bohr**3)                   (kbar)     P=        0.03
   0.00000023   0.00000000   0.00000000            0.03        0.00        0.00
   0.00000000   0.00000023   0.00000000            0.00        0.03        0.00
   0.00000000   0.00000000   0.00000023            0.00        0.00        0.03

     kinetic stress (kbar)   4003.36      0.00      0.00
                                0.00   4003.36      0.00
                                0.00      0.00   4003.36

     local   stress (kbar)  -2878.77     -0.00      0.00
                               -0.00  -2878.77      0.00
                                0.00      0.00  -2878.77

     nonloc. stress (kbar)    794.63      0.00      0.00
                                0.00    794.63      0.00
                                0.00      0.00    794.63

     hartree stress (kbar)   2303.01      0.00      0.00
                                0.00   2303.01      0.00
                                0.00      0.00   2303.01

     exc-cor stress (kbar)   4100.82      0.00     -0.00
                                0.00   4100.82     -0.00
                               -0.00     -0.00   4100.82

     corecor stress (kbar)  -5419.85      0.00     -0.00
                                0.00  -5419.85     -0.00
                               -0.00     -0.00  -5419.85

     ewald   stress (kbar)  -2903.18     -0.00     -0.00
                               -0.00  -2903.18     -0.00
                               -0.00     -0.00  -2903.18

     hubbard stress (kbar)      0.00      0.00      0.00
                                0.00      0.00      0.00
                                0.00      0.00      0.00

     DFT-D   stress (kbar)      0.00      0.00      0.00
                                0.00      0.00      0.00
                                0.00      0.00      0.00

     XDM     stress (kbar)      0.00      0.00      0.00
                                0.00      0.00      0.00
                                0.00      0.00      0.00

     dft-nl  stress (kbar)      0.00      0.00      0.00
                                0.00      0.00      0.00
                                0.00      0.00      0.00

     TS-vdW  stress (kbar)      0.00      0.00      0.00
                                0.00      0.00      0.00
                                0.00      0.00      0.00


     Energy error            =      7.7E-07
     Gradient error          =      2.2E-04
     Cell gradient error     =      2.3E-07


     number of scf cycles    =   2
     number of bfgs steps    =   1

     enthalpy old            =   -1957.8407799169 Ry
     enthalpy new            =   -1957.8407806892 Ry

     CASE: enthalpy_new < enthalpy_old

     new trust radius        =       0.0007795190 bohr
     new conv_thr            =       0.0000000100 Ry

     new unit-cell volume =   2017.02806 a.u.^3 (   298.89272 Ang^3 )
     density =      3.47949 g/cm^3

CELL_PARAMETERS (angstrom)
   6.686083243   0.000000000   0.000000000
   0.000000000   6.686083243   0.000000000
   0.000000000   0.000000000   6.686083243

ATOMIC_POSITIONS (crystal)
Sn            0.0000000000        0.0000000000        0.0000000000
I             0.2338371061        0.7661628939        0.7661628939
I             0.7661628939        0.2338371061        0.7661628939
I             0.7661628939        0.7661628939        0.2338371061
I             0.2338371061        0.2338371061        0.2338371061



     Writing output data file ./out/SnI4un.save/
     NEW-OLD atomic charge density approx. for the potential
     extrapolated charge   41.99971, renormalised to   42.00000

     total cpu time spent up to now is      232.7 secs

     Self-consistent Calculation

     iteration #  1     ecut=    70.00 Ry     beta= 0.50
     Davidson diagonalization with overlap
     ethr =  1.00E-06,  avg # of iterations =  2.0

     Threshold (ethr) on eigenvalues was too large:
     Diagonalizing with lowered threshold

     Davidson diagonalization with overlap
     ethr =  3.73E-09,  avg # of iterations =  5.0

     total cpu time spent up to now is      256.0 secs

     total energy              =   -1957.84078072 Ry
     estimated scf accuracy    <       0.00000367 Ry

     iteration #  2     ecut=    70.00 Ry     beta= 0.50
     Davidson diagonalization with overlap
     ethr =  8.75E-09,  avg # of iterations =  3.0

     total cpu time spent up to now is      268.5 secs

     total energy              =   -1957.84078206 Ry
     estimated scf accuracy    <       0.00000193 Ry

     iteration #  3     ecut=    70.00 Ry     beta= 0.50
     Davidson diagonalization with overlap
     ethr =  4.61E-09,  avg # of iterations =  2.0

     total cpu time spent up to now is      279.5 secs

     total energy              =   -1957.84078239 Ry
     estimated scf accuracy    <       0.00000005 Ry

     iteration #  4     ecut=    70.00 Ry     beta= 0.50
     Davidson diagonalization with overlap
     ethr =  1.12E-10,  avg # of iterations =  4.8

     total cpu time spent up to now is      292.3 secs

     total energy              =   -1957.84078243 Ry
     estimated scf accuracy    <       0.00000002 Ry

     iteration #  5     ecut=    70.00 Ry     beta= 0.50
     Davidson diagonalization with overlap
     ethr =  5.18E-11,  avg # of iterations =  2.0

     total cpu time spent up to now is      302.5 secs

     total energy              =   -1957.84078247 Ry
     estimated scf accuracy    <       0.00000002 Ry

     iteration #  6     ecut=    70.00 Ry     beta= 0.50
     Davidson diagonalization with overlap
     ethr =  5.12E-11,  avg # of iterations =  4.5

     total cpu time spent up to now is      315.6 secs

     total energy              =   -1957.84078248 Ry
     estimated scf accuracy    <       0.00000009 Ry

     iteration #  7     ecut=    70.00 Ry     beta= 0.50
     Davidson diagonalization with overlap
     ethr =  5.12E-11,  avg # of iterations =  1.5

     total cpu time spent up to now is      325.5 secs

     total energy              =   -1957.84078245 Ry
     estimated scf accuracy    <       0.00000006 Ry

     iteration #  8     ecut=    70.00 Ry     beta= 0.50
     Davidson diagonalization with overlap
     ethr =  5.12E-11,  avg # of iterations =  3.0

     total cpu time spent up to now is      337.9 secs

     End of self-consistent calculation

          k = 0.0000 0.0000 0.0000 ( 20005 PWs)   bands (ev):

   -21.3192 -21.3192 -21.3192 -21.2635 -21.2635 -11.8522 -11.1185 -11.1185
   -11.1185  -6.2866  -2.4233  -2.4233  -2.4233  -1.3500  -1.3500  -0.4677
    -0.4677  -0.4677  -0.2570  -0.2570  -0.2570   1.4161   4.1455

     occupation numbers 
     1.0000   1.0000   1.0000   1.0000   1.0000   1.0000   1.0000   1.0000
     1.0000   1.0000   1.0000   1.0000   1.0000   1.0000   1.0000   1.0000
     1.0000   1.0000   1.0000   1.0000   1.0000   0.0000   0.0000

          k = 0.0000 0.0000 0.2500 ( 19982 PWs)   bands (ev):

   -21.3192 -21.3192 -21.3192 -21.2635 -21.2634 -11.8261 -11.1545 -11.1176
   -11.1176  -6.2570  -2.5022  -2.4386  -2.4386  -1.2612  -1.2261  -0.5971
    -0.4955  -0.4825  -0.4825  -0.2662  -0.2662   1.6875   4.1008

     occupation numbers 
     1.0000   1.0000   1.0000   1.0000   1.0000   1.0000   1.0000   1.0000
     1.0000   1.0000   1.0000   1.0000   1.0000   1.0000   1.0000   1.0000
     1.0000   1.0000   1.0000   1.0000   1.0000   0.0000   0.0000

          k = 0.0000 0.0000-0.5000 ( 19946 PWs)   bands (ev):

   -21.3192 -21.3192 -21.3192 -21.2634 -21.2634 -11.7971 -11.1934 -11.1168
   -11.1168  -6.2269  -2.5766  -2.4542  -2.4542  -1.1179  -0.9371  -0.8780
    -0.7798  -0.4852  -0.4852  -0.2872  -0.2872   1.9673   3.9992

     occupation numbers 
     1.0000   1.0000   1.0000   1.0000   1.0000   1.0000   1.0000   1.0000
     1.0000   1.0000   1.0000   1.0000   1.0000   1.0000   1.0000   1.0000
     1.0000   1.0000   1.0000   1.0000   1.0000   0.0000   0.0000

          k = 0.0000 0.2500 0.2500 ( 19926 PWs)   bands (ev):

   -21.3192 -21.3192 -21.3192 -21.2634 -21.2634 -11.8030 -11.1549 -11.1433
   -11.1207  -6.2407  -2.5811  -2.4526  -2.4435  -1.1704  -1.1502  -0.7380
    -0.6104  -0.4707  -0.4348  -0.3257  -0.2034   1.8127   4.1998

     occupation numbers 
     1.0000   1.0000   1.0000   1.0000   1.0000   1.0000   1.0000   1.0000
     1.0000   1.0000   1.0000   1.0000   1.0000   1.0000   1.0000   1.0000
     1.0000   1.0000   1.0000   1.0000   1.0000   0.0000   0.0000

          k = 0.0000 0.2500-0.5000 ( 19942 PWs)   bands (ev):

   -21.3192 -21.3192 -21.3192 -21.2634 -21.2634 -11.7776 -11.1832 -11.1415
   -11.1254  -6.2243  -2.6481  -2.4617  -2.4588  -1.0516  -1.0038  -0.9353
    -0.7156  -0.4541  -0.4356  -0.3399  -0.2020   1.9612   4.1249

     occupation numbers 
     1.0000   1.0000   1.0000   1.0000   1.0000   1.0000   1.0000   1.0000
     1.0000   1.0000   1.0000   1.0000   1.0000   1.0000   1.0000   1.0000
     1.0000   1.0000   1.0000   1.0000   1.0000   0.0000   0.0000

          k = 0.0000-0.5000-0.5000 ( 19968 PWs)   bands (ev):

   -21.3192 -21.3192 -21.3192 -21.2634 -21.2634 -11.7566 -11.1677 -11.1677
   -11.1392  -6.2216  -2.7105  -2.4673  -2.4673  -1.0531  -1.0531  -0.9095
    -0.6831  -0.4105  -0.4105  -0.3807  -0.1171   1.9494   4.1327

     occupation numbers 
     1.0000   1.0000   1.0000   1.0000   1.0000   1.0000   1.0000   1.0000
     1.0000   1.0000   1.0000   1.0000   1.0000   1.0000   1.0000   1.0000
     1.0000   1.0000   1.0000   1.0000   1.0000   0.0000   0.0000

          k = 0.2500 0.2500 0.2500 ( 19951 PWs)   bands (ev):

   -21.3192 -21.3192 -21.3192 -21.2634 -21.2634 -11.7831 -11.1575 -11.1423
   -11.1423  -6.2386  -2.5905  -2.4956  -2.4956  -1.1013  -1.1013  -0.8321
    -0.5586  -0.5586  -0.3225  -0.2445  -0.2445   1.7893   4.2953

     occupation numbers 
     1.0000   1.0000   1.0000   1.0000   1.0000   1.0000   1.0000   1.0000
     1.0000   1.0000   1.0000   1.0000   1.0000   1.0000   1.0000   1.0000
     1.0000   1.0000   1.0000   1.0000   1.0000   0.0000   0.0000

          k = 0.2500 0.2500-0.5000 ( 19960 PWs)   bands (ev):

   -21.3192 -21.3192 -21.3192 -21.2634 -21.2634 -11.7614 -11.1766 -11.1491
   -11.1413  -6.2365  -2.6324  -2.5442  -2.4996  -1.0237  -1.0182  -0.9677
    -0.5982  -0.4273  -0.3280  -0.2544  -0.2296   1.7989   4.2577

     occupation numbers 
     1.0000   1.0000   1.0000   1.0000   1.0000   1.0000   1.0000   1.0000
     1.0000   1.0000   1.0000   1.0000   1.0000   1.0000   1.0000   1.0000
     1.0000   1.0000   1.0000   1.0000   1.0000   0.0000   0.0000

          k = 0.2500-0.5000-0.5000 ( 20016 PWs)   bands (ev):

   -21.3193 -21.3193 -21.3192 -21.2635 -21.2634 -11.7442 -11.1666 -11.1666
   -11.1520  -6.2485  -2.6662  -2.5535  -2.5535  -1.0112  -1.0112  -0.9916
    -0.4713  -0.3579  -0.2913  -0.2913  -0.1382   1.6556   4.2886

     occupation numbers 
     1.0000   1.0000   1.0000   1.0000   1.0000   1.0000   1.0000   1.0000
     1.0000   1.0000   1.0000   1.0000   1.0000   1.0000   1.0000   1.0000
     1.0000   1.0000   1.0000   1.0000   1.0000   0.0000   0.0000

          k =-0.5000-0.5000-0.5000 ( 19952 PWs)   bands (ev):

   -21.3192 -21.3192 -21.3192 -21.2634 -21.2634 -11.7312 -11.1655 -11.1655
   -11.1655  -6.2746  -2.6297  -2.6297  -2.6297  -0.9817  -0.9817  -0.9817
    -0.3292  -0.3292  -0.1652  -0.1652  -0.1652   1.3795   4.4180

     occupation numbers 
     1.0000   1.0000   1.0000   1.0000   1.0000   1.0000   1.0000   1.0000
     1.0000   1.0000   1.0000   1.0000   1.0000   1.0000   1.0000   1.0000
     1.0000   1.0000   1.0000   1.0000   1.0000   0.0000   0.0000

     highest occupied, lowest unoccupied level (ev):    -0.1171    1.3795

!    total energy              =   -1957.84078246 Ry

     total all-electron energy =    -69286.458344 Ry
     estimated scf accuracy    <          6.2E-09 Ry

     The total energy is the sum of the following terms:
     one-electron contribution =    -155.33687000 Ry
     hartree contribution      =      94.76058087 Ry
     xc contribution           =    -110.98986099 Ry
     ewald contribution        =    -119.40122659 Ry
     one-center paw contrib.   =   -1666.87340576 Ry
      -> PAW hartree energy AE =     109.63008643 Ry
      -> PAW hartree energy PS =    -108.88536507 Ry
      -> PAW xc energy AE      =    -329.04259504 Ry
      -> PAW xc energy PS      =      47.34545499 Ry
      -> total E_H with PAW    =      95.50530223 Ry
      -> total E_XC with PAW   =    -392.68700104 Ry

     convergence has been achieved in   8 iterations

     Forces acting on atoms (cartesian axes, Ry/au):

     atom    1 type  1   force =     0.00000000    0.00000000    0.00000000
     atom    2 type  2   force =    -0.00025007    0.00025007    0.00025007
     atom    3 type  2   force =     0.00025007   -0.00025007    0.00025007
     atom    4 type  2   force =     0.00025007    0.00025007   -0.00025007
     atom    5 type  2   force =    -0.00025007   -0.00025007   -0.00025007
     The non-local contrib.  to forces
     atom    1 type  1   force =     0.00000000    0.00000000    0.00000000
     atom    2 type  2   force =    -0.09024543    0.09024543    0.09024543
     atom    3 type  2   force =     0.09024543   -0.09024543    0.09024543
     atom    4 type  2   force =     0.09024543    0.09024543   -0.09024543
     atom    5 type  2   force =    -0.09024543   -0.09024543   -0.09024543
     The ionic contribution  to forces
     atom    1 type  1   force =     0.00000000    0.00000000    0.00000000
     atom    2 type  2   force =     3.79847574   -3.79847574   -3.79847574
     atom    3 type  2   force =    -3.79847574    3.79847574   -3.79847574
     atom    4 type  2   force =    -3.79847574   -3.79847574    3.79847574
     atom    5 type  2   force =     3.79847574    3.79847574    3.79847574
     The local contribution  to forces
     atom    1 type  1   force =     0.00000000   -0.00000000   -0.00000000
     atom    2 type  2   force =    -3.71983979    3.71983979    3.71983979
     atom    3 type  2   force =     3.71983979   -3.71983979    3.71983979
     atom    4 type  2   force =     3.71983979    3.71983979   -3.71983979
     atom    5 type  2   force =    -3.71983979   -3.71983979   -3.71983979
     The core correction contribution to forces
     atom    1 type  1   force =     0.00000000    0.00000000    0.00000000
     atom    2 type  2   force =     0.01131331   -0.01131331   -0.01131331
     atom    3 type  2   force =    -0.01131331    0.01131331   -0.01131331
     atom    4 type  2   force =    -0.01131331   -0.01131331    0.01131331
     atom    5 type  2   force =     0.01131331    0.01131331    0.01131331
     The Hubbard contrib.    to forces
     atom    1 type  1   force =     0.00000000    0.00000000    0.00000000
     atom    2 type  2   force =     0.00000000    0.00000000    0.00000000
     atom    3 type  2   force =     0.00000000    0.00000000    0.00000000
     atom    4 type  2   force =     0.00000000    0.00000000    0.00000000
     atom    5 type  2   force =     0.00000000    0.00000000    0.00000000
     The SCF correction term to forces
     atom    1 type  1   force =     0.00000000    0.00000000   -0.00000000
     atom    2 type  2   force =     0.00004611   -0.00004611   -0.00004611
     atom    3 type  2   force =    -0.00004611    0.00004611   -0.00004611
     atom    4 type  2   force =    -0.00004611   -0.00004611    0.00004611
     atom    5 type  2   force =     0.00004611    0.00004611    0.00004611

     Total force =     0.000866     Total SCF correction =     0.000160
     SCF correction compared to forces is large: reduce conv_thr to get better values


     Computing stress (Cartesian axis) and pressure

          total   stress  (Ry/bohr**3)                   (kbar)     P=        0.77
   0.00000524   0.00000000   0.00000000            0.77        0.00        0.00
   0.00000000   0.00000524   0.00000000            0.00        0.77        0.00
   0.00000000   0.00000000   0.00000524            0.00        0.00        0.77

     kinetic stress (kbar)   4003.48      0.00      0.00
                                0.00   4003.48      0.00
                                0.00      0.00   4003.48

     local   stress (kbar)  -2879.89     -0.00      0.00
                               -0.00  -2879.89      0.00
                                0.00      0.00  -2879.89

     nonloc. stress (kbar)    795.27      0.00      0.00
                                0.00    795.27      0.00
                                0.00      0.00    795.27

     hartree stress (kbar)   2303.68     -0.00      0.00
                               -0.00   2303.68     -0.00
                                0.00     -0.00   2303.68

     exc-cor stress (kbar)   4100.84     -0.00     -0.00
                               -0.00   4100.84     -0.00
                               -0.00     -0.00   4100.84

     corecor stress (kbar)  -5419.90      0.00      0.00
                                0.00  -5419.90     -0.00
                                0.00     -0.00  -5419.90

     ewald   stress (kbar)  -2902.71      0.00      0.00
                                0.00  -2902.71      0.00
                                0.00      0.00  -2902.71

     hubbard stress (kbar)      0.00      0.00      0.00
                                0.00      0.00      0.00
                                0.00      0.00      0.00

     DFT-D   stress (kbar)      0.00      0.00      0.00
                                0.00      0.00      0.00
                                0.00      0.00      0.00

     XDM     stress (kbar)      0.00      0.00      0.00
                                0.00      0.00      0.00
                                0.00      0.00      0.00

     dft-nl  stress (kbar)      0.00      0.00      0.00
                                0.00      0.00      0.00
                                0.00      0.00      0.00

     TS-vdW  stress (kbar)      0.00      0.00      0.00
                                0.00      0.00      0.00
                                0.00      0.00      0.00


     Energy error            =      1.8E-06
     Gradient error          =      2.5E-04
     Cell gradient error     =      5.2E-06


     number of scf cycles    =   3
     number of bfgs steps    =   2

     enthalpy old            =   -1957.8407806892 Ry
     enthalpy new            =   -1957.8407824609 Ry

     CASE: enthalpy_new < enthalpy_old


     WARNING: bfgs curvature condition failed, Theta= 0.731
     new trust radius        =       0.0008574689 bohr
     new conv_thr            =       0.0000000100 Ry

     new unit-cell volume =   2016.97945 a.u.^3 (   298.88552 Ang^3 )
     density =      3.47958 g/cm^3

CELL_PARAMETERS (angstrom)
   6.686029532   0.000000000   0.000000000
   0.000000000   6.686029532   0.000000000
   0.000000000   0.000000000   6.686029532

ATOMIC_POSITIONS (crystal)
Sn            0.0000000000        0.0000000000        0.0000000000
I             0.2337979240        0.7662020760        0.7662020760
I             0.7662020760        0.2337979240        0.7662020760
I             0.7662020760        0.7662020760        0.2337979240
I             0.2337979240        0.2337979240        0.2337979240



     Writing output data file ./out/SnI4un.save/
     NEW-OLD atomic charge density approx. for the potential
     extrapolated charge   41.99899, renormalised to   42.00000

     total cpu time spent up to now is      373.1 secs

     Self-consistent Calculation

     iteration #  1     ecut=    70.00 Ry     beta= 0.50
     Davidson diagonalization with overlap
     ethr =  1.00E-06,  avg # of iterations =  2.0

     Threshold (ethr) on eigenvalues was too large:
     Diagonalizing with lowered threshold

     Davidson diagonalization with overlap
     ethr =  1.37E-09,  avg # of iterations =  4.0

     total cpu time spent up to now is      397.2 secs

     total energy              =   -1957.84078289 Ry
     estimated scf accuracy    <       0.00000074 Ry

     iteration #  2     ecut=    70.00 Ry     beta= 0.50
     Davidson diagonalization with overlap
     ethr =  1.76E-09,  avg # of iterations =  3.0

     total cpu time spent up to now is      410.5 secs

     total energy              =   -1957.84078320 Ry
     estimated scf accuracy    <       0.00000052 Ry

     iteration #  3     ecut=    70.00 Ry     beta= 0.50
     Davidson diagonalization with overlap
     ethr =  1.24E-09,  avg # of iterations =  2.0

     total cpu time spent up to now is      421.0 secs

     total energy              =   -1957.84078332 Ry
     estimated scf accuracy    <       0.00000003 Ry

     iteration #  4     ecut=    70.00 Ry     beta= 0.50
     Davidson diagonalization with overlap
     ethr =  7.15E-11,  avg # of iterations =  4.0

     total cpu time spent up to now is      433.6 secs

     total energy              =   -1957.84078335 Ry
     estimated scf accuracy    <       0.00000002 Ry

     iteration #  5     ecut=    70.00 Ry     beta= 0.50
     Davidson diagonalization with overlap
     ethr =  4.56E-11,  avg # of iterations =  2.0

     total cpu time spent up to now is      444.4 secs

     total energy              =   -1957.84078337 Ry
     estimated scf accuracy    <       0.00000002 Ry

     iteration #  6     ecut=    70.00 Ry     beta= 0.50
     Davidson diagonalization with overlap
     ethr =  4.18E-11,  avg # of iterations =  2.0

     total cpu time spent up to now is      455.0 secs

     total energy              =   -1957.84078338 Ry
     estimated scf accuracy    <       0.00000001 Ry

     iteration #  7     ecut=    70.00 Ry     beta= 0.50
     Davidson diagonalization with overlap
     ethr =  2.80E-11,  avg # of iterations =  2.0

     total cpu time spent up to now is      467.0 secs

     End of self-consistent calculation

          k = 0.0000 0.0000 0.0000 ( 20005 PWs)   bands (ev):

   -21.3187 -21.3187 -21.3187 -21.2629 -21.2629 -11.8534 -11.1187 -11.1187
   -11.1187  -6.2866  -2.4239  -2.4239  -2.4239  -1.3502  -1.3502  -0.4677
    -0.4677  -0.4677  -0.2572  -0.2572  -0.2572   1.4190   4.1472

     occupation numbers 
     1.0000   1.0000   1.0000   1.0000   1.0000   1.0000   1.0000   1.0000
     1.0000   1.0000   1.0000   1.0000   1.0000   1.0000   1.0000   1.0000
     1.0000   1.0000   1.0000   1.0000   1.0000   0.0000   0.0000

          k = 0.0000 0.0000 0.2500 ( 19982 PWs)   bands (ev):

   -21.3187 -21.3187 -21.3187 -21.2629 -21.2628 -11.8273 -11.1548 -11.1179
   -11.1179  -6.2570  -2.5028  -2.4394  -2.4394  -1.2615  -1.2263  -0.5970
    -0.4957  -0.4825  -0.4825  -0.2662  -0.2662   1.6903   4.1025

     occupation numbers 
     1.0000   1.0000   1.0000   1.0000   1.0000   1.0000   1.0000   1.0000
     1.0000   1.0000   1.0000   1.0000   1.0000   1.0000   1.0000   1.0000
     1.0000   1.0000   1.0000   1.0000   1.0000   0.0000   0.0000

          k = 0.0000 0.0000-0.5000 ( 19946 PWs)   bands (ev):

   -21.3187 -21.3187 -21.3187 -21.2628 -21.2628 -11.7983 -11.1936 -11.1171
   -11.1171  -6.2269  -2.5771  -2.4550  -2.4550  -1.1183  -0.9373  -0.8782
    -0.7796  -0.4853  -0.4853  -0.2871  -0.2871   1.9702   4.0009

     occupation numbers 
     1.0000   1.0000   1.0000   1.0000   1.0000   1.0000   1.0000   1.0000
     1.0000   1.0000   1.0000   1.0000   1.0000   1.0000   1.0000   1.0000
     1.0000   1.0000   1.0000   1.0000   1.0000   0.0000   0.0000

          k = 0.0000 0.2500 0.2500 ( 19926 PWs)   bands (ev):

   -21.3187 -21.3187 -21.3187 -21.2628 -21.2628 -11.8042 -11.1551 -11.1435
   -11.1209  -6.2406  -2.5816  -2.4533  -2.4443  -1.1706  -1.1505  -0.7380
    -0.6104  -0.4707  -0.4348  -0.3257  -0.2034   1.8155   4.2016

     occupation numbers 
     1.0000   1.0000   1.0000   1.0000   1.0000   1.0000   1.0000   1.0000
     1.0000   1.0000   1.0000   1.0000   1.0000   1.0000   1.0000   1.0000
     1.0000   1.0000   1.0000   1.0000   1.0000   0.0000   0.0000

          k = 0.0000 0.2500-0.5000 ( 19942 PWs)   bands (ev):

   -21.3187 -21.3187 -21.3187 -21.2628 -21.2628 -11.7788 -11.1834 -11.1417
   -11.1256  -6.2242  -2.6487  -2.4624  -2.4595  -1.0519  -1.0039  -0.9354
    -0.7155  -0.4541  -0.4359  -0.3399  -0.2019   1.9640   4.1266

     occupation numbers 
     1.0000   1.0000   1.0000   1.0000   1.0000   1.0000   1.0000   1.0000
     1.0000   1.0000   1.0000   1.0000   1.0000   1.0000   1.0000   1.0000
     1.0000   1.0000   1.0000   1.0000   1.0000   0.0000   0.0000

          k = 0.0000-0.5000-0.5000 ( 19968 PWs)   bands (ev):

   -21.3187 -21.3187 -21.3187 -21.2628 -21.2628 -11.7578 -11.1680 -11.1680
   -11.1394  -6.2215  -2.7111  -2.4681  -2.4681  -1.0531  -1.0531  -0.9098
    -0.6830  -0.4105  -0.4105  -0.3811  -0.1170   1.9522   4.1343

     occupation numbers 
     1.0000   1.0000   1.0000   1.0000   1.0000   1.0000   1.0000   1.0000
     1.0000   1.0000   1.0000   1.0000   1.0000   1.0000   1.0000   1.0000
     1.0000   1.0000   1.0000   1.0000   1.0000   0.0000   0.0000

          k = 0.2500 0.2500 0.2500 ( 19951 PWs)   bands (ev):

   -21.3187 -21.3187 -21.3187 -21.2628 -21.2628 -11.7843 -11.1578 -11.1426
   -11.1426  -6.2386  -2.5911  -2.4963  -2.4963  -1.1015  -1.1015  -0.8321
    -0.5586  -0.5586  -0.3225  -0.2445  -0.2445   1.7921   4.2970

     occupation numbers 
     1.0000   1.0000   1.0000   1.0000   1.0000   1.0000   1.0000   1.0000
     1.0000   1.0000   1.0000   1.0000   1.0000   1.0000   1.0000   1.0000
     1.0000   1.0000   1.0000   1.0000   1.0000   0.0000   0.0000

          k = 0.2500 0.2500-0.5000 ( 19960 PWs)   bands (ev):

   -21.3187 -21.3187 -21.3187 -21.2628 -21.2628 -11.7626 -11.1769 -11.1494
   -11.1416  -6.2364  -2.6329  -2.5449  -2.5003  -1.0239  -1.0182  -0.9677
    -0.5982  -0.4276  -0.3280  -0.2544  -0.2296   1.8017   4.2594

     occupation numbers 
     1.0000   1.0000   1.0000   1.0000   1.0000   1.0000   1.0000   1.0000
     1.0000   1.0000   1.0000   1.0000   1.0000   1.0000   1.0000   1.0000
     1.0000   1.0000   1.0000   1.0000   1.0000   0.0000   0.0000

          k = 0.2500-0.5000-0.5000 ( 20016 PWs)   bands (ev):

   -21.3188 -21.3188 -21.3188 -21.2629 -21.2628 -11.7454 -11.1668 -11.1668
   -11.1523  -6.2484  -2.6668  -2.5542  -2.5542  -1.0112  -1.0112  -0.9916
    -0.4715  -0.3583  -0.2913  -0.2913  -0.1382   1.6584   4.2903

     occupation numbers 
     1.0000   1.0000   1.0000   1.0000   1.0000   1.0000   1.0000   1.0000
     1.0000   1.0000   1.0000   1.0000   1.0000   1.0000   1.0000   1.0000
     1.0000   1.0000   1.0000   1.0000   1.0000   0.0000   0.0000

          k =-0.5000-0.5000-0.5000 ( 19952 PWs)   bands (ev):

   -21.3187 -21.3187 -21.3187 -21.2628 -21.2628 -11.7324 -11.1657 -11.1657
   -11.1657  -6.2744  -2.6304  -2.6304  -2.6304  -0.9817  -0.9817  -0.9817
    -0.3295  -0.3295  -0.1652  -0.1652  -0.1652   1.3823   4.4197

     occupation numbers 
     1.0000   1.0000   1.0000   1.0000   1.0000   1.0000   1.0000   1.0000
     1.0000   1.0000   1.0000   1.0000   1.0000   1.0000   1.0000   1.0000
     1.0000   1.0000   1.0000   1.0000   1.0000   0.0000   0.0000

     highest occupied, lowest unoccupied level (ev):    -0.1170    1.3823

!    total energy              =   -1957.84078338 Ry

     total all-electron energy =    -69286.458345 Ry
     estimated scf accuracy    <          4.0E-10 Ry

     The total energy is the sum of the following terms:
     one-electron contribution =    -155.37867784 Ry
     hartree contribution      =      94.78166809 Ry
     xc contribution           =    -110.99062299 Ry
     ewald contribution        =    -119.37961292 Ry
     one-center paw contrib.   =   -1666.87353772 Ry
      -> PAW hartree energy AE =     109.63580141 Ry
      -> PAW hartree energy PS =    -108.89113023 Ry
      -> PAW xc energy AE      =    -329.04301271 Ry
      -> PAW xc energy PS      =      47.34587485 Ry
      -> total E_H with PAW    =      95.52633927 Ry
      -> total E_XC with PAW   =    -392.68776085 Ry

     convergence has been achieved in   7 iterations

     Forces acting on atoms (cartesian axes, Ry/au):

     atom    1 type  1   force =     0.00000000    0.00000000    0.00000000
     atom    2 type  2   force =    -0.00014272    0.00014272    0.00014272
     atom    3 type  2   force =     0.00014272   -0.00014272    0.00014272
     atom    4 type  2   force =     0.00014272    0.00014272   -0.00014272
     atom    5 type  2   force =    -0.00014272   -0.00014272   -0.00014272
     The non-local contrib.  to forces
     atom    1 type  1   force =     0.00000000    0.00000000    0.00000000
     atom    2 type  2   force =    -0.09020783    0.09020783    0.09020783
     atom    3 type  2   force =     0.09020783   -0.09020783    0.09020783
     atom    4 type  2   force =     0.09020783    0.09020783   -0.09020783
     atom    5 type  2   force =    -0.09020783   -0.09020783   -0.09020783
     The ionic contribution  to forces
     atom    1 type  1   force =     0.00000000    0.00000000   -0.00000000
     atom    2 type  2   force =     3.80089465   -3.80089465   -3.80089465
     atom    3 type  2   force =    -3.80089465    3.80089465   -3.80089465
     atom    4 type  2   force =    -3.80089465   -3.80089465    3.80089465
     atom    5 type  2   force =     3.80089465    3.80089465    3.80089465
     The local contribution  to forces
     atom    1 type  1   force =     0.00000000    0.00000000    0.00000000
     atom    2 type  2   force =    -3.72214677    3.72214677    3.72214677
     atom    3 type  2   force =     3.72214677   -3.72214677    3.72214677
     atom    4 type  2   force =     3.72214677    3.72214677   -3.72214677
     atom    5 type  2   force =    -3.72214677   -3.72214677   -3.72214677
     The core correction contribution to forces
     atom    1 type  1   force =     0.00000000    0.00000000    0.00000000
     atom    2 type  2   force =     0.01130763   -0.01130763   -0.01130763
     atom    3 type  2   force =    -0.01130763    0.01130763   -0.01130763
     atom    4 type  2   force =    -0.01130763   -0.01130763    0.01130763
     atom    5 type  2   force =     0.01130763    0.01130763    0.01130763
     The Hubbard contrib.    to forces
     atom    1 type  1   force =     0.00000000    0.00000000    0.00000000
     atom    2 type  2   force =     0.00000000    0.00000000    0.00000000
     atom    3 type  2   force =     0.00000000    0.00000000    0.00000000
     atom    4 type  2   force =     0.00000000    0.00000000    0.00000000
     atom    5 type  2   force =     0.00000000    0.00000000    0.00000000
     The SCF correction term to forces
     atom    1 type  1   force =     0.00000000    0.00000000   -0.00000000
     atom    2 type  2   force =     0.00000960   -0.00000960   -0.00000960
     atom    3 type  2   force =    -0.00000960    0.00000960   -0.00000960
     atom    4 type  2   force =    -0.00000960   -0.00000960    0.00000960
     atom    5 type  2   force =     0.00000960    0.00000960    0.00000960

     Total force =     0.000494     Total SCF correction =     0.000033


     Computing stress (Cartesian axis) and pressure

          total   stress  (Ry/bohr**3)                   (kbar)     P=        0.83
   0.00000561   0.00000000   0.00000000            0.83        0.00        0.00
   0.00000000   0.00000561   0.00000000            0.00        0.83        0.00
   0.00000000   0.00000000   0.00000561            0.00        0.00        0.83

     kinetic stress (kbar)   4003.64      0.00      0.00
                                0.00   4003.64      0.00
                                0.00      0.00   4003.64

     local   stress (kbar)  -2880.99      0.00      0.00
                                0.00  -2880.99      0.00
                                0.00      0.00  -2880.99

     nonloc. stress (kbar)    795.30      0.00      0.00
                                0.00    795.30      0.00
                                0.00      0.00    795.30

     hartree stress (kbar)   2304.25     -0.00      0.00
                               -0.00   2304.25     -0.00
                                0.00     -0.00   2304.25

     exc-cor stress (kbar)   4100.92      0.00      0.00
                                0.00   4100.92     -0.00
                                0.00     -0.00   4100.92

     corecor stress (kbar)  -5420.04     -0.00     -0.00
                               -0.00  -5420.04      0.00
                               -0.00      0.00  -5420.04

     ewald   stress (kbar)  -2902.25     -0.00     -0.00
                               -0.00  -2902.25     -0.00
                               -0.00     -0.00  -2902.25

     hubbard stress (kbar)      0.00      0.00      0.00
                                0.00      0.00      0.00
                                0.00      0.00      0.00

     DFT-D   stress (kbar)      0.00      0.00      0.00
                                0.00      0.00      0.00
                                0.00      0.00      0.00

     XDM     stress (kbar)      0.00      0.00      0.00
                                0.00      0.00      0.00
                                0.00      0.00      0.00

     dft-nl  stress (kbar)      0.00      0.00      0.00
                                0.00      0.00      0.00
                                0.00      0.00      0.00

     TS-vdW  stress (kbar)      0.00      0.00      0.00
                                0.00      0.00      0.00
                                0.00      0.00      0.00


     Energy error            =      9.2E-07
     Gradient error          =      1.4E-04
     Cell gradient error     =      5.6E-06


     number of scf cycles    =   4
     number of bfgs steps    =   3

     enthalpy old            =   -1957.8407824609 Ry
     enthalpy new            =   -1957.8407833800 Ry

     CASE: enthalpy_new < enthalpy_old


     WARNING: info= 24 for Hessian
     new trust radius        =       0.0007496852 bohr
     new conv_thr            =       0.0000000100 Ry

     new unit-cell volume =   2016.93291 a.u.^3 (   298.87862 Ang^3 )
     density =      3.47966 g/cm^3

CELL_PARAMETERS (angstrom)
   6.685978106   0.000000000   0.000000000
   0.000000000   6.685978106   0.000000000
   0.000000000   0.000000000   6.685978106

ATOMIC_POSITIONS (crystal)
Sn            0.0000000000        0.0000000000        0.0000000000
I             0.2337636669        0.7662363331        0.7662363331
I             0.7662363331        0.2337636669        0.7662363331
I             0.7662363331        0.7662363331        0.2337636669
I             0.2337636669        0.2337636669        0.2337636669



     Writing output data file ./out/SnI4un.save/
     NEW-OLD atomic charge density approx. for the potential
     extrapolated charge   41.99903, renormalised to   42.00000

     total cpu time spent up to now is      502.4 secs

     Self-consistent Calculation

     iteration #  1     ecut=    70.00 Ry     beta= 0.50
     Davidson diagonalization with overlap
     ethr =  1.00E-06,  avg # of iterations =  2.0

     Threshold (ethr) on eigenvalues was too large:
     Diagonalizing with lowered threshold

     Davidson diagonalization with overlap
     ethr =  1.05E-09,  avg # of iterations =  4.1

     total cpu time spent up to now is      525.9 secs

[...]

     Dynamical RAM for          <psi|beta>:       0.03 MB

     Dynamical RAM for                 psi:       0.47 MB

     Dynamical RAM for                hpsi:       0.47 MB

     Dynamical RAM for                spsi:       0.47 MB

     Dynamical RAM for      wfcinit/wfcrot:       0.52 MB

     Dynamical RAM for           addusdens:      15.46 MB

     Dynamical RAM for          addusforce:      16.00 MB

     Dynamical RAM for         addusstress:      16.35 MB

     Estimated static dynamical RAM per process >      12.38 MB

     Estimated max dynamical RAM per process >      28.73 MB

     Estimated total dynamical RAM >     919.40 MB

     Initial potential from superposition of free atoms

     starting charge   41.99831, renormalised to   42.00000
     Starting wfcs are   25 randomized atomic wfcs
     Checking if some PAW data can be deallocated... 
       PAW data deallocated on   25 nodes for type:  1
       PAW data deallocated on    7 nodes for type:  2

     total cpu time spent up to now is     4165.8 secs

     Self-consistent Calculation

     iteration #  1     ecut=    70.00 Ry     beta= 0.50
     Davidson diagonalization with overlap
     c_bands:  1 eigenvalues not converged
     c_bands:  1 eigenvalues not converged
     c_bands:  1 eigenvalues not converged
     c_bands:  1 eigenvalues not converged
     c_bands:  1 eigenvalues not converged
     c_bands:  1 eigenvalues not converged
     c_bands:  1 eigenvalues not converged
     ethr =  1.00E-06,  avg # of iterations = 19.0

     total cpu time spent up to now is     4200.4 secs

     total energy              =   -1957.81952704 Ry
     estimated scf accuracy    <       0.11071369 Ry

     iteration #  2     ecut=    70.00 Ry     beta= 0.50
     Davidson diagonalization with overlap
     ethr =  2.64E-04,  avg # of iterations =  2.0

     total cpu time spent up to now is     4213.2 secs

     total energy              =   -1957.83702089 Ry
     estimated scf accuracy    <       0.02470436 Ry

     iteration #  3     ecut=    70.00 Ry     beta= 0.50
     Davidson diagonalization with overlap
     ethr =  5.88E-05,  avg # of iterations =  2.9

     total cpu time spent up to now is     4225.5 secs

     total energy              =   -1957.84161504 Ry
     estimated scf accuracy    <       0.00277559 Ry

     iteration #  4     ecut=    70.00 Ry     beta= 0.50
     Davidson diagonalization with overlap
     ethr =  6.61E-06,  avg # of iterations =  2.4

     total cpu time spent up to now is     4236.3 secs

     total energy              =   -1957.84183667 Ry
     estimated scf accuracy    <       0.00027587 Ry

     iteration #  5     ecut=    70.00 Ry     beta= 0.50
     Davidson diagonalization with overlap
     ethr =  6.57E-07,  avg # of iterations =  3.0

     total cpu time spent up to now is     4249.1 secs

     total energy              =   -1957.84190386 Ry
     estimated scf accuracy    <       0.00002780 Ry

     iteration #  6     ecut=    70.00 Ry     beta= 0.50
     Davidson diagonalization with overlap
     ethr =  6.62E-08,  avg # of iterations =  3.8

     total cpu time spent up to now is     4262.4 secs

     total energy              =   -1957.84191292 Ry
     estimated scf accuracy    <       0.00000430 Ry

     iteration #  7     ecut=    70.00 Ry     beta= 0.50
     Davidson diagonalization with overlap
     ethr =  1.02E-08,  avg # of iterations =  2.8

     total cpu time spent up to now is     4274.5 secs

     total energy              =   -1957.84191401 Ry
     estimated scf accuracy    <       0.00000006 Ry

     iteration #  8     ecut=    70.00 Ry     beta= 0.50
     Davidson diagonalization with overlap
     ethr =  1.37E-10,  avg # of iterations =  6.0

     total cpu time spent up to now is     4292.0 secs

     total energy              =   -1957.84191401 Ry
     estimated scf accuracy    <       0.00000030 Ry

     iteration #  9     ecut=    70.00 Ry     beta= 0.50
     Davidson diagonalization with overlap
     ethr =  1.37E-10,  avg # of iterations =  3.1

     total cpu time spent up to now is     4304.9 secs

     total energy              =   -1957.84191408 Ry
     estimated scf accuracy    <       0.00000001 Ry

     iteration # 10     ecut=    70.00 Ry     beta= 0.50
     Davidson diagonalization with overlap
     ethr =  2.59E-11,  avg # of iterations =  2.0

     total cpu time spent up to now is     4315.5 secs

     End of self-consistent calculation

          k = 0.0000 0.0000 0.0000 ( 21247 PWs)   bands (ev):

   -21.7222 -21.7222 -21.7222 -21.6663 -21.6663 -12.2394 -11.5296 -11.5296
   -11.5296  -6.6765  -2.8425  -2.8425  -2.8425  -1.6742  -1.6742  -0.8686
    -0.8686  -0.8686  -0.7360  -0.7360  -0.7360   1.0985   3.8060

     occupation numbers 
     1.0000   1.0000   1.0000   1.0000   1.0000   1.0000   1.0000   1.0000
     1.0000   1.0000   1.0000   1.0000   1.0000   1.0000   1.0000   1.0000
     1.0000   1.0000   1.0000   1.0000   1.0000   0.0000   0.0000

          k = 0.0000 0.0000 0.2446 ( 21302 PWs)   bands (ev):

   -21.7222 -21.7222 -21.7222 -21.6663 -21.6663 -12.2201 -11.5562 -11.5290
   -11.5290  -6.6553  -2.8979  -2.8573  -2.8573  -1.6001  -1.5655  -0.9745
    -0.9337  -0.8989  -0.8989  -0.7157  -0.7157   1.3168   3.7482

     occupation numbers 
     1.0000   1.0000   1.0000   1.0000   1.0000   1.0000   1.0000   1.0000
     1.0000   1.0000   1.0000   1.0000   1.0000   1.0000   1.0000   1.0000
     1.0000   1.0000   1.0000   1.0000   1.0000   0.0000   0.0000

          k = 0.0000 0.0000-0.4892 ( 21362 PWs)   bands (ev):

   -21.7223 -21.7223 -21.7223 -21.6663 -21.6663 -12.1992 -11.5843 -11.5284
   -11.5284  -6.6339  -2.9506  -2.8722  -2.8722  -1.4901  -1.3125  -1.2617
    -1.1156  -0.9156  -0.9156  -0.7092  -0.7092   1.5420   3.6461

     occupation numbers 
     1.0000   1.0000   1.0000   1.0000   1.0000   1.0000   1.0000   1.0000
     1.0000   1.0000   1.0000   1.0000   1.0000   1.0000   1.0000   1.0000
     1.0000   1.0000   1.0000   1.0000   1.0000   0.0000   0.0000

          k = 0.0000 0.2446 0.2446 ( 21320 PWs)   bands (ev):

   -21.7223 -21.7222 -21.7222 -21.6663 -21.6663 -12.2027 -11.5561 -11.5489
   -11.5310  -6.6431  -2.9609  -2.8688  -2.8607  -1.5146  -1.5076  -1.1201
    -1.0088  -0.8954  -0.8462  -0.7638  -0.6566   1.4187   3.8212

     occupation numbers 
     1.0000   1.0000   1.0000   1.0000   1.0000   1.0000   1.0000   1.0000
     1.0000   1.0000   1.0000   1.0000   1.0000   1.0000   1.0000   1.0000
     1.0000   1.0000   1.0000   1.0000   1.0000   0.0000   0.0000

          k = 0.0000 0.2446-0.4892 ( 21278 PWs)   bands (ev):

   -21.7222 -21.7222 -21.7222 -21.6663 -21.6663 -12.1841 -11.5775 -11.5477
   -11.5339  -6.6310  -3.0134  -2.8773  -2.8737  -1.4267  -1.3606  -1.3042
    -1.0843  -0.8853  -0.8708  -0.7605  -0.6350   1.5349   3.7500

     occupation numbers 
     1.0000   1.0000   1.0000   1.0000   1.0000   1.0000   1.0000   1.0000
     1.0000   1.0000   1.0000   1.0000   1.0000   1.0000   1.0000   1.0000
     1.0000   1.0000   1.0000   1.0000   1.0000   0.0000   0.0000

          k = 0.0000-0.4892-0.4892 ( 21296 PWs)   bands (ev):

   -21.7222 -21.7222 -21.7222 -21.6663 -21.6663 -12.1681 -11.5679 -11.5679
   -11.5422  -6.6281  -3.0666  -2.8814  -2.8814  -1.3996  -1.3996  -1.2983
    -1.0678  -0.8560  -0.8212  -0.8212  -0.5618   1.5244   3.7564

     occupation numbers 
     1.0000   1.0000   1.0000   1.0000   1.0000   1.0000   1.0000   1.0000
     1.0000   1.0000   1.0000   1.0000   1.0000   1.0000   1.0000   1.0000
     1.0000   1.0000   1.0000   1.0000   1.0000   0.0000   0.0000

          k = 0.2446 0.2446 0.2446 ( 21266 PWs)   bands (ev):

   -21.7222 -21.7222 -21.7222 -21.6663 -21.6663 -12.1874 -11.5579 -11.5482
   -11.5482  -6.6406  -2.9701  -2.9009  -2.9009  -1.4608  -1.4608  -1.2067
    -0.9686  -0.9686  -0.7446  -0.6952  -0.6952   1.4013   3.8962

     occupation numbers 
     1.0000   1.0000   1.0000   1.0000   1.0000   1.0000   1.0000   1.0000
     1.0000   1.0000   1.0000   1.0000   1.0000   1.0000   1.0000   1.0000
     1.0000   1.0000   1.0000   1.0000   1.0000   0.0000   0.0000

          k = 0.2446 0.2446-0.4892 ( 21300 PWs)   bands (ev):

   -21.7223 -21.7222 -21.7222 -21.6663 -21.6663 -12.1712 -11.5732 -11.5527
   -11.5475  -6.6380  -3.0038  -2.9391  -2.9047  -1.4008  -1.3762  -1.3310
    -0.9986  -0.8840  -0.7660  -0.6818  -0.6631   1.4048   3.8628

     occupation numbers 
     1.0000   1.0000   1.0000   1.0000   1.0000   1.0000   1.0000   1.0000
     1.0000   1.0000   1.0000   1.0000   1.0000   1.0000   1.0000   1.0000
     1.0000   1.0000   1.0000   1.0000   1.0000   0.0000   0.0000

          k = 0.2446-0.4892-0.4892 ( 21336 PWs)   bands (ev):

   -21.7223 -21.7223 -21.7223 -21.6663 -21.6663 -12.1575 -11.5671 -11.5671
   -11.5540  -6.6449  -3.0333  -2.9457  -2.9457  -1.3772  -1.3772  -1.3588
    -0.9134  -0.8334  -0.7179  -0.7179  -0.5841   1.2881   3.8921

     occupation numbers 
     1.0000   1.0000   1.0000   1.0000   1.0000   1.0000   1.0000   1.0000
     1.0000   1.0000   1.0000   1.0000   1.0000   1.0000   1.0000   1.0000
     1.0000   1.0000   1.0000   1.0000   1.0000   0.0000   0.0000

          k =-0.4892-0.4892-0.4892 ( 21368 PWs)   bands (ev):

   -21.7223 -21.7223 -21.7223 -21.6663 -21.6663 -12.1465 -11.5663 -11.5663
   -11.5663  -6.6614  -3.0043  -3.0043  -3.0043  -1.3607  -1.3607  -1.3607
    -0.8057  -0.8057  -0.6116  -0.6116  -0.6116   1.0674   4.0077

     occupation numbers 
     1.0000   1.0000   1.0000   1.0000   1.0000   1.0000   1.0000   1.0000
     1.0000   1.0000   1.0000   1.0000   1.0000   1.0000   1.0000   1.0000
     1.0000   1.0000   1.0000   1.0000   1.0000   0.0000   0.0000

     highest occupied, lowest unoccupied level (ev):    -0.5618    1.0674

!    total energy              =   -1957.84191408 Ry

     total all-electron energy =    -69286.459475 Ry
     estimated scf accuracy    <          1.7E-09 Ry

     The total energy is the sum of the following terms:
     one-electron contribution =    -165.24514741 Ry
     hartree contribution      =      99.08740013 Ry
     xc contribution           =    -110.98308797 Ry
     ewald contribution        =    -113.82789651 Ry
     one-center paw contrib.   =   -1666.87318233 Ry
      -> PAW hartree energy AE =     109.63899758 Ry
      -> PAW hartree energy PS =    -108.89437709 Ry
      -> PAW xc energy AE      =    -329.04323089 Ry
      -> PAW xc energy PS      =      47.34610657 Ry
      -> total E_H with PAW    =      99.83202063 Ry
      -> total E_XC with PAW   =    -392.68021229 Ry

     convergence has been achieved in  10 iterations

     Forces acting on atoms (cartesian axes, Ry/au):

     atom    1 type  1   force =     0.00000000    0.00000000    0.00000000
     atom    2 type  2   force =    -0.00006968    0.00006968    0.00006968
     atom    3 type  2   force =     0.00006968   -0.00006968    0.00006968
     atom    4 type  2   force =     0.00006968    0.00006968   -0.00006968
     atom    5 type  2   force =    -0.00006968   -0.00006968   -0.00006968
     The non-local contrib.  to forces
     atom    1 type  1   force =     0.00000000    0.00000000    0.00000000
     atom    2 type  2   force =    -0.09034721    0.09034721    0.09034721
     atom    3 type  2   force =     0.09034721   -0.09034721    0.09034721
     atom    4 type  2   force =     0.09034721    0.09034721   -0.09034721
     atom    5 type  2   force =    -0.09034721   -0.09034721   -0.09034721
     The ionic contribution  to forces
     atom    1 type  1   force =     0.00000000    0.00000000    0.00000000
     atom    2 type  2   force =     3.93856406   -3.93856406   -3.93856406
     atom    3 type  2   force =    -3.93856406    3.93856406   -3.93856406
     atom    4 type  2   force =    -3.93856406   -3.93856406    3.93856406
     atom    5 type  2   force =     3.93856406    3.93856406    3.93856406
     The local contribution  to forces
     atom    1 type  1   force =     0.00000000    0.00000000   -0.00000000
     atom    2 type  2   force =    -3.85957869    3.85957869    3.85957869
     atom    3 type  2   force =     3.85957869   -3.85957869    3.85957869
     atom    4 type  2   force =     3.85957869    3.85957869   -3.85957869
     atom    5 type  2   force =    -3.85957869   -3.85957869   -3.85957869
     The core correction contribution to forces
     atom    1 type  1   force =     0.00000000    0.00000000    0.00000000
     atom    2 type  2   force =     0.01131768   -0.01131768   -0.01131768
     atom    3 type  2   force =    -0.01131768    0.01131768   -0.01131768
     atom    4 type  2   force =    -0.01131768   -0.01131768    0.01131768
     atom    5 type  2   force =     0.01131768    0.01131768    0.01131768
     The Hubbard contrib.    to forces
     atom    1 type  1   force =     0.00000000    0.00000000    0.00000000
     atom    2 type  2   force =     0.00000000    0.00000000    0.00000000
     atom    3 type  2   force =     0.00000000    0.00000000    0.00000000
     atom    4 type  2   force =     0.00000000    0.00000000    0.00000000
     atom    5 type  2   force =     0.00000000    0.00000000    0.00000000
     The SCF correction term to forces
     atom    1 type  1   force =    -0.00000000   -0.00000000   -0.00000000
     atom    2 type  2   force =    -0.00002552    0.00002552    0.00002552
     atom    3 type  2   force =     0.00002552   -0.00002552    0.00002552
     atom    4 type  2   force =     0.00002552    0.00002552   -0.00002552
     atom    5 type  2   force =    -0.00002552   -0.00002552   -0.00002552

     Total force =     0.000241     Total SCF correction =     0.000088
     SCF correction compared to forces is large: reduce conv_thr to get better values


     Computing stress (Cartesian axis) and pressure

          total   stress  (Ry/bohr**3)                   (kbar)     P=        0.20
   0.00000137   0.00000000   0.00000000            0.20        0.00        0.00
   0.00000000   0.00000137   0.00000000            0.00        0.20        0.00
   0.00000000   0.00000000   0.00000137            0.00        0.00        0.20

     kinetic stress (kbar)   3749.44      0.00      0.00
                                0.00   3749.44      0.00
                                0.00      0.00   3749.44

     local   stress (kbar)  -2922.85      0.00      0.00
                                0.00  -2922.85      0.00
                                0.00      0.00  -2922.85

     nonloc. stress (kbar)    744.69      0.00      0.00
                                0.00    744.69      0.00
                                0.00      0.00    744.69

     hartree stress (kbar)   2256.28      0.00      0.00
                                0.00   2256.28      0.00
                                0.00      0.00   2256.28

     exc-cor stress (kbar)   3841.14     -0.00     -0.00
                               -0.00   3841.14     -0.00
                               -0.00     -0.00   3841.14

     corecor stress (kbar)  -5076.56      0.00      0.00
                                0.00  -5076.56      0.00
                                0.00      0.00  -5076.56

     ewald   stress (kbar)  -2591.93     -0.00     -0.00
                               -0.00  -2591.93     -0.00
                               -0.00     -0.00  -2591.93

     hubbard stress (kbar)      0.00      0.00      0.00
                                0.00      0.00      0.00
                                0.00      0.00      0.00

     DFT-D   stress (kbar)      0.00      0.00      0.00
                                0.00      0.00      0.00
                                0.00      0.00      0.00

     XDM     stress (kbar)      0.00      0.00      0.00
                                0.00      0.00      0.00
                                0.00      0.00      0.00

     dft-nl  stress (kbar)      0.00      0.00      0.00
                                0.00      0.00      0.00
                                0.00      0.00      0.00

     TS-vdW  stress (kbar)      0.00      0.00      0.00
                                0.00      0.00      0.00
                                0.00      0.00      0.00



     Writing output data file ./out/SnI4un.save/

     init_run     :     24.26s CPU     24.96s WALL (       2 calls)
     electrons    :   3414.83s CPU   3526.56s WALL (      23 calls)
     update_pot   :    199.12s CPU    201.40s WALL (      21 calls)
     forces       :    157.94s CPU    159.96s WALL (      23 calls)
     stress       :    386.36s CPU    390.63s WALL (      23 calls)

     Called by init_run:
     wfcinit      :      6.21s CPU      6.41s WALL (       2 calls)
     wfcinit:atom :      0.06s CPU      0.06s WALL (      20 calls)
     wfcinit:wfcr :      5.79s CPU      5.95s WALL (      20 calls)
     potinit      :      6.20s CPU      6.34s WALL (       2 calls)
     hinit0       :      9.53s CPU      9.62s WALL (       2 calls)

     Called by electrons:
     c_bands      :   2526.91s CPU   2608.44s WALL (     302 calls)
     sum_band     :    504.22s CPU    519.33s WALL (     302 calls)
     v_of_rho     :     45.36s CPU     46.48s WALL (     320 calls)
     v_h          :      3.00s CPU      3.08s WALL (     320 calls)
     v_xc         :     48.46s CPU     49.61s WALL (     366 calls)
     newd         :    142.87s CPU    146.26s WALL (     320 calls)
     PAW_pot      :    223.81s CPU    228.22s WALL (     341 calls)
     mix_rho      :      8.79s CPU      9.14s WALL (     302 calls)

     Called by c_bands:
     init_us_2    :     36.82s CPU     39.09s WALL (    6730 calls)
     cegterg      :   2431.00s CPU   2493.45s WALL (    3020 calls)

     Called by sum_band:
     sum_band:wei :      0.01s CPU      0.01s WALL (     302 calls)
     sum_band:loo :    375.07s CPU    386.79s WALL (     302 calls)
     sum_band:buf :      3.06s CPU      3.22s WALL (    3020 calls)
     sum_band:ini :     16.32s CPU     16.91s WALL (    3020 calls)
     sum_band:cal :     87.78s CPU     89.50s WALL (    3230 calls)
     sum_band:bec :      1.86s CPU      1.97s WALL (    3230 calls)
     addusdens    :    117.97s CPU    121.03s WALL (     302 calls)
     addusd:skk   :      0.46s CPU      0.49s WALL (     604 calls)
     addusd:dgemm :     42.38s CPU     43.66s WALL (     604 calls)
     addusd:qvan2 :     63.49s CPU     64.93s WALL (     604 calls)

     Called by *egterg:
     cdiaghg      :     69.82s CPU     71.22s WALL (   11472 calls)
     cegterg:over :    131.03s CPU    133.60s WALL (    8712 calls)
     cegterg:upda :     61.83s CPU     62.99s WALL (    8712 calls)
     cegterg:last :    149.81s CPU    152.26s WALL (    6274 calls)
     h_psi        :   1760.36s CPU   1810.19s WALL (   11752 calls)
     s_psi        :    190.97s CPU    194.41s WALL (   11752 calls)
     g_psi        :      4.39s CPU      4.54s WALL (    8712 calls)

     Called by h_psi:
     h_psi:calbec :    227.23s CPU    231.56s WALL (   11752 calls)
     vloc_psi     :   1336.49s CPU   1378.11s WALL (   11752 calls)
     add_vuspsi   :    190.48s CPU    194.08s WALL (   11752 calls)

     General routines
     calbec       :    345.08s CPU    351.70s WALL (   16132 calls)
     fft          :     35.71s CPU     36.56s WALL (    4121 calls)
     ffts         :      2.14s CPU      2.20s WALL (     302 calls)
     fftw         :   1507.65s CPU   1554.46s WALL (  426752 calls)

     Parallel routines
     fft_scatt_xy :    103.13s CPU    107.03s WALL (  431175 calls)
     fft_scatt_yz :    316.77s CPU    328.37s WALL (  431175 calls)

     PAW routines
     PAW_pot      :    223.81s CPU    228.22s WALL (     341 calls)
     PAW_symme    :      1.77s CPU      1.82s WALL (     643 calls)

     PWSCF        :      1h10m CPU      1h12m WALL


   This run was terminated on:  16:51:47  15Jan2021            

=------------------------------------------------------------------------------=
   JOB DONE.
=------------------------------------------------------------------------------=
