
     Program PWSCF v.6.0 (svn rev. 13079) starts on 27Jan2021 at  8:21:49 

     This program is part of the open-source Quantum ESPRESSO suite
     for quantum simulation of materials; please cite
         "P. Giannozzi et al., J. Phys.:Condens. Matter 21 395502 (2009);
          URL http://www.quantum-espresso.org", 
     in publications or presentations arising from this work. More details at
     http://www.quantum-espresso.org/quote

     Parallel version (MPI & OpenMP), running on      96 processor cores
     Number of MPI processes:                48
     Threads/MPI process:                     2
     R & G space division:  proc/nbgrp/npool/nimage =      48
     Waiting for input...
     Reading input from standard input

     Current dimensions of program PWSCF are:
     Max number of different atomic species (ntypx) = 10
     Max number of k-points (npk) =  40000
     Max angular momentum in pseudopotentials (lmaxx) =  3
               file Cs.rel-pbesol-spn-rrkjus_psl.1.0.0.UPF: wavefunction(s)  5S 6S renormalized
               file Sn.rel-pbesol-dn-rrkjus_psl.1.0.0.UPF: wavefunction(s)  5S 4D 4D renormalized
               file I.rel-pbesol-n-rrkjus_psl.1.0.0.UPF: wavefunction(s)  5S renormalized

     Subspace diagonalization in iterative solution of the eigenvalue problem:
     a serial algorithm will be used


     Parallelization info
     --------------------
     sticks:   dense  smooth     PW     G-vecs:    dense   smooth      PW
     Min         107      86     23                14667    10498    1499
     Max         108      87     24                14680    10509    1512
     Sum        5183    4145   1133               704507   504115   72215


     Title: 
     CsSnI3                                                                     


     bravais-lattice index     =            8
     lattice parameter (alat)  =       9.1317  a.u.
     unit-cell volume          =    6370.5385 (a.u.)^3
     number of atoms/cell      =           20
     number of atomic types    =            3
     number of electrons       =       176.00
     number of Kohn-Sham states=          176
     kinetic-energy cutoff     =      70.0000  Ry
     charge density cutoff     =     350.0000  Ry
     convergence threshold     =      1.0E-06
     mixing beta               =       0.3500
     number of iterations used =            8  plain     mixing
     Exchange-correlation      = PBESOL ( 1  4 10  8 0 0)
     Non magnetic calculation with spin-orbit


     celldm(1)=   9.131705  celldm(2)=   2.227728  celldm(3)=   3.755420
     celldm(4)=   0.000000  celldm(5)=   0.000000  celldm(6)=   0.000000

     crystal axes: (cart. coord. in units of alat)
               a(1) = (   1.000000   0.000000   0.000000 )  
               a(2) = (   0.000000   2.227728   0.000000 )  
               a(3) = (   0.000000   0.000000   3.755420 )  

     reciprocal axes: (cart. coord. in units 2 pi/alat)
               b(1) = (  1.000000  0.000000  0.000000 )  
               b(2) = (  0.000000  0.448888  0.000000 )  
               b(3) = (  0.000000  0.000000  0.266282 )  


     PseudoPot. # 1 for Cs read from file:
     /scratch/cmalosso/degironcoli/pseudo/pseudo-usp/Cs.rel-pbesol-spn-rrkjus_psl.1.0.0.UPF
     MD5 check sum: 846889b67fb1b19751b5b37931589d70
     Pseudo is Ultrasoft + core correction, Zval =  9.0
     Generated using "atomic" code by A. Dal Corso  v.6.4.1
     Using radial grid of 1251 points, 15 beta functions with: 
                l(1) =   0
                l(2) =   0
                l(3) =   0
                l(4) =   1
                l(5) =   1
                l(6) =   1
                l(7) =   1
                l(8) =   2
                l(9) =   2
               l(10) =   2
               l(11) =   2
               l(12) =   3
               l(13) =   3
               l(14) =   3
               l(15) =   3
     Q(r) pseudized with 0 coefficients 


     PseudoPot. # 2 for Sn read from file:
     /scratch/cmalosso/degironcoli/pseudo/pseudo-usp/Sn.rel-pbesol-dn-rrkjus_psl.1.0.0.UPF
     MD5 check sum: c1cf6ea56b96a3656bdf0d1db379e093
     Pseudo is Ultrasoft + core correction, Zval = 14.0
     Generated using "atomic" code by A. Dal Corso  v.6.3
     Using radial grid of 1243 points, 10 beta functions with: 
                l(1) =   0
                l(2) =   0
                l(3) =   1
                l(4) =   1
                l(5) =   1
                l(6) =   1
                l(7) =   2
                l(8) =   2
                l(9) =   2
               l(10) =   2
     Q(r) pseudized with 0 coefficients 


     PseudoPot. # 3 for  I read from file:
     /scratch/cmalosso/degironcoli/pseudo/pseudo-usp/I.rel-pbesol-n-rrkjus_psl.1.0.0.UPF
     MD5 check sum: 0f96c6bfb1b448f280658f96eb466b08
     Pseudo is Ultrasoft + core correction, Zval =  7.0
     Generated using "atomic" code by A. Dal Corso  v.6.3
     Using radial grid of 1247 points, 10 beta functions with: 
                l(1) =   0
                l(2) =   0
                l(3) =   1
                l(4) =   1
                l(5) =   1
                l(6) =   1
                l(7) =   2
                l(8) =   2
                l(9) =   2
               l(10) =   2
     Q(r) pseudized with 0 coefficients 


     atomic species   valence    mass     pseudopotential
        Cs             9.00   132.90000     Cs( 1.00)
        Sn            14.00   118.70000     Sn( 1.00)
        I              7.00   126.90000      I( 1.00)

      4 Sym. Ops., with inversion, found ( 2 have fractional translation)
          (note:  4 additional sym.ops. were found but ignored
           their fractional translations are incommensurate with FFT grid)

                                    s                        frac. trans.

      isym =  1     identity                                     

 cryst.   s( 1) = (     1          0          0      )
                  (     0          1          0      )
                  (     0          0          1      )

 cart.    s( 1) = (  1.0000000  0.0000000  0.0000000 )
                  (  0.0000000  1.0000000  0.0000000 )
                  (  0.0000000  0.0000000  1.0000000 )


      isym =  2     180 deg rotation - cart. axis [1,0,0]        

 cryst.   s( 2) = (     1          0          0      )    f =( -0.5000000 )
                  (     0         -1          0      )       (  0.0000000 )
                  (     0          0         -1      )       (  0.0000000 )

 cart.    s( 2) = (  1.0000000  0.0000000  0.0000000 )    f =( -0.5000000 )
                  (  0.0000000 -1.0000000  0.0000000 )       (  0.0000000 )
                  (  0.0000000  0.0000000 -1.0000000 )       (  0.0000000 )


      isym =  3     inversion                                    

 cryst.   s( 3) = (    -1          0          0      )
                  (     0         -1          0      )
                  (     0          0         -1      )

 cart.    s( 3) = ( -1.0000000  0.0000000  0.0000000 )
                  (  0.0000000 -1.0000000  0.0000000 )
                  (  0.0000000  0.0000000 -1.0000000 )


      isym =  4     inv. 180 deg rotation - cart. axis [1,0,0]   

 cryst.   s( 4) = (    -1          0          0      )    f =(  0.5000000 )
                  (     0          1          0      )       (  0.0000000 )
                  (     0          0          1      )       (  0.0000000 )

 cart.    s( 4) = ( -1.0000000  0.0000000  0.0000000 )    f =(  0.5000000 )
                  (  0.0000000  1.0000000  0.0000000 )       (  0.0000000 )
                  (  0.0000000  0.0000000  1.0000000 )       (  0.0000000 )


     double point group C_2h (2/m) 
     there are  8 classes and  4 irreducible representations
     the character table:

       E     -E    C2    -C2   i     -i    s_h   -s_h 
                                                      
G_3+   1.00 -1.00  0.00  0.00  1.00 -1.00  0.00  0.00
G_4+   1.00 -1.00  0.00  0.00  1.00 -1.00  0.00  0.00
G_3-   1.00 -1.00  0.00  0.00 -1.00  1.00  0.00  0.00
G_4-   1.00 -1.00  0.00  0.00 -1.00  1.00  0.00  0.00

     imaginary part

       E     -E    C2    -C2   i     -i    s_h   -s_h 
                                                      
G_3+   0.00  0.00  1.00 -1.00  0.00  0.00  1.00 -1.00
G_4+   0.00  0.00 -1.00  1.00  0.00  0.00 -1.00  1.00
G_3-   0.00  0.00  1.00 -1.00  0.00  0.00 -1.00  1.00
G_4-   0.00  0.00 -1.00  1.00  0.00  0.00  1.00 -1.00

     the symmetry operations in each class and the name of the first element:

     E             1
          identity                                               
     -E           -1
          identity E                                             
     C2            2
          180 deg rotation - cart. axis [1,0,0]                  
     -C2          -2
          180 deg rotation - cart. axis [1,0,0] E                
     i             3
          inversion                                              
     -i           -3
          inversion E                                            
     s_h           4
          inv. 180 deg rotation - cart. axis [1,0,0]             
     -s_h         -4
          inv. 180 deg rotation - cart. axis [1,0,0] E           

   Cartesian axes

     site n.     atom                  positions (alat units)
         1           Cs  tau(   1) = (   0.2500000   0.1859640   2.5168147  )
         2           Cs  tau(   2) = (   0.7500000   2.0417636   1.2386050  )
         3           Cs  tau(   3) = (   0.2500000   1.2998278   3.1163149  )
         4           Cs  tau(   4) = (   0.7500000   0.9278998   0.6391048  )
         5           Sn  tau(   5) = (   0.2500000   0.7615710   1.6485466  )
         6           Sn  tau(   6) = (   0.7500000   1.4661567   2.1068731  )
         7           Sn  tau(   7) = (   0.2500000   1.8754348   0.2291632  )
         8           Sn  tau(   8) = (   0.7500000   0.3522928   3.5262565  )
         9           I   tau(   9) = (   0.7500000   0.0581437   0.4202578  )
        10           I   tau(  10) = (   0.2500000   2.1695839   3.3351619  )
        11           I   tau(  11) = (   0.7500000   1.1720075   1.4574521  )
        12           I   tau(  12) = (   0.2500000   1.0557201   2.2979676  )
        13           I   tau(  13) = (   0.7500000   0.6531118   2.9738192  )
        14           I   tau(  14) = (   0.2500000   1.5746158   0.7816005  )
        15           I   tau(  15) = (   0.7500000   1.7669756   2.6593103  )
        16           I   tau(  16) = (   0.2500000   0.4607520   1.0961094  )
        17           I   tau(  17) = (   0.7500000   0.3753632   1.8734812  )
        18           I   tau(  18) = (   0.2500000   1.8523644   1.8819384  )
        19           I   tau(  19) = (   0.7500000   1.4892270   0.0042286  )
        20           I   tau(  20) = (   0.2500000   0.7385006   3.7511911  )

   Crystallographic axes

     site n.     atom                  positions (cryst. coord.)
         1           Cs  tau(   1) = (  0.2500000  0.0834770  0.6701820  )
         2           Cs  tau(   2) = (  0.7500000  0.9165230  0.3298180  )
         3           Cs  tau(   3) = (  0.2500000  0.5834770  0.8298180  )
         4           Cs  tau(   4) = (  0.7500000  0.4165230  0.1701820  )
         5           Sn  tau(   5) = (  0.2500000  0.3418600  0.4389780  )
         6           Sn  tau(   6) = (  0.7500000  0.6581400  0.5610220  )
         7           Sn  tau(   7) = (  0.2500000  0.8418600  0.0610220  )
         8           Sn  tau(   8) = (  0.7500000  0.1581400  0.9389780  )
         9           I   tau(   9) = (  0.7500000  0.0261000  0.1119070  )
        10           I   tau(  10) = (  0.2500000  0.9739000  0.8880930  )
        11           I   tau(  11) = (  0.7500000  0.5261000  0.3880930  )
        12           I   tau(  12) = (  0.2500000  0.4739000  0.6119070  )
        13           I   tau(  13) = (  0.7500000  0.2931740  0.7918740  )
        14           I   tau(  14) = (  0.2500000  0.7068260  0.2081260  )
        15           I   tau(  15) = (  0.7500000  0.7931740  0.7081260  )
        16           I   tau(  16) = (  0.2500000  0.2068260  0.2918740  )
        17           I   tau(  17) = (  0.7500000  0.1684960  0.4988740  )
        18           I   tau(  18) = (  0.2500000  0.8315040  0.5011260  )
        19           I   tau(  19) = (  0.7500000  0.6684960  0.0011260  )
        20           I   tau(  20) = (  0.2500000  0.3315040  0.9988740  )

     number of k points=   100
                       cart. coord. in units 2pi/alat
        k(    1) = (   0.0714286   0.0320634   0.0190201), wk =   0.0116618
        k(    2) = (   0.0714286   0.0320634   0.0570604), wk =   0.0116618
        k(    3) = (   0.0714286   0.0320634   0.0951007), wk =   0.0116618
        k(    4) = (   0.0714286   0.0320634  -0.1331409), wk =   0.0116618
        k(    5) = (   0.0714286   0.0961903   0.0190201), wk =   0.0116618
        k(    6) = (   0.0714286   0.0961903   0.0570604), wk =   0.0116618
        k(    7) = (   0.0714286   0.0961903   0.0951007), wk =   0.0116618
        k(    8) = (   0.0714286   0.0961903  -0.1331409), wk =   0.0116618
        k(    9) = (   0.0714286   0.1603171   0.0190201), wk =   0.0116618
        k(   10) = (   0.0714286   0.1603171   0.0570604), wk =   0.0116618
        k(   11) = (   0.0714286   0.1603171   0.0951007), wk =   0.0116618
        k(   12) = (   0.0714286   0.1603171  -0.1331409), wk =   0.0116618
        k(   13) = (   0.0714286  -0.2244440   0.0190201), wk =   0.0116618
        k(   14) = (   0.0714286  -0.2244440   0.0570604), wk =   0.0116618
        k(   15) = (   0.0714286  -0.2244440   0.0951007), wk =   0.0116618
        k(   16) = (   0.0714286  -0.2244440  -0.1331409), wk =   0.0058309
        k(   17) = (   0.2142857   0.0320634   0.0190201), wk =   0.0116618
        k(   18) = (   0.2142857   0.0320634   0.0570604), wk =   0.0116618
        k(   19) = (   0.2142857   0.0320634   0.0951007), wk =   0.0116618
        k(   20) = (   0.2142857   0.0320634  -0.1331409), wk =   0.0116618
        k(   21) = (   0.2142857   0.0961903   0.0190201), wk =   0.0116618
        k(   22) = (   0.2142857   0.0961903   0.0570604), wk =   0.0116618
        k(   23) = (   0.2142857   0.0961903   0.0951007), wk =   0.0116618
        k(   24) = (   0.2142857   0.0961903  -0.1331409), wk =   0.0116618
        k(   25) = (   0.2142857   0.1603171   0.0190201), wk =   0.0116618
        k(   26) = (   0.2142857   0.1603171   0.0570604), wk =   0.0116618
        k(   27) = (   0.2142857   0.1603171   0.0951007), wk =   0.0116618
        k(   28) = (   0.2142857   0.1603171  -0.1331409), wk =   0.0116618
        k(   29) = (   0.2142857  -0.2244440   0.0190201), wk =   0.0116618
        k(   30) = (   0.2142857  -0.2244440   0.0570604), wk =   0.0116618
        k(   31) = (   0.2142857  -0.2244440   0.0951007), wk =   0.0116618
        k(   32) = (   0.2142857  -0.2244440  -0.1331409), wk =   0.0058309
        k(   33) = (   0.3571429   0.0320634   0.0190201), wk =   0.0116618
        k(   34) = (   0.3571429   0.0320634   0.0570604), wk =   0.0116618
        k(   35) = (   0.3571429   0.0320634   0.0951007), wk =   0.0116618
        k(   36) = (   0.3571429   0.0320634  -0.1331409), wk =   0.0116618
        k(   37) = (   0.3571429   0.0961903   0.0190201), wk =   0.0116618
        k(   38) = (   0.3571429   0.0961903   0.0570604), wk =   0.0116618
        k(   39) = (   0.3571429   0.0961903   0.0951007), wk =   0.0116618
        k(   40) = (   0.3571429   0.0961903  -0.1331409), wk =   0.0116618
        k(   41) = (   0.3571429   0.1603171   0.0190201), wk =   0.0116618
        k(   42) = (   0.3571429   0.1603171   0.0570604), wk =   0.0116618
        k(   43) = (   0.3571429   0.1603171   0.0951007), wk =   0.0116618
        k(   44) = (   0.3571429   0.1603171  -0.1331409), wk =   0.0116618
        k(   45) = (   0.3571429  -0.2244440   0.0190201), wk =   0.0116618
        k(   46) = (   0.3571429  -0.2244440   0.0570604), wk =   0.0116618
        k(   47) = (   0.3571429  -0.2244440   0.0951007), wk =   0.0116618
        k(   48) = (   0.3571429  -0.2244440  -0.1331409), wk =   0.0058309
        k(   49) = (  -0.5000000   0.0320634   0.0190201), wk =   0.0058309
        k(   50) = (  -0.5000000   0.0320634   0.0570604), wk =   0.0058309
        k(   51) = (  -0.5000000   0.0320634   0.0951007), wk =   0.0058309
        k(   52) = (  -0.5000000   0.0320634  -0.1331409), wk =   0.0058309
        k(   53) = (  -0.5000000   0.0961903   0.0190201), wk =   0.0058309
        k(   54) = (  -0.5000000   0.0961903   0.0570604), wk =   0.0058309
        k(   55) = (  -0.5000000   0.0961903   0.0951007), wk =   0.0058309
        k(   56) = (  -0.5000000   0.0961903  -0.1331409), wk =   0.0058309
        k(   57) = (  -0.5000000   0.1603171   0.0190201), wk =   0.0058309
        k(   58) = (  -0.5000000   0.1603171   0.0570604), wk =   0.0058309
        k(   59) = (  -0.5000000   0.1603171   0.0951007), wk =   0.0058309
        k(   60) = (  -0.5000000   0.1603171  -0.1331409), wk =   0.0058309
        k(   61) = (  -0.5000000  -0.2244440   0.0190201), wk =   0.0058309
        k(   62) = (  -0.5000000  -0.2244440   0.0570604), wk =   0.0058309
        k(   63) = (  -0.5000000  -0.2244440   0.0951007), wk =   0.0058309
        k(   64) = (  -0.5000000  -0.2244440  -0.1331409), wk =   0.0029155
        k(   65) = (  -0.0714286   0.0320634  -0.0190201), wk =   0.0116618
        k(   66) = (  -0.0714286   0.0320634  -0.0570604), wk =   0.0116618
        k(   67) = (  -0.0714286   0.0320634  -0.0951007), wk =   0.0116618
        k(   68) = (  -0.0714286   0.0961903  -0.0190201), wk =   0.0116618
        k(   69) = (  -0.0714286   0.0961903  -0.0570604), wk =   0.0116618
        k(   70) = (  -0.0714286   0.0961903  -0.0951007), wk =   0.0116618
        k(   71) = (  -0.0714286   0.1603171  -0.0190201), wk =   0.0116618
        k(   72) = (  -0.0714286   0.1603171  -0.0570604), wk =   0.0116618
        k(   73) = (  -0.0714286   0.1603171  -0.0951007), wk =   0.0116618
        k(   74) = (  -0.2142857   0.0320634  -0.0190201), wk =   0.0116618
        k(   75) = (  -0.2142857   0.0320634  -0.0570604), wk =   0.0116618
        k(   76) = (  -0.2142857   0.0320634  -0.0951007), wk =   0.0116618
        k(   77) = (  -0.2142857   0.0961903  -0.0190201), wk =   0.0116618
        k(   78) = (  -0.2142857   0.0961903  -0.0570604), wk =   0.0116618
        k(   79) = (  -0.2142857   0.0961903  -0.0951007), wk =   0.0116618
        k(   80) = (  -0.2142857   0.1603171  -0.0190201), wk =   0.0116618
        k(   81) = (  -0.2142857   0.1603171  -0.0570604), wk =   0.0116618
        k(   82) = (  -0.2142857   0.1603171  -0.0951007), wk =   0.0116618
        k(   83) = (  -0.3571429   0.0320634  -0.0190201), wk =   0.0116618
        k(   84) = (  -0.3571429   0.0320634  -0.0570604), wk =   0.0116618
        k(   85) = (  -0.3571429   0.0320634  -0.0951007), wk =   0.0116618
        k(   86) = (  -0.3571429   0.0961903  -0.0190201), wk =   0.0116618
        k(   87) = (  -0.3571429   0.0961903  -0.0570604), wk =   0.0116618
        k(   88) = (  -0.3571429   0.0961903  -0.0951007), wk =   0.0116618
        k(   89) = (  -0.3571429   0.1603171  -0.0190201), wk =   0.0116618
        k(   90) = (  -0.3571429   0.1603171  -0.0570604), wk =   0.0116618
        k(   91) = (  -0.3571429   0.1603171  -0.0951007), wk =   0.0116618
        k(   92) = (   0.5000000   0.0320634  -0.0190201), wk =   0.0058309
        k(   93) = (   0.5000000   0.0320634  -0.0570604), wk =   0.0058309
        k(   94) = (   0.5000000   0.0320634  -0.0951007), wk =   0.0058309
        k(   95) = (   0.5000000   0.0961903  -0.0190201), wk =   0.0058309
        k(   96) = (   0.5000000   0.0961903  -0.0570604), wk =   0.0058309
        k(   97) = (   0.5000000   0.0961903  -0.0951007), wk =   0.0058309
        k(   98) = (   0.5000000   0.1603171  -0.0190201), wk =   0.0058309
        k(   99) = (   0.5000000   0.1603171  -0.0570604), wk =   0.0058309
        k(  100) = (   0.5000000   0.1603171  -0.0951007), wk =   0.0058309

                       cryst. coord.
        k(    1) = (   0.0714286   0.0714286   0.0714286), wk =   0.0116618
        k(    2) = (   0.0714286   0.0714286   0.2142857), wk =   0.0116618
        k(    3) = (   0.0714286   0.0714286   0.3571429), wk =   0.0116618
        k(    4) = (   0.0714286   0.0714286  -0.5000000), wk =   0.0116618
        k(    5) = (   0.0714286   0.2142857   0.0714286), wk =   0.0116618
        k(    6) = (   0.0714286   0.2142857   0.2142857), wk =   0.0116618
        k(    7) = (   0.0714286   0.2142857   0.3571429), wk =   0.0116618
        k(    8) = (   0.0714286   0.2142857  -0.5000000), wk =   0.0116618
        k(    9) = (   0.0714286   0.3571429   0.0714286), wk =   0.0116618
        k(   10) = (   0.0714286   0.3571429   0.2142857), wk =   0.0116618
        k(   11) = (   0.0714286   0.3571429   0.3571429), wk =   0.0116618
        k(   12) = (   0.0714286   0.3571429  -0.5000000), wk =   0.0116618
        k(   13) = (   0.0714286  -0.5000000   0.0714286), wk =   0.0116618
        k(   14) = (   0.0714286  -0.5000000   0.2142857), wk =   0.0116618
        k(   15) = (   0.0714286  -0.5000000   0.3571429), wk =   0.0116618
        k(   16) = (   0.0714286  -0.5000000  -0.5000000), wk =   0.0058309
        k(   17) = (   0.2142857   0.0714286   0.0714286), wk =   0.0116618
        k(   18) = (   0.2142857   0.0714286   0.2142857), wk =   0.0116618
        k(   19) = (   0.2142857   0.0714286   0.3571429), wk =   0.0116618
        k(   20) = (   0.2142857   0.0714286  -0.5000000), wk =   0.0116618
        k(   21) = (   0.2142857   0.2142857   0.0714286), wk =   0.0116618
        k(   22) = (   0.2142857   0.2142857   0.2142857), wk =   0.0116618
        k(   23) = (   0.2142857   0.2142857   0.3571429), wk =   0.0116618
        k(   24) = (   0.2142857   0.2142857  -0.5000000), wk =   0.0116618
        k(   25) = (   0.2142857   0.3571429   0.0714286), wk =   0.0116618
        k(   26) = (   0.2142857   0.3571429   0.2142857), wk =   0.0116618
        k(   27) = (   0.2142857   0.3571429   0.3571429), wk =   0.0116618
        k(   28) = (   0.2142857   0.3571429  -0.5000000), wk =   0.0116618
        k(   29) = (   0.2142857  -0.5000000   0.0714286), wk =   0.0116618
        k(   30) = (   0.2142857  -0.5000000   0.2142857), wk =   0.0116618
        k(   31) = (   0.2142857  -0.5000000   0.3571429), wk =   0.0116618
        k(   32) = (   0.2142857  -0.5000000  -0.5000000), wk =   0.0058309
        k(   33) = (   0.3571429   0.0714286   0.0714286), wk =   0.0116618
        k(   34) = (   0.3571429   0.0714286   0.2142857), wk =   0.0116618
        k(   35) = (   0.3571429   0.0714286   0.3571429), wk =   0.0116618
        k(   36) = (   0.3571429   0.0714286  -0.5000000), wk =   0.0116618
        k(   37) = (   0.3571429   0.2142857   0.0714286), wk =   0.0116618
        k(   38) = (   0.3571429   0.2142857   0.2142857), wk =   0.0116618
        k(   39) = (   0.3571429   0.2142857   0.3571429), wk =   0.0116618
        k(   40) = (   0.3571429   0.2142857  -0.5000000), wk =   0.0116618
        k(   41) = (   0.3571429   0.3571429   0.0714286), wk =   0.0116618
        k(   42) = (   0.3571429   0.3571429   0.2142857), wk =   0.0116618
        k(   43) = (   0.3571429   0.3571429   0.3571429), wk =   0.0116618
        k(   44) = (   0.3571429   0.3571429  -0.5000000), wk =   0.0116618
        k(   45) = (   0.3571429  -0.5000000   0.0714286), wk =   0.0116618
        k(   46) = (   0.3571429  -0.5000000   0.2142857), wk =   0.0116618
        k(   47) = (   0.3571429  -0.5000000   0.3571429), wk =   0.0116618
        k(   48) = (   0.3571429  -0.5000000  -0.5000000), wk =   0.0058309
        k(   49) = (  -0.5000000   0.0714286   0.0714286), wk =   0.0058309
        k(   50) = (  -0.5000000   0.0714286   0.2142857), wk =   0.0058309
        k(   51) = (  -0.5000000   0.0714286   0.3571429), wk =   0.0058309
        k(   52) = (  -0.5000000   0.0714286  -0.5000000), wk =   0.0058309
        k(   53) = (  -0.5000000   0.2142857   0.0714286), wk =   0.0058309
        k(   54) = (  -0.5000000   0.2142857   0.2142857), wk =   0.0058309
        k(   55) = (  -0.5000000   0.2142857   0.3571429), wk =   0.0058309
        k(   56) = (  -0.5000000   0.2142857  -0.5000000), wk =   0.0058309
        k(   57) = (  -0.5000000   0.3571429   0.0714286), wk =   0.0058309
        k(   58) = (  -0.5000000   0.3571429   0.2142857), wk =   0.0058309
        k(   59) = (  -0.5000000   0.3571429   0.3571429), wk =   0.0058309
        k(   60) = (  -0.5000000   0.3571429  -0.5000000), wk =   0.0058309
        k(   61) = (  -0.5000000  -0.5000000   0.0714286), wk =   0.0058309
        k(   62) = (  -0.5000000  -0.5000000   0.2142857), wk =   0.0058309
        k(   63) = (  -0.5000000  -0.5000000   0.3571429), wk =   0.0058309
        k(   64) = (  -0.5000000  -0.5000000  -0.5000000), wk =   0.0029155
        k(   65) = (  -0.0714286   0.0714286  -0.0714286), wk =   0.0116618
        k(   66) = (  -0.0714286   0.0714286  -0.2142857), wk =   0.0116618
        k(   67) = (  -0.0714286   0.0714286  -0.3571429), wk =   0.0116618
        k(   68) = (  -0.0714286   0.2142857  -0.0714286), wk =   0.0116618
        k(   69) = (  -0.0714286   0.2142857  -0.2142857), wk =   0.0116618
        k(   70) = (  -0.0714286   0.2142857  -0.3571429), wk =   0.0116618
        k(   71) = (  -0.0714286   0.3571429  -0.0714286), wk =   0.0116618
        k(   72) = (  -0.0714286   0.3571429  -0.2142857), wk =   0.0116618
        k(   73) = (  -0.0714286   0.3571429  -0.3571429), wk =   0.0116618
        k(   74) = (  -0.2142857   0.0714286  -0.0714286), wk =   0.0116618
        k(   75) = (  -0.2142857   0.0714286  -0.2142857), wk =   0.0116618
        k(   76) = (  -0.2142857   0.0714286  -0.3571429), wk =   0.0116618
        k(   77) = (  -0.2142857   0.2142857  -0.0714286), wk =   0.0116618
        k(   78) = (  -0.2142857   0.2142857  -0.2142857), wk =   0.0116618
        k(   79) = (  -0.2142857   0.2142857  -0.3571429), wk =   0.0116618
        k(   80) = (  -0.2142857   0.3571429  -0.0714286), wk =   0.0116618
        k(   81) = (  -0.2142857   0.3571429  -0.2142857), wk =   0.0116618
        k(   82) = (  -0.2142857   0.3571429  -0.3571429), wk =   0.0116618
        k(   83) = (  -0.3571429   0.0714286  -0.0714286), wk =   0.0116618
        k(   84) = (  -0.3571429   0.0714286  -0.2142857), wk =   0.0116618
        k(   85) = (  -0.3571429   0.0714286  -0.3571429), wk =   0.0116618
        k(   86) = (  -0.3571429   0.2142857  -0.0714286), wk =   0.0116618
        k(   87) = (  -0.3571429   0.2142857  -0.2142857), wk =   0.0116618
        k(   88) = (  -0.3571429   0.2142857  -0.3571429), wk =   0.0116618
        k(   89) = (  -0.3571429   0.3571429  -0.0714286), wk =   0.0116618
        k(   90) = (  -0.3571429   0.3571429  -0.2142857), wk =   0.0116618
        k(   91) = (  -0.3571429   0.3571429  -0.3571429), wk =   0.0116618
        k(   92) = (   0.5000000   0.0714286  -0.0714286), wk =   0.0058309
        k(   93) = (   0.5000000   0.0714286  -0.2142857), wk =   0.0058309
        k(   94) = (   0.5000000   0.0714286  -0.3571429), wk =   0.0058309
        k(   95) = (   0.5000000   0.2142857  -0.0714286), wk =   0.0058309
        k(   96) = (   0.5000000   0.2142857  -0.2142857), wk =   0.0058309
        k(   97) = (   0.5000000   0.2142857  -0.3571429), wk =   0.0058309
        k(   98) = (   0.5000000   0.3571429  -0.0714286), wk =   0.0058309
        k(   99) = (   0.5000000   0.3571429  -0.2142857), wk =   0.0058309
        k(  100) = (   0.5000000   0.3571429  -0.3571429), wk =   0.0058309

     Dense  grid:   704507 G-vectors     FFT dimensions: (  60, 125, 216)

     Smooth grid:   504115 G-vectors     FFT dimensions: (  50, 120, 192)

     Estimated max dynamical RAM per process >     830.05Mb

     Estimated total allocated dynamical RAM >   39842.17Mb

     Initial potential from superposition of free atoms

     starting charge  175.84164, renormalised to  176.00000
     Starting wfc are  208 randomized atomic wfcs

     total cpu time spent up to now is      164.1 secs

     per-process dynamical memory:   929.3 Mb

     Self-consistent Calculation

     iteration #  1     ecut=    70.00 Ry     beta=0.35
     Davidson diagonalization with overlap
