
     Program PWSCF v.6.6 starts on 25Jan2021 at 23:35:24 

     This program is part of the open-source Quantum ESPRESSO suite
     for quantum simulation of materials; please cite
         "P. Giannozzi et al., J. Phys.:Condens. Matter 21 395502 (2009);
         "P. Giannozzi et al., J. Phys.:Condens. Matter 29 465901 (2017);
          URL http://www.quantum-espresso.org", 
     in publications or presentations arising from this work. More details at
     http://www.quantum-espresso.org/quote

     Parallel version (MPI), running on    64 processors

     MPI processes distributed on     2 nodes
     R & G space division:  proc/nbgrp/npool/nimage =      64
     Fft bands division:     nmany     =       1
     Waiting for input...
     Reading input from standard input

     Current dimensions of program PWSCF are:
     Max number of different atomic species (ntypx) = 10
     Max number of k-points (npk) =  40000
     Max angular momentum in pseudopotentials (lmaxx) =  3
     file Sn.rel-pbe-dn-rrkjus_psl.1.0.0.UPF: wavefunction(s)  5S 4D 4D renormalized
     file Cs.rel-pbe-spn-rrkjus_psl.1.0.0.UPF: wavefunction(s)  5S 6S renormalized

     Subspace diagonalization in iterative solution of the eigenvalue problem:
     a serial algorithm will be used

 
     Parallelization info
     --------------------
     sticks:   dense  smooth     PW     G-vecs:    dense   smooth      PW
     Min          46      46     12                 4753     4753     666
     Max          48      48     13                 4763     4763     681
     Sum        2963    2963    799               304449   304449   42963
 

     Title: 
     perovskite                                                                 


     bravais-lattice index     =            8
     lattice parameter (alat)  =       9.1317  a.u.
     unit-cell volume          =    6370.5385 (a.u.)^3
     number of atoms/cell      =           20
     number of atomic types    =            3
     number of electrons       =       176.00
     number of Kohn-Sham states=          176
     kinetic-energy cutoff     =      50.0000  Ry
     charge density cutoff     =     200.0000  Ry
     convergence threshold     =      1.0E-06
     mixing beta               =       0.6000
     number of iterations used =            8  plain     mixing
     Exchange-correlation= PBE
                           (   1   4   3   4   0   0   0)
     Non magnetic calculation with spin-orbit


     celldm(1)=   9.131705  celldm(2)=   2.227728  celldm(3)=   3.755420
     celldm(4)=   0.000000  celldm(5)=   0.000000  celldm(6)=   0.000000

     crystal axes: (cart. coord. in units of alat)
               a(1) = (   1.000000   0.000000   0.000000 )  
               a(2) = (   0.000000   2.227728   0.000000 )  
               a(3) = (   0.000000   0.000000   3.755420 )  

     reciprocal axes: (cart. coord. in units 2 pi/alat)
               b(1) = (  1.000000  0.000000  0.000000 )  
               b(2) = (  0.000000  0.448888  0.000000 )  
               b(3) = (  0.000000  0.000000  0.266282 )  


     PseudoPot. # 1 for Sn read from file:
     /scratch/afiorent/degironcoli/pseudo/pseudo-usp/Sn.rel-pbe-dn-rrkjus_psl.1.0.0.UPF
     MD5 check sum: e9415cc9ba1036dfb73502962f03961a
     Pseudo is Ultrasoft + core correction, Zval = 14.0
     Generated using "atomic" code by A. Dal Corso v.6.3
     Using radial grid of 1243 points, 10 beta functions with: 
                l(1) =   0
                l(2) =   0
                l(3) =   1
                l(4) =   1
                l(5) =   1
                l(6) =   1
                l(7) =   2
                l(8) =   2
                l(9) =   2
               l(10) =   2
     Q(r) pseudized with 0 coefficients 


     PseudoPot. # 2 for I  read from file:
     /scratch/afiorent/degironcoli/pseudo/pseudo-usp/I.rel-pbe-n-rrkjus_psl.0.2.2.UPF
     MD5 check sum: b9024a078df971004264c9bcc9ff756e
     Pseudo is Ultrasoft + core correction, Zval =  7.0
     Generated using "atomic" code by A. Dal Corso v.5.0.2 svn rev. 9415
     Using radial grid of 1247 points,  6 beta functions with: 
                l(1) =   0
                l(2) =   0
                l(3) =   1
                l(4) =   1
                l(5) =   1
                l(6) =   1
     Q(r) pseudized with 0 coefficients 


     PseudoPot. # 3 for Cs read from file:
     /scratch/afiorent/degironcoli/pseudo/pseudo-usp/Cs.rel-pbe-spn-rrkjus_psl.1.0.0.UPF
     MD5 check sum: 92f45d5fced885c1284380ec35df8368
     Pseudo is Ultrasoft + core correction, Zval =  9.0
     Generated using "atomic" code by A. Dal Corso v.6.4.1
     Using radial grid of 1251 points, 15 beta functions with: 
                l(1) =   0
                l(2) =   0
                l(3) =   0
                l(4) =   1
                l(5) =   1
                l(6) =   1
                l(7) =   1
                l(8) =   2
                l(9) =   2
               l(10) =   2
               l(11) =   2
               l(12) =   3
               l(13) =   3
               l(14) =   3
               l(15) =   3
     Q(r) pseudized with 0 coefficients 


     atomic species   valence    mass     pseudopotential
        Sn            14.00   118.70000     Sn( 1.00)
        I              7.00   126.90000     I ( 1.00)
        Cs             9.00   132.90000     Cs( 1.00)

      8 Sym. Ops., with inversion, found ( 6 have fractional translation)


                                    s                        frac. trans.

      isym =  1     identity                                     

 cryst.   s( 1) = (     1          0          0      )
                  (     0          1          0      )
                  (     0          0          1      )

 cart.    s( 1) = (  1.0000000  0.0000000  0.0000000 )
                  (  0.0000000  1.0000000  0.0000000 )
                  (  0.0000000  0.0000000  1.0000000 )


      isym =  2     180 deg rotation - cart. axis [0,0,1]        

 cryst.   s( 2) = (    -1          0          0      )    f =(  0.0000000 )
                  (     0         -1          0      )       (  0.5000000 )
                  (     0          0          1      )       (  0.5000000 )

 cart.    s( 2) = ( -1.0000000  0.0000000  0.0000000 )    f =(  0.0000000 )
                  (  0.0000000 -1.0000000  0.0000000 )       (  1.1138638 )
                  (  0.0000000  0.0000000  1.0000000 )       (  1.8777098 )


      isym =  3     180 deg rotation - cart. axis [0,1,0]        

 cryst.   s( 3) = (    -1          0          0      )    f =(  0.5000000 )
                  (     0          1          0      )       ( -0.5000000 )
                  (     0          0         -1      )       ( -0.5000000 )

 cart.    s( 3) = ( -1.0000000  0.0000000  0.0000000 )    f =(  0.5000000 )
                  (  0.0000000  1.0000000  0.0000000 )       ( -1.1138638 )
                  (  0.0000000  0.0000000 -1.0000000 )       ( -1.8777098 )


      isym =  4     180 deg rotation - cart. axis [1,0,0]        

 cryst.   s( 4) = (     1          0          0      )    f =( -0.5000000 )
                  (     0         -1          0      )       (  0.0000000 )
                  (     0          0         -1      )       (  0.0000000 )

 cart.    s( 4) = (  1.0000000  0.0000000  0.0000000 )    f =( -0.5000000 )
                  (  0.0000000 -1.0000000  0.0000000 )       (  0.0000000 )
                  (  0.0000000  0.0000000 -1.0000000 )       (  0.0000000 )


      isym =  5     inversion                                    

 cryst.   s( 5) = (    -1          0          0      )
                  (     0         -1          0      )
                  (     0          0         -1      )

 cart.    s( 5) = ( -1.0000000  0.0000000  0.0000000 )
                  (  0.0000000 -1.0000000  0.0000000 )
                  (  0.0000000  0.0000000 -1.0000000 )


      isym =  6     inv. 180 deg rotation - cart. axis [0,0,1]   

 cryst.   s( 6) = (     1          0          0      )    f =(  0.0000000 )
                  (     0          1          0      )       ( -0.5000000 )
                  (     0          0         -1      )       ( -0.5000000 )

 cart.    s( 6) = (  1.0000000  0.0000000  0.0000000 )    f =(  0.0000000 )
                  (  0.0000000  1.0000000  0.0000000 )       ( -1.1138638 )
                  (  0.0000000  0.0000000 -1.0000000 )       ( -1.8777098 )


      isym =  7     inv. 180 deg rotation - cart. axis [0,1,0]   

 cryst.   s( 7) = (     1          0          0      )    f =( -0.5000000 )
                  (     0         -1          0      )       (  0.5000000 )
                  (     0          0          1      )       (  0.5000000 )

 cart.    s( 7) = (  1.0000000  0.0000000  0.0000000 )    f =( -0.5000000 )
                  (  0.0000000 -1.0000000  0.0000000 )       (  1.1138638 )
                  (  0.0000000  0.0000000  1.0000000 )       (  1.8777098 )


      isym =  8     inv. 180 deg rotation - cart. axis [1,0,0]   

 cryst.   s( 8) = (    -1          0          0      )    f =(  0.5000000 )
                  (     0          1          0      )       (  0.0000000 )
                  (     0          0          1      )       (  0.0000000 )

 cart.    s( 8) = ( -1.0000000  0.0000000  0.0000000 )    f =(  0.5000000 )
                  (  0.0000000  1.0000000  0.0000000 )       (  0.0000000 )
                  (  0.0000000  0.0000000  1.0000000 )       (  0.0000000 )


     double point group D_2h (mmm) 
     there are 10 classes and  2 irreducible representations
     the character table:

       E     -E     C2    C2'  C2''  i     -i     s_v   s_v' s_v''
                   -C2   -C2'  -C2''             -s_v  -s_v' -s_v'
G_5+   2.00 -2.00  0.00  0.00  0.00  2.00 -2.00  0.00  0.00  0.00
G_5-   2.00 -2.00  0.00  0.00  0.00 -2.00  2.00  0.00  0.00  0.00

     the symmetry operations in each class and the name of the first element:

     E             1
          identity                                               
     -E           -1
          identity E                                             
      C2  -C2      2   -2
          180 deg rotation - cart. axis [0,0,1]                  
      C2' -C2'     4   -4
          180 deg rotation - cart. axis [1,0,0]                  
     C2'' -C2''    3   -3
          180 deg rotation - cart. axis [0,1,0]                  
     i             5
          inversion                                              
     -i           -5
          inversion E                                            
      s_v -s_v     6   -6
          inv. 180 deg rotation - cart. axis [0,0,1]             
      s_v'-s_v'    8   -8
          inv. 180 deg rotation - cart. axis [1,0,0]             
     s_v''-s_v'    7   -7
          inv. 180 deg rotation - cart. axis [0,1,0]             

   Cartesian axes

     site n.     atom                  positions (alat units)
         1           Cs  tau(   1) = (   0.2500000   0.1859640   2.5168147  )
         2           Cs  tau(   2) = (   0.7500000   2.0417636   1.2386050  )
         3           Cs  tau(   3) = (   0.2500000   1.2998278   3.1163149  )
         4           Cs  tau(   4) = (   0.7500000   0.9278998   0.6391048  )
         5           Sn  tau(   5) = (   0.2500000   0.7615710   1.6485466  )
         6           Sn  tau(   6) = (   0.7500000   1.4661567   2.1068731  )
         7           Sn  tau(   7) = (   0.2500000   1.8754348   0.2291632  )
         8           Sn  tau(   8) = (   0.7500000   0.3522928   3.5262565  )
         9           I   tau(   9) = (   0.7500000   0.0581437   0.4202578  )
        10           I   tau(  10) = (   0.2500000   2.1695839   3.3351619  )
        11           I   tau(  11) = (   0.7500000   1.1720075   1.4574521  )
        12           I   tau(  12) = (   0.2500000   1.0557201   2.2979676  )
        13           I   tau(  13) = (   0.7500000   0.6531118   2.9738192  )
        14           I   tau(  14) = (   0.2500000   1.5746158   0.7816005  )
        15           I   tau(  15) = (   0.7500000   1.7669756   2.6593103  )
        16           I   tau(  16) = (   0.2500000   0.4607520   1.0961094  )
        17           I   tau(  17) = (   0.7500000   0.3753632   1.8734812  )
        18           I   tau(  18) = (   0.2500000   1.8523644   1.8819384  )
        19           I   tau(  19) = (   0.7500000   1.4892270   0.0042286  )
        20           I   tau(  20) = (   0.2500000   0.7385006   3.7511911  )

   Crystallographic axes

     site n.     atom                  positions (cryst. coord.)
         1           Cs  tau(   1) = (  0.2500000  0.0834770  0.6701820  )
         2           Cs  tau(   2) = (  0.7500000  0.9165230  0.3298180  )
         3           Cs  tau(   3) = (  0.2500000  0.5834770  0.8298180  )
         4           Cs  tau(   4) = (  0.7500000  0.4165230  0.1701820  )
         5           Sn  tau(   5) = (  0.2500000  0.3418600  0.4389780  )
         6           Sn  tau(   6) = (  0.7500000  0.6581400  0.5610220  )
         7           Sn  tau(   7) = (  0.2500000  0.8418600  0.0610220  )
         8           Sn  tau(   8) = (  0.7500000  0.1581400  0.9389780  )
         9           I   tau(   9) = (  0.7500000  0.0261000  0.1119070  )
        10           I   tau(  10) = (  0.2500000  0.9739000  0.8880930  )
        11           I   tau(  11) = (  0.7500000  0.5261000  0.3880930  )
        12           I   tau(  12) = (  0.2500000  0.4739000  0.6119070  )
        13           I   tau(  13) = (  0.7500000  0.2931740  0.7918740  )
        14           I   tau(  14) = (  0.2500000  0.7068260  0.2081260  )
        15           I   tau(  15) = (  0.7500000  0.7931740  0.7081260  )
        16           I   tau(  16) = (  0.2500000  0.2068260  0.2918740  )
        17           I   tau(  17) = (  0.7500000  0.1684960  0.4988740  )
        18           I   tau(  18) = (  0.2500000  0.8315040  0.5011260  )
        19           I   tau(  19) = (  0.7500000  0.6684960  0.0011260  )
        20           I   tau(  20) = (  0.2500000  0.3315040  0.9988740  )

     number of k points=     8
                       cart. coord. in units 2pi/alat
        k(    1) = (   0.1250000   0.0561110   0.0332852), wk =   0.1250000
        k(    2) = (   0.1250000   0.0561110   0.0998557), wk =   0.1250000
        k(    3) = (   0.1250000   0.1683330   0.0332852), wk =   0.1250000
        k(    4) = (   0.1250000   0.1683330   0.0998557), wk =   0.1250000
        k(    5) = (   0.3750000   0.0561110   0.0332852), wk =   0.1250000
        k(    6) = (   0.3750000   0.0561110   0.0998557), wk =   0.1250000
        k(    7) = (   0.3750000   0.1683330   0.0332852), wk =   0.1250000
        k(    8) = (   0.3750000   0.1683330   0.0998557), wk =   0.1250000

                       cryst. coord.
        k(    1) = (   0.1250000   0.1250000   0.1250000), wk =   0.1250000
        k(    2) = (   0.1250000   0.1250000   0.3750000), wk =   0.1250000
        k(    3) = (   0.1250000   0.3750000   0.1250000), wk =   0.1250000
        k(    4) = (   0.1250000   0.3750000   0.3750000), wk =   0.1250000
        k(    5) = (   0.3750000   0.1250000   0.1250000), wk =   0.1250000
        k(    6) = (   0.3750000   0.1250000   0.3750000), wk =   0.1250000
        k(    7) = (   0.3750000   0.3750000   0.1250000), wk =   0.1250000
        k(    8) = (   0.3750000   0.3750000   0.3750000), wk =   0.1250000

     Dense  grid:   304449 G-vectors     FFT dimensions: (  48,  96, 160)

     Dynamical RAM for                 wfc:       3.19 MB

     Dynamical RAM for     wfc (w. buffer):      28.71 MB

     Dynamical RAM for           str. fact:       0.22 MB

     Dynamical RAM for           local pot:       0.00 MB

     Dynamical RAM for          nlocal pot:       5.04 MB

     Dynamical RAM for                qrad:      27.26 MB

     Dynamical RAM for          rho,v,vnew:       2.14 MB

     Dynamical RAM for               rhoin:       0.71 MB

     Dynamical RAM for            rho*nmix:       4.64 MB

     Dynamical RAM for           G-vectors:       0.31 MB

     Dynamical RAM for          h,s,v(r/c):       5.67 MB

     Dynamical RAM for          <psi|beta>:       2.99 MB

     Dynamical RAM for                 psi:       6.38 MB

     Dynamical RAM for                hpsi:       6.38 MB

     Dynamical RAM for                spsi:       6.38 MB

     Dynamical RAM for      wfcinit/wfcrot:       6.65 MB

     Dynamical RAM for           addusdens:     149.07 MB

     Dynamical RAM for          addusforce:     151.26 MB

     Dynamical RAM for         addusstress:     150.38 MB

     Estimated static dynamical RAM per process >      70.17 MB

     Estimated max dynamical RAM per process >     221.42 MB

     Estimated total dynamical RAM >      13.84 GB

     Check: negative core charge=   -0.000003

     Initial potential from superposition of free atoms

     starting charge  175.83607, renormalised to  176.00000
     Starting wfcs are  208 randomized atomic wfcs

     total cpu time spent up to now is      156.2 secs

     Self-consistent Calculation

     iteration #  1     ecut=    50.00 Ry     beta= 0.60
     Davidson diagonalization with overlap
     ethr =  1.00E-02,  avg # of iterations =  1.0

     Threshold (ethr) on eigenvalues was too large:
     Diagonalizing with lowered threshold

     Davidson diagonalization with overlap
     ethr =  3.42E-04,  avg # of iterations =  4.0

     total cpu time spent up to now is      538.2 secs

     total energy              =   -1576.16801702 Ry
     estimated scf accuracy    <       0.50020544 Ry

     iteration #  2     ecut=    50.00 Ry     beta= 0.60
     Davidson diagonalization with overlap
     ethr =  2.84E-04,  avg # of iterations =  4.1

     total cpu time spent up to now is      762.0 secs

     total energy              =   -1576.31383200 Ry
     estimated scf accuracy    <       0.36820613 Ry

     iteration #  3     ecut=    50.00 Ry     beta= 0.60
     Davidson diagonalization with overlap
     ethr =  2.09E-04,  avg # of iterations =  2.0

     total cpu time spent up to now is      928.9 secs

     total energy              =   -1576.36691022 Ry
     estimated scf accuracy    <       0.01842444 Ry

     iteration #  4     ecut=    50.00 Ry     beta= 0.60
     Davidson diagonalization with overlap
     ethr =  1.05E-05,  avg # of iterations =  6.6

     total cpu time spent up to now is     1234.2 secs

     total energy              =   -1576.38600170 Ry
     estimated scf accuracy    <       0.01609223 Ry

     iteration #  5     ecut=    50.00 Ry     beta= 0.60
     Davidson diagonalization with overlap
     ethr =  9.14E-06,  avg # of iterations =  2.0

     total cpu time spent up to now is     1423.5 secs

     total energy              =   -1576.38645588 Ry
     estimated scf accuracy    <       0.00257224 Ry

     iteration #  6     ecut=    50.00 Ry     beta= 0.60
     Davidson diagonalization with overlap
     ethr =  1.46E-06,  avg # of iterations =  6.9

     total cpu time spent up to now is     1704.4 secs

     total energy              =   -1576.38819604 Ry
     estimated scf accuracy    <       0.00255240 Ry

     iteration #  7     ecut=    50.00 Ry     beta= 0.60
     Davidson diagonalization with overlap
     ethr =  1.45E-06,  avg # of iterations =  2.0

     total cpu time spent up to now is     1882.2 secs

     total energy              =   -1576.38811484 Ry
     estimated scf accuracy    <       0.00055353 Ry

     iteration #  8     ecut=    50.00 Ry     beta= 0.60
     Davidson diagonalization with overlap
     ethr =  3.15E-07,  avg # of iterations =  5.6

     total cpu time spent up to now is     2198.2 secs

     total energy              =   -1576.38842693 Ry
     estimated scf accuracy    <       0.00022502 Ry

     iteration #  9     ecut=    50.00 Ry     beta= 0.60
     Davidson diagonalization with overlap
     ethr =  1.28E-07,  avg # of iterations =  2.0

     total cpu time spent up to now is     2384.0 secs

     total energy              =   -1576.38842167 Ry
     estimated scf accuracy    <       0.00005058 Ry

     iteration # 10     ecut=    50.00 Ry     beta= 0.60
     Davidson diagonalization with overlap
     ethr =  2.87E-08,  avg # of iterations =  5.1

     total cpu time spent up to now is     2624.3 secs

     total energy              =   -1576.38844913 Ry
     estimated scf accuracy    <       0.00001282 Ry

     iteration # 11     ecut=    50.00 Ry     beta= 0.60
     Davidson diagonalization with overlap
     ethr =  7.28E-09,  avg # of iterations =  2.0

     total cpu time spent up to now is     2790.6 secs

     total energy              =   -1576.38844694 Ry
     estimated scf accuracy    <       0.00000403 Ry

     iteration # 12     ecut=    50.00 Ry     beta= 0.60
     Davidson diagonalization with overlap
     ethr =  2.29E-09,  avg # of iterations =  9.8

     total cpu time spent up to now is     3141.7 secs

     total energy              =   -1576.38844882 Ry
     estimated scf accuracy    <       0.00001299 Ry

     iteration # 13     ecut=    50.00 Ry     beta= 0.60
     Davidson diagonalization with overlap
     ethr =  2.29E-09,  avg # of iterations =  5.4

     total cpu time spent up to now is     3355.5 secs

     total energy              =   -1576.38844959 Ry
     estimated scf accuracy    <       0.00000176 Ry

     iteration # 14     ecut=    50.00 Ry     beta= 0.60
     Davidson diagonalization with overlap
     ethr =  1.00E-09,  avg # of iterations =  4.9

     total cpu time spent up to now is     3586.0 secs

     End of self-consistent calculation

          k = 0.1250 0.0561 0.0333 ( 38035 PWs)   bands (ev):

   -18.4051 -18.4051 -18.4051 -18.4051 -18.4050 -18.4050 -18.4049 -18.4049
   -18.3921 -18.3921 -18.3921 -18.3921 -18.3920 -18.3920 -18.3920 -18.3920
   -17.7492 -17.7492 -17.7490 -17.7490 -17.7484 -17.7484 -17.7482 -17.7482
   -17.3693 -17.3693 -17.3693 -17.3693 -17.3692 -17.3692 -17.3692 -17.3692
   -17.3604 -17.3604 -17.3604 -17.3604 -17.3603 -17.3603 -17.3603 -17.3603
   -17.3522 -17.3522 -17.3521 -17.3521 -17.3519 -17.3519 -17.3519 -17.3519
    -8.7492  -8.7492  -8.7286  -8.7286  -8.5580  -8.5580  -8.5140  -8.5140
    -8.4271  -8.4271  -8.4130  -8.4130  -8.3833  -8.3833  -8.3525  -8.3525
    -8.2589  -8.2589  -8.2466  -8.2466  -8.2239  -8.2239  -8.1937  -8.1937
    -5.7060  -5.7060  -5.7019  -5.7019  -5.6892  -5.6892  -5.6818  -5.6818
    -4.1145  -4.1145  -4.1105  -4.1105  -4.0966  -4.0966  -4.0886  -4.0886
    -4.0814  -4.0814  -4.0766  -4.0766  -4.0621  -4.0621  -4.0586  -4.0586
    -2.9116  -2.9116  -2.8970  -2.8970  -2.8245  -2.8245  -2.7703  -2.7703
     0.0615   0.0615   0.2013   0.2013   0.5131   0.5131   0.5772   0.5772
     0.6128   0.6128   0.7277   0.7277   0.7784   0.7784   0.8209   0.8209
     0.9898   0.9898   1.0346   1.0346   1.0826   1.0826   1.1476   1.1476
     1.2283   1.2283   1.2945   1.2945   1.4747   1.4747   1.5122   1.5122
     1.5622   1.5622   1.6231   1.6231   1.6717   1.6717   1.7910   1.7910
     1.9300   1.9300   1.9825   1.9825   2.0269   2.0269   2.0616   2.0616
     2.0934   2.0934   2.1221   2.1221   2.2664   2.2664   2.2976   2.2976
     2.3461   2.3461   2.3936   2.3936   2.4706   2.4706   2.5235   2.5235
     2.7235   2.7235   2.7698   2.7698   2.9484   2.9484   3.1307   3.1307

     occupation numbers 
     1.0000   1.0000   1.0000   1.0000   1.0000   1.0000   1.0000   1.0000
     1.0000   1.0000   1.0000   1.0000   1.0000   1.0000   1.0000   1.0000
     1.0000   1.0000   1.0000   1.0000   1.0000   1.0000   1.0000   1.0000
     1.0000   1.0000   1.0000   1.0000   1.0000   1.0000   1.0000   1.0000
     1.0000   1.0000   1.0000   1.0000   1.0000   1.0000   1.0000   1.0000
     1.0000   1.0000   1.0000   1.0000   1.0000   1.0000   1.0000   1.0000
     1.0000   1.0000   1.0000   1.0000   1.0000   1.0000   1.0000   1.0000
     1.0000   1.0000   1.0000   1.0000   1.0000   1.0000   1.0000   1.0000
     1.0000   1.0000   1.0000   1.0000   1.0000   1.0000   1.0000   1.0000
     1.0000   1.0000   1.0000   1.0000   1.0000   1.0000   1.0000   1.0000
     1.0000   1.0000   1.0000   1.0000   1.0000   1.0000   1.0000   1.0000
     1.0000   1.0000   1.0000   1.0000   1.0000   1.0000   1.0000   1.0000
     1.0000   1.0000   1.0000   1.0000   1.0000   1.0000   1.0000   1.0000
     1.0000   1.0000   1.0000   1.0000   1.0000   1.0000   1.0000   1.0000
     1.0000   1.0000   1.0000   1.0000   1.0000   1.0000   1.0000   1.0000
     1.0000   1.0000   1.0000   1.0000   1.0000   1.0000   1.0000   1.0000
     1.0000   1.0000   1.0000   1.0000   1.0000   1.0000   1.0000   1.0000
     1.0000   1.0000   1.0000   1.0000   1.0000   1.0000   1.0000   1.0000
     1.0000   1.0000   1.0000   1.0000   1.0000   1.0000   1.0000   1.0000
     1.0000   1.0000   1.0000   1.0000   1.0000   1.0000   1.0000   1.0000
     1.0000   1.0000   1.0000   1.0000   1.0000   1.0000   1.0000   1.0000
     1.0000   1.0000   1.0000   1.0000   1.0000   1.0000   1.0000   1.0000

          k = 0.1250 0.0561 0.0999 ( 38045 PWs)   bands (ev):

   -18.4051 -18.4051 -18.4051 -18.4051 -18.4050 -18.4050 -18.4049 -18.4049
   -18.3921 -18.3921 -18.3921 -18.3921 -18.3920 -18.3920 -18.3920 -18.3920
   -17.7492 -17.7492 -17.7491 -17.7491 -17.7484 -17.7484 -17.7483 -17.7483
   -17.3693 -17.3693 -17.3693 -17.3693 -17.3692 -17.3692 -17.3692 -17.3692
   -17.3604 -17.3604 -17.3604 -17.3604 -17.3603 -17.3603 -17.3603 -17.3603
   -17.3521 -17.3521 -17.3521 -17.3521 -17.3519 -17.3519 -17.3519 -17.3519
    -8.7439  -8.7439  -8.7355  -8.7355  -8.5443  -8.5443  -8.5261  -8.5261
    -8.4256  -8.4256  -8.4205  -8.4205  -8.3713  -8.3713  -8.3593  -8.3593
    -8.2568  -8.2568  -8.2521  -8.2521  -8.2125  -8.2125  -8.2007  -8.2007
    -5.7054  -5.7054  -5.7031  -5.7031  -5.6874  -5.6874  -5.6830  -5.6830
    -4.1142  -4.1142  -4.1122  -4.1122  -4.0963  -4.0963  -4.0871  -4.0871
    -4.0816  -4.0816  -4.0776  -4.0776  -4.0616  -4.0616  -4.0582  -4.0582
    -2.9085  -2.9085  -2.9027  -2.9027  -2.8072  -2.8072  -2.7851  -2.7851
     0.0943   0.0943   0.1585   0.1585   0.5262   0.5262   0.5643   0.5643
     0.6297   0.6297   0.7080   0.7080   0.7931   0.7931   0.8295   0.8295
     0.9987   0.9987   1.0306   1.0306   1.0885   1.0885   1.1195   1.1195
     1.2382   1.2382   1.2759   1.2759   1.4852   1.4852   1.5072   1.5072
     1.5785   1.5785   1.6209   1.6209   1.6964   1.6964   1.7522   1.7522
     1.9358   1.9358   1.9830   1.9830   2.0310   2.0310   2.0496   2.0496
     2.0912   2.0912   2.1247   2.1247   2.2656   2.2656   2.2937   2.2937
     2.3436   2.3436   2.3919   2.3919   2.4976   2.4976   2.5266   2.5266
     2.7321   2.7321   2.7575   2.7575   2.9963   2.9963   3.0742   3.0742

     occupation numbers 
     1.0000   1.0000   1.0000   1.0000   1.0000   1.0000   1.0000   1.0000
     1.0000   1.0000   1.0000   1.0000   1.0000   1.0000   1.0000   1.0000
     1.0000   1.0000   1.0000   1.0000   1.0000   1.0000   1.0000   1.0000
     1.0000   1.0000   1.0000   1.0000   1.0000   1.0000   1.0000   1.0000
     1.0000   1.0000   1.0000   1.0000   1.0000   1.0000   1.0000   1.0000
     1.0000   1.0000   1.0000   1.0000   1.0000   1.0000   1.0000   1.0000
     1.0000   1.0000   1.0000   1.0000   1.0000   1.0000   1.0000   1.0000
     1.0000   1.0000   1.0000   1.0000   1.0000   1.0000   1.0000   1.0000
     1.0000   1.0000   1.0000   1.0000   1.0000   1.0000   1.0000   1.0000
     1.0000   1.0000   1.0000   1.0000   1.0000   1.0000   1.0000   1.0000
     1.0000   1.0000   1.0000   1.0000   1.0000   1.0000   1.0000   1.0000
     1.0000   1.0000   1.0000   1.0000   1.0000   1.0000   1.0000   1.0000
     1.0000   1.0000   1.0000   1.0000   1.0000   1.0000   1.0000   1.0000
     1.0000   1.0000   1.0000   1.0000   1.0000   1.0000   1.0000   1.0000
     1.0000   1.0000   1.0000   1.0000   1.0000   1.0000   1.0000   1.0000
     1.0000   1.0000   1.0000   1.0000   1.0000   1.0000   1.0000   1.0000
     1.0000   1.0000   1.0000   1.0000   1.0000   1.0000   1.0000   1.0000
     1.0000   1.0000   1.0000   1.0000   1.0000   1.0000   1.0000   1.0000
     1.0000   1.0000   1.0000   1.0000   1.0000   1.0000   1.0000   1.0000
     1.0000   1.0000   1.0000   1.0000   1.0000   1.0000   1.0000   1.0000
     1.0000   1.0000   1.0000   1.0000   1.0000   1.0000   1.0000   1.0000
     1.0000   1.0000   1.0000   1.0000   1.0000   1.0000   1.0000   1.0000

          k = 0.1250 0.1683 0.0333 ( 38069 PWs)   bands (ev):

   -18.4051 -18.4051 -18.4051 -18.4051 -18.4050 -18.4050 -18.4050 -18.4050
   -18.3921 -18.3921 -18.3921 -18.3921 -18.3920 -18.3920 -18.3920 -18.3920
   -17.7490 -17.7490 -17.7488 -17.7488 -17.7486 -17.7486 -17.7485 -17.7485
   -17.3693 -17.3693 -17.3693 -17.3693 -17.3692 -17.3692 -17.3692 -17.3692
   -17.3604 -17.3604 -17.3604 -17.3604 -17.3603 -17.3603 -17.3603 -17.3603
   -17.3521 -17.3521 -17.3521 -17.3521 -17.3519 -17.3519 -17.3519 -17.3519
    -8.7289  -8.7289  -8.7187  -8.7187  -8.5703  -8.5703  -8.5608  -8.5608
    -8.4495  -8.4495  -8.4477  -8.4477  -8.3355  -8.3355  -8.3184  -8.3184
    -8.2460  -8.2460  -8.2376  -8.2376  -8.2263  -8.2263  -8.2057  -8.2057
    -5.7026  -5.7026  -5.6979  -5.6979  -5.6937  -5.6937  -5.6877  -5.6877
    -4.1133  -4.1133  -4.1095  -4.1095  -4.0997  -4.0997  -4.0922  -4.0922
    -4.0824  -4.0824  -4.0786  -4.0786  -4.0650  -4.0650  -4.0615  -4.0615
    -2.9121  -2.9121  -2.9047  -2.9047  -2.7950  -2.7950  -2.7735  -2.7735
     0.1049   0.1049   0.1823   0.1823   0.4585   0.4585   0.5168   0.5168
     0.6117   0.6117   0.6958   0.6958   0.8036   0.8036   0.8343   0.8343
     0.9869   0.9869   1.0273   1.0273   1.1084   1.1084   1.1555   1.1555
     1.2886   1.2886   1.3376   1.3376   1.4842   1.4842   1.5333   1.5333
     1.5572   1.5572   1.6290   1.6290   1.7589   1.7589   1.7886   1.7886
     1.9022   1.9022   1.9437   1.9437   2.0060   2.0060   2.0579   2.0579
     2.1018   2.1018   2.1484   2.1484   2.2289   2.2289   2.2905   2.2905
     2.3630   2.3630   2.3983   2.3983   2.4666   2.4666   2.4974   2.4974
     2.6526   2.6526   2.7130   2.7130   3.0108   3.0108   3.0893   3.0893

     occupation numbers 
     1.0000   1.0000   1.0000   1.0000   1.0000   1.0000   1.0000   1.0000
     1.0000   1.0000   1.0000   1.0000   1.0000   1.0000   1.0000   1.0000
     1.0000   1.0000   1.0000   1.0000   1.0000   1.0000   1.0000   1.0000
     1.0000   1.0000   1.0000   1.0000   1.0000   1.0000   1.0000   1.0000
     1.0000   1.0000   1.0000   1.0000   1.0000   1.0000   1.0000   1.0000
     1.0000   1.0000   1.0000   1.0000   1.0000   1.0000   1.0000   1.0000
     1.0000   1.0000   1.0000   1.0000   1.0000   1.0000   1.0000   1.0000
     1.0000   1.0000   1.0000   1.0000   1.0000   1.0000   1.0000   1.0000
     1.0000   1.0000   1.0000   1.0000   1.0000   1.0000   1.0000   1.0000
     1.0000   1.0000   1.0000   1.0000   1.0000   1.0000   1.0000   1.0000
     1.0000   1.0000   1.0000   1.0000   1.0000   1.0000   1.0000   1.0000
     1.0000   1.0000   1.0000   1.0000   1.0000   1.0000   1.0000   1.0000
     1.0000   1.0000   1.0000   1.0000   1.0000   1.0000   1.0000   1.0000
     1.0000   1.0000   1.0000   1.0000   1.0000   1.0000   1.0000   1.0000
     1.0000   1.0000   1.0000   1.0000   1.0000   1.0000   1.0000   1.0000
     1.0000   1.0000   1.0000   1.0000   1.0000   1.0000   1.0000   1.0000
     1.0000   1.0000   1.0000   1.0000   1.0000   1.0000   1.0000   1.0000
     1.0000   1.0000   1.0000   1.0000   1.0000   1.0000   1.0000   1.0000
     1.0000   1.0000   1.0000   1.0000   1.0000   1.0000   1.0000   1.0000
     1.0000   1.0000   1.0000   1.0000   1.0000   1.0000   1.0000   1.0000
     1.0000   1.0000   1.0000   1.0000   1.0000   1.0000   1.0000   1.0000
     1.0000   1.0000   1.0000   1.0000   1.0000   1.0000   1.0000   1.0000

          k = 0.1250 0.1683 0.0999 ( 38062 PWs)   bands (ev):

   -18.4051 -18.4051 -18.4051 -18.4051 -18.4050 -18.4050 -18.4050 -18.4050
   -18.3921 -18.3921 -18.3921 -18.3921 -18.3920 -18.3920 -18.3920 -18.3920
   -17.7490 -17.7490 -17.7489 -17.7489 -17.7486 -17.7486 -17.7485 -17.7485
   -17.3693 -17.3693 -17.3693 -17.3693 -17.3692 -17.3692 -17.3692 -17.3692
   -17.3604 -17.3604 -17.3604 -17.3604 -17.3603 -17.3603 -17.3603 -17.3603
   -17.3521 -17.3521 -17.3521 -17.3521 -17.3519 -17.3519 -17.3519 -17.3519
    -8.7261  -8.7261  -8.7219  -8.7219  -8.5671  -8.5671  -8.5632  -8.5632
    -8.4488  -8.4488  -8.4472  -8.4472  -8.3335  -8.3335  -8.3262  -8.3262
    -8.2417  -8.2417  -8.2350  -8.2350  -8.2225  -8.2225  -8.2121  -8.2121
    -5.7018  -5.7018  -5.7001  -5.7001  -5.6915  -5.6915  -5.6886  -5.6886
    -4.1132  -4.1132  -4.1114  -4.1114  -4.0980  -4.0980  -4.0937  -4.0937
    -4.0818  -4.0818  -4.0787  -4.0787  -4.0639  -4.0639  -4.0616  -4.0616
    -2.9096  -2.9096  -2.9065  -2.9065  -2.7893  -2.7893  -2.7804  -2.7804
     0.1274   0.1274   0.1632   0.1632   0.4674   0.4674   0.4974   0.4974
     0.6449   0.6449   0.6920   0.6920   0.7890   0.7890   0.8161   0.8161
     0.9918   0.9918   1.0111   1.0111   1.1135   1.1135   1.1315   1.1315
     1.3203   1.3203   1.3549   1.3549   1.4918   1.4918   1.5178   1.5178
     1.5757   1.5757   1.6114   1.6114   1.7574   1.7574   1.7801   1.7801
     1.9059   1.9059   1.9467   1.9467   2.0133   2.0133   2.0404   2.0404
     2.1251   2.1251   2.1467   2.1467   2.2427   2.2427   2.2753   2.2753
     2.3627   2.3627   2.3872   2.3872   2.4789   2.4789   2.4936   2.4936
     2.6740   2.6740   2.7004   2.7004   3.0243   3.0243   3.0580   3.0580

     occupation numbers 
     1.0000   1.0000   1.0000   1.0000   1.0000   1.0000   1.0000   1.0000
     1.0000   1.0000   1.0000   1.0000   1.0000   1.0000   1.0000   1.0000
     1.0000   1.0000   1.0000   1.0000   1.0000   1.0000   1.0000   1.0000
     1.0000   1.0000   1.0000   1.0000   1.0000   1.0000   1.0000   1.0000
     1.0000   1.0000   1.0000   1.0000   1.0000   1.0000   1.0000   1.0000
     1.0000   1.0000   1.0000   1.0000   1.0000   1.0000   1.0000   1.0000
     1.0000   1.0000   1.0000   1.0000   1.0000   1.0000   1.0000   1.0000
     1.0000   1.0000   1.0000   1.0000   1.0000   1.0000   1.0000   1.0000
     1.0000   1.0000   1.0000   1.0000   1.0000   1.0000   1.0000   1.0000
     1.0000   1.0000   1.0000   1.0000   1.0000   1.0000   1.0000   1.0000
     1.0000   1.0000   1.0000   1.0000   1.0000   1.0000   1.0000   1.0000
     1.0000   1.0000   1.0000   1.0000   1.0000   1.0000   1.0000   1.0000
     1.0000   1.0000   1.0000   1.0000   1.0000   1.0000   1.0000   1.0000
     1.0000   1.0000   1.0000   1.0000   1.0000   1.0000   1.0000   1.0000
     1.0000   1.0000   1.0000   1.0000   1.0000   1.0000   1.0000   1.0000
     1.0000   1.0000   1.0000   1.0000   1.0000   1.0000   1.0000   1.0000
     1.0000   1.0000   1.0000   1.0000   1.0000   1.0000   1.0000   1.0000
     1.0000   1.0000   1.0000   1.0000   1.0000   1.0000   1.0000   1.0000
     1.0000   1.0000   1.0000   1.0000   1.0000   1.0000   1.0000   1.0000
     1.0000   1.0000   1.0000   1.0000   1.0000   1.0000   1.0000   1.0000
     1.0000   1.0000   1.0000   1.0000   1.0000   1.0000   1.0000   1.0000
     1.0000   1.0000   1.0000   1.0000   1.0000   1.0000   1.0000   1.0000

          k = 0.3750 0.0561 0.0333 ( 38051 PWs)   bands (ev):

   -18.4055 -18.4055 -18.4054 -18.4054 -18.4054 -18.4054 -18.4054 -18.4054
   -18.3916 -18.3916 -18.3916 -18.3916 -18.3916 -18.3916 -18.3916 -18.3916
   -17.7410 -17.7410 -17.7409 -17.7409 -17.7404 -17.7404 -17.7403 -17.7403
   -17.3699 -17.3699 -17.3699 -17.3699 -17.3698 -17.3698 -17.3698 -17.3698
   -17.3605 -17.3605 -17.3605 -17.3605 -17.3604 -17.3604 -17.3604 -17.3604
   -17.3513 -17.3513 -17.3513 -17.3513 -17.3512 -17.3512 -17.3512 -17.3512
    -8.5546  -8.5546  -8.5453  -8.5453  -8.4519  -8.4519  -8.4401  -8.4401
    -8.3317  -8.3317  -8.3217  -8.3217  -8.3027  -8.3027  -8.2906  -8.2906
    -8.2644  -8.2644  -8.2590  -8.2590  -8.2468  -8.2468  -8.2375  -8.2375
    -5.7485  -5.7485  -5.7446  -5.7446  -5.7264  -5.7264  -5.7228  -5.7228
    -4.2181  -4.2181  -4.2129  -4.2129  -4.1740  -4.1740  -4.1677  -4.1677
    -4.0998  -4.0998  -4.0989  -4.0989  -4.0777  -4.0777  -4.0752  -4.0752
    -3.1528  -3.1528  -3.1276  -3.1276  -3.0783  -3.0783  -3.0588  -3.0588
     0.0128   0.0128   0.0487   0.0487   0.0814   0.0814   0.1100   0.1100
     0.4143   0.4143   0.4776   0.4776   0.5476   0.5476   0.6109   0.6109
     0.6593   0.6593   0.6939   0.6939   0.8178   0.8178   0.8762   0.8762
     1.1541   1.1541   1.1865   1.1865   1.3847   1.3847   1.4355   1.4355
     1.5167   1.5167   1.5948   1.5948   1.6649   1.6649   1.6911   1.6911
     1.7983   1.7983   1.8316   1.8316   1.8913   1.8913   1.9158   1.9158
     1.9525   1.9525   2.0305   2.0305   2.0736   2.0736   2.1480   2.1480
     2.1868   2.1868   2.2100   2.2100   2.3387   2.3387   2.4361   2.4361
     2.6638   2.6638   2.9008   2.9008   2.9600   2.9600   3.1166   3.1166

     occupation numbers 
     1.0000   1.0000   1.0000   1.0000   1.0000   1.0000   1.0000   1.0000
     1.0000   1.0000   1.0000   1.0000   1.0000   1.0000   1.0000   1.0000
     1.0000   1.0000   1.0000   1.0000   1.0000   1.0000   1.0000   1.0000
     1.0000   1.0000   1.0000   1.0000   1.0000   1.0000   1.0000   1.0000
     1.0000   1.0000   1.0000   1.0000   1.0000   1.0000   1.0000   1.0000
     1.0000   1.0000   1.0000   1.0000   1.0000   1.0000   1.0000   1.0000
     1.0000   1.0000   1.0000   1.0000   1.0000   1.0000   1.0000   1.0000
     1.0000   1.0000   1.0000   1.0000   1.0000   1.0000   1.0000   1.0000
     1.0000   1.0000   1.0000   1.0000   1.0000   1.0000   1.0000   1.0000
     1.0000   1.0000   1.0000   1.0000   1.0000   1.0000   1.0000   1.0000
     1.0000   1.0000   1.0000   1.0000   1.0000   1.0000   1.0000   1.0000
     1.0000   1.0000   1.0000   1.0000   1.0000   1.0000   1.0000   1.0000
     1.0000   1.0000   1.0000   1.0000   1.0000   1.0000   1.0000   1.0000
     1.0000   1.0000   1.0000   1.0000   1.0000   1.0000   1.0000   1.0000
     1.0000   1.0000   1.0000   1.0000   1.0000   1.0000   1.0000   1.0000
     1.0000   1.0000   1.0000   1.0000   1.0000   1.0000   1.0000   1.0000
     1.0000   1.0000   1.0000   1.0000   1.0000   1.0000   1.0000   1.0000
     1.0000   1.0000   1.0000   1.0000   1.0000   1.0000   1.0000   1.0000
     1.0000   1.0000   1.0000   1.0000   1.0000   1.0000   1.0000   1.0000
     1.0000   1.0000   1.0000   1.0000   1.0000   1.0000   1.0000   1.0000
     1.0000   1.0000   1.0000   1.0000   1.0000   1.0000   1.0000   1.0000
     1.0000   1.0000   1.0000   1.0000   1.0000   1.0000   1.0000   1.0000

          k = 0.3750 0.0561 0.0999 ( 38022 PWs)   bands (ev):

   -18.4054 -18.4054 -18.4054 -18.4054 -18.4054 -18.4054 -18.4054 -18.4054
   -18.3916 -18.3916 -18.3916 -18.3916 -18.3916 -18.3916 -18.3916 -18.3916
   -17.7410 -17.7410 -17.7409 -17.7409 -17.7404 -17.7404 -17.7404 -17.7404
   -17.3699 -17.3699 -17.3699 -17.3699 -17.3698 -17.3698 -17.3698 -17.3698
   -17.3605 -17.3605 -17.3605 -17.3605 -17.3604 -17.3604 -17.3604 -17.3604
   -17.3513 -17.3513 -17.3513 -17.3513 -17.3512 -17.3512 -17.3512 -17.3512
    -8.5521  -8.5521  -8.5482  -8.5482  -8.4482  -8.4482  -8.4433  -8.4433
    -8.3292  -8.3292  -8.3251  -8.3251  -8.2991  -8.2991  -8.2942  -8.2942
    -8.2628  -8.2628  -8.2606  -8.2606  -8.2436  -8.2436  -8.2398  -8.2398
    -5.7484  -5.7484  -5.7448  -5.7448  -5.7258  -5.7258  -5.7234  -5.7234
    -4.2180  -4.2180  -4.2131  -4.2131  -4.1734  -4.1734  -4.1683  -4.1683
    -4.0998  -4.0998  -4.0990  -4.0990  -4.0771  -4.0771  -4.0759  -4.0759
    -3.1458  -3.1458  -3.1355  -3.1355  -3.0721  -3.0721  -3.0642  -3.0642
     0.0228   0.0228   0.0390   0.0390   0.0853   0.0853   0.1048   0.1048
     0.4334   0.4334   0.4681   0.4681   0.5739   0.5739   0.6067   0.6067
     0.6591   0.6591   0.6786   0.6786   0.8091   0.8091   0.8491   0.8491
     1.1565   1.1565   1.1921   1.1921   1.3797   1.3797   1.4242   1.4242
     1.5143   1.5143   1.6132   1.6132   1.6941   1.6941   1.7182   1.7182
     1.7609   1.7609   1.8346   1.8346   1.8843   1.8843   1.9102   1.9102
     1.9703   1.9703   2.0096   2.0096   2.0818   2.0818   2.1435   2.1435
     2.1824   2.1824   2.2064   2.2064   2.3726   2.3726   2.4145   2.4145
     2.7229   2.7229   2.8187   2.8187   3.0113   3.0113   3.0829   3.0829

     occupation numbers 
     1.0000   1.0000   1.0000   1.0000   1.0000   1.0000   1.0000   1.0000
     1.0000   1.0000   1.0000   1.0000   1.0000   1.0000   1.0000   1.0000
     1.0000   1.0000   1.0000   1.0000   1.0000   1.0000   1.0000   1.0000
     1.0000   1.0000   1.0000   1.0000   1.0000   1.0000   1.0000   1.0000
     1.0000   1.0000   1.0000   1.0000   1.0000   1.0000   1.0000   1.0000
     1.0000   1.0000   1.0000   1.0000   1.0000   1.0000   1.0000   1.0000
     1.0000   1.0000   1.0000   1.0000   1.0000   1.0000   1.0000   1.0000
     1.0000   1.0000   1.0000   1.0000   1.0000   1.0000   1.0000   1.0000
     1.0000   1.0000   1.0000   1.0000   1.0000   1.0000   1.0000   1.0000
     1.0000   1.0000   1.0000   1.0000   1.0000   1.0000   1.0000   1.0000
     1.0000   1.0000   1.0000   1.0000   1.0000   1.0000   1.0000   1.0000
     1.0000   1.0000   1.0000   1.0000   1.0000   1.0000   1.0000   1.0000
     1.0000   1.0000   1.0000   1.0000   1.0000   1.0000   1.0000   1.0000
     1.0000   1.0000   1.0000   1.0000   1.0000   1.0000   1.0000   1.0000
     1.0000   1.0000   1.0000   1.0000   1.0000   1.0000   1.0000   1.0000
     1.0000   1.0000   1.0000   1.0000   1.0000   1.0000   1.0000   1.0000
     1.0000   1.0000   1.0000   1.0000   1.0000   1.0000   1.0000   1.0000
     1.0000   1.0000   1.0000   1.0000   1.0000   1.0000   1.0000   1.0000
     1.0000   1.0000   1.0000   1.0000   1.0000   1.0000   1.0000   1.0000
     1.0000   1.0000   1.0000   1.0000   1.0000   1.0000   1.0000   1.0000
     1.0000   1.0000   1.0000   1.0000   1.0000   1.0000   1.0000   1.0000
     1.0000   1.0000   1.0000   1.0000   1.0000   1.0000   1.0000   1.0000

          k = 0.3750 0.1683 0.0333 ( 38018 PWs)   bands (ev):

   -18.4055 -18.4055 -18.4054 -18.4054 -18.4054 -18.4054 -18.4054 -18.4054
   -18.3916 -18.3916 -18.3916 -18.3916 -18.3916 -18.3916 -18.3916 -18.3916
   -17.7408 -17.7408 -17.7407 -17.7407 -17.7406 -17.7406 -17.7405 -17.7405
   -17.3699 -17.3699 -17.3699 -17.3699 -17.3698 -17.3698 -17.3698 -17.3698
   -17.3605 -17.3605 -17.3605 -17.3605 -17.3604 -17.3604 -17.3604 -17.3604
   -17.3513 -17.3513 -17.3513 -17.3513 -17.3512 -17.3512 -17.3512 -17.3512
    -8.5444  -8.5444  -8.5401  -8.5401  -8.4578  -8.4578  -8.4538  -8.4538
    -8.3470  -8.3470  -8.3429  -8.3429  -8.2811  -8.2811  -8.2771  -8.2771
    -8.2562  -8.2562  -8.2527  -8.2527  -8.2496  -8.2496  -8.2429  -8.2429
    -5.7424  -5.7424  -5.7393  -5.7393  -5.7320  -5.7320  -5.7290  -5.7290
    -4.2063  -4.2063  -4.2011  -4.2011  -4.1870  -4.1870  -4.1814  -4.1814
    -4.0941  -4.0941  -4.0925  -4.0925  -4.0837  -4.0837  -4.0815  -4.0815
    -3.1318  -3.1318  -3.1208  -3.1208  -3.0845  -3.0845  -3.0767  -3.0767
     0.0338   0.0338   0.0636   0.0636   0.1452   0.1452   0.1611   0.1611
     0.3900   0.3900   0.4231   0.4231   0.5319   0.5319   0.5615   0.5615
     0.5921   0.5921   0.6617   0.6617   0.8419   0.8419   0.8872   0.8872
     1.1751   1.1751   1.1883   1.1883   1.3439   1.3439   1.4180   1.4180
     1.5342   1.5342   1.5661   1.5661   1.6933   1.6933   1.7351   1.7351
     1.7834   1.7834   1.7966   1.7966   1.8334   1.8334   1.8880   1.8880
     1.9708   1.9708   1.9977   1.9977   2.0582   2.0582   2.1502   2.1502
     2.2422   2.2422   2.2852   2.2852   2.3437   2.3437   2.3678   2.3678
     2.8048   2.8048   2.9761   2.9761   3.0097   3.0097   3.0583   3.0583

     occupation numbers 
     1.0000   1.0000   1.0000   1.0000   1.0000   1.0000   1.0000   1.0000
     1.0000   1.0000   1.0000   1.0000   1.0000   1.0000   1.0000   1.0000
     1.0000   1.0000   1.0000   1.0000   1.0000   1.0000   1.0000   1.0000
     1.0000   1.0000   1.0000   1.0000   1.0000   1.0000   1.0000   1.0000
     1.0000   1.0000   1.0000   1.0000   1.0000   1.0000   1.0000   1.0000
     1.0000   1.0000   1.0000   1.0000   1.0000   1.0000   1.0000   1.0000
     1.0000   1.0000   1.0000   1.0000   1.0000   1.0000   1.0000   1.0000
     1.0000   1.0000   1.0000   1.0000   1.0000   1.0000   1.0000   1.0000
     1.0000   1.0000   1.0000   1.0000   1.0000   1.0000   1.0000   1.0000
     1.0000   1.0000   1.0000   1.0000   1.0000   1.0000   1.0000   1.0000
     1.0000   1.0000   1.0000   1.0000   1.0000   1.0000   1.0000   1.0000
     1.0000   1.0000   1.0000   1.0000   1.0000   1.0000   1.0000   1.0000
     1.0000   1.0000   1.0000   1.0000   1.0000   1.0000   1.0000   1.0000
     1.0000   1.0000   1.0000   1.0000   1.0000   1.0000   1.0000   1.0000
     1.0000   1.0000   1.0000   1.0000   1.0000   1.0000   1.0000   1.0000
     1.0000   1.0000   1.0000   1.0000   1.0000   1.0000   1.0000   1.0000
     1.0000   1.0000   1.0000   1.0000   1.0000   1.0000   1.0000   1.0000
     1.0000   1.0000   1.0000   1.0000   1.0000   1.0000   1.0000   1.0000
     1.0000   1.0000   1.0000   1.0000   1.0000   1.0000   1.0000   1.0000
     1.0000   1.0000   1.0000   1.0000   1.0000   1.0000   1.0000   1.0000
     1.0000   1.0000   1.0000   1.0000   1.0000   1.0000   1.0000   1.0000
     1.0000   1.0000   1.0000   1.0000   1.0000   1.0000   1.0000   1.0000

          k = 0.3750 0.1683 0.0999 ( 38029 PWs)   bands (ev):

   -18.4055 -18.4055 -18.4054 -18.4054 -18.4054 -18.4054 -18.4054 -18.4054
   -18.3916 -18.3916 -18.3916 -18.3916 -18.3916 -18.3916 -18.3916 -18.3916
   -17.7408 -17.7408 -17.7408 -17.7408 -17.7406 -17.7406 -17.7405 -17.7405
   -17.3699 -17.3699 -17.3699 -17.3699 -17.3698 -17.3698 -17.3698 -17.3698
   -17.3605 -17.3605 -17.3605 -17.3605 -17.3604 -17.3604 -17.3604 -17.3604
   -17.3513 -17.3513 -17.3513 -17.3513 -17.3512 -17.3512 -17.3512 -17.3512
    -8.5432  -8.5432  -8.5414  -8.5414  -8.4566  -8.4566  -8.4549  -8.4549
    -8.3458  -8.3458  -8.3441  -8.3441  -8.2802  -8.2802  -8.2785  -8.2785
    -8.2554  -8.2554  -8.2539  -8.2539  -8.2473  -8.2473  -8.2446  -8.2446
    -5.7421  -5.7421  -5.7398  -5.7398  -5.7310  -5.7310  -5.7297  -5.7297
    -4.2054  -4.2054  -4.2021  -4.2021  -4.1855  -4.1855  -4.1830  -4.1830
    -4.0933  -4.0933  -4.0926  -4.0926  -4.0835  -4.0835  -4.0822  -4.0822
    -3.1287  -3.1287  -3.1242  -3.1242  -3.0821  -3.0821  -3.0789  -3.0789
     0.0421   0.0421   0.0555   0.0555   0.1436   0.1436   0.1590   0.1590
     0.3938   0.3938   0.4113   0.4113   0.5393   0.5393   0.5659   0.5659
     0.6185   0.6185   0.6587   0.6587   0.8410   0.8410   0.8650   0.8650
     1.1660   1.1660   1.1746   1.1746   1.3656   1.3656   1.4046   1.4046
     1.5348   1.5348   1.5796   1.5796   1.7111   1.7111   1.7393   1.7393
     1.7726   1.7726   1.7891   1.7891   1.8405   1.8405   1.8634   1.8634
     1.9698   1.9698   2.0026   2.0026   2.0841   2.0841   2.1243   2.1243
     2.2578   2.2578   2.2801   2.2801   2.3395   2.3395   2.3671   2.3671
     2.8538   2.8538   2.9247   2.9247   3.0226   3.0226   3.0528   3.0528

     occupation numbers 
     1.0000   1.0000   1.0000   1.0000   1.0000   1.0000   1.0000   1.0000
     1.0000   1.0000   1.0000   1.0000   1.0000   1.0000   1.0000   1.0000
     1.0000   1.0000   1.0000   1.0000   1.0000   1.0000   1.0000   1.0000
     1.0000   1.0000   1.0000   1.0000   1.0000   1.0000   1.0000   1.0000
     1.0000   1.0000   1.0000   1.0000   1.0000   1.0000   1.0000   1.0000
     1.0000   1.0000   1.0000   1.0000   1.0000   1.0000   1.0000   1.0000
     1.0000   1.0000   1.0000   1.0000   1.0000   1.0000   1.0000   1.0000
     1.0000   1.0000   1.0000   1.0000   1.0000   1.0000   1.0000   1.0000
     1.0000   1.0000   1.0000   1.0000   1.0000   1.0000   1.0000   1.0000
     1.0000   1.0000   1.0000   1.0000   1.0000   1.0000   1.0000   1.0000
     1.0000   1.0000   1.0000   1.0000   1.0000   1.0000   1.0000   1.0000
     1.0000   1.0000   1.0000   1.0000   1.0000   1.0000   1.0000   1.0000
     1.0000   1.0000   1.0000   1.0000   1.0000   1.0000   1.0000   1.0000
     1.0000   1.0000   1.0000   1.0000   1.0000   1.0000   1.0000   1.0000
     1.0000   1.0000   1.0000   1.0000   1.0000   1.0000   1.0000   1.0000
     1.0000   1.0000   1.0000   1.0000   1.0000   1.0000   1.0000   1.0000
     1.0000   1.0000   1.0000   1.0000   1.0000   1.0000   1.0000   1.0000
     1.0000   1.0000   1.0000   1.0000   1.0000   1.0000   1.0000   1.0000
     1.0000   1.0000   1.0000   1.0000   1.0000   1.0000   1.0000   1.0000
     1.0000   1.0000   1.0000   1.0000   1.0000   1.0000   1.0000   1.0000
     1.0000   1.0000   1.0000   1.0000   1.0000   1.0000   1.0000   1.0000
     1.0000   1.0000   1.0000   1.0000   1.0000   1.0000   1.0000   1.0000

     highest occupied level (ev):     3.1307

!    total energy              =   -1576.38845000 Ry
     estimated scf accuracy    <       0.00000008 Ry

     The total energy is the sum of the following terms:
     one-electron contribution =    -482.55866796 Ry
     hartree contribution      =     316.56542484 Ry
     xc contribution           =    -776.82560249 Ry
     ewald contribution        =    -633.56960439 Ry

     convergence has been achieved in  14 iterations

     Forces acting on atoms (cartesian axes, Ry/au):

     atom    1 type  3   force =     0.00000000   -0.00060674    0.00034167
     atom    2 type  3   force =     0.00000000    0.00060674   -0.00034167
     atom    3 type  3   force =     0.00000000   -0.00060674   -0.00034167
     atom    4 type  3   force =     0.00000000    0.00060674    0.00034167
     atom    5 type  1   force =     0.00000000   -0.00038343    0.00044703
     atom    6 type  1   force =     0.00000000    0.00038343   -0.00044703
     atom    7 type  1   force =     0.00000000   -0.00038343   -0.00044703
     atom    8 type  1   force =     0.00000000    0.00038343    0.00044703
     atom    9 type  2   force =     0.00000000    0.00013429    0.00010587
     atom   10 type  2   force =     0.00000000   -0.00013429   -0.00010587
     atom   11 type  2   force =     0.00000000    0.00013429   -0.00010587
     atom   12 type  2   force =     0.00000000   -0.00013429    0.00010587
     atom   13 type  2   force =     0.00000000    0.00004342   -0.00083194
     atom   14 type  2   force =     0.00000000   -0.00004342    0.00083194
     atom   15 type  2   force =     0.00000000    0.00004342    0.00083194
     atom   16 type  2   force =     0.00000000   -0.00004342   -0.00083194
     atom   17 type  2   force =     0.00000000   -0.00064856    0.00042735
     atom   18 type  2   force =     0.00000000    0.00064856   -0.00042735
     atom   19 type  2   force =     0.00000000   -0.00064856   -0.00042735
     atom   20 type  2   force =     0.00000000    0.00064856    0.00042735
     The non-local contrib.  to forces
     atom    1 type  3   force =     0.00000000    0.00253490   -0.00238950
     atom    2 type  3   force =     0.00000000   -0.00253490    0.00238950
     atom    3 type  3   force =     0.00000000    0.00253490    0.00238950
     atom    4 type  3   force =     0.00000000   -0.00253490   -0.00238950
     atom    5 type  1   force =     0.00000000   -0.08737533   -0.13262078
     atom    6 type  1   force =     0.00000000    0.08737533    0.13262078
     atom    7 type  1   force =     0.00000000   -0.08737533    0.13262078
     atom    8 type  1   force =     0.00000000    0.08737533   -0.13262078
     atom    9 type  2   force =     0.00000000   -0.03592947   -0.03261335
     atom   10 type  2   force =     0.00000000    0.03592947    0.03261335
     atom   11 type  2   force =     0.00000000   -0.03592947    0.03261335
     atom   12 type  2   force =     0.00000000    0.03592947   -0.03261335
     atom   13 type  2   force =     0.00000000   -0.02716868    0.04551821
     atom   14 type  2   force =     0.00000000    0.02716868   -0.04551821
     atom   15 type  2   force =     0.00000000   -0.02716868   -0.04551821
     atom   16 type  2   force =     0.00000000    0.02716868    0.04551821
     atom   17 type  2   force =     0.00000000    0.03564749   -0.01111356
     atom   18 type  2   force =     0.00000000   -0.03564749    0.01111356
     atom   19 type  2   force =     0.00000000    0.03564749    0.01111356
     atom   20 type  2   force =     0.00000000   -0.03564749   -0.01111356
     The ionic contribution  to forces
     atom    1 type  3   force =    -0.00000000    0.02273773    0.42856976
     atom    2 type  3   force =    -0.00000000   -0.02273773   -0.42856976
     atom    3 type  3   force =    -0.00000000    0.02273773   -0.42856976
     atom    4 type  3   force =    -0.00000000   -0.02273773    0.42856976
     atom    5 type  1   force =    -0.00000000   -2.44382135   -1.60292983
     atom    6 type  1   force =     0.00000000    2.44382135    1.60292983
     atom    7 type  1   force =    -0.00000000   -2.44382135    1.60292983
     atom    8 type  1   force =     0.00000000    2.44382135   -1.60292983
     atom    9 type  2   force =    -0.00000000    3.00608891    5.13288893
     atom   10 type  2   force =     0.00000000   -3.00608891   -5.13288893
     atom   11 type  2   force =    -0.00000000    3.00608891   -5.13288893
     atom   12 type  2   force =    -0.00000000   -3.00608891    5.13288893
     atom   13 type  2   force =     0.00000000    2.02422849   -3.75281499
     atom   14 type  2   force =    -0.00000000   -2.02422849    3.75281499
     atom   15 type  2   force =     0.00000000    2.02422849    3.75281499
     atom   16 type  2   force =    -0.00000000   -2.02422849   -3.75281499
     atom   17 type  2   force =     0.00000000   -4.20564473    2.10270404
     atom   18 type  2   force =     0.00000000    4.20564473   -2.10270404
     atom   19 type  2   force =    -0.00000000   -4.20564473   -2.10270404
     atom   20 type  2   force =     0.00000000    4.20564473    2.10270404
     The local contribution  to forces
     atom    1 type  3   force =    -0.00000000   -0.02573158   -0.42603350
     atom    2 type  3   force =     0.00000000    0.02573158    0.42603350
     atom    3 type  3   force =    -0.00000000   -0.02573158    0.42603350
     atom    4 type  3   force =     0.00000000    0.02573158   -0.42603350
     atom    5 type  1   force =    -0.00000000    2.53012517    1.73563402
     atom    6 type  1   force =    -0.00000000   -2.53012517   -1.73563402
     atom    7 type  1   force =    -0.00000000    2.53012517   -1.73563402
     atom    8 type  1   force =    -0.00000000   -2.53012517    1.73563402
     atom    9 type  2   force =     0.00000000   -2.97681046   -5.10706840
     atom   10 type  2   force =     0.00000000    2.97681046    5.10706840
     atom   11 type  2   force =     0.00000000   -2.97681046    5.10706840
     atom   12 type  2   force =     0.00000000    2.97681046   -5.10706840
     atom   13 type  2   force =    -0.00000000   -2.00146068    3.71422147
     atom   14 type  2   force =     0.00000000    2.00146068   -3.71422147
     atom   15 type  2   force =    -0.00000000   -2.00146068   -3.71422147
     atom   16 type  2   force =     0.00000000    2.00146068    3.71422147
     atom   17 type  2   force =    -0.00000000    4.17752046   -2.09381730
     atom   18 type  2   force =     0.00000000   -4.17752046    2.09381730
     atom   19 type  2   force =    -0.00000000    4.17752046    2.09381730
     atom   20 type  2   force =     0.00000000   -4.17752046   -2.09381730
     The core correction contribution to forces
     atom    1 type  3   force =     0.00000000   -0.00017980    0.00017967
     atom    2 type  3   force =    -0.00000000    0.00017980   -0.00017967
     atom    3 type  3   force =     0.00000000   -0.00017980   -0.00017967
     atom    4 type  3   force =     0.00000000    0.00017980    0.00017967
     atom    5 type  1   force =    -0.00000000    0.00023621    0.00016811
     atom    6 type  1   force =    -0.00000000   -0.00023621   -0.00016811
     atom    7 type  1   force =    -0.00000000    0.00023621   -0.00016811
     atom    8 type  1   force =    -0.00000000   -0.00023621    0.00016811
     atom    9 type  2   force =    -0.00000000    0.00684648    0.00710440
     atom   10 type  2   force =    -0.00000000   -0.00684648   -0.00710440
     atom   11 type  2   force =    -0.00000000    0.00684648   -0.00710440
     atom   12 type  2   force =     0.00000000   -0.00684648    0.00710440
     atom   13 type  2   force =    -0.00000000    0.00450866   -0.00781808
     atom   14 type  2   force =     0.00000000   -0.00450866    0.00781808
     atom   15 type  2   force =     0.00000000    0.00450866    0.00781808
     atom   16 type  2   force =    -0.00000000   -0.00450866   -0.00781808
     atom   17 type  2   force =     0.00000000   -0.00835185    0.00267643
     atom   18 type  2   force =    -0.00000000    0.00835185   -0.00267643
     atom   19 type  2   force =     0.00000000   -0.00835185   -0.00267643
     atom   20 type  2   force =    -0.00000000    0.00835185    0.00267643
     The Hubbard contrib.    to forces
     atom    1 type  3   force =     0.00000000    0.00000000    0.00000000
     atom    2 type  3   force =     0.00000000    0.00000000    0.00000000
     atom    3 type  3   force =     0.00000000    0.00000000    0.00000000
     atom    4 type  3   force =     0.00000000    0.00000000    0.00000000
     atom    5 type  1   force =     0.00000000    0.00000000    0.00000000
     atom    6 type  1   force =     0.00000000    0.00000000    0.00000000
     atom    7 type  1   force =     0.00000000    0.00000000    0.00000000
     atom    8 type  1   force =     0.00000000    0.00000000    0.00000000
     atom    9 type  2   force =     0.00000000    0.00000000    0.00000000
     atom   10 type  2   force =     0.00000000    0.00000000    0.00000000
     atom   11 type  2   force =     0.00000000    0.00000000    0.00000000
     atom   12 type  2   force =     0.00000000    0.00000000    0.00000000
     atom   13 type  2   force =     0.00000000    0.00000000    0.00000000
     atom   14 type  2   force =     0.00000000    0.00000000    0.00000000
     atom   15 type  2   force =     0.00000000    0.00000000    0.00000000
     atom   16 type  2   force =     0.00000000    0.00000000    0.00000000
     atom   17 type  2   force =     0.00000000    0.00000000    0.00000000
     atom   18 type  2   force =     0.00000000    0.00000000    0.00000000
     atom   19 type  2   force =     0.00000000    0.00000000    0.00000000
     atom   20 type  2   force =     0.00000000    0.00000000    0.00000000
     The SCF correction term to forces
     atom    1 type  3   force =     0.00000000    0.00003201    0.00001523
     atom    2 type  3   force =     0.00000000   -0.00003201   -0.00001523
     atom    3 type  3   force =     0.00000000    0.00003201   -0.00001523
     atom    4 type  3   force =     0.00000000   -0.00003201    0.00001523
     atom    5 type  1   force =     0.00000000    0.00045188    0.00019551
     atom    6 type  1   force =     0.00000000   -0.00045188   -0.00019551
     atom    7 type  1   force =     0.00000000    0.00045188   -0.00019551
     atom    8 type  1   force =     0.00000000   -0.00045188    0.00019551
     atom    9 type  2   force =     0.00000000   -0.00006117   -0.00020572
     atom   10 type  2   force =     0.00000000    0.00006117    0.00020572
     atom   11 type  2   force =    -0.00000000   -0.00006117    0.00020572
     atom   12 type  2   force =     0.00000000    0.00006117   -0.00020572
     atom   13 type  2   force =     0.00000000   -0.00006437    0.00006146
     atom   14 type  2   force =    -0.00000000    0.00006437   -0.00006146
     atom   15 type  2   force =     0.00000000   -0.00006437   -0.00006146
     atom   16 type  2   force =     0.00000000    0.00006437    0.00006146
     atom   17 type  2   force =     0.00000000    0.00018007   -0.00002227
     atom   18 type  2   force =     0.00000000   -0.00018007    0.00002227
     atom   19 type  2   force =    -0.00000000    0.00018007    0.00002227
     atom   20 type  2   force =     0.00000000   -0.00018007   -0.00002227

     Total force =     0.002938     Total SCF correction =     0.001150
     SCF correction compared to forces is large: reduce conv_thr to get better values


     Computing stress (Cartesian axis) and pressure

          total   stress  (Ry/bohr**3)                   (kbar)     P=       -0.05
  -0.00000113   0.00000000   0.00000000           -0.17        0.00        0.00
   0.00000000   0.00000006   0.00000000            0.00        0.01        0.00
   0.00000000   0.00000000   0.00000005            0.00        0.00        0.01

     kinetic stress (kbar)   5475.51      0.00      0.00
                                0.00   5486.85      0.00
                                0.00      0.00   5481.17

     local   stress (kbar)  -2543.60     -0.00     -0.00
                               -0.00     91.91      0.00
                               -0.00      0.00    985.43

     nonloc. stress (kbar)   -737.84      0.00      0.00
                                0.00   -741.75      0.00
                                0.00      0.00   -739.01

     hartree stress (kbar)   3403.14     -0.00      0.00
                               -0.00   2188.48      0.00
                                0.00      0.00   1718.34

     exc-cor stress (kbar)  12440.07      0.00      0.00
                                0.00  12439.75      0.00
                                0.00      0.00  12440.17

     corecor stress (kbar) -14252.65     -0.00     -0.00
                               -0.00 -14253.08     -0.00
                               -0.00     -0.00 -14253.00

     ewald   stress (kbar)  -3784.80     -0.00     -0.00
                               -0.00  -5212.16      0.00
                               -0.00      0.00  -5633.09

     hubbard stress (kbar)      0.00      0.00      0.00
                                0.00      0.00      0.00
                                0.00      0.00      0.00

     DFT-D   stress (kbar)      0.00      0.00      0.00
                                0.00      0.00      0.00
                                0.00      0.00      0.00

     XDM     stress (kbar)      0.00      0.00      0.00
                                0.00      0.00      0.00
                                0.00      0.00      0.00

     dft-nl  stress (kbar)      0.00      0.00      0.00
                                0.00      0.00      0.00
                                0.00      0.00      0.00

     TS-vdW  stress (kbar)      0.00      0.00      0.00
                                0.00      0.00      0.00
                                0.00      0.00      0.00



     Writing output data file ./out/CsSnI3.save/
 
     init_run     :     92.59s CPU     95.08s WALL (       1 calls)
     electrons    :   3254.51s CPU   3430.12s WALL (       1 calls)
     forces       :    285.82s CPU    293.61s WALL (       1 calls)
     stress       :    459.95s CPU    467.36s WALL (       1 calls)

     Called by init_run:
     wfcinit      :     74.68s CPU     76.14s WALL (       1 calls)
     wfcinit:atom :      0.21s CPU      0.25s WALL (       8 calls)
     wfcinit:wfcr :     73.49s CPU     74.77s WALL (       8 calls)
     potinit      :      0.75s CPU      0.77s WALL (       1 calls)
     hinit0       :      4.55s CPU      5.05s WALL (       1 calls)

     Called by electrons:
     c_bands      :   2679.13s CPU   2809.96s WALL (      15 calls)
     sum_band     :    406.98s CPU    444.64s WALL (      15 calls)
     v_of_rho     :      2.81s CPU      2.90s WALL (      15 calls)
     v_h          :      0.55s CPU      0.56s WALL (      15 calls)
     v_xc         :      2.44s CPU      2.54s WALL (      17 calls)
     newd         :    164.51s CPU    171.46s WALL (      15 calls)
     mix_rho      :      9.65s CPU      9.88s WALL (      15 calls)

     Called by c_bands:
     init_us_2    :      5.79s CPU      5.98s WALL (     264 calls)
     cegterg      :   2523.55s CPU   2648.27s WALL (     120 calls)

     Called by sum_band:
     sum_band:wei :      0.00s CPU      0.00s WALL (      15 calls)
     sum_band:loo :    354.38s CPU    378.86s WALL (      15 calls)
     sum_band:buf :      1.70s CPU      1.91s WALL (     120 calls)
     sum_band:ini :      2.47s CPU      2.56s WALL (     120 calls)
     sum_band:cal :     57.94s CPU     60.62s WALL (     120 calls)
     sum_band:bec :     50.82s CPU     52.76s WALL (     120 calls)
     addusdens    :     46.01s CPU     58.96s WALL (      15 calls)
     addusd:skk   :      0.07s CPU      0.09s WALL (      45 calls)
     addusd:dgemm :     13.63s CPU     25.98s WALL (      45 calls)
     addusd:qvan2 :     31.77s CPU     32.24s WALL (      45 calls)

     Called by *egterg:
     cdiaghg      :    203.34s CPU    206.06s WALL (     619 calls)
     cegterg:over :    163.18s CPU    166.61s WALL (     507 calls)
     cegterg:upda :     60.82s CPU     62.04s WALL (     507 calls)
     cegterg:last :    141.85s CPU    144.42s WALL (     306 calls)
     h_psi        :   1700.23s CPU   1806.23s WALL (     635 calls)
     s_psi        :    237.03s CPU    240.87s WALL (     635 calls)
     g_psi        :      2.17s CPU      2.23s WALL (     507 calls)

     Called by h_psi:
     h_psi:calbec :    188.13s CPU    198.61s WALL (     635 calls)
     vloc_psi     :   1295.95s CPU   1383.89s WALL (     635 calls)
     add_vuspsi   :    210.90s CPU    215.72s WALL (     635 calls)

     General routines
     calbec       :    271.42s CPU    285.15s WALL (     795 calls)
     fft          :      2.89s CPU      3.13s WALL (     236 calls)
     ffts         :      0.63s CPU      0.64s WALL (      60 calls)
     fftw         :   1436.22s CPU   1538.60s WALL (  300280 calls)
 
     Parallel routines
     fft_scatt_xy :     62.11s CPU     65.24s WALL (  300576 calls)
     fft_scatt_yz :   1051.16s CPU   1131.98s WALL (  300576 calls)
 
     PWSCF        :      1h 9m CPU      1h13m WALL

 
   This run was terminated on:   0:48:28  26Jan2021            

=------------------------------------------------------------------------------=
   JOB DONE.
=------------------------------------------------------------------------------=
