
     Program PWSCF v.6.6 starts on 15Jan2021 at 16: 3:11 

     This program is part of the open-source Quantum ESPRESSO suite
     for quantum simulation of materials; please cite
         "P. Giannozzi et al., J. Phys.:Condens. Matter 21 395502 (2009);
         "P. Giannozzi et al., J. Phys.:Condens. Matter 29 465901 (2017);
          URL http://www.quantum-espresso.org", 
     in publications or presentations arising from this work. More details at
     http://www.quantum-espresso.org/quote

     Parallel version (MPI), running on    64 processors

     MPI processes distributed on     2 nodes
     R & G space division:  proc/nbgrp/npool/nimage =      64
     Fft bands division:     nmany     =       1
     Waiting for input...
     Reading input from standard input

     Current dimensions of program PWSCF are:
     Max number of different atomic species (ntypx) = 10
     Max number of k-points (npk) =  40000
     Max angular momentum in pseudopotentials (lmaxx) =  3
     file Cs.pbe-spn-kjpaw_psl.1.0.0.UPF: wavefunction(s)  5S 6S renormalized
     file I.pbe-n-kjpaw_psl.1.0.0.UPF: wavefunction(s)  5S renormalized

     Subspace diagonalization in iterative solution of the eigenvalue problem:
     a serial algorithm will be used

 
     Parallelization info
     --------------------
     sticks:   dense  smooth     PW     G-vecs:    dense   smooth      PW
     Min          29      19      5                  941      507      77
     Max          30      20      6                  946      512      84
     Sum        1861    1229    357                60245    32675    5137
 

     Title: 
     CsIsalt                                                                    


     bravais-lattice index     =            1
     lattice parameter (alat)  =       8.8160  a.u.
     unit-cell volume          =     685.1896 (a.u.)^3
     number of atoms/cell      =            2
     number of atomic types    =            2
     number of electrons       =        16.00
     number of Kohn-Sham states=            8
     kinetic-energy cutoff     =      50.0000  Ry
     charge density cutoff     =     300.0000  Ry
     convergence threshold     =      1.0E-06
     mixing beta               =       0.5000
     number of iterations used =            8  plain     mixing
     Exchange-correlation= SLA PW PBX PBC
                           (   1   4   3   4   0   0   0)

     celldm(1)=   8.815973  celldm(2)=   0.000000  celldm(3)=   0.000000
     celldm(4)=   0.000000  celldm(5)=   0.000000  celldm(6)=   0.000000

     crystal axes: (cart. coord. in units of alat)
               a(1) = (   1.000000   0.000000   0.000000 )  
               a(2) = (   0.000000   1.000000   0.000000 )  
               a(3) = (   0.000000   0.000000   1.000000 )  

     reciprocal axes: (cart. coord. in units 2 pi/alat)
               b(1) = (  1.000000  0.000000  0.000000 )  
               b(2) = (  0.000000  1.000000  0.000000 )  
               b(3) = (  0.000000  0.000000  1.000000 )  


     PseudoPot. # 1 for Cs read from file:
     /scratch/gtenti/degironcoli/pseudo/Cs.pbe-spn-kjpaw_psl.1.0.0.UPF
     MD5 check sum: b82c75cc2e1f4ff73b6412cffeb9c584
     Pseudo is Projector augmented-wave + core cor, Zval =  9.0
     Generated using "atomic" code by A. Dal Corso v.6.4.1
     Shape of augmentation charge: PSQ
     Using radial grid of 1251 points,  9 beta functions with: 
                l(1) =   0
                l(2) =   0
                l(3) =   0
                l(4) =   1
                l(5) =   1
                l(6) =   2
                l(7) =   2
                l(8) =   3
                l(9) =   3
     Q(r) pseudized with 0 coefficients 


     PseudoPot. # 2 for I  read from file:
     /scratch/gtenti/degironcoli/pseudo/I.pbe-n-kjpaw_psl.1.0.0.UPF
     MD5 check sum: cd3d296c3308a581e1559a0c8a554cb5
     Pseudo is Projector augmented-wave + core cor, Zval =  7.0
     Generated using "atomic" code by A. Dal Corso v.6.3
     Shape of augmentation charge: PSQ
     Using radial grid of 1247 points,  6 beta functions with: 
                l(1) =   0
                l(2) =   0
                l(3) =   1
                l(4) =   1
                l(5) =   2
                l(6) =   2
     Q(r) pseudized with 0 coefficients 


     atomic species   valence    mass     pseudopotential
        Cs             9.00   132.90000     Cs( 1.00)
        I              7.00   126.90000     I ( 1.00)

     48 Sym. Ops., with inversion, found


                                    s                        frac. trans.

      isym =  1     identity                                     

 cryst.   s( 1) = (     1          0          0      )
                  (     0          1          0      )
                  (     0          0          1      )

 cart.    s( 1) = (  1.0000000  0.0000000  0.0000000 )
                  (  0.0000000  1.0000000  0.0000000 )
                  (  0.0000000  0.0000000  1.0000000 )


      isym =  2     180 deg rotation - cart. axis [0,0,1]        

 cryst.   s( 2) = (    -1          0          0      )
                  (     0         -1          0      )
                  (     0          0          1      )

 cart.    s( 2) = ( -1.0000000  0.0000000  0.0000000 )
                  (  0.0000000 -1.0000000  0.0000000 )
                  (  0.0000000  0.0000000  1.0000000 )


      isym =  3     180 deg rotation - cart. axis [0,1,0]        

 cryst.   s( 3) = (    -1          0          0      )
                  (     0          1          0      )
                  (     0          0         -1      )

 cart.    s( 3) = ( -1.0000000  0.0000000  0.0000000 )
                  (  0.0000000  1.0000000  0.0000000 )
                  (  0.0000000  0.0000000 -1.0000000 )


      isym =  4     180 deg rotation - cart. axis [1,0,0]        

 cryst.   s( 4) = (     1          0          0      )
                  (     0         -1          0      )
                  (     0          0         -1      )

 cart.    s( 4) = (  1.0000000  0.0000000  0.0000000 )
                  (  0.0000000 -1.0000000  0.0000000 )
                  (  0.0000000  0.0000000 -1.0000000 )


      isym =  5     180 deg rotation - cart. axis [1,1,0]        

 cryst.   s( 5) = (     0          1          0      )
                  (     1          0          0      )
                  (     0          0         -1      )

 cart.    s( 5) = (  0.0000000  1.0000000  0.0000000 )
                  (  1.0000000  0.0000000  0.0000000 )
                  (  0.0000000  0.0000000 -1.0000000 )


      isym =  6     180 deg rotation - cart. axis [1,-1,0]       

 cryst.   s( 6) = (     0         -1          0      )
                  (    -1          0          0      )
                  (     0          0         -1      )

 cart.    s( 6) = (  0.0000000 -1.0000000  0.0000000 )
                  ( -1.0000000  0.0000000  0.0000000 )
                  (  0.0000000  0.0000000 -1.0000000 )


      isym =  7      90 deg rotation - cart. axis [0,0,-1]       

 cryst.   s( 7) = (     0         -1          0      )
                  (     1          0          0      )
                  (     0          0          1      )

 cart.    s( 7) = (  0.0000000  1.0000000  0.0000000 )
                  ( -1.0000000  0.0000000  0.0000000 )
                  (  0.0000000  0.0000000  1.0000000 )


      isym =  8      90 deg rotation - cart. axis [0,0,1]        

 cryst.   s( 8) = (     0          1          0      )
                  (    -1          0          0      )
                  (     0          0          1      )

 cart.    s( 8) = (  0.0000000 -1.0000000  0.0000000 )
                  (  1.0000000  0.0000000  0.0000000 )
                  (  0.0000000  0.0000000  1.0000000 )


      isym =  9     180 deg rotation - cart. axis [1,0,1]        

 cryst.   s( 9) = (     0          0          1      )
                  (     0         -1          0      )
                  (     1          0          0      )

 cart.    s( 9) = (  0.0000000  0.0000000  1.0000000 )
                  (  0.0000000 -1.0000000  0.0000000 )
                  (  1.0000000  0.0000000  0.0000000 )


      isym = 10     180 deg rotation - cart. axis [-1,0,1]       

 cryst.   s(10) = (     0          0         -1      )
                  (     0         -1          0      )
                  (    -1          0          0      )

 cart.    s(10) = (  0.0000000  0.0000000 -1.0000000 )
                  (  0.0000000 -1.0000000  0.0000000 )
                  ( -1.0000000  0.0000000  0.0000000 )


      isym = 11      90 deg rotation - cart. axis [0,1,0]        

 cryst.   s(11) = (     0          0         -1      )
                  (     0          1          0      )
                  (     1          0          0      )

 cart.    s(11) = (  0.0000000  0.0000000  1.0000000 )
                  (  0.0000000  1.0000000  0.0000000 )
                  ( -1.0000000  0.0000000  0.0000000 )


      isym = 12      90 deg rotation - cart. axis [0,-1,0]       

 cryst.   s(12) = (     0          0          1      )
                  (     0          1          0      )
                  (    -1          0          0      )

 cart.    s(12) = (  0.0000000  0.0000000 -1.0000000 )
                  (  0.0000000  1.0000000  0.0000000 )
                  (  1.0000000  0.0000000  0.0000000 )


      isym = 13     180 deg rotation - cart. axis [0,1,1]        

 cryst.   s(13) = (    -1          0          0      )
                  (     0          0          1      )
                  (     0          1          0      )

 cart.    s(13) = ( -1.0000000  0.0000000  0.0000000 )
                  (  0.0000000  0.0000000  1.0000000 )
                  (  0.0000000  1.0000000  0.0000000 )


      isym = 14     180 deg rotation - cart. axis [0,1,-1]       

 cryst.   s(14) = (    -1          0          0      )
                  (     0          0         -1      )
                  (     0         -1          0      )

 cart.    s(14) = ( -1.0000000  0.0000000  0.0000000 )
                  (  0.0000000  0.0000000 -1.0000000 )
                  (  0.0000000 -1.0000000  0.0000000 )


      isym = 15      90 deg rotation - cart. axis [-1,0,0]       

 cryst.   s(15) = (     1          0          0      )
                  (     0          0         -1      )
                  (     0          1          0      )

 cart.    s(15) = (  1.0000000  0.0000000  0.0000000 )
                  (  0.0000000  0.0000000  1.0000000 )
                  (  0.0000000 -1.0000000  0.0000000 )


      isym = 16      90 deg rotation - cart. axis [1,0,0]        

 cryst.   s(16) = (     1          0          0      )
                  (     0          0          1      )
                  (     0         -1          0      )

 cart.    s(16) = (  1.0000000  0.0000000  0.0000000 )
                  (  0.0000000  0.0000000 -1.0000000 )
                  (  0.0000000  1.0000000  0.0000000 )


      isym = 17     120 deg rotation - cart. axis [-1,-1,-1]     

 cryst.   s(17) = (     0          0          1      )
                  (     1          0          0      )
                  (     0          1          0      )

 cart.    s(17) = (  0.0000000  1.0000000  0.0000000 )
                  (  0.0000000  0.0000000  1.0000000 )
                  (  1.0000000  0.0000000  0.0000000 )


      isym = 18     120 deg rotation - cart. axis [-1,1,1]       

 cryst.   s(18) = (     0          0         -1      )
                  (    -1          0          0      )
                  (     0          1          0      )

 cart.    s(18) = (  0.0000000 -1.0000000  0.0000000 )
                  (  0.0000000  0.0000000  1.0000000 )
                  ( -1.0000000  0.0000000  0.0000000 )


      isym = 19     120 deg rotation - cart. axis [1,1,-1]       

 cryst.   s(19) = (     0          0         -1      )
                  (     1          0          0      )
                  (     0         -1          0      )

 cart.    s(19) = (  0.0000000  1.0000000  0.0000000 )
                  (  0.0000000  0.0000000 -1.0000000 )
                  ( -1.0000000  0.0000000  0.0000000 )


      isym = 20     120 deg rotation - cart. axis [1,-1,1]       

 cryst.   s(20) = (     0          0          1      )
                  (    -1          0          0      )
                  (     0         -1          0      )

 cart.    s(20) = (  0.0000000 -1.0000000  0.0000000 )
                  (  0.0000000  0.0000000 -1.0000000 )
                  (  1.0000000  0.0000000  0.0000000 )


      isym = 21     120 deg rotation - cart. axis [1,1,1]        

 cryst.   s(21) = (     0          1          0      )
                  (     0          0          1      )
                  (     1          0          0      )

 cart.    s(21) = (  0.0000000  0.0000000  1.0000000 )
                  (  1.0000000  0.0000000  0.0000000 )
                  (  0.0000000  1.0000000  0.0000000 )


      isym = 22     120 deg rotation - cart. axis [-1,1,-1]      

 cryst.   s(22) = (     0         -1          0      )
                  (     0          0         -1      )
                  (     1          0          0      )

 cart.    s(22) = (  0.0000000  0.0000000  1.0000000 )
                  ( -1.0000000  0.0000000  0.0000000 )
                  (  0.0000000 -1.0000000  0.0000000 )


      isym = 23     120 deg rotation - cart. axis [1,-1,-1]      

 cryst.   s(23) = (     0         -1          0      )
                  (     0          0          1      )
                  (    -1          0          0      )

 cart.    s(23) = (  0.0000000  0.0000000 -1.0000000 )
                  ( -1.0000000  0.0000000  0.0000000 )
                  (  0.0000000  1.0000000  0.0000000 )


      isym = 24     120 deg rotation - cart. axis [-1,-1,1]      

 cryst.   s(24) = (     0          1          0      )
                  (     0          0         -1      )
                  (    -1          0          0      )

 cart.    s(24) = (  0.0000000  0.0000000 -1.0000000 )
                  (  1.0000000  0.0000000  0.0000000 )
                  (  0.0000000 -1.0000000  0.0000000 )


      isym = 25     inversion                                    

 cryst.   s(25) = (    -1          0          0      )
                  (     0         -1          0      )
                  (     0          0         -1      )

 cart.    s(25) = ( -1.0000000  0.0000000  0.0000000 )
                  (  0.0000000 -1.0000000  0.0000000 )
                  (  0.0000000  0.0000000 -1.0000000 )


      isym = 26     inv. 180 deg rotation - cart. axis [0,0,1]   

 cryst.   s(26) = (     1          0          0      )
                  (     0          1          0      )
                  (     0          0         -1      )

 cart.    s(26) = (  1.0000000  0.0000000  0.0000000 )
                  (  0.0000000  1.0000000  0.0000000 )
                  (  0.0000000  0.0000000 -1.0000000 )


      isym = 27     inv. 180 deg rotation - cart. axis [0,1,0]   

 cryst.   s(27) = (     1          0          0      )
                  (     0         -1          0      )
                  (     0          0          1      )

 cart.    s(27) = (  1.0000000  0.0000000  0.0000000 )
                  (  0.0000000 -1.0000000  0.0000000 )
                  (  0.0000000  0.0000000  1.0000000 )


      isym = 28     inv. 180 deg rotation - cart. axis [1,0,0]   

 cryst.   s(28) = (    -1          0          0      )
                  (     0          1          0      )
                  (     0          0          1      )

 cart.    s(28) = ( -1.0000000  0.0000000  0.0000000 )
                  (  0.0000000  1.0000000  0.0000000 )
                  (  0.0000000  0.0000000  1.0000000 )


      isym = 29     inv. 180 deg rotation - cart. axis [1,1,0]   

 cryst.   s(29) = (     0         -1          0      )
                  (    -1          0          0      )
                  (     0          0          1      )

 cart.    s(29) = (  0.0000000 -1.0000000  0.0000000 )
                  ( -1.0000000  0.0000000  0.0000000 )
                  (  0.0000000  0.0000000  1.0000000 )


      isym = 30     inv. 180 deg rotation - cart. axis [1,-1,0]  

 cryst.   s(30) = (     0          1          0      )
                  (     1          0          0      )
                  (     0          0          1      )

 cart.    s(30) = (  0.0000000  1.0000000  0.0000000 )
                  (  1.0000000  0.0000000  0.0000000 )
                  (  0.0000000  0.0000000  1.0000000 )


      isym = 31     inv.  90 deg rotation - cart. axis [0,0,-1]  

 cryst.   s(31) = (     0          1          0      )
                  (    -1          0          0      )
                  (     0          0         -1      )

 cart.    s(31) = (  0.0000000 -1.0000000  0.0000000 )
                  (  1.0000000  0.0000000  0.0000000 )
                  (  0.0000000  0.0000000 -1.0000000 )


      isym = 32     inv.  90 deg rotation - cart. axis [0,0,1]   

 cryst.   s(32) = (     0         -1          0      )
                  (     1          0          0      )
                  (     0          0         -1      )

 cart.    s(32) = (  0.0000000  1.0000000  0.0000000 )
                  ( -1.0000000  0.0000000  0.0000000 )
                  (  0.0000000  0.0000000 -1.0000000 )


      isym = 33     inv. 180 deg rotation - cart. axis [1,0,1]   

 cryst.   s(33) = (     0          0         -1      )
                  (     0          1          0      )
                  (    -1          0          0      )

 cart.    s(33) = (  0.0000000  0.0000000 -1.0000000 )
                  (  0.0000000  1.0000000  0.0000000 )
                  ( -1.0000000  0.0000000  0.0000000 )


      isym = 34     inv. 180 deg rotation - cart. axis [-1,0,1]  

 cryst.   s(34) = (     0          0          1      )
                  (     0          1          0      )
                  (     1          0          0      )

 cart.    s(34) = (  0.0000000  0.0000000  1.0000000 )
                  (  0.0000000  1.0000000  0.0000000 )
                  (  1.0000000  0.0000000  0.0000000 )


      isym = 35     inv.  90 deg rotation - cart. axis [0,1,0]   

 cryst.   s(35) = (     0          0          1      )
                  (     0         -1          0      )
                  (    -1          0          0      )

 cart.    s(35) = (  0.0000000  0.0000000 -1.0000000 )
                  (  0.0000000 -1.0000000  0.0000000 )
                  (  1.0000000  0.0000000  0.0000000 )


      isym = 36     inv.  90 deg rotation - cart. axis [0,-1,0]  

 cryst.   s(36) = (     0          0         -1      )
                  (     0         -1          0      )
                  (     1          0          0      )

 cart.    s(36) = (  0.0000000  0.0000000  1.0000000 )
                  (  0.0000000 -1.0000000  0.0000000 )
                  ( -1.0000000  0.0000000  0.0000000 )


      isym = 37     inv. 180 deg rotation - cart. axis [0,1,1]   

 cryst.   s(37) = (     1          0          0      )
                  (     0          0         -1      )
                  (     0         -1          0      )

 cart.    s(37) = (  1.0000000  0.0000000  0.0000000 )
                  (  0.0000000  0.0000000 -1.0000000 )
                  (  0.0000000 -1.0000000  0.0000000 )


      isym = 38     inv. 180 deg rotation - cart. axis [0,1,-1]  

 cryst.   s(38) = (     1          0          0      )
                  (     0          0          1      )
                  (     0          1          0      )

 cart.    s(38) = (  1.0000000  0.0000000  0.0000000 )
                  (  0.0000000  0.0000000  1.0000000 )
                  (  0.0000000  1.0000000  0.0000000 )


      isym = 39     inv.  90 deg rotation - cart. axis [-1,0,0]  

 cryst.   s(39) = (    -1          0          0      )
                  (     0          0          1      )
                  (     0         -1          0      )

 cart.    s(39) = ( -1.0000000  0.0000000  0.0000000 )
                  (  0.0000000  0.0000000 -1.0000000 )
                  (  0.0000000  1.0000000  0.0000000 )


      isym = 40     inv.  90 deg rotation - cart. axis [1,0,0]   

 cryst.   s(40) = (    -1          0          0      )
                  (     0          0         -1      )
                  (     0          1          0      )

 cart.    s(40) = ( -1.0000000  0.0000000  0.0000000 )
                  (  0.0000000  0.0000000  1.0000000 )
                  (  0.0000000 -1.0000000  0.0000000 )


      isym = 41     inv. 120 deg rotation - cart. axis [-1,-1,-1]

 cryst.   s(41) = (     0          0         -1      )
                  (    -1          0          0      )
                  (     0         -1          0      )

 cart.    s(41) = (  0.0000000 -1.0000000  0.0000000 )
                  (  0.0000000  0.0000000 -1.0000000 )
                  ( -1.0000000  0.0000000  0.0000000 )


      isym = 42     inv. 120 deg rotation - cart. axis [-1,1,1]  

 cryst.   s(42) = (     0          0          1      )
                  (     1          0          0      )
                  (     0         -1          0      )

 cart.    s(42) = (  0.0000000  1.0000000  0.0000000 )
                  (  0.0000000  0.0000000 -1.0000000 )
                  (  1.0000000  0.0000000  0.0000000 )


      isym = 43     inv. 120 deg rotation - cart. axis [1,1,-1]  

 cryst.   s(43) = (     0          0          1      )
                  (    -1          0          0      )
                  (     0          1          0      )

 cart.    s(43) = (  0.0000000 -1.0000000  0.0000000 )
                  (  0.0000000  0.0000000  1.0000000 )
                  (  1.0000000  0.0000000  0.0000000 )


      isym = 44     inv. 120 deg rotation - cart. axis [1,-1,1]  

 cryst.   s(44) = (     0          0         -1      )
                  (     1          0          0      )
                  (     0          1          0      )

 cart.    s(44) = (  0.0000000  1.0000000  0.0000000 )
                  (  0.0000000  0.0000000  1.0000000 )
                  ( -1.0000000  0.0000000  0.0000000 )


      isym = 45     inv. 120 deg rotation - cart. axis [1,1,1]   

 cryst.   s(45) = (     0         -1          0      )
                  (     0          0         -1      )
                  (    -1          0          0      )

 cart.    s(45) = (  0.0000000  0.0000000 -1.0000000 )
                  ( -1.0000000  0.0000000  0.0000000 )
                  (  0.0000000 -1.0000000  0.0000000 )


      isym = 46     inv. 120 deg rotation - cart. axis [-1,1,-1] 

 cryst.   s(46) = (     0          1          0      )
                  (     0          0          1      )
                  (    -1          0          0      )

 cart.    s(46) = (  0.0000000  0.0000000 -1.0000000 )
                  (  1.0000000  0.0000000  0.0000000 )
                  (  0.0000000  1.0000000  0.0000000 )


      isym = 47     inv. 120 deg rotation - cart. axis [1,-1,-1] 

 cryst.   s(47) = (     0          1          0      )
                  (     0          0         -1      )
                  (     1          0          0      )

 cart.    s(47) = (  0.0000000  0.0000000  1.0000000 )
                  (  1.0000000  0.0000000  0.0000000 )
                  (  0.0000000 -1.0000000  0.0000000 )


      isym = 48     inv. 120 deg rotation - cart. axis [-1,-1,1] 

 cryst.   s(48) = (     0         -1          0      )
                  (     0          0          1      )
                  (     1          0          0      )

 cart.    s(48) = (  0.0000000  0.0000000  1.0000000 )
                  ( -1.0000000  0.0000000  0.0000000 )
                  (  0.0000000  1.0000000  0.0000000 )


     point group O_h (m-3m) 
     there are 10 classes
     the character table:

       E     8C3   3C2   6C4   6C2'  i     8S6   3s_h  6S4   6s_d 
A_1g   1.00  1.00  1.00  1.00  1.00  1.00  1.00  1.00  1.00  1.00
A_2g   1.00  1.00  1.00 -1.00 -1.00  1.00  1.00  1.00 -1.00 -1.00
E_g    2.00 -1.00  2.00  0.00  0.00  2.00 -1.00  2.00  0.00  0.00
T_1g   3.00  0.00 -1.00  1.00 -1.00  3.00  0.00 -1.00  1.00 -1.00
T_2g   3.00  0.00 -1.00 -1.00  1.00  3.00  0.00 -1.00 -1.00  1.00
A_1u   1.00  1.00  1.00  1.00  1.00 -1.00 -1.00 -1.00 -1.00 -1.00
A_2u   1.00  1.00  1.00 -1.00 -1.00 -1.00 -1.00 -1.00  1.00  1.00
E_u    2.00 -1.00  2.00  0.00  0.00 -2.00  1.00 -2.00  0.00  0.00
T_1u   3.00  0.00 -1.00  1.00 -1.00 -3.00  0.00  1.00 -1.00  1.00
T_2u   3.00  0.00 -1.00 -1.00  1.00 -3.00  0.00  1.00  1.00 -1.00

     the symmetry operations in each class and the name of the first element:

     E        1
          identity                                               
     8C3     17   19   20   18   24   21   22   23
          120 deg rotation - cart. axis [-1,-1,-1]               
     3C2      2    4    3
          180 deg rotation - cart. axis [0,0,1]                  
     6C4      7    8   15   16   12   11
           90 deg rotation - cart. axis [0,0,-1]                 
     6C2'     5    6   14   13   10    9
          180 deg rotation - cart. axis [1,1,0]                  
     i       25
          inversion                                              
     8S6     41   43   44   42   48   45   46   47
          inv. 120 deg rotation - cart. axis [-1,-1,-1]          
     3s_h    26   28   27
          inv. 180 deg rotation - cart. axis [0,0,1]             
     6S4     31   32   39   40   36   35
          inv.  90 deg rotation - cart. axis [0,0,-1]            
     6s_d    29   30   38   37   34   33
          inv. 180 deg rotation - cart. axis [1,1,0]             

   Cartesian axes

     site n.     atom                  positions (alat units)
         1           Cs  tau(   1) = (   0.0000000   0.0000000   0.0000000  )
         2           I   tau(   2) = (   0.5000000   0.5000000   0.5000000  )

   Crystallographic axes

     site n.     atom                  positions (cryst. coord.)
         1           Cs  tau(   1) = (  0.0000000  0.0000000  0.0000000  )
         2           I   tau(   2) = (  0.5000000  0.5000000  0.5000000  )

     number of k points=    20
                       cart. coord. in units 2pi/alat
        k(    1) = (   0.0625000   0.0625000   0.0625000), wk =   0.0312500
        k(    2) = (   0.0625000   0.0625000   0.1875000), wk =   0.0937500
        k(    3) = (   0.0625000   0.0625000   0.3125000), wk =   0.0937500
        k(    4) = (   0.0625000   0.0625000   0.4375000), wk =   0.0937500
        k(    5) = (   0.0625000   0.1875000   0.1875000), wk =   0.0937500
        k(    6) = (   0.0625000   0.1875000   0.3125000), wk =   0.1875000
        k(    7) = (   0.0625000   0.1875000   0.4375000), wk =   0.1875000
        k(    8) = (   0.0625000   0.3125000   0.3125000), wk =   0.0937500
        k(    9) = (   0.0625000   0.3125000   0.4375000), wk =   0.1875000
        k(   10) = (   0.0625000   0.4375000   0.4375000), wk =   0.0937500
        k(   11) = (   0.1875000   0.1875000   0.1875000), wk =   0.0312500
        k(   12) = (   0.1875000   0.1875000   0.3125000), wk =   0.0937500
        k(   13) = (   0.1875000   0.1875000   0.4375000), wk =   0.0937500
        k(   14) = (   0.1875000   0.3125000   0.3125000), wk =   0.0937500
        k(   15) = (   0.1875000   0.3125000   0.4375000), wk =   0.1875000
        k(   16) = (   0.1875000   0.4375000   0.4375000), wk =   0.0937500
        k(   17) = (   0.3125000   0.3125000   0.3125000), wk =   0.0312500
        k(   18) = (   0.3125000   0.3125000   0.4375000), wk =   0.0937500
        k(   19) = (   0.3125000   0.4375000   0.4375000), wk =   0.0937500
        k(   20) = (   0.4375000   0.4375000   0.4375000), wk =   0.0312500

                       cryst. coord.
        k(    1) = (   0.0625000   0.0625000   0.0625000), wk =   0.0312500
        k(    2) = (   0.0625000   0.0625000   0.1875000), wk =   0.0937500
        k(    3) = (   0.0625000   0.0625000   0.3125000), wk =   0.0937500
        k(    4) = (   0.0625000   0.0625000   0.4375000), wk =   0.0937500
        k(    5) = (   0.0625000   0.1875000   0.1875000), wk =   0.0937500
        k(    6) = (   0.0625000   0.1875000   0.3125000), wk =   0.1875000
        k(    7) = (   0.0625000   0.1875000   0.4375000), wk =   0.1875000
        k(    8) = (   0.0625000   0.3125000   0.3125000), wk =   0.0937500
        k(    9) = (   0.0625000   0.3125000   0.4375000), wk =   0.1875000
        k(   10) = (   0.0625000   0.4375000   0.4375000), wk =   0.0937500
        k(   11) = (   0.1875000   0.1875000   0.1875000), wk =   0.0312500
        k(   12) = (   0.1875000   0.1875000   0.3125000), wk =   0.0937500
        k(   13) = (   0.1875000   0.1875000   0.4375000), wk =   0.0937500
        k(   14) = (   0.1875000   0.3125000   0.3125000), wk =   0.0937500
        k(   15) = (   0.1875000   0.3125000   0.4375000), wk =   0.1875000
        k(   16) = (   0.1875000   0.4375000   0.4375000), wk =   0.0937500
        k(   17) = (   0.3125000   0.3125000   0.3125000), wk =   0.0312500
        k(   18) = (   0.3125000   0.3125000   0.4375000), wk =   0.0937500
        k(   19) = (   0.3125000   0.4375000   0.4375000), wk =   0.0937500
        k(   20) = (   0.4375000   0.4375000   0.4375000), wk =   0.0312500

     Dense  grid:    60245 G-vectors     FFT dimensions: (  50,  50,  50)

     Smooth grid:    32675 G-vectors     FFT dimensions: (  40,  40,  40)

     Dynamical RAM for                 wfc:       0.01 MB

     Dynamical RAM for     wfc (w. buffer):       0.16 MB

     Dynamical RAM for           str. fact:       0.03 MB

     Dynamical RAM for           local pot:       0.00 MB

     Dynamical RAM for          nlocal pot:       0.05 MB

     Dynamical RAM for                qrad:       8.34 MB

     Dynamical RAM for          rho,v,vnew:       0.10 MB

     Dynamical RAM for               rhoin:       0.03 MB

     Dynamical RAM for            rho*nmix:       0.23 MB

     Dynamical RAM for           G-vectors:       0.06 MB

     Dynamical RAM for          h,s,v(r/c):       0.01 MB

     Dynamical RAM for          <psi|beta>:       0.01 MB

     Dynamical RAM for                 psi:       0.02 MB

     Dynamical RAM for                hpsi:       0.02 MB

     Dynamical RAM for                spsi:       0.02 MB

     Dynamical RAM for      wfcinit/wfcrot:       0.02 MB

     Dynamical RAM for           addusdens:       8.48 MB

     Dynamical RAM for          addusforce:       8.50 MB

     Dynamical RAM for         addusstress:       8.85 MB

     Estimated static dynamical RAM per process >       9.14 MB

     Estimated max dynamical RAM per process >      17.99 MB

     Estimated total dynamical RAM >       1.12 GB

     Initial potential from superposition of free atoms

     starting charge   15.96031, renormalised to   16.00000
     Starting wfcs are    9 randomized atomic wfcs
     Checking if some PAW data can be deallocated... 
       PAW data deallocated on   32 nodes for type:  1
       PAW data deallocated on   32 nodes for type:  2

     total cpu time spent up to now is        5.7 secs

     Self-consistent Calculation

     iteration #  1     ecut=    50.00 Ry     beta= 0.50
     Davidson diagonalization with overlap
     ethr =  1.00E-02,  avg # of iterations =  1.0

     Threshold (ethr) on eigenvalues was too large:
     Diagonalizing with lowered threshold

     Davidson diagonalization with overlap
     ethr =  3.83E-04,  avg # of iterations =  4.1

     total cpu time spent up to now is        6.8 secs

     total energy              =    -794.88582899 Ry
     estimated scf accuracy    <       0.03868227 Ry

     iteration #  2     ecut=    50.00 Ry     beta= 0.50
     Davidson diagonalization with overlap
     ethr =  2.42E-04,  avg # of iterations =  4.5

     total cpu time spent up to now is        7.6 secs

     total energy              =    -794.89779094 Ry
     estimated scf accuracy    <       0.00203541 Ry

     iteration #  3     ecut=    50.00 Ry     beta= 0.50
     Davidson diagonalization with overlap
     ethr =  1.27E-05,  avg # of iterations =  6.1

     total cpu time spent up to now is        8.4 secs

     total energy              =    -794.89941468 Ry
     estimated scf accuracy    <       0.00070304 Ry

     iteration #  4     ecut=    50.00 Ry     beta= 0.50
     Davidson diagonalization with overlap
     ethr =  4.39E-06,  avg # of iterations =  3.5

     total cpu time spent up to now is        9.2 secs

     total energy              =    -794.89965103 Ry
     estimated scf accuracy    <       0.00007170 Ry

     iteration #  5     ecut=    50.00 Ry     beta= 0.50
     Davidson diagonalization with overlap
     ethr =  4.48E-07,  avg # of iterations =  6.1

     total cpu time spent up to now is       10.1 secs

     total energy              =    -794.89971157 Ry
     estimated scf accuracy    <       0.00001236 Ry

     iteration #  6     ecut=    50.00 Ry     beta= 0.50
     Davidson diagonalization with overlap
     ethr =  7.73E-08,  avg # of iterations =  6.8

     total cpu time spent up to now is       11.0 secs

     total energy              =    -794.89971405 Ry
     estimated scf accuracy    <       0.00005204 Ry

     iteration #  7     ecut=    50.00 Ry     beta= 0.50
     Davidson diagonalization with overlap
     ethr =  7.73E-08,  avg # of iterations =  4.0

     total cpu time spent up to now is       11.8 secs

     total energy              =    -794.89971803 Ry
     estimated scf accuracy    <       0.00000378 Ry

     iteration #  8     ecut=    50.00 Ry     beta= 0.50
     Davidson diagonalization with overlap
     ethr =  2.36E-08,  avg # of iterations =  5.0

     total cpu time spent up to now is       12.6 secs

     End of self-consistent calculation

          k = 0.0625 0.0625 0.0625 (  4043 PWs)   bands (ev):

   -17.8480  -7.9520  -4.5679  -4.5679  -4.5464   2.3810   2.4697   2.4697

     occupation numbers 
     1.0000   1.0000   1.0000   1.0000   1.0000   1.0000   1.0000   1.0000

          k = 0.0625 0.0625 0.1875 (  4070 PWs)   bands (ev):

   -17.8431  -7.9490  -4.6125  -4.5544  -4.5362   2.0101   2.4337   2.4395

     occupation numbers 
     1.0000   1.0000   1.0000   1.0000   1.0000   1.0000   1.0000   1.0000

          k = 0.0625 0.0625 0.3125 (  4077 PWs)   bands (ev):

   -17.8361  -7.9459  -4.6633  -4.5353  -4.5288   1.5572   2.3954   2.4185

     occupation numbers 
     1.0000   1.0000   1.0000   1.0000   1.0000   1.0000   1.0000   1.0000

          k = 0.0625 0.0625 0.4375 (  4087 PWs)   bands (ev):

   -17.8311  -7.9444  -4.6942  -4.5251  -4.5216   1.2831   2.3633   2.4064

     occupation numbers 
     1.0000   1.0000   1.0000   1.0000   1.0000   1.0000   1.0000   1.0000

          k = 0.0625 0.1875 0.1875 (  4081 PWs)   bands (ev):

   -17.8383  -7.9367  -4.6494  -4.5721  -4.5317   1.9360   2.2253   2.4314

     occupation numbers 
     1.0000   1.0000   1.0000   1.0000   1.0000   1.0000   1.0000   1.0000

          k = 0.0625 0.1875 0.3125 (  4087 PWs)   bands (ev):

   -17.8315  -7.9200  -4.7033  -4.5930  -4.5236   1.6419   2.1781   2.4311

     occupation numbers 
     1.0000   1.0000   1.0000   1.0000   1.0000   1.0000   1.0000   1.0000

          k = 0.0625 0.1875 0.4375 (  4092 PWs)   bands (ev):

   -17.8266  -7.9086  -4.7345  -4.6157  -4.5141   1.4255   2.1775   2.4377

     occupation numbers 
     1.0000   1.0000   1.0000   1.0000   1.0000   1.0000   1.0000   1.0000

          k = 0.0625 0.3125 0.3125 (  4099 PWs)   bands (ev):

   -17.8249  -7.8828  -4.7617  -4.6748  -4.5110   1.7031   1.9600   2.4649

     occupation numbers 
     1.0000   1.0000   1.0000   1.0000   1.0000   1.0000   1.0000   1.0000

          k = 0.0625 0.3125 0.4375 (  4098 PWs)   bands (ev):

   -17.8202  -7.8562  -4.7953  -4.7391  -4.5011   1.6271   1.9433   2.4945

     occupation numbers 
     1.0000   1.0000   1.0000   1.0000   1.0000   1.0000   1.0000   1.0000

          k = 0.0625 0.4375 0.4375 (  4096 PWs)   bands (ev):

   -17.8157  -7.8175  -4.8390  -4.8239  -4.4919   1.7628   1.8071   2.5372

     occupation numbers 
     1.0000   1.0000   1.0000   1.0000   1.0000   1.0000   1.0000   1.0000

          k = 0.1875 0.1875 0.1875 (  4079 PWs)   bands (ev):

   -17.8336  -7.9188  -4.6334  -4.6334  -4.5511   1.9792   2.1812   2.1812

     occupation numbers 
     1.0000   1.0000   1.0000   1.0000   1.0000   1.0000   1.0000   1.0000

          k = 0.1875 0.1875 0.3125 (  4091 PWs)   bands (ev):

   -17.8269  -7.8937  -4.7088  -4.6106  -4.5860   1.7259   2.1175   2.2128

     occupation numbers 
     1.0000   1.0000   1.0000   1.0000   1.0000   1.0000   1.0000   1.0000

          k = 0.1875 0.1875 0.4375 (  4101 PWs)   bands (ev):

   -17.8222  -7.8761  -4.7551  -4.6151  -4.5942   1.5140   2.0716   2.3027

     occupation numbers 
     1.0000   1.0000   1.0000   1.0000   1.0000   1.0000   1.0000   1.0000

          k = 0.1875 0.3125 0.3125 (  4089 PWs)   bands (ev):

   -17.8204  -7.8558  -4.7421  -4.6859  -4.5942   1.7662   1.8894   2.1796

     occupation numbers 
     1.0000   1.0000   1.0000   1.0000   1.0000   1.0000   1.0000   1.0000

          k = 0.1875 0.3125 0.4375 (  4096 PWs)   bands (ev):

   -17.8158  -7.8286  -4.7889  -4.7271  -4.5866   1.6273   1.8583   2.2217

     occupation numbers 
     1.0000   1.0000   1.0000   1.0000   1.0000   1.0000   1.0000   1.0000

          k = 0.1875 0.4375 0.4375 (  4094 PWs)   bands (ev):

   -17.8113  -7.7938  -4.8170  -4.8071  -4.5744   1.6902   1.7158   2.1903

     occupation numbers 
     1.0000   1.0000   1.0000   1.0000   1.0000   1.0000   1.0000   1.0000

          k = 0.3125 0.3125 0.3125 (  4092 PWs)   bands (ev):

   -17.8141  -7.8168  -4.7140  -4.7140  -4.6959   1.7895   1.7895   1.9001

     occupation numbers 
     1.0000   1.0000   1.0000   1.0000   1.0000   1.0000   1.0000   1.0000

          k = 0.3125 0.3125 0.4375 (  4092 PWs)   bands (ev):

   -17.8096  -7.7885  -4.7847  -4.7149  -4.6938   1.6116   1.7189   1.9239

     occupation numbers 
     1.0000   1.0000   1.0000   1.0000   1.0000   1.0000   1.0000   1.0000

          k = 0.3125 0.4375 0.4375 (  4084 PWs)   bands (ev):

   -17.8052  -7.7595  -4.7852  -4.7832  -4.6868   1.5838   1.5885   1.7863

     occupation numbers 
     1.0000   1.0000   1.0000   1.0000   1.0000   1.0000   1.0000   1.0000

          k = 0.4375 0.4375 0.4375 (  4095 PWs)   bands (ev):

   -17.8009  -7.7348  -4.7675  -4.7623  -4.7623   1.4997   1.4997   1.5477

     occupation numbers 
     1.0000   1.0000   1.0000   1.0000   1.0000   1.0000   1.0000   1.0000

     highest occupied level (ev):     2.5372

!    total energy              =    -794.89972023 Ry

     total all-electron energy =    -29807.065725 Ry
     estimated scf accuracy    <       0.00000051 Ry

     The total energy is the sum of the following terms:
     one-electron contribution =      -3.96885173 Ry
     hartree contribution      =       8.71898549 Ry
     xc contribution           =     -36.96240786 Ry
     ewald contribution        =     -53.30014111 Ry
     one-center paw contrib.   =    -709.38730502 Ry
      -> PAW hartree energy AE =      25.64764494 Ry
      -> PAW hartree energy PS =     -25.53806608 Ry
      -> PAW xc energy AE      =    -383.53217963 Ry
      -> PAW xc energy PS      =      20.51665049 Ry
      -> total E_H with PAW    =       8.82856435 Ry
      -> total E_XC with PAW   =    -399.97793700 Ry

     convergence has been achieved in   8 iterations

     Forces acting on atoms (cartesian axes, Ry/au):

     atom    1 type  1   force =     0.00000000    0.00000000    0.00000000
     atom    2 type  2   force =     0.00000000    0.00000000    0.00000000
     The non-local contrib.  to forces
     atom    1 type  1   force =     0.00000000    0.00000000    0.00000000
     atom    2 type  2   force =     0.00000000    0.00000000   -0.00000000
     The ionic contribution  to forces
     atom    1 type  1   force =    -0.00000000   -0.00000000   -0.00000000
     atom    2 type  2   force =     0.00000000    0.00000000    0.00000000
     The local contribution  to forces
     atom    1 type  1   force =     0.00000000   -0.00000000   -0.00000000
     atom    2 type  2   force =     0.00000000    0.00000000    0.00000000
     The core correction contribution to forces
     atom    1 type  1   force =     0.00000000    0.00000000    0.00000000
     atom    2 type  2   force =     0.00000000    0.00000000    0.00000000
     The Hubbard contrib.    to forces
     atom    1 type  1   force =     0.00000000    0.00000000    0.00000000
     atom    2 type  2   force =     0.00000000    0.00000000    0.00000000
     The SCF correction term to forces
     atom    1 type  1   force =    -0.00000000    0.00000000    0.00000000
     atom    2 type  2   force =    -0.00000000   -0.00000000    0.00000000

     Total force =     0.000000     Total SCF correction =     0.000000


     Computing stress (Cartesian axis) and pressure

          total   stress  (Ry/bohr**3)                   (kbar)     P=        0.20
   0.00000137   0.00000000   0.00000000            0.20        0.00        0.00
   0.00000000   0.00000137   0.00000000            0.00        0.20        0.00
   0.00000000   0.00000000   0.00000137            0.00        0.00        0.20

     kinetic stress (kbar)   3013.26      0.00      0.00
                                0.00   3013.26      0.00
                                0.00      0.00   3013.26

     local   stress (kbar)  -1086.83     -0.00     -0.00
                               -0.00  -1086.83     -0.00
                               -0.00     -0.00  -1086.83

     nonloc. stress (kbar)   2493.48      0.00      0.00
                                0.00   2493.48      0.00
                                0.00      0.00   2493.48

     hartree stress (kbar)    623.97     -0.00      0.00
                               -0.00    623.97      0.00
                                0.00      0.00    623.97

     exc-cor stress (kbar)   4363.69      0.00      0.00
                                0.00   4363.69     -0.00
                                0.00     -0.00   4363.69

     corecor stress (kbar)  -5592.98     -0.00      0.00
                               -0.00  -5592.98      0.00
                                0.00      0.00  -5592.98

     ewald   stress (kbar)  -3814.38     -0.00      0.00
                               -0.00  -3814.38      0.00
                                0.00      0.00  -3814.38

     hubbard stress (kbar)      0.00      0.00      0.00
                                0.00      0.00      0.00
                                0.00      0.00      0.00

     DFT-D   stress (kbar)      0.00      0.00      0.00
                                0.00      0.00      0.00
                                0.00      0.00      0.00

     XDM     stress (kbar)      0.00      0.00      0.00
                                0.00      0.00      0.00
                                0.00      0.00      0.00

     dft-nl  stress (kbar)      0.00      0.00      0.00
                                0.00      0.00      0.00
                                0.00      0.00      0.00

     TS-vdW  stress (kbar)      0.00      0.00      0.00
                                0.00      0.00      0.00
                                0.00      0.00      0.00



     Writing output data file ./CsIsalt.save/
 
     init_run     :      0.82s CPU      0.97s WALL (       1 calls)
     electrons    :      6.53s CPU      6.91s WALL (       1 calls)
     forces       :      0.09s CPU      0.10s WALL (       1 calls)
     stress       :      0.20s CPU      0.21s WALL (       1 calls)

     Called by init_run:
     wfcinit      :      0.14s CPU      0.15s WALL (       1 calls)
     wfcinit:atom :      0.00s CPU      0.00s WALL (      20 calls)
     wfcinit:wfcr :      0.13s CPU      0.14s WALL (      20 calls)
     potinit      :      0.36s CPU      0.41s WALL (       1 calls)
     hinit0       :      0.22s CPU      0.29s WALL (       1 calls)

     Called by electrons:
     c_bands      :      2.58s CPU      2.71s WALL (       9 calls)
     sum_band     :      0.64s CPU      0.70s WALL (       9 calls)
     v_of_rho     :      0.04s CPU      0.05s WALL (       9 calls)
     v_h          :      0.00s CPU      0.00s WALL (       9 calls)
     v_xc         :      0.05s CPU      0.05s WALL (      11 calls)
     newd         :      0.24s CPU      0.32s WALL (       9 calls)
     PAW_pot      :      3.29s CPU      3.44s WALL (       9 calls)
     mix_rho      :      0.01s CPU      0.01s WALL (       9 calls)

     Called by c_bands:
     init_us_2    :      0.04s CPU      0.04s WALL (     420 calls)
     cegterg      :      2.42s CPU      2.53s WALL (     180 calls)

     Called by sum_band:
     sum_band:wei :      0.00s CPU      0.00s WALL (       9 calls)
     sum_band:loo :      0.30s CPU      0.31s WALL (       9 calls)
     sum_band:buf :      0.00s CPU      0.00s WALL (     180 calls)
     sum_band:ini :      0.01s CPU      0.01s WALL (     180 calls)
     sum_band:cal :      0.03s CPU      0.03s WALL (     180 calls)
     sum_band:bec :      0.00s CPU      0.00s WALL (     180 calls)
     addusdens    :      0.27s CPU      0.31s WALL (       9 calls)
     addusd:skk   :      0.00s CPU      0.00s WALL (      18 calls)
     addusd:dgemm :      0.11s CPU      0.13s WALL (      18 calls)
     addusd:qvan2 :      0.14s CPU      0.16s WALL (      18 calls)

     Called by *egterg:
     cdiaghg      :      0.14s CPU      0.15s WALL (     984 calls)
     cegterg:over :      0.10s CPU      0.11s WALL (     824 calls)
     cegterg:upda :      0.01s CPU      0.01s WALL (     824 calls)
     cegterg:last :      0.02s CPU      0.02s WALL (     573 calls)
     h_psi        :      2.15s CPU      2.25s WALL (    1024 calls)
     s_psi        :      0.03s CPU      0.03s WALL (    1024 calls)
     g_psi        :      0.00s CPU      0.00s WALL (     824 calls)

     Called by h_psi:
     h_psi:calbec :      0.15s CPU      0.16s WALL (    1024 calls)
     vloc_psi     :      1.96s CPU      2.05s WALL (    1024 calls)
     add_vuspsi   :      0.03s CPU      0.03s WALL (    1024 calls)

     General routines
     calbec       :      0.19s CPU      0.21s WALL (    1304 calls)
     fft          :      0.16s CPU      0.22s WALL (     141 calls)
     ffts         :      0.01s CPU      0.01s WALL (      18 calls)
     fftw         :      2.15s CPU      2.25s WALL (   12284 calls)
     interpolate  :      0.01s CPU      0.01s WALL (       9 calls)
 
     Parallel routines
     fft_scatt_xy :      0.07s CPU      0.07s WALL (   12443 calls)
     fft_scatt_yz :      1.73s CPU      1.81s WALL (   12443 calls)

     PAW routines
     PAW_pot      :      3.29s CPU      3.44s WALL (       9 calls)
     PAW_symme    :      0.09s CPU      0.09s WALL (      18 calls)
 
     PWSCF        :     12.44s CPU     13.34s WALL

 
   This run was terminated on:  16: 3:24  15Jan2021            

=------------------------------------------------------------------------------=
   JOB DONE.
=------------------------------------------------------------------------------=
