
     Program PWSCF v.6.7MaX starts on 31Jan2021 at 10:33:10 

     This program is part of the open-source Quantum ESPRESSO suite
     for quantum simulation of materials; please cite
         "P. Giannozzi et al., J. Phys.:Condens. Matter 21 395502 (2009);
         "P. Giannozzi et al., J. Phys.:Condens. Matter 29 465901 (2017);
          URL http://www.quantum-espresso.org", 
     in publications or presentations arising from this work. More details at
     http://www.quantum-espresso.org/quote

     Parallel version (MPI & OpenMP), running on      96 processor cores
     Number of MPI processes:                48
     Threads/MPI process:                     2

     MPI processes distributed on     2 nodes
     R & G space division:  proc/nbgrp/npool/nimage =      48
     Waiting for input...
     Reading input from standard input

     Current dimensions of program PWSCF are:
     Max number of different atomic species (ntypx) = 10
     Max number of k-points (npk) =  40000
     Max angular momentum in pseudopotentials (lmaxx) =  3
     file Sn.rel-pbesol-dn-rrkjus_psl.1.0.0.UPF: wavefunction(s)  5S 4D 4D renormalized
     file I.rel-pbesol-n-rrkjus_psl.1.0.0.UPF: wavefunction(s)  5S renormalized

     Subspace diagonalization in iterative solution of the eigenvalue problem:
     a serial algorithm will be used


     Parallelization info
     --------------------
     sticks:   dense  smooth     PW     G-vecs:    dense   smooth      PW
     Min         154     124     33                10068     7208     989
     Max         155     125     37                10077     7213     991
     Sum        7433    5957   1597               483537   346083   47497


     Title: 
     SnI2                                                                       


     bravais-lattice index     =            1
     lattice parameter (alat)  =      14.4199  a.u.
     unit-cell volume          =    2998.4083 (a.u.)^3
     number of atoms/cell      =            6
     number of atomic types    =            2
     number of electrons       =        56.00
     number of Kohn-Sham states=           56
     kinetic-energy cutoff     =      90.0000  Ry
     charge density cutoff     =     450.0000  Ry
     scf convergence threshold =      1.0E-06
     mixing beta               =       0.3500
     number of iterations used =            8  plain     mixing
     Exchange-correlation= PBESOL
                           (   1   4  10   8   0   0   0)
     Non magnetic calculation with spin-orbit


     celldm(1)=  14.419944  celldm(2)=   0.000000  celldm(3)=   0.000000
     celldm(4)=   0.000000  celldm(5)=   0.000000  celldm(6)=   0.000000

     crystal axes: (cart. coord. in units of alat)
               a(1) = (   1.000000   0.000000   0.000000 )  
               a(2) = (   0.000000   1.000000   0.000000 )  
               a(3) = (   0.000000   0.000000   1.000000 )  

     reciprocal axes: (cart. coord. in units 2 pi/alat)
               b(1) = (  1.000000  0.000000  0.000000 )  
               b(2) = (  0.000000  1.000000  0.000000 )  
               b(3) = (  0.000000  0.000000  1.000000 )  


     PseudoPot. # 1 for Sn read from file:
     /scratch/cmalosso/degironcoli/pseudo/pseudo-usp/Sn.rel-pbesol-dn-rrkjus_psl.1.0.0.UPF
     MD5 check sum: c1cf6ea56b96a3656bdf0d1db379e093
     Pseudo is Ultrasoft + core correction, Zval = 14.0
     Generated using &quot;atomic&quot; code by A. Dal Corso  v.6.3
     Using radial grid of 1243 points, 10 beta functions with: 
                l(1) =   0
                l(2) =   0
                l(3) =   1
                l(4) =   1
                l(5) =   1
                l(6) =   1
                l(7) =   2
                l(8) =   2
                l(9) =   2
               l(10) =   2
     Q(r) pseudized with 0 coefficients 


     PseudoPot. # 2 for I  read from file:
     /scratch/cmalosso/degironcoli/pseudo/pseudo-usp/I.rel-pbesol-n-rrkjus_psl.1.0.0.UPF
     MD5 check sum: 0f96c6bfb1b448f280658f96eb466b08
     Pseudo is Ultrasoft + core correction, Zval =  7.0
     Generated using &quot;atomic&quot; code by A. Dal Corso  v.6.3
     Using radial grid of 1247 points, 10 beta functions with: 
                l(1) =   0
                l(2) =   0
                l(3) =   1
                l(4) =   1
                l(5) =   1
                l(6) =   1
                l(7) =   2
                l(8) =   2
                l(9) =   2
               l(10) =   2
     Q(r) pseudized with 0 coefficients 


     atomic species   valence    mass     pseudopotential
        Sn            14.00   118.70000     Sn( 1.00)
        I              7.00   126.90000     I ( 1.00)

     16 Sym. Ops., with inversion, found ( 8 have fractional translation)


                                    s                        frac. trans.

      isym =  1     identity                                     

 cryst.   s( 1) = (     1          0          0      )
                  (     0          1          0      )
                  (     0          0          1      )

 cart.    s( 1) = (  1.0000000  0.0000000  0.0000000 )
                  (  0.0000000  1.0000000  0.0000000 )
                  (  0.0000000  0.0000000  1.0000000 )


      isym =  2     180 deg rotation - cart. axis [0,0,1]        

 cryst.   s( 2) = (    -1          0          0      )
                  (     0         -1          0      )
                  (     0          0          1      )

 cart.    s( 2) = ( -1.0000000  0.0000000  0.0000000 )
                  (  0.0000000 -1.0000000  0.0000000 )
                  (  0.0000000  0.0000000  1.0000000 )


      isym =  3     180 deg rotation - cart. axis [0,1,0]        

 cryst.   s( 3) = (    -1          0          0      )    f =(  0.5000000 )
                  (     0          1          0      )       ( -0.5000000 )
                  (     0          0         -1      )       (  0.5000000 )

 cart.    s( 3) = ( -1.0000000  0.0000000  0.0000000 )    f =(  0.5000000 )
                  (  0.0000000  1.0000000  0.0000000 )       ( -0.5000000 )
                  (  0.0000000  0.0000000 -1.0000000 )       (  0.5000000 )


      isym =  4     180 deg rotation - cart. axis [1,0,0]        

 cryst.   s( 4) = (     1          0          0      )    f =( -0.5000000 )
                  (     0         -1          0      )       (  0.5000000 )
                  (     0          0         -1      )       (  0.5000000 )

 cart.    s( 4) = (  1.0000000  0.0000000  0.0000000 )    f =( -0.5000000 )
                  (  0.0000000 -1.0000000  0.0000000 )       (  0.5000000 )
                  (  0.0000000  0.0000000 -1.0000000 )       (  0.5000000 )


      isym =  5     180 deg rotation - cart. axis [1,1,0]        

 cryst.   s( 5) = (     0          1          0      )
                  (     1          0          0      )
                  (     0          0         -1      )

 cart.    s( 5) = (  0.0000000  1.0000000  0.0000000 )
                  (  1.0000000  0.0000000  0.0000000 )
                  (  0.0000000  0.0000000 -1.0000000 )


      isym =  6     180 deg rotation - cart. axis [1,-1,0]       

 cryst.   s( 6) = (     0         -1          0      )
                  (    -1          0          0      )
                  (     0          0         -1      )

 cart.    s( 6) = (  0.0000000 -1.0000000  0.0000000 )
                  ( -1.0000000  0.0000000  0.0000000 )
                  (  0.0000000  0.0000000 -1.0000000 )


      isym =  7      90 deg rotation - cart. axis [0,0,-1]       

 cryst.   s( 7) = (     0         -1          0      )    f =( -0.5000000 )
                  (     1          0          0      )       (  0.5000000 )
                  (     0          0          1      )       ( -0.5000000 )

 cart.    s( 7) = (  0.0000000  1.0000000  0.0000000 )    f =( -0.5000000 )
                  ( -1.0000000  0.0000000  0.0000000 )       (  0.5000000 )
                  (  0.0000000  0.0000000  1.0000000 )       ( -0.5000000 )


      isym =  8      90 deg rotation - cart. axis [0,0,1]        

 cryst.   s( 8) = (     0          1          0      )    f =(  0.5000000 )
                  (    -1          0          0      )       ( -0.5000000 )
                  (     0          0          1      )       ( -0.5000000 )

 cart.    s( 8) = (  0.0000000 -1.0000000  0.0000000 )    f =(  0.5000000 )
                  (  1.0000000  0.0000000  0.0000000 )       ( -0.5000000 )
                  (  0.0000000  0.0000000  1.0000000 )       ( -0.5000000 )


      isym =  9     inversion                                    

 cryst.   s( 9) = (    -1          0          0      )
                  (     0         -1          0      )
                  (     0          0         -1      )

 cart.    s( 9) = ( -1.0000000  0.0000000  0.0000000 )
                  (  0.0000000 -1.0000000  0.0000000 )
                  (  0.0000000  0.0000000 -1.0000000 )


      isym = 10     inv. 180 deg rotation - cart. axis [0,0,1]   

 cryst.   s(10) = (     1          0          0      )
                  (     0          1          0      )
                  (     0          0         -1      )

 cart.    s(10) = (  1.0000000  0.0000000  0.0000000 )
                  (  0.0000000  1.0000000  0.0000000 )
                  (  0.0000000  0.0000000 -1.0000000 )


      isym = 11     inv. 180 deg rotation - cart. axis [0,1,0]   

 cryst.   s(11) = (     1          0          0      )    f =( -0.5000000 )
                  (     0         -1          0      )       (  0.5000000 )
                  (     0          0          1      )       ( -0.5000000 )

 cart.    s(11) = (  1.0000000  0.0000000  0.0000000 )    f =( -0.5000000 )
                  (  0.0000000 -1.0000000  0.0000000 )       (  0.5000000 )
                  (  0.0000000  0.0000000  1.0000000 )       ( -0.5000000 )


      isym = 12     inv. 180 deg rotation - cart. axis [1,0,0]   

 cryst.   s(12) = (    -1          0          0      )    f =(  0.5000000 )
                  (     0          1          0      )       ( -0.5000000 )
                  (     0          0          1      )       ( -0.5000000 )

 cart.    s(12) = ( -1.0000000  0.0000000  0.0000000 )    f =(  0.5000000 )
                  (  0.0000000  1.0000000  0.0000000 )       ( -0.5000000 )
                  (  0.0000000  0.0000000  1.0000000 )       ( -0.5000000 )


      isym = 13     inv. 180 deg rotation - cart. axis [1,1,0]   

 cryst.   s(13) = (     0         -1          0      )
                  (    -1          0          0      )
                  (     0          0          1      )

 cart.    s(13) = (  0.0000000 -1.0000000  0.0000000 )
                  ( -1.0000000  0.0000000  0.0000000 )
                  (  0.0000000  0.0000000  1.0000000 )


      isym = 14     inv. 180 deg rotation - cart. axis [1,-1,0]  

 cryst.   s(14) = (     0          1          0      )
                  (     1          0          0      )
                  (     0          0          1      )

 cart.    s(14) = (  0.0000000  1.0000000  0.0000000 )
                  (  1.0000000  0.0000000  0.0000000 )
                  (  0.0000000  0.0000000  1.0000000 )


      isym = 15     inv.  90 deg rotation - cart. axis [0,0,-1]  

 cryst.   s(15) = (     0          1          0      )    f =(  0.5000000 )
                  (    -1          0          0      )       ( -0.5000000 )
                  (     0          0         -1      )       (  0.5000000 )

 cart.    s(15) = (  0.0000000 -1.0000000  0.0000000 )    f =(  0.5000000 )
                  (  1.0000000  0.0000000  0.0000000 )       ( -0.5000000 )
                  (  0.0000000  0.0000000 -1.0000000 )       (  0.5000000 )


      isym = 16     inv.  90 deg rotation - cart. axis [0,0,1]   

 cryst.   s(16) = (     0         -1          0      )    f =( -0.5000000 )
                  (     1          0          0      )       (  0.5000000 )
                  (     0          0         -1      )       (  0.5000000 )

 cart.    s(16) = (  0.0000000  1.0000000  0.0000000 )    f =( -0.5000000 )
                  ( -1.0000000  0.0000000  0.0000000 )       (  0.5000000 )
                  (  0.0000000  0.0000000 -1.0000000 )       (  0.5000000 )


     double point group D_4h(4/mmm)
     there are 14 classes and  4 irreducible representations
     the character table:

       E     -E    2C4   -2C4   C2    2C2' 2C2'' i     -i    2S4   -2S4   s_h 
                               -C2   -2C2' -2C2'                         -s_h 
G_6+   2.00 -2.00  1.41 -1.41  0.00  0.00  0.00  2.00 -2.00  1.41 -1.41  0.00
G_7+   2.00 -2.00 -1.41  1.41  0.00  0.00  0.00  2.00 -2.00 -1.41  1.41  0.00
G_6-   2.00 -2.00  1.41 -1.41  0.00  0.00  0.00 -2.00  2.00 -1.41  1.41  0.00
G_7-   2.00 -2.00 -1.41  1.41  0.00  0.00  0.00 -2.00  2.00  1.41 -1.41  0.00

        2s_v  2s_d
       -2s_v -2s_d
G_6+   0.00  0.00
G_7+   0.00  0.00
G_6-   0.00  0.00
G_7-   0.00  0.00

     the symmetry operations in each class and the name of the first element:

     E             1
          identity                                               
     -E           -1
          identity E                                             
     2C4           7    8
           90 deg rotation - cart. axis [0,0,-1]                 
     -2C4         -7   -8
           90 deg rotation - cart. axis [0,0,-1] E               
      C2  -C2      2   -2
          180 deg rotation - cart. axis [0,0,1]                  
      2C2'-2C2'    3   -3    4   -4
          180 deg rotation - cart. axis [0,1,0]                  
     2C2''-2C2'    5   -5   -6    6
          180 deg rotation - cart. axis [1,1,0]                  
     i             9
          inversion                                              
     -i           -9
          inversion E                                            
     2S4          15   16
          inv.  90 deg rotation - cart. axis [0,0,-1]            
     -2S4        -15  -16
          inv.  90 deg rotation - cart. axis [0,0,-1] E          
      s_h -s_h    10  -10
          inv. 180 deg rotation - cart. axis [0,0,1]             
      2s_v-2s_v   11  -11   12  -12
          inv. 180 deg rotation - cart. axis [0,1,0]             
      2s_d-2s_d   13  -13  -14   14
          inv. 180 deg rotation - cart. axis [1,1,0]             

   Cartesian axes

     site n.     atom                  positions (alat units)
         1           Sn  tau(   1) = (   0.0000000   0.0000000   0.0000000  )
         2           Sn  tau(   2) = (   0.5000000   0.5000000   0.5000000  )
         3           I   tau(   3) = (   0.2985210   0.2985210   0.0000000  )
         4           I   tau(   4) = (   0.7014790   0.7014790   0.0000000  )
         5           I   tau(   5) = (   0.7985210   0.2014790   0.5000000  )
         6           I   tau(   6) = (   0.2014790   0.7985210   0.5000000  )

   Crystallographic axes

     site n.     atom                  positions (cryst. coord.)
         1           Sn  tau(   1) = (  0.0000000  0.0000000  0.0000000  )
         2           Sn  tau(   2) = (  0.5000000  0.5000000  0.5000000  )
         3           I   tau(   3) = (  0.2985210  0.2985210  0.0000000  )
         4           I   tau(   4) = (  0.7014790  0.7014790  0.0000000  )
         5           I   tau(   5) = (  0.7985210  0.2014790  0.5000000  )
         6           I   tau(   6) = (  0.2014790  0.7985210  0.5000000  )

     number of k points=    18
                       cart. coord. in units 2pi/alat
        k(    1) = (   0.0833333   0.0833333   0.0833333), wk =   0.0370370
        k(    2) = (   0.0833333   0.0833333   0.2500000), wk =   0.0370370
        k(    3) = (   0.0833333   0.0833333   0.4166667), wk =   0.0370370
        k(    4) = (   0.0833333   0.2500000   0.2500000), wk =   0.0740741
        k(    5) = (   0.0833333   0.2500000   0.4166667), wk =   0.0740741
        k(    6) = (   0.0833333   0.4166667   0.4166667), wk =   0.0740741
        k(    7) = (   0.2500000   0.2500000   0.2500000), wk =   0.0370370
        k(    8) = (   0.2500000   0.2500000   0.4166667), wk =   0.0370370
        k(    9) = (   0.2500000   0.4166667   0.4166667), wk =   0.0740741
        k(   10) = (   0.4166667   0.4166667   0.4166667), wk =   0.0370370
        k(   11) = (   0.0833333   0.2500000   0.0833333), wk =   0.0740741
        k(   12) = (   0.0833333   0.4166667   0.0833333), wk =   0.0740741
        k(   13) = (   0.2500000   0.2500000   0.0833333), wk =   0.0370370
        k(   14) = (   0.2500000   0.4166667   0.0833333), wk =   0.0740741
        k(   15) = (   0.4166667   0.0833333   0.2500000), wk =   0.0740741
        k(   16) = (   0.4166667   0.4166667   0.0833333), wk =   0.0370370
        k(   17) = (   0.2500000   0.4166667   0.2500000), wk =   0.0740741
        k(   18) = (   0.4166667   0.4166667   0.2500000), wk =   0.0370370

                       cryst. coord.
        k(    1) = (   0.0833333   0.0833333   0.0833333), wk =   0.0370370
        k(    2) = (   0.0833333   0.0833333   0.2500000), wk =   0.0370370
        k(    3) = (   0.0833333   0.0833333   0.4166667), wk =   0.0370370
        k(    4) = (   0.0833333   0.2500000   0.2500000), wk =   0.0740741
        k(    5) = (   0.0833333   0.2500000   0.4166667), wk =   0.0740741
        k(    6) = (   0.0833333   0.4166667   0.4166667), wk =   0.0740741
        k(    7) = (   0.2500000   0.2500000   0.2500000), wk =   0.0370370
        k(    8) = (   0.2500000   0.2500000   0.4166667), wk =   0.0370370
        k(    9) = (   0.2500000   0.4166667   0.4166667), wk =   0.0740741
        k(   10) = (   0.4166667   0.4166667   0.4166667), wk =   0.0370370
        k(   11) = (   0.0833333   0.2500000   0.0833333), wk =   0.0740741
        k(   12) = (   0.0833333   0.4166667   0.0833333), wk =   0.0740741
        k(   13) = (   0.2500000   0.2500000   0.0833333), wk =   0.0370370
        k(   14) = (   0.2500000   0.4166667   0.0833333), wk =   0.0740741
        k(   15) = (   0.4166667   0.0833333   0.2500000), wk =   0.0740741
        k(   16) = (   0.4166667   0.4166667   0.0833333), wk =   0.0370370
        k(   17) = (   0.2500000   0.4166667   0.2500000), wk =   0.0740741
        k(   18) = (   0.4166667   0.4166667   0.2500000), wk =   0.0370370

     Dense  grid:   483537 G-vectors     FFT dimensions: ( 100, 100, 100)

     Smooth grid:   346083 G-vectors     FFT dimensions: (  90,  90,  90)

     Dynamical RAM for                 wfc:       1.54 MB

     Dynamical RAM for     wfc (w. buffer):      29.22 MB

     Dynamical RAM for           str. fact:       0.31 MB

     Dynamical RAM for           local pot:       0.00 MB

     Dynamical RAM for          nlocal pot:       2.80 MB

     Dynamical RAM for                qrad:       8.92 MB

     Dynamical RAM for          rho,v,vnew:       4.59 MB

     Dynamical RAM for               rhoin:       1.53 MB

     Dynamical RAM for            rho*nmix:       9.84 MB

     Dynamical RAM for           G-vectors:       0.63 MB

     Dynamical RAM for          h,s,v(r/c):       0.57 MB

     Dynamical RAM for          <psi|beta>:       0.35 MB

     Dynamical RAM for                 psi:       3.08 MB

     Dynamical RAM for                hpsi:       3.08 MB

     Dynamical RAM for                spsi:       3.08 MB

     Dynamical RAM for      wfcinit/wfcrot:       2.91 MB

     Dynamical RAM for           addusdens:      94.41 MB

     Dynamical RAM for          addusforce:      95.46 MB

     Dynamical RAM for         addusstress:      96.56 MB

     Estimated static dynamical RAM per process >      60.14 MB

     Estimated max dynamical RAM per process >     156.70 MB

     Estimated total dynamical RAM >       7.35 GB

     Initial potential from superposition of free atoms

     starting charge   55.99772, renormalised to   56.00000
     Starting wfcs are   68 randomized atomic wfcs

     total cpu time spent up to now is        7.6 secs

     Self-consistent Calculation

     iteration #  1     ecut=    90.00 Ry     beta= 0.35
     Davidson diagonalization with overlap
     ethr =  1.00E-02,  avg # of iterations =  1.0

     total cpu time spent up to now is       19.3 secs

     total energy              =    -458.30060017 Ry
     estimated scf accuracy    <       0.58880166 Ry

     iteration #  2     ecut=    90.00 Ry     beta= 0.35
     Davidson diagonalization with overlap
     ethr =  1.05E-03,  avg # of iterations =  3.1

     total cpu time spent up to now is       33.8 secs

     total energy              =    -458.37812744 Ry
     estimated scf accuracy    <       0.06197741 Ry

     iteration #  3     ecut=    90.00 Ry     beta= 0.35
     Davidson diagonalization with overlap
     ethr =  1.11E-04,  avg # of iterations =  5.2

     total cpu time spent up to now is       52.4 secs

     total energy              =    -458.39192630 Ry
     estimated scf accuracy    <       0.04641131 Ry

     iteration #  4     ecut=    90.00 Ry     beta= 0.35
     Davidson diagonalization with overlap
     ethr =  8.29E-05,  avg # of iterations =  5.2

     total cpu time spent up to now is       69.8 secs

     total energy              =    -458.40227298 Ry
     estimated scf accuracy    <       0.03212221 Ry

     iteration #  5     ecut=    90.00 Ry     beta= 0.35
     Davidson diagonalization with overlap
     ethr =  5.74E-05,  avg # of iterations =  4.8

     total cpu time spent up to now is       84.4 secs

     total energy              =    -458.40842204 Ry
     estimated scf accuracy    <       0.00084146 Ry

     iteration #  6     ecut=    90.00 Ry     beta= 0.35
     Davidson diagonalization with overlap
     ethr =  1.50E-06,  avg # of iterations = 10.1

     total cpu time spent up to now is      108.2 secs

     total energy              =    -458.40685033 Ry
     estimated scf accuracy    <       0.00837984 Ry

     iteration #  7     ecut=    90.00 Ry     beta= 0.35
     Davidson diagonalization with overlap
     ethr =  1.50E-06,  avg # of iterations =  7.5

     total cpu time spent up to now is      128.4 secs

     total energy              =    -458.40896210 Ry
     estimated scf accuracy    <       0.00071880 Ry

     iteration #  8     ecut=    90.00 Ry     beta= 0.35
     Davidson diagonalization with overlap
     ethr =  1.28E-06,  avg # of iterations =  2.3

     total cpu time spent up to now is      141.5 secs

     total energy              =    -458.40900513 Ry
     estimated scf accuracy    <       0.00009913 Ry

     iteration #  9     ecut=    90.00 Ry     beta= 0.35
     Davidson diagonalization with overlap
     ethr =  1.77E-07,  avg # of iterations =  5.8

     total cpu time spent up to now is      159.0 secs

     total energy              =    -458.40905100 Ry
     estimated scf accuracy    <       0.00000275 Ry

     iteration # 10     ecut=    90.00 Ry     beta= 0.35
     Davidson diagonalization with overlap
     ethr =  4.92E-09,  avg # of iterations =  8.1

     total cpu time spent up to now is      179.1 secs

     total energy              =    -458.40905183 Ry
     estimated scf accuracy    <       0.00000759 Ry

     iteration # 11     ecut=    90.00 Ry     beta= 0.35
     Davidson diagonalization with overlap
     ethr =  4.92E-09,  avg # of iterations =  2.1

     total cpu time spent up to now is      191.6 secs

     total energy              =    -458.40905074 Ry
     estimated scf accuracy    <       0.00000357 Ry

     iteration # 12     ecut=    90.00 Ry     beta= 0.35
     Davidson diagonalization with overlap
     ethr =  4.92E-09,  avg # of iterations =  5.3

     total cpu time spent up to now is      207.4 secs

     End of self-consistent calculation

          k = 0.0833 0.0833 0.0833 ( 43246 PWs)   bands (ev):

   -23.2599 -23.2599 -23.2599 -23.2599 -23.1350 -23.1350 -23.1349 -23.1349
   -22.2395 -22.2395 -22.2395 -22.2395 -22.1306 -22.1306 -22.1306 -22.1306
   -22.0797 -22.0797 -22.0797 -22.0797 -11.6214 -11.6214 -11.5307 -11.5307
   -11.4810 -11.4810 -11.4767 -11.4767  -7.0744  -7.0744  -6.8750  -6.8750
    -2.6883  -2.6883  -2.5267  -2.5267  -2.1404  -2.1404  -2.0292  -2.0292
    -1.8817  -1.8817  -1.5298  -1.5298  -1.2265  -1.2265  -1.1332  -1.1332
    -1.1084  -1.1084  -0.9959  -0.9959  -0.9242  -0.9242  -0.8837  -0.8837

     occupation numbers 
     1.0000   1.0000   1.0000   1.0000   1.0000   1.0000   1.0000   1.0000
     1.0000   1.0000   1.0000   1.0000   1.0000   1.0000   1.0000   1.0000
     1.0000   1.0000   1.0000   1.0000   1.0000   1.0000   1.0000   1.0000
     1.0000   1.0000   1.0000   1.0000   1.0000   1.0000   1.0000   1.0000
     1.0000   1.0000   1.0000   1.0000   1.0000   1.0000   1.0000   1.0000
     1.0000   1.0000   1.0000   1.0000   1.0000   1.0000   1.0000   1.0000
     1.0000   1.0000   1.0000   1.0000   1.0000   1.0000   1.0000   1.0000

          k = 0.0833 0.0833 0.2500 ( 43224 PWs)   bands (ev):

   -23.2599 -23.2599 -23.2599 -23.2599 -23.1350 -23.1350 -23.1349 -23.1349
   -22.2395 -22.2395 -22.2395 -22.2395 -22.1306 -22.1306 -22.1306 -22.1306
   -22.0797 -22.0797 -22.0797 -22.0797 -11.6090 -11.6090 -11.5425 -11.5425
   -11.4810 -11.4810 -11.4766 -11.4766  -7.0544  -7.0544  -6.9087  -6.9087
    -2.6756  -2.6756  -2.5240  -2.5240  -2.1290  -2.1290  -2.0076  -2.0076
    -1.8562  -1.8562  -1.5543  -1.5543  -1.2242  -1.2242  -1.1744  -1.1744
    -1.1317  -1.1317  -1.0239  -1.0239  -0.9346  -0.9346  -0.8971  -0.8971

     occupation numbers 
     1.0000   1.0000   1.0000   1.0000   1.0000   1.0000   1.0000   1.0000
     1.0000   1.0000   1.0000   1.0000   1.0000   1.0000   1.0000   1.0000
     1.0000   1.0000   1.0000   1.0000   1.0000   1.0000   1.0000   1.0000
     1.0000   1.0000   1.0000   1.0000   1.0000   1.0000   1.0000   1.0000
     1.0000   1.0000   1.0000   1.0000   1.0000   1.0000   1.0000   1.0000
     1.0000   1.0000   1.0000   1.0000   1.0000   1.0000   1.0000   1.0000
     1.0000   1.0000   1.0000   1.0000   1.0000   1.0000   1.0000   1.0000

          k = 0.0833 0.0833 0.4167 ( 43230 PWs)   bands (ev):

   -23.2599 -23.2599 -23.2599 -23.2599 -23.1350 -23.1350 -23.1350 -23.1350
   -22.2395 -22.2395 -22.2395 -22.2395 -22.1306 -22.1306 -22.1306 -22.1306
   -22.0797 -22.0797 -22.0797 -22.0797 -11.5878 -11.5878 -11.5631 -11.5631
   -11.4809 -11.4809 -11.4764 -11.4764  -7.0150  -7.0150  -6.9616  -6.9616
    -2.6634  -2.6634  -2.5199  -2.5199  -2.1277  -2.1277  -1.9902  -1.9902
    -1.7897  -1.7897  -1.6113  -1.6113  -1.2230  -1.2230  -1.2031  -1.2031
    -1.1354  -1.1354  -1.0586  -1.0586  -0.9616  -0.9616  -0.9112  -0.9112

     occupation numbers 
     1.0000   1.0000   1.0000   1.0000   1.0000   1.0000   1.0000   1.0000
     1.0000   1.0000   1.0000   1.0000   1.0000   1.0000   1.0000   1.0000
     1.0000   1.0000   1.0000   1.0000   1.0000   1.0000   1.0000   1.0000
     1.0000   1.0000   1.0000   1.0000   1.0000   1.0000   1.0000   1.0000
     1.0000   1.0000   1.0000   1.0000   1.0000   1.0000   1.0000   1.0000
     1.0000   1.0000   1.0000   1.0000   1.0000   1.0000   1.0000   1.0000
     1.0000   1.0000   1.0000   1.0000   1.0000   1.0000   1.0000   1.0000

          k = 0.0833 0.2500 0.2500 ( 43216 PWs)   bands (ev):

   -23.2599 -23.2599 -23.2599 -23.2599 -23.1350 -23.1350 -23.1350 -23.1350
   -22.2395 -22.2395 -22.2395 -22.2395 -22.1306 -22.1306 -22.1306 -22.1306
   -22.0797 -22.0797 -22.0797 -22.0797 -11.5940 -11.5940 -11.5377 -11.5377
   -11.4955 -11.4955 -11.4826 -11.4826  -7.0313  -7.0313  -6.9239  -6.9239
    -2.8229  -2.8229  -2.6488  -2.6488  -2.0989  -2.0989  -1.9414  -1.9414
    -1.8142  -1.8142  -1.5763  -1.5763  -1.2496  -1.2496  -1.1821  -1.1821
    -1.0525  -1.0525  -0.9639  -0.9639  -0.8991  -0.8991  -0.7151  -0.7151

     occupation numbers 
     1.0000   1.0000   1.0000   1.0000   1.0000   1.0000   1.0000   1.0000
     1.0000   1.0000   1.0000   1.0000   1.0000   1.0000   1.0000   1.0000
     1.0000   1.0000   1.0000   1.0000   1.0000   1.0000   1.0000   1.0000
     1.0000   1.0000   1.0000   1.0000   1.0000   1.0000   1.0000   1.0000
     1.0000   1.0000   1.0000   1.0000   1.0000   1.0000   1.0000   1.0000
     1.0000   1.0000   1.0000   1.0000   1.0000   1.0000   1.0000   1.0000
     1.0000   1.0000   1.0000   1.0000   1.0000   1.0000   1.0000   1.0000

          k = 0.0833 0.2500 0.4167 ( 43226 PWs)   bands (ev):

   -23.2599 -23.2599 -23.2599 -23.2599 -23.1350 -23.1350 -23.1350 -23.1350
   -22.2395 -22.2395 -22.2395 -22.2395 -22.1306 -22.1306 -22.1306 -22.1306
   -22.0797 -22.0797 -22.0797 -22.0797 -11.5765 -11.5765 -11.5534 -11.5534
   -11.4954 -11.4954 -11.4836 -11.4836  -7.0045  -7.0045  -6.9638  -6.9638
    -2.8354  -2.8354  -2.6527  -2.6527  -2.0651  -2.0651  -1.8870  -1.8870
    -1.8346  -1.8346  -1.5843  -1.5843  -1.2567  -1.2567  -1.1778  -1.1778
    -1.0678  -1.0678  -0.9799  -0.9799  -0.8924  -0.8924  -0.7144  -0.7144

     occupation numbers 
     1.0000   1.0000   1.0000   1.0000   1.0000   1.0000   1.0000   1.0000
     1.0000   1.0000   1.0000   1.0000   1.0000   1.0000   1.0000   1.0000
     1.0000   1.0000   1.0000   1.0000   1.0000   1.0000   1.0000   1.0000
     1.0000   1.0000   1.0000   1.0000   1.0000   1.0000   1.0000   1.0000
     1.0000   1.0000   1.0000   1.0000   1.0000   1.0000   1.0000   1.0000
     1.0000   1.0000   1.0000   1.0000   1.0000   1.0000   1.0000   1.0000
     1.0000   1.0000   1.0000   1.0000   1.0000   1.0000   1.0000   1.0000

          k = 0.0833 0.4167 0.4167 ( 43250 PWs)   bands (ev):

   -23.2599 -23.2599 -23.2599 -23.2599 -23.1350 -23.1350 -23.1350 -23.1350
   -22.2395 -22.2395 -22.2395 -22.2395 -22.1306 -22.1306 -22.1306 -22.1306
   -22.0797 -22.0797 -22.0797 -22.0797 -11.5577 -11.5577 -11.5444 -11.5444
   -11.5085 -11.5085 -11.4989 -11.4989  -6.9882  -6.9882  -6.9717  -6.9717
    -2.9027  -2.9027  -2.8258  -2.8258  -2.0198  -2.0198  -1.9099  -1.9099
    -1.7858  -1.7858  -1.5863  -1.5863  -1.2440  -1.2440  -1.1975  -1.1975
    -0.9685  -0.9685  -0.9351  -0.9351  -0.7182  -0.7182  -0.5753  -0.5753

     occupation numbers 
     1.0000   1.0000   1.0000   1.0000   1.0000   1.0000   1.0000   1.0000
     1.0000   1.0000   1.0000   1.0000   1.0000   1.0000   1.0000   1.0000
     1.0000   1.0000   1.0000   1.0000   1.0000   1.0000   1.0000   1.0000
     1.0000   1.0000   1.0000   1.0000   1.0000   1.0000   1.0000   1.0000
     1.0000   1.0000   1.0000   1.0000   1.0000   1.0000   1.0000   1.0000
     1.0000   1.0000   1.0000   1.0000   1.0000   1.0000   1.0000   1.0000
     1.0000   1.0000   1.0000   1.0000   1.0000   1.0000   1.0000   1.0000

          k = 0.2500 0.2500 0.2500 ( 43180 PWs)   bands (ev):

   -23.2599 -23.2599 -23.2599 -23.2599 -23.1350 -23.1350 -23.1350 -23.1350
   -22.2395 -22.2395 -22.2395 -22.2395 -22.1306 -22.1306 -22.1306 -22.1306
   -22.0797 -22.0797 -22.0797 -22.0797 -11.5855 -11.5855 -11.5376 -11.5376
   -11.5047 -11.5047 -11.4815 -11.4815  -7.0213  -7.0213  -6.9407  -6.9407
    -2.8812  -2.8812  -2.5359  -2.5359  -2.0963  -2.0963  -1.9271  -1.9271
    -1.8729  -1.8729  -1.6038  -1.6038  -1.2958  -1.2958  -1.2283  -1.2283
    -1.1216  -1.1216  -0.9334  -0.9334  -0.8783  -0.8783  -0.5885  -0.5885

     occupation numbers 
     1.0000   1.0000   1.0000   1.0000   1.0000   1.0000   1.0000   1.0000
     1.0000   1.0000   1.0000   1.0000   1.0000   1.0000   1.0000   1.0000
     1.0000   1.0000   1.0000   1.0000   1.0000   1.0000   1.0000   1.0000
     1.0000   1.0000   1.0000   1.0000   1.0000   1.0000   1.0000   1.0000
     1.0000   1.0000   1.0000   1.0000   1.0000   1.0000   1.0000   1.0000
     1.0000   1.0000   1.0000   1.0000   1.0000   1.0000   1.0000   1.0000
     1.0000   1.0000   1.0000   1.0000   1.0000   1.0000   1.0000   1.0000

          k = 0.2500 0.2500 0.4167 ( 43242 PWs)   bands (ev):

   -23.2599 -23.2599 -23.2599 -23.2599 -23.1350 -23.1350 -23.1350 -23.1350
   -22.2395 -22.2395 -22.2395 -22.2395 -22.1306 -22.1306 -22.1306 -22.1306
   -22.0797 -22.0797 -22.0797 -22.0797 -11.5743 -11.5743 -11.5448 -11.5448
   -11.5078 -11.5078 -11.4813 -11.4813  -7.0054  -7.0054  -6.9699  -6.9699
    -2.8990  -2.8990  -2.5213  -2.5213  -2.1170  -2.1170  -1.8877  -1.8877
    -1.8737  -1.8737  -1.5833  -1.5833  -1.3083  -1.3083  -1.2065  -1.2065
    -1.1210  -1.1210  -0.9278  -0.9278  -0.8681  -0.8681  -0.5780  -0.5780

     occupation numbers 
     1.0000   1.0000   1.0000   1.0000   1.0000   1.0000   1.0000   1.0000
     1.0000   1.0000   1.0000   1.0000   1.0000   1.0000   1.0000   1.0000
     1.0000   1.0000   1.0000   1.0000   1.0000   1.0000   1.0000   1.0000
     1.0000   1.0000   1.0000   1.0000   1.0000   1.0000   1.0000   1.0000
     1.0000   1.0000   1.0000   1.0000   1.0000   1.0000   1.0000   1.0000
     1.0000   1.0000   1.0000   1.0000   1.0000   1.0000   1.0000   1.0000
     1.0000   1.0000   1.0000   1.0000   1.0000   1.0000   1.0000   1.0000

          k = 0.2500 0.4167 0.4167 ( 43246 PWs)   bands (ev):

   -23.2599 -23.2599 -23.2599 -23.2599 -23.1350 -23.1350 -23.1350 -23.1350
   -22.2395 -22.2395 -22.2395 -22.2395 -22.1306 -22.1306 -22.1306 -22.1306
   -22.0797 -22.0797 -22.0797 -22.0797 -11.5647 -11.5647 -11.5504 -11.5504
   -11.5031 -11.5031 -11.4892 -11.4892  -6.9989  -6.9989  -6.9835  -6.9835
    -2.8245  -2.8245  -2.6478  -2.6478  -2.0798  -2.0798  -1.9404  -1.9404
    -1.8230  -1.8230  -1.5893  -1.5893  -1.2927  -1.2927  -1.2360  -1.2360
    -1.0296  -1.0296  -0.8982  -0.8982  -0.8319  -0.8319  -0.7221  -0.7221

     occupation numbers 
     1.0000   1.0000   1.0000   1.0000   1.0000   1.0000   1.0000   1.0000
     1.0000   1.0000   1.0000   1.0000   1.0000   1.0000   1.0000   1.0000
     1.0000   1.0000   1.0000   1.0000   1.0000   1.0000   1.0000   1.0000
     1.0000   1.0000   1.0000   1.0000   1.0000   1.0000   1.0000   1.0000
     1.0000   1.0000   1.0000   1.0000   1.0000   1.0000   1.0000   1.0000
     1.0000   1.0000   1.0000   1.0000   1.0000   1.0000   1.0000   1.0000
     1.0000   1.0000   1.0000   1.0000   1.0000   1.0000   1.0000   1.0000

          k = 0.4167 0.4167 0.4167 ( 43231 PWs)   bands (ev):

   -23.2599 -23.2599 -23.2599 -23.2599 -23.1350 -23.1350 -23.1350 -23.1350
   -22.2395 -22.2395 -22.2395 -22.2395 -22.1306 -22.1306 -22.1306 -22.1306
   -22.0797 -22.0797 -22.0797 -22.0797 -11.5663 -11.5663 -11.5607 -11.5607
   -11.4920 -11.4920 -11.4863 -11.4863  -7.0057  -7.0057  -6.9990  -6.9990
    -2.6451  -2.6451  -2.5228  -2.5228  -2.1156  -2.1156  -1.9821  -1.9821
    -1.8675  -1.8675  -1.6644  -1.6644  -1.3328  -1.3328  -1.2813  -1.2813
    -1.0936  -1.0936  -1.0114  -1.0114  -0.8103  -0.8103  -0.7956  -0.7956

     occupation numbers 
     1.0000   1.0000   1.0000   1.0000   1.0000   1.0000   1.0000   1.0000
     1.0000   1.0000   1.0000   1.0000   1.0000   1.0000   1.0000   1.0000
     1.0000   1.0000   1.0000   1.0000   1.0000   1.0000   1.0000   1.0000
     1.0000   1.0000   1.0000   1.0000   1.0000   1.0000   1.0000   1.0000
     1.0000   1.0000   1.0000   1.0000   1.0000   1.0000   1.0000   1.0000
     1.0000   1.0000   1.0000   1.0000   1.0000   1.0000   1.0000   1.0000
     1.0000   1.0000   1.0000   1.0000   1.0000   1.0000   1.0000   1.0000

          k = 0.0833 0.2500 0.0833 ( 43224 PWs)   bands (ev):

   -23.2599 -23.2599 -23.2599 -23.2599 -23.1350 -23.1350 -23.1349 -23.1349
   -22.2395 -22.2395 -22.2395 -22.2395 -22.1306 -22.1306 -22.1306 -22.1306
   -22.0797 -22.0797 -22.0797 -22.0797 -11.6046 -11.6046 -11.5294 -11.5294
   -11.4951 -11.4951 -11.4818 -11.4818  -7.0444  -7.0444  -6.8977  -6.8977
    -2.8073  -2.8073  -2.6438  -2.6438  -2.1561  -2.1561  -1.9717  -1.9717
    -1.8026  -1.8026  -1.5551  -1.5551  -1.2427  -1.2427  -1.1861  -1.1861
    -1.0388  -1.0388  -0.9561  -0.9561  -0.9016  -0.9016  -0.7150  -0.7150

     occupation numbers 
     1.0000   1.0000   1.0000   1.0000   1.0000   1.0000   1.0000   1.0000
     1.0000   1.0000   1.0000   1.0000   1.0000   1.0000   1.0000   1.0000
     1.0000   1.0000   1.0000   1.0000   1.0000   1.0000   1.0000   1.0000
     1.0000   1.0000   1.0000   1.0000   1.0000   1.0000   1.0000   1.0000
     1.0000   1.0000   1.0000   1.0000   1.0000   1.0000   1.0000   1.0000
     1.0000   1.0000   1.0000   1.0000   1.0000   1.0000   1.0000   1.0000
     1.0000   1.0000   1.0000   1.0000   1.0000   1.0000   1.0000   1.0000

          k = 0.0833 0.4167 0.0833 ( 43230 PWs)   bands (ev):

   -23.2599 -23.2599 -23.2599 -23.2599 -23.1350 -23.1350 -23.1350 -23.1350
   -22.2395 -22.2395 -22.2395 -22.2395 -22.1306 -22.1306 -22.1306 -22.1306
   -22.0797 -22.0797 -22.0797 -22.0797 -11.5757 -11.5757 -11.5442 -11.5442
   -11.5004 -11.5004 -11.4915 -11.4915  -6.9943  -6.9943  -6.9404  -6.9404
    -2.8601  -2.8601  -2.7931  -2.7931  -2.1008  -2.1008  -2.0130  -2.0130
    -1.7059  -1.7059  -1.6060  -1.6060  -1.2687  -1.2687  -1.2444  -1.2444
    -0.9970  -0.9970  -0.9484  -0.9484  -0.7243  -0.7243  -0.5962  -0.5962

     occupation numbers 
     1.0000   1.0000   1.0000   1.0000   1.0000   1.0000   1.0000   1.0000
     1.0000   1.0000   1.0000   1.0000   1.0000   1.0000   1.0000   1.0000
     1.0000   1.0000   1.0000   1.0000   1.0000   1.0000   1.0000   1.0000
     1.0000   1.0000   1.0000   1.0000   1.0000   1.0000   1.0000   1.0000
     1.0000   1.0000   1.0000   1.0000   1.0000   1.0000   1.0000   1.0000
     1.0000   1.0000   1.0000   1.0000   1.0000   1.0000   1.0000   1.0000
     1.0000   1.0000   1.0000   1.0000   1.0000   1.0000   1.0000   1.0000

          k = 0.2500 0.2500 0.0833 ( 43216 PWs)   bands (ev):

   -23.2599 -23.2599 -23.2599 -23.2599 -23.1350 -23.1350 -23.1350 -23.1350
   -22.2395 -22.2395 -22.2395 -22.2395 -22.1306 -22.1306 -22.1306 -22.1306
   -22.0797 -22.0797 -22.0797 -22.0797 -11.5936 -11.5936 -11.5340 -11.5340
   -11.5012 -11.5012 -11.4817 -11.4817  -7.0285  -7.0285  -6.9200  -6.9200
    -2.8596  -2.8596  -2.5521  -2.5521  -2.0855  -2.0855  -1.9804  -1.9804
    -1.8692  -1.8692  -1.5868  -1.5868  -1.2952  -1.2952  -1.2495  -1.2495
    -1.1217  -1.1217  -0.9327  -0.9327  -0.8978  -0.8978  -0.5977  -0.5977

     occupation numbers 
     1.0000   1.0000   1.0000   1.0000   1.0000   1.0000   1.0000   1.0000
     1.0000   1.0000   1.0000   1.0000   1.0000   1.0000   1.0000   1.0000
     1.0000   1.0000   1.0000   1.0000   1.0000   1.0000   1.0000   1.0000
     1.0000   1.0000   1.0000   1.0000   1.0000   1.0000   1.0000   1.0000
     1.0000   1.0000   1.0000   1.0000   1.0000   1.0000   1.0000   1.0000
     1.0000   1.0000   1.0000   1.0000   1.0000   1.0000   1.0000   1.0000
     1.0000   1.0000   1.0000   1.0000   1.0000   1.0000   1.0000   1.0000

          k = 0.2500 0.4167 0.0833 ( 43226 PWs)   bands (ev):

   -23.2599 -23.2599 -23.2599 -23.2599 -23.1350 -23.1350 -23.1350 -23.1350
   -22.2395 -22.2395 -22.2395 -22.2395 -22.1306 -22.1306 -22.1306 -22.1306
   -22.0797 -22.0797 -22.0797 -22.0797 -11.5743 -11.5743 -11.5516 -11.5516
   -11.4966 -11.4966 -11.4877 -11.4877  -6.9976  -6.9976  -6.9574  -6.9574
    -2.7904  -2.7904  -2.6399  -2.6399  -2.0654  -2.0654  -2.0073  -2.0073
    -1.7671  -1.7671  -1.6406  -1.6406  -1.3494  -1.3494  -1.3216  -1.3216
    -1.0338  -1.0338  -0.9322  -0.9322  -0.8578  -0.8578  -0.7081  -0.7081

     occupation numbers 
     1.0000   1.0000   1.0000   1.0000   1.0000   1.0000   1.0000   1.0000
     1.0000   1.0000   1.0000   1.0000   1.0000   1.0000   1.0000   1.0000
     1.0000   1.0000   1.0000   1.0000   1.0000   1.0000   1.0000   1.0000
     1.0000   1.0000   1.0000   1.0000   1.0000   1.0000   1.0000   1.0000
     1.0000   1.0000   1.0000   1.0000   1.0000   1.0000   1.0000   1.0000
     1.0000   1.0000   1.0000   1.0000   1.0000   1.0000   1.0000   1.0000
     1.0000   1.0000   1.0000   1.0000   1.0000   1.0000   1.0000   1.0000

          k = 0.4167 0.0833 0.2500 ( 43226 PWs)   bands (ev):

   -23.2599 -23.2599 -23.2599 -23.2599 -23.1350 -23.1350 -23.1350 -23.1350
   -22.2395 -22.2395 -22.2395 -22.2395 -22.1306 -22.1306 -22.1306 -22.1306
   -22.0797 -22.0797 -22.0797 -22.0797 -11.5685 -11.5685 -11.5428 -11.5428
   -11.5047 -11.5047 -11.4947 -11.4947  -6.9936  -6.9936  -6.9538  -6.9538
    -2.8834  -2.8834  -2.8106  -2.8106  -2.0486  -2.0486  -1.9605  -1.9605
    -1.7558  -1.7558  -1.5932  -1.5932  -1.2595  -1.2595  -1.2250  -1.2250
    -0.9985  -0.9985  -0.9269  -0.9269  -0.7250  -0.7250  -0.5887  -0.5887

     occupation numbers 
     1.0000   1.0000   1.0000   1.0000   1.0000   1.0000   1.0000   1.0000
     1.0000   1.0000   1.0000   1.0000   1.0000   1.0000   1.0000   1.0000
     1.0000   1.0000   1.0000   1.0000   1.0000   1.0000   1.0000   1.0000
     1.0000   1.0000   1.0000   1.0000   1.0000   1.0000   1.0000   1.0000
     1.0000   1.0000   1.0000   1.0000   1.0000   1.0000   1.0000   1.0000
     1.0000   1.0000   1.0000   1.0000   1.0000   1.0000   1.0000   1.0000
     1.0000   1.0000   1.0000   1.0000   1.0000   1.0000   1.0000   1.0000

          k = 0.4167 0.4167 0.0833 ( 43250 PWs)   bands (ev):

   -23.2599 -23.2599 -23.2599 -23.2599 -23.1350 -23.1350 -23.1350 -23.1350
   -22.2395 -22.2395 -22.2395 -22.2395 -22.1306 -22.1306 -22.1306 -22.1306
   -22.0797 -22.0797 -22.0797 -22.0797 -11.5697 -11.5697 -11.5616 -11.5616
   -11.4905 -11.4905 -11.4867 -11.4867  -6.9951  -6.9951  -6.9801  -6.9801
    -2.6353  -2.6353  -2.5418  -2.5418  -2.0230  -2.0230  -1.9608  -1.9608
    -1.8491  -1.8491  -1.7229  -1.7229  -1.4104  -1.4104  -1.4008  -1.4008
    -1.1216  -1.1216  -1.0271  -1.0271  -0.8403  -0.8403  -0.8162  -0.8162

     occupation numbers 
     1.0000   1.0000   1.0000   1.0000   1.0000   1.0000   1.0000   1.0000
     1.0000   1.0000   1.0000   1.0000   1.0000   1.0000   1.0000   1.0000
     1.0000   1.0000   1.0000   1.0000   1.0000   1.0000   1.0000   1.0000
     1.0000   1.0000   1.0000   1.0000   1.0000   1.0000   1.0000   1.0000
     1.0000   1.0000   1.0000   1.0000   1.0000   1.0000   1.0000   1.0000
     1.0000   1.0000   1.0000   1.0000   1.0000   1.0000   1.0000   1.0000
     1.0000   1.0000   1.0000   1.0000   1.0000   1.0000   1.0000   1.0000

          k = 0.2500 0.4167 0.2500 ( 43242 PWs)   bands (ev):

   -23.2599 -23.2599 -23.2599 -23.2599 -23.1350 -23.1350 -23.1350 -23.1350
   -22.2395 -22.2395 -22.2395 -22.2395 -22.1306 -22.1306 -22.1306 -22.1306
   -22.0797 -22.0797 -22.0797 -22.0797 -11.5699 -11.5699 -11.5508 -11.5508
   -11.4997 -11.4997 -11.4884 -11.4884  -6.9996  -6.9996  -6.9692  -6.9692
    -2.8090  -2.8090  -2.6441  -2.6441  -2.0663  -2.0663  -1.9620  -1.9620
    -1.8070  -1.8070  -1.6253  -1.6253  -1.3197  -1.3197  -1.2836  -1.2836
    -1.0276  -1.0276  -0.9159  -0.9159  -0.8458  -0.8458  -0.7137  -0.7137

     occupation numbers 
     1.0000   1.0000   1.0000   1.0000   1.0000   1.0000   1.0000   1.0000
     1.0000   1.0000   1.0000   1.0000   1.0000   1.0000   1.0000   1.0000
     1.0000   1.0000   1.0000   1.0000   1.0000   1.0000   1.0000   1.0000
     1.0000   1.0000   1.0000   1.0000   1.0000   1.0000   1.0000   1.0000
     1.0000   1.0000   1.0000   1.0000   1.0000   1.0000   1.0000   1.0000
     1.0000   1.0000   1.0000   1.0000   1.0000   1.0000   1.0000   1.0000
     1.0000   1.0000   1.0000   1.0000   1.0000   1.0000   1.0000   1.0000

          k = 0.4167 0.4167 0.2500 ( 43246 PWs)   bands (ev):

   -23.2599 -23.2599 -23.2599 -23.2599 -23.1350 -23.1350 -23.1350 -23.1350
   -22.2395 -22.2395 -22.2395 -22.2395 -22.1306 -22.1306 -22.1306 -22.1306
   -22.0797 -22.0797 -22.0797 -22.0797 -11.5681 -11.5681 -11.5611 -11.5611
   -11.4912 -11.4912 -11.4865 -11.4865  -7.0008  -7.0008  -6.9892  -6.9892
    -2.6408  -2.6408  -2.5319  -2.5319  -2.0699  -2.0699  -1.9626  -1.9626
    -1.8639  -1.8639  -1.7007  -1.7007  -1.3727  -1.3727  -1.3529  -1.3529
    -1.0986  -1.0986  -1.0088  -1.0088  -0.8261  -0.8261  -0.8094  -0.8094

     occupation numbers 
     1.0000   1.0000   1.0000   1.0000   1.0000   1.0000   1.0000   1.0000
     1.0000   1.0000   1.0000   1.0000   1.0000   1.0000   1.0000   1.0000
     1.0000   1.0000   1.0000   1.0000   1.0000   1.0000   1.0000   1.0000
     1.0000   1.0000   1.0000   1.0000   1.0000   1.0000   1.0000   1.0000
     1.0000   1.0000   1.0000   1.0000   1.0000   1.0000   1.0000   1.0000
     1.0000   1.0000   1.0000   1.0000   1.0000   1.0000   1.0000   1.0000
     1.0000   1.0000   1.0000   1.0000   1.0000   1.0000   1.0000   1.0000

     highest occupied level (ev):    -0.5753

!    total energy              =    -458.40905149 Ry
     estimated scf accuracy    <          2.0E-09 Ry

     The total energy is the sum of the following terms:
     one-electron contribution =    -256.48512845 Ry
     hartree contribution      =     145.40805923 Ry
     xc contribution           =    -157.08022194 Ry
     ewald contribution        =    -190.25176033 Ry

     convergence has been achieved in  12 iterations

     Forces acting on atoms (cartesian axes, Ry/au):

     atom    1 type  1   force =     0.00000000    0.00000000    0.00000000
     atom    2 type  1   force =     0.00000000    0.00000000    0.00000000
     atom    3 type  2   force =    -0.01801197   -0.01801197    0.00000000
     atom    4 type  2   force =     0.01801197    0.01801197    0.00000000
     atom    5 type  2   force =    -0.01801197    0.01801197   -0.00000000
     atom    6 type  2   force =     0.01801197   -0.01801197    0.00000000
     The non-local contrib.  to forces
     atom    1 type  1   force =     0.00000000    0.00000000    0.00000000
     atom    2 type  1   force =     0.00000000    0.00000000    0.00000000
     atom    3 type  2   force =    -0.04133509   -0.04133509   -0.00000000
     atom    4 type  2   force =     0.04133509    0.04133509   -0.00000000
     atom    5 type  2   force =    -0.04133509    0.04133509    0.00000000
     atom    6 type  2   force =     0.04133509   -0.04133509    0.00000000
     The ionic contribution  to forces
     atom    1 type  1   force =    -0.00000000   -0.00000000    0.00000000
     atom    2 type  1   force =    -0.00000000   -0.00000000    0.00000000
     atom    3 type  2   force =     1.38633658    1.38633658    0.00000000
     atom    4 type  2   force =    -1.38633658   -1.38633658   -0.00000000
     atom    5 type  2   force =     1.38633658   -1.38633658    0.00000000
     atom    6 type  2   force =    -1.38633658    1.38633658    0.00000000
     The local contribution  to forces
     atom    1 type  1   force =     0.00000000    0.00000000    0.00000000
     atom    2 type  1   force =     0.00000000    0.00000000    0.00000000
     atom    3 type  2   force =    -1.36693033   -1.36693033   -0.00000000
     atom    4 type  2   force =     1.36693033    1.36693033    0.00000000
     atom    5 type  2   force =    -1.36693033    1.36693033    0.00000000
     atom    6 type  2   force =     1.36693033   -1.36693033    0.00000000
     The core correction contribution to forces
     atom    1 type  1   force =     0.00000000    0.00000000    0.00000000
     atom    2 type  1   force =     0.00000000    0.00000000    0.00000000
     atom    3 type  2   force =     0.00390618    0.00390618    0.00000000
     atom    4 type  2   force =    -0.00390618   -0.00390618    0.00000000
     atom    5 type  2   force =     0.00390618   -0.00390618    0.00000000
     atom    6 type  2   force =    -0.00390618    0.00390618    0.00000000
     The Hubbard contrib.    to forces
     atom    1 type  1   force =     0.00000000    0.00000000    0.00000000
     atom    2 type  1   force =     0.00000000    0.00000000    0.00000000
     atom    3 type  2   force =     0.00000000    0.00000000    0.00000000
     atom    4 type  2   force =     0.00000000    0.00000000    0.00000000
     atom    5 type  2   force =     0.00000000    0.00000000    0.00000000
     atom    6 type  2   force =     0.00000000    0.00000000    0.00000000
     The SCF correction term to forces
     atom    1 type  1   force =    -0.00000000    0.00000000   -0.00000000
     atom    2 type  1   force =     0.00000000    0.00000000    0.00000000
     atom    3 type  2   force =     0.00001070    0.00001070    0.00000000
     atom    4 type  2   force =    -0.00001070   -0.00001070    0.00000000
     atom    5 type  2   force =     0.00001070   -0.00001070   -0.00000000
     atom    6 type  2   force =    -0.00001070    0.00001070   -0.00000000

     Total force =     0.050946     Total SCF correction =     0.000030


     Computing stress (Cartesian axis) and pressure

          total   stress  (Ry/bohr**3)                   (kbar)     P=      -27.22
  -0.00018742   0.00000000   0.00000000          -27.57        0.00        0.00
   0.00000000  -0.00018742   0.00000000            0.00      -27.57        0.00
   0.00000000   0.00000000  -0.00018021            0.00        0.00      -26.51

     kinetic stress (kbar)   4477.52      0.00      0.00
                                0.00   4477.52      0.00
                                0.00      0.00   4472.33

     local   stress (kbar)  -2714.56      0.00     -0.00
                                0.00  -2714.56      0.00
                               -0.00      0.00  -2198.88

     nonloc. stress (kbar)     70.17      0.00      0.00
                                0.00     70.17      0.00
                                0.00      0.00     54.95

     hartree stress (kbar)   2422.32      0.00     -0.00
                                0.00   2422.32     -0.00
                               -0.00     -0.00   2289.23

     exc-cor stress (kbar)   3792.40      0.00      0.00
                                0.00   3792.40      0.00
                                0.00      0.00   3791.40

     corecor stress (kbar)  -5084.42     -0.00      0.00
                               -0.00  -5084.42      0.00
                                0.00      0.00  -5083.57

     ewald   stress (kbar)  -2990.99      0.00     -0.00
                                0.00  -2990.99     -0.00
                               -0.00     -0.00  -3351.97

     hubbard stress (kbar)      0.00      0.00      0.00
                                0.00      0.00      0.00
                                0.00      0.00      0.00

     DFT-D   stress (kbar)      0.00      0.00      0.00
                                0.00      0.00      0.00
                                0.00      0.00      0.00

     XDM     stress (kbar)      0.00      0.00      0.00
                                0.00      0.00      0.00
                                0.00      0.00      0.00

     dft-nl  stress (kbar)      0.00      0.00      0.00
                                0.00      0.00      0.00
                                0.00      0.00      0.00

     TS-vdW  stress (kbar)      0.00      0.00      0.00
                                0.00      0.00      0.00
                                0.00      0.00      0.00



     Writing output data file ./SnI2.save/

     init_run     :     11.22s CPU      6.70s WALL (       1 calls)
     electrons    :    370.23s CPU    199.92s WALL (       1 calls)
     forces       :      4.58s CPU      3.25s WALL (       1 calls)
     stress       :     18.89s CPU      9.91s WALL (       1 calls)

     Called by init_run:
     wfcinit      :      9.04s CPU      5.04s WALL (       1 calls)
     wfcinit:atom :      0.08s CPU      0.04s WALL (      18 calls)
     wfcinit:wfcr :      8.60s CPU      4.69s WALL (      18 calls)
     potinit      :      0.39s CPU      0.25s WALL (       1 calls)
     hinit0       :      0.60s CPU      0.54s WALL (       1 calls)

     Called by electrons:
     c_bands      :    292.70s CPU    154.81s WALL (      12 calls)
     sum_band     :     63.71s CPU     35.93s WALL (      12 calls)
     v_of_rho     :      1.37s CPU      0.83s WALL (      13 calls)
     v_h          :      0.13s CPU      0.08s WALL (      13 calls)
     v_xc         :      1.38s CPU      0.82s WALL (      15 calls)
     newd         :     10.97s CPU      7.08s WALL (      13 calls)
     mix_rho      :      1.06s CPU      0.73s WALL (      12 calls)

     Called by c_bands:
     init_us_2    :      1.79s CPU      0.93s WALL (     486 calls)
     cegterg      :    278.35s CPU    147.03s WALL (     216 calls)

     Called by sum_band:
     sum_band:wei :      0.00s CPU      0.00s WALL (      12 calls)
     sum_band:loo :     53.62s CPU     28.27s WALL (      12 calls)
     sum_band:buf :      0.30s CPU      0.28s WALL (     216 calls)
     sum_band:ini :      0.60s CPU      0.31s WALL (     216 calls)
     sum_band:cal :      4.51s CPU      2.61s WALL (     216 calls)
     sum_band:bec :      6.13s CPU      3.11s WALL (     216 calls)
     addusdens    :      9.41s CPU      7.14s WALL (      12 calls)
     addusd:skk   :      0.02s CPU      0.01s WALL (      24 calls)
     addusd:dgemm :      3.36s CPU      4.08s WALL (      24 calls)
     addusd:qvan2 :      5.79s CPU      2.92s WALL (      24 calls)

     Called by *egterg:
     cdiaghg      :      9.22s CPU      4.94s WALL (    1302 calls)
     cegterg:over :     12.11s CPU      6.57s WALL (    1086 calls)
     cegterg:upda :      6.35s CPU      3.20s WALL (    1086 calls)
     cegterg:last :     10.51s CPU      5.36s WALL (     579 calls)
     h_psi        :    224.06s CPU    117.53s WALL (    1320 calls)
     s_psi        :     14.82s CPU      8.27s WALL (    1320 calls)
     g_psi        :      0.69s CPU      0.35s WALL (    1086 calls)

     Called by h_psi:
     h_psi:calbec :     15.85s CPU      9.36s WALL (    1320 calls)
     vloc_psi     :    194.47s CPU    100.63s WALL (    1320 calls)
     add_vuspsi   :     12.71s CPU      7.01s WALL (    1320 calls)

     General routines
     calbec       :     22.55s CPU     13.55s WALL (    1626 calls)
     fft          :      2.40s CPU      1.56s WALL (     303 calls)
     ffts         :      0.54s CPU      0.33s WALL (     100 calls)
     fftw         :    203.94s CPU    106.05s WALL (  179784 calls)
     interpolate  :      0.71s CPU      0.44s WALL (      52 calls)

     Parallel routines
     fft_scatt_xy :     14.94s CPU      7.60s WALL (  180187 calls)
     fft_scatt_yz :    136.74s CPU     72.21s WALL (  180187 calls)

     PWSCF        :   6m48.27s CPU   3m45.19s WALL


   This run was terminated on:  10:36:55  31Jan2021            

=------------------------------------------------------------------------------=
   JOB DONE.
=------------------------------------------------------------------------------=
