
     Program PWSCF v.6.7MaX starts on 31Jan2021 at 12:19:39 

     This program is part of the open-source Quantum ESPRESSO suite
     for quantum simulation of materials; please cite
         "P. Giannozzi et al., J. Phys.:Condens. Matter 21 395502 (2009);
         "P. Giannozzi et al., J. Phys.:Condens. Matter 29 465901 (2017);
          URL http://www.quantum-espresso.org", 
     in publications or presentations arising from this work. More details at
     http://www.quantum-espresso.org/quote

     Parallel version (MPI & OpenMP), running on      96 processor cores
     Number of MPI processes:                48
     Threads/MPI process:                     2

     MPI processes distributed on     2 nodes
     R & G space division:  proc/nbgrp/npool/nimage =      48
     Waiting for input...
     Reading input from standard input

     Current dimensions of program PWSCF are:
     Max number of different atomic species (ntypx) = 10
     Max number of k-points (npk) =  40000
     Max angular momentum in pseudopotentials (lmaxx) =  3

     Atomic positions and unit cell read from directory:
     ./SnI2.save/

     file Sn.rel-pbesol-dn-rrkjus_psl.1.0.0.UPF: wavefunction(s)  5S 4D 4D renormalized
     file I.rel-pbesol-n-rrkjus_psl.1.0.0.UPF: wavefunction(s)  5S renormalized

     Subspace diagonalization in iterative solution of the eigenvalue problem:
     a serial algorithm will be used


     Parallelization info
     --------------------
     sticks:   dense  smooth     PW     G-vecs:    dense   smooth      PW
     Min         120      96     26                 6900     4938     694
     Max         121      97     28                 6907     4943     698
     Sum        5761    4637   1257               331237   237129   33401


     Title: 
     SnI2                                                                       


     bravais-lattice index     =            1
     lattice parameter (alat)  =      14.4199  a.u.
     unit-cell volume          =    2998.4083 (a.u.)^3
     number of atoms/cell      =            6
     number of atomic types    =            2
     number of electrons       =        56.00
     number of Kohn-Sham states=           64
     kinetic-energy cutoff     =      70.0000  Ry
     charge density cutoff     =     350.0000  Ry
     Exchange-correlation= PBESOL
                           (   1   4  10   8   0   0   0)
     Non magnetic calculation with spin-orbit


     celldm(1)=  14.419944  celldm(2)=   0.000000  celldm(3)=   0.000000
     celldm(4)=   0.000000  celldm(5)=   0.000000  celldm(6)=   0.000000

     crystal axes: (cart. coord. in units of alat)
               a(1) = (   1.000000   0.000000   0.000000 )  
               a(2) = (   0.000000   1.000000   0.000000 )  
               a(3) = (   0.000000   0.000000   1.000000 )  

     reciprocal axes: (cart. coord. in units 2 pi/alat)
               b(1) = (  1.000000  0.000000  0.000000 )  
               b(2) = (  0.000000  1.000000  0.000000 )  
               b(3) = (  0.000000  0.000000  1.000000 )  


     PseudoPot. # 1 for Sn read from file:
     /scratch/cmalosso/degironcoli/pseudo/pseudo-usp/Sn.rel-pbesol-dn-rrkjus_psl.1.0.0.UPF
     MD5 check sum: c1cf6ea56b96a3656bdf0d1db379e093
     Pseudo is Ultrasoft + core correction, Zval = 14.0
     Generated using &quot;atomic&quot; code by A. Dal Corso  v.6.3
     Using radial grid of 1243 points, 10 beta functions with: 
                l(1) =   0
                l(2) =   0
                l(3) =   1
                l(4) =   1
                l(5) =   1
                l(6) =   1
                l(7) =   2
                l(8) =   2
                l(9) =   2
               l(10) =   2
     Q(r) pseudized with 0 coefficients 


     PseudoPot. # 2 for I  read from file:
     /scratch/cmalosso/degironcoli/pseudo/pseudo-usp/I.rel-pbesol-n-rrkjus_psl.1.0.0.UPF
     MD5 check sum: 0f96c6bfb1b448f280658f96eb466b08
     Pseudo is Ultrasoft + core correction, Zval =  7.0
     Generated using &quot;atomic&quot; code by A. Dal Corso  v.6.3
     Using radial grid of 1247 points, 10 beta functions with: 
                l(1) =   0
                l(2) =   0
                l(3) =   1
                l(4) =   1
                l(5) =   1
                l(6) =   1
                l(7) =   2
                l(8) =   2
                l(9) =   2
               l(10) =   2
     Q(r) pseudized with 0 coefficients 


     atomic species   valence    mass     pseudopotential
        Sn            14.00   118.70000     Sn( 1.00)
        I              7.00   126.90000     I ( 1.00)

     16 Sym. Ops., with inversion, found ( 8 have fractional translation)


                                    s                        frac. trans.

      isym =  1     identity                                     

 cryst.   s( 1) = (     1          0          0      )
                  (     0          1          0      )
                  (     0          0          1      )

 cart.    s( 1) = (  1.0000000  0.0000000  0.0000000 )
                  (  0.0000000  1.0000000  0.0000000 )
                  (  0.0000000  0.0000000  1.0000000 )


      isym =  2     180 deg rotation - cart. axis [0,0,1]        

 cryst.   s( 2) = (    -1          0          0      )
                  (     0         -1          0      )
                  (     0          0          1      )

 cart.    s( 2) = ( -1.0000000  0.0000000  0.0000000 )
                  (  0.0000000 -1.0000000  0.0000000 )
                  (  0.0000000  0.0000000  1.0000000 )


      isym =  3     180 deg rotation - cart. axis [0,1,0]        

 cryst.   s( 3) = (    -1          0          0      )    f =(  0.5000000 )
                  (     0          1          0      )       ( -0.5000000 )
                  (     0          0         -1      )       (  0.5000000 )

 cart.    s( 3) = ( -1.0000000  0.0000000  0.0000000 )    f =(  0.5000000 )
                  (  0.0000000  1.0000000  0.0000000 )       ( -0.5000000 )
                  (  0.0000000  0.0000000 -1.0000000 )       (  0.5000000 )


      isym =  4     180 deg rotation - cart. axis [1,0,0]        

 cryst.   s( 4) = (     1          0          0      )    f =( -0.5000000 )
                  (     0         -1          0      )       (  0.5000000 )
                  (     0          0         -1      )       (  0.5000000 )

 cart.    s( 4) = (  1.0000000  0.0000000  0.0000000 )    f =( -0.5000000 )
                  (  0.0000000 -1.0000000  0.0000000 )       (  0.5000000 )
                  (  0.0000000  0.0000000 -1.0000000 )       (  0.5000000 )


      isym =  5     180 deg rotation - cart. axis [1,1,0]        

 cryst.   s( 5) = (     0          1          0      )
                  (     1          0          0      )
                  (     0          0         -1      )

 cart.    s( 5) = (  0.0000000  1.0000000  0.0000000 )
                  (  1.0000000  0.0000000  0.0000000 )
                  (  0.0000000  0.0000000 -1.0000000 )


      isym =  6     180 deg rotation - cart. axis [1,-1,0]       

 cryst.   s( 6) = (     0         -1          0      )
                  (    -1          0          0      )
                  (     0          0         -1      )

 cart.    s( 6) = (  0.0000000 -1.0000000  0.0000000 )
                  ( -1.0000000  0.0000000  0.0000000 )
                  (  0.0000000  0.0000000 -1.0000000 )


      isym =  7      90 deg rotation - cart. axis [0,0,-1]       

 cryst.   s( 7) = (     0         -1          0      )    f =( -0.5000000 )
                  (     1          0          0      )       (  0.5000000 )
                  (     0          0          1      )       ( -0.5000000 )

 cart.    s( 7) = (  0.0000000  1.0000000  0.0000000 )    f =( -0.5000000 )
                  ( -1.0000000  0.0000000  0.0000000 )       (  0.5000000 )
                  (  0.0000000  0.0000000  1.0000000 )       ( -0.5000000 )


      isym =  8      90 deg rotation - cart. axis [0,0,1]        

 cryst.   s( 8) = (     0          1          0      )    f =(  0.5000000 )
                  (    -1          0          0      )       ( -0.5000000 )
                  (     0          0          1      )       ( -0.5000000 )

 cart.    s( 8) = (  0.0000000 -1.0000000  0.0000000 )    f =(  0.5000000 )
                  (  1.0000000  0.0000000  0.0000000 )       ( -0.5000000 )
                  (  0.0000000  0.0000000  1.0000000 )       ( -0.5000000 )


      isym =  9     inversion                                    

 cryst.   s( 9) = (    -1          0          0      )
                  (     0         -1          0      )
                  (     0          0         -1      )

 cart.    s( 9) = ( -1.0000000  0.0000000  0.0000000 )
                  (  0.0000000 -1.0000000  0.0000000 )
                  (  0.0000000  0.0000000 -1.0000000 )


      isym = 10     inv. 180 deg rotation - cart. axis [0,0,1]   

 cryst.   s(10) = (     1          0          0      )
                  (     0          1          0      )
                  (     0          0         -1      )

 cart.    s(10) = (  1.0000000  0.0000000  0.0000000 )
                  (  0.0000000  1.0000000  0.0000000 )
                  (  0.0000000  0.0000000 -1.0000000 )


      isym = 11     inv. 180 deg rotation - cart. axis [0,1,0]   

 cryst.   s(11) = (     1          0          0      )    f =( -0.5000000 )
                  (     0         -1          0      )       (  0.5000000 )
                  (     0          0          1      )       ( -0.5000000 )

 cart.    s(11) = (  1.0000000  0.0000000  0.0000000 )    f =( -0.5000000 )
                  (  0.0000000 -1.0000000  0.0000000 )       (  0.5000000 )
                  (  0.0000000  0.0000000  1.0000000 )       ( -0.5000000 )


      isym = 12     inv. 180 deg rotation - cart. axis [1,0,0]   

 cryst.   s(12) = (    -1          0          0      )    f =(  0.5000000 )
                  (     0          1          0      )       ( -0.5000000 )
                  (     0          0          1      )       ( -0.5000000 )

 cart.    s(12) = ( -1.0000000  0.0000000  0.0000000 )    f =(  0.5000000 )
                  (  0.0000000  1.0000000  0.0000000 )       ( -0.5000000 )
                  (  0.0000000  0.0000000  1.0000000 )       ( -0.5000000 )


      isym = 13     inv. 180 deg rotation - cart. axis [1,1,0]   

 cryst.   s(13) = (     0         -1          0      )
                  (    -1          0          0      )
                  (     0          0          1      )

 cart.    s(13) = (  0.0000000 -1.0000000  0.0000000 )
                  ( -1.0000000  0.0000000  0.0000000 )
                  (  0.0000000  0.0000000  1.0000000 )


      isym = 14     inv. 180 deg rotation - cart. axis [1,-1,0]  

 cryst.   s(14) = (     0          1          0      )
                  (     1          0          0      )
                  (     0          0          1      )

 cart.    s(14) = (  0.0000000  1.0000000  0.0000000 )
                  (  1.0000000  0.0000000  0.0000000 )
                  (  0.0000000  0.0000000  1.0000000 )


      isym = 15     inv.  90 deg rotation - cart. axis [0,0,-1]  

 cryst.   s(15) = (     0          1          0      )    f =(  0.5000000 )
                  (    -1          0          0      )       ( -0.5000000 )
                  (     0          0         -1      )       (  0.5000000 )

 cart.    s(15) = (  0.0000000 -1.0000000  0.0000000 )    f =(  0.5000000 )
                  (  1.0000000  0.0000000  0.0000000 )       ( -0.5000000 )
                  (  0.0000000  0.0000000 -1.0000000 )       (  0.5000000 )


      isym = 16     inv.  90 deg rotation - cart. axis [0,0,1]   

 cryst.   s(16) = (     0         -1          0      )    f =( -0.5000000 )
                  (     1          0          0      )       (  0.5000000 )
                  (     0          0         -1      )       (  0.5000000 )

 cart.    s(16) = (  0.0000000  1.0000000  0.0000000 )    f =( -0.5000000 )
                  ( -1.0000000  0.0000000  0.0000000 )       (  0.5000000 )
                  (  0.0000000  0.0000000 -1.0000000 )       (  0.5000000 )


     double point group D_4h(4/mmm)
     there are 14 classes and  4 irreducible representations
     the character table:

       E     -E    2C4   -2C4   C2    2C2' 2C2'' i     -i    2S4   -2S4   s_h 
                               -C2   -2C2' -2C2'                         -s_h 
G_6+   2.00 -2.00  1.41 -1.41  0.00  0.00  0.00  2.00 -2.00  1.41 -1.41  0.00
G_7+   2.00 -2.00 -1.41  1.41  0.00  0.00  0.00  2.00 -2.00 -1.41  1.41  0.00
G_6-   2.00 -2.00  1.41 -1.41  0.00  0.00  0.00 -2.00  2.00 -1.41  1.41  0.00
G_7-   2.00 -2.00 -1.41  1.41  0.00  0.00  0.00 -2.00  2.00  1.41 -1.41  0.00

        2s_v  2s_d
       -2s_v -2s_d
G_6+   0.00  0.00
G_7+   0.00  0.00
G_6-   0.00  0.00
G_7-   0.00  0.00

     the symmetry operations in each class and the name of the first element:

     E             1
          identity                                               
     -E           -1
          identity E                                             
     2C4           7    8
           90 deg rotation - cart. axis [0,0,-1]                 
     -2C4         -7   -8
           90 deg rotation - cart. axis [0,0,-1] E               
      C2  -C2      2   -2
          180 deg rotation - cart. axis [0,0,1]                  
      2C2'-2C2'    3   -3    4   -4
          180 deg rotation - cart. axis [0,1,0]                  
     2C2''-2C2'    5   -5   -6    6
          180 deg rotation - cart. axis [1,1,0]                  
     i             9
          inversion                                              
     -i           -9
          inversion E                                            
     2S4          15   16
          inv.  90 deg rotation - cart. axis [0,0,-1]            
     -2S4        -15  -16
          inv.  90 deg rotation - cart. axis [0,0,-1] E          
      s_h -s_h    10  -10
          inv. 180 deg rotation - cart. axis [0,0,1]             
      2s_v-2s_v   11  -11   12  -12
          inv. 180 deg rotation - cart. axis [0,1,0]             
      2s_d-2s_d   13  -13  -14   14
          inv. 180 deg rotation - cart. axis [1,1,0]             

   Cartesian axes

     site n.     atom                  positions (alat units)
         1           Sn  tau(   1) = (   0.0000000   0.0000000   0.0000000  )
         2           Sn  tau(   2) = (   0.5000000   0.5000000   0.5000000  )
         3           I   tau(   3) = (   0.2985210   0.2985210   0.0000000  )
         4           I   tau(   4) = (   0.7014790   0.7014790   0.0000000  )
         5           I   tau(   5) = (   0.7985210   0.2014790   0.5000000  )
         6           I   tau(   6) = (   0.2014790   0.7985210   0.5000000  )

   Crystallographic axes

     site n.     atom                  positions (cryst. coord.)
         1           Sn  tau(   1) = (  0.0000000  0.0000000  0.0000000  )
         2           Sn  tau(   2) = (  0.5000000  0.5000000  0.5000000  )
         3           I   tau(   3) = (  0.2985210  0.2985210  0.0000000  )
         4           I   tau(   4) = (  0.7014790  0.7014790  0.0000000  )
         5           I   tau(   5) = (  0.7985210  0.2014790  0.5000000  )
         6           I   tau(   6) = (  0.2014790  0.7985210  0.5000000  )

     number of k points=   288
                       cart. coord. in units 2pi/alat
        k(    1) = (   0.0312500   0.0312500   0.0312500), wk =   0.0019531
        k(    2) = (   0.0312500   0.0312500   0.0937500), wk =   0.0019531
        k(    3) = (   0.0312500   0.0312500   0.1562500), wk =   0.0019531
        k(    4) = (   0.0312500   0.0312500   0.2187500), wk =   0.0019531
        k(    5) = (   0.0312500   0.0312500   0.2812500), wk =   0.0019531
        k(    6) = (   0.0312500   0.0312500   0.3437500), wk =   0.0019531
        k(    7) = (   0.0312500   0.0312500   0.4062500), wk =   0.0019531
        k(    8) = (   0.0312500   0.0312500   0.4687500), wk =   0.0019531
        k(    9) = (   0.0312500   0.0937500   0.0937500), wk =   0.0039062
        k(   10) = (   0.0312500   0.0937500   0.1562500), wk =   0.0039062
        k(   11) = (   0.0312500   0.0937500   0.2187500), wk =   0.0039062
        k(   12) = (   0.0312500   0.0937500   0.2812500), wk =   0.0039062
        k(   13) = (   0.0312500   0.0937500   0.3437500), wk =   0.0039062
        k(   14) = (   0.0312500   0.0937500   0.4062500), wk =   0.0039062
        k(   15) = (   0.0312500   0.0937500   0.4687500), wk =   0.0039062
        k(   16) = (   0.0312500   0.1562500   0.1562500), wk =   0.0039062
        k(   17) = (   0.0312500   0.1562500   0.2187500), wk =   0.0039062
        k(   18) = (   0.0312500   0.1562500   0.2812500), wk =   0.0039062
        k(   19) = (   0.0312500   0.1562500   0.3437500), wk =   0.0039062
        k(   20) = (   0.0312500   0.1562500   0.4062500), wk =   0.0039062
        k(   21) = (   0.0312500   0.1562500   0.4687500), wk =   0.0039062
        k(   22) = (   0.0312500   0.2187500   0.2187500), wk =   0.0039062
        k(   23) = (   0.0312500   0.2187500   0.2812500), wk =   0.0039062
        k(   24) = (   0.0312500   0.2187500   0.3437500), wk =   0.0039062
        k(   25) = (   0.0312500   0.2187500   0.4062500), wk =   0.0039062
        k(   26) = (   0.0312500   0.2187500   0.4687500), wk =   0.0039062
        k(   27) = (   0.0312500   0.2812500   0.2812500), wk =   0.0039062
        k(   28) = (   0.0312500   0.2812500   0.3437500), wk =   0.0039062
        k(   29) = (   0.0312500   0.2812500   0.4062500), wk =   0.0039062
        k(   30) = (   0.0312500   0.2812500   0.4687500), wk =   0.0039062
        k(   31) = (   0.0312500   0.3437500   0.3437500), wk =   0.0039062
        k(   32) = (   0.0312500   0.3437500   0.4062500), wk =   0.0039062
        k(   33) = (   0.0312500   0.3437500   0.4687500), wk =   0.0039062
        k(   34) = (   0.0312500   0.4062500   0.4062500), wk =   0.0039062
        k(   35) = (   0.0312500   0.4062500   0.4687500), wk =   0.0039062
        k(   36) = (   0.0312500   0.4687500   0.4687500), wk =   0.0039062
        k(   37) = (   0.0937500   0.0937500   0.0937500), wk =   0.0019531
        k(   38) = (   0.0937500   0.0937500   0.1562500), wk =   0.0019531
        k(   39) = (   0.0937500   0.0937500   0.2187500), wk =   0.0019531
        k(   40) = (   0.0937500   0.0937500   0.2812500), wk =   0.0019531
        k(   41) = (   0.0937500   0.0937500   0.3437500), wk =   0.0019531
        k(   42) = (   0.0937500   0.0937500   0.4062500), wk =   0.0019531
        k(   43) = (   0.0937500   0.0937500   0.4687500), wk =   0.0019531
        k(   44) = (   0.0937500   0.1562500   0.1562500), wk =   0.0039062
        k(   45) = (   0.0937500   0.1562500   0.2187500), wk =   0.0039062
        k(   46) = (   0.0937500   0.1562500   0.2812500), wk =   0.0039062
        k(   47) = (   0.0937500   0.1562500   0.3437500), wk =   0.0039062
        k(   48) = (   0.0937500   0.1562500   0.4062500), wk =   0.0039062
        k(   49) = (   0.0937500   0.1562500   0.4687500), wk =   0.0039062
        k(   50) = (   0.0937500   0.2187500   0.2187500), wk =   0.0039062
        k(   51) = (   0.0937500   0.2187500   0.2812500), wk =   0.0039062
        k(   52) = (   0.0937500   0.2187500   0.3437500), wk =   0.0039062
        k(   53) = (   0.0937500   0.2187500   0.4062500), wk =   0.0039062
        k(   54) = (   0.0937500   0.2187500   0.4687500), wk =   0.0039062
        k(   55) = (   0.0937500   0.2812500   0.2812500), wk =   0.0039062
        k(   56) = (   0.0937500   0.2812500   0.3437500), wk =   0.0039062
        k(   57) = (   0.0937500   0.2812500   0.4062500), wk =   0.0039062
        k(   58) = (   0.0937500   0.2812500   0.4687500), wk =   0.0039062
        k(   59) = (   0.0937500   0.3437500   0.3437500), wk =   0.0039062
        k(   60) = (   0.0937500   0.3437500   0.4062500), wk =   0.0039062
        k(   61) = (   0.0937500   0.3437500   0.4687500), wk =   0.0039062
        k(   62) = (   0.0937500   0.4062500   0.4062500), wk =   0.0039062
        k(   63) = (   0.0937500   0.4062500   0.4687500), wk =   0.0039062
        k(   64) = (   0.0937500   0.4687500   0.4687500), wk =   0.0039062
        k(   65) = (   0.1562500   0.1562500   0.1562500), wk =   0.0019531
        k(   66) = (   0.1562500   0.1562500   0.2187500), wk =   0.0019531
        k(   67) = (   0.1562500   0.1562500   0.2812500), wk =   0.0019531
        k(   68) = (   0.1562500   0.1562500   0.3437500), wk =   0.0019531
        k(   69) = (   0.1562500   0.1562500   0.4062500), wk =   0.0019531
        k(   70) = (   0.1562500   0.1562500   0.4687500), wk =   0.0019531
        k(   71) = (   0.1562500   0.2187500   0.2187500), wk =   0.0039062
        k(   72) = (   0.1562500   0.2187500   0.2812500), wk =   0.0039062
        k(   73) = (   0.1562500   0.2187500   0.3437500), wk =   0.0039062
        k(   74) = (   0.1562500   0.2187500   0.4062500), wk =   0.0039062
        k(   75) = (   0.1562500   0.2187500   0.4687500), wk =   0.0039062
        k(   76) = (   0.1562500   0.2812500   0.2812500), wk =   0.0039062
        k(   77) = (   0.1562500   0.2812500   0.3437500), wk =   0.0039062
        k(   78) = (   0.1562500   0.2812500   0.4062500), wk =   0.0039062
        k(   79) = (   0.1562500   0.2812500   0.4687500), wk =   0.0039062
        k(   80) = (   0.1562500   0.3437500   0.3437500), wk =   0.0039062
        k(   81) = (   0.1562500   0.3437500   0.4062500), wk =   0.0039062
        k(   82) = (   0.1562500   0.3437500   0.4687500), wk =   0.0039062
        k(   83) = (   0.1562500   0.4062500   0.4062500), wk =   0.0039062
        k(   84) = (   0.1562500   0.4062500   0.4687500), wk =   0.0039062
        k(   85) = (   0.1562500   0.4687500   0.4687500), wk =   0.0039062
        k(   86) = (   0.2187500   0.2187500   0.2187500), wk =   0.0019531
        k(   87) = (   0.2187500   0.2187500   0.2812500), wk =   0.0019531
        k(   88) = (   0.2187500   0.2187500   0.3437500), wk =   0.0019531
        k(   89) = (   0.2187500   0.2187500   0.4062500), wk =   0.0019531
        k(   90) = (   0.2187500   0.2187500   0.4687500), wk =   0.0019531
        k(   91) = (   0.2187500   0.2812500   0.2812500), wk =   0.0039062
        k(   92) = (   0.2187500   0.2812500   0.3437500), wk =   0.0039062
        k(   93) = (   0.2187500   0.2812500   0.4062500), wk =   0.0039062
        k(   94) = (   0.2187500   0.2812500   0.4687500), wk =   0.0039062
        k(   95) = (   0.2187500   0.3437500   0.3437500), wk =   0.0039062
        k(   96) = (   0.2187500   0.3437500   0.4062500), wk =   0.0039062
        k(   97) = (   0.2187500   0.3437500   0.4687500), wk =   0.0039062
        k(   98) = (   0.2187500   0.4062500   0.4062500), wk =   0.0039062
        k(   99) = (   0.2187500   0.4062500   0.4687500), wk =   0.0039062
        k(  100) = (   0.2187500   0.4687500   0.4687500), wk =   0.0039062
        k(  101) = (   0.2812500   0.2812500   0.2812500), wk =   0.0019531
        k(  102) = (   0.2812500   0.2812500   0.3437500), wk =   0.0019531
        k(  103) = (   0.2812500   0.2812500   0.4062500), wk =   0.0019531
        k(  104) = (   0.2812500   0.2812500   0.4687500), wk =   0.0019531
        k(  105) = (   0.2812500   0.3437500   0.3437500), wk =   0.0039062
        k(  106) = (   0.2812500   0.3437500   0.4062500), wk =   0.0039062
        k(  107) = (   0.2812500   0.3437500   0.4687500), wk =   0.0039062
        k(  108) = (   0.2812500   0.4062500   0.4062500), wk =   0.0039062
        k(  109) = (   0.2812500   0.4062500   0.4687500), wk =   0.0039062
        k(  110) = (   0.2812500   0.4687500   0.4687500), wk =   0.0039062
        k(  111) = (   0.3437500   0.3437500   0.3437500), wk =   0.0019531
        k(  112) = (   0.3437500   0.3437500   0.4062500), wk =   0.0019531
        k(  113) = (   0.3437500   0.3437500   0.4687500), wk =   0.0019531
        k(  114) = (   0.3437500   0.4062500   0.4062500), wk =   0.0039062
        k(  115) = (   0.3437500   0.4062500   0.4687500), wk =   0.0039062
        k(  116) = (   0.3437500   0.4687500   0.4687500), wk =   0.0039062
        k(  117) = (   0.4062500   0.4062500   0.4062500), wk =   0.0019531
        k(  118) = (   0.4062500   0.4062500   0.4687500), wk =   0.0019531
        k(  119) = (   0.4062500   0.4687500   0.4687500), wk =   0.0039062
        k(  120) = (   0.4687500   0.4687500   0.4687500), wk =   0.0019531
        k(  121) = (   0.0312500   0.0937500   0.0312500), wk =   0.0039062
        k(  122) = (   0.0312500   0.1562500   0.0312500), wk =   0.0039062
        k(  123) = (   0.0312500   0.2187500   0.0312500), wk =   0.0039062
        k(  124) = (   0.0312500   0.2812500   0.0312500), wk =   0.0039062
        k(  125) = (   0.0312500   0.3437500   0.0312500), wk =   0.0039062
        k(  126) = (   0.0312500   0.4062500   0.0312500), wk =   0.0039062
        k(  127) = (   0.0312500   0.4687500   0.0312500), wk =   0.0039062
        k(  128) = (   0.0937500   0.0937500   0.0312500), wk =   0.0019531
        k(  129) = (   0.0937500   0.1562500   0.0312500), wk =   0.0039062
        k(  130) = (   0.1562500   0.0312500   0.0937500), wk =   0.0039062
        k(  131) = (   0.0937500   0.2187500   0.0312500), wk =   0.0039062
        k(  132) = (   0.2187500   0.0312500   0.0937500), wk =   0.0039062
        k(  133) = (   0.0937500   0.2812500   0.0312500), wk =   0.0039062
        k(  134) = (   0.2812500   0.0312500   0.0937500), wk =   0.0039062
        k(  135) = (   0.0937500   0.3437500   0.0312500), wk =   0.0039062
        k(  136) = (   0.3437500   0.0312500   0.0937500), wk =   0.0039062
        k(  137) = (   0.0937500   0.4062500   0.0312500), wk =   0.0039062
        k(  138) = (   0.4062500   0.0312500   0.0937500), wk =   0.0039062
        k(  139) = (   0.0937500   0.4687500   0.0312500), wk =   0.0039062
        k(  140) = (   0.4687500   0.0312500   0.0937500), wk =   0.0039062
        k(  141) = (   0.1562500   0.1562500   0.0312500), wk =   0.0019531
        k(  142) = (   0.1562500   0.2187500   0.0312500), wk =   0.0039062
        k(  143) = (   0.2187500   0.0312500   0.1562500), wk =   0.0039062
        k(  144) = (   0.1562500   0.2812500   0.0312500), wk =   0.0039062
        k(  145) = (   0.2812500   0.0312500   0.1562500), wk =   0.0039062
        k(  146) = (   0.1562500   0.3437500   0.0312500), wk =   0.0039062
        k(  147) = (   0.3437500   0.0312500   0.1562500), wk =   0.0039062
        k(  148) = (   0.1562500   0.4062500   0.0312500), wk =   0.0039062
        k(  149) = (   0.4062500   0.0312500   0.1562500), wk =   0.0039062
        k(  150) = (   0.1562500   0.4687500   0.0312500), wk =   0.0039062
        k(  151) = (   0.4687500   0.0312500   0.1562500), wk =   0.0039062
        k(  152) = (   0.2187500   0.2187500   0.0312500), wk =   0.0019531
        k(  153) = (   0.2187500   0.2812500   0.0312500), wk =   0.0039062
        k(  154) = (   0.2812500   0.0312500   0.2187500), wk =   0.0039062
        k(  155) = (   0.2187500   0.3437500   0.0312500), wk =   0.0039062
        k(  156) = (   0.3437500   0.0312500   0.2187500), wk =   0.0039062
        k(  157) = (   0.2187500   0.4062500   0.0312500), wk =   0.0039062
        k(  158) = (   0.4062500   0.0312500   0.2187500), wk =   0.0039062
        k(  159) = (   0.2187500   0.4687500   0.0312500), wk =   0.0039062
        k(  160) = (   0.4687500   0.0312500   0.2187500), wk =   0.0039062
        k(  161) = (   0.2812500   0.2812500   0.0312500), wk =   0.0019531
        k(  162) = (   0.2812500   0.3437500   0.0312500), wk =   0.0039062
        k(  163) = (   0.3437500   0.0312500   0.2812500), wk =   0.0039062
        k(  164) = (   0.2812500   0.4062500   0.0312500), wk =   0.0039062
        k(  165) = (   0.4062500   0.0312500   0.2812500), wk =   0.0039062
        k(  166) = (   0.2812500   0.4687500   0.0312500), wk =   0.0039062
        k(  167) = (   0.4687500   0.0312500   0.2812500), wk =   0.0039062
        k(  168) = (   0.3437500   0.3437500   0.0312500), wk =   0.0019531
        k(  169) = (   0.3437500   0.4062500   0.0312500), wk =   0.0039062
        k(  170) = (   0.4062500   0.0312500   0.3437500), wk =   0.0039062
        k(  171) = (   0.3437500   0.4687500   0.0312500), wk =   0.0039062
        k(  172) = (   0.4687500   0.0312500   0.3437500), wk =   0.0039062
        k(  173) = (   0.4062500   0.4062500   0.0312500), wk =   0.0019531
        k(  174) = (   0.4062500   0.4687500   0.0312500), wk =   0.0039062
        k(  175) = (   0.4687500   0.0312500   0.4062500), wk =   0.0039062
        k(  176) = (   0.4687500   0.4687500   0.0312500), wk =   0.0019531
        k(  177) = (   0.0937500   0.1562500   0.0937500), wk =   0.0039062
        k(  178) = (   0.0937500   0.2187500   0.0937500), wk =   0.0039062
        k(  179) = (   0.0937500   0.2812500   0.0937500), wk =   0.0039062
        k(  180) = (   0.0937500   0.3437500   0.0937500), wk =   0.0039062
        k(  181) = (   0.0937500   0.4062500   0.0937500), wk =   0.0039062
        k(  182) = (   0.0937500   0.4687500   0.0937500), wk =   0.0039062
        k(  183) = (   0.1562500   0.1562500   0.0937500), wk =   0.0019531
        k(  184) = (   0.1562500   0.2187500   0.0937500), wk =   0.0039062
        k(  185) = (   0.2187500   0.0937500   0.1562500), wk =   0.0039062
        k(  186) = (   0.1562500   0.2812500   0.0937500), wk =   0.0039062
        k(  187) = (   0.2812500   0.0937500   0.1562500), wk =   0.0039062
        k(  188) = (   0.1562500   0.3437500   0.0937500), wk =   0.0039062
        k(  189) = (   0.3437500   0.0937500   0.1562500), wk =   0.0039062
        k(  190) = (   0.1562500   0.4062500   0.0937500), wk =   0.0039062
        k(  191) = (   0.4062500   0.0937500   0.1562500), wk =   0.0039062
        k(  192) = (   0.1562500   0.4687500   0.0937500), wk =   0.0039062
        k(  193) = (   0.4687500   0.0937500   0.1562500), wk =   0.0039062
        k(  194) = (   0.2187500   0.2187500   0.0937500), wk =   0.0019531
        k(  195) = (   0.2187500   0.2812500   0.0937500), wk =   0.0039062
        k(  196) = (   0.2812500   0.0937500   0.2187500), wk =   0.0039062
        k(  197) = (   0.2187500   0.3437500   0.0937500), wk =   0.0039062
        k(  198) = (   0.3437500   0.0937500   0.2187500), wk =   0.0039062
        k(  199) = (   0.2187500   0.4062500   0.0937500), wk =   0.0039062
        k(  200) = (   0.4062500   0.0937500   0.2187500), wk =   0.0039062
        k(  201) = (   0.2187500   0.4687500   0.0937500), wk =   0.0039062
        k(  202) = (   0.4687500   0.0937500   0.2187500), wk =   0.0039062
        k(  203) = (   0.2812500   0.2812500   0.0937500), wk =   0.0019531
        k(  204) = (   0.2812500   0.3437500   0.0937500), wk =   0.0039062
        k(  205) = (   0.3437500   0.0937500   0.2812500), wk =   0.0039062
        k(  206) = (   0.2812500   0.4062500   0.0937500), wk =   0.0039062
        k(  207) = (   0.4062500   0.0937500   0.2812500), wk =   0.0039062
        k(  208) = (   0.2812500   0.4687500   0.0937500), wk =   0.0039062
        k(  209) = (   0.4687500   0.0937500   0.2812500), wk =   0.0039062
        k(  210) = (   0.3437500   0.3437500   0.0937500), wk =   0.0019531
        k(  211) = (   0.3437500   0.4062500   0.0937500), wk =   0.0039062
        k(  212) = (   0.4062500   0.0937500   0.3437500), wk =   0.0039062
        k(  213) = (   0.3437500   0.4687500   0.0937500), wk =   0.0039062
        k(  214) = (   0.4687500   0.0937500   0.3437500), wk =   0.0039062
        k(  215) = (   0.4062500   0.4062500   0.0937500), wk =   0.0019531
        k(  216) = (   0.4062500   0.4687500   0.0937500), wk =   0.0039062
        k(  217) = (   0.4687500   0.0937500   0.4062500), wk =   0.0039062
        k(  218) = (   0.4687500   0.4687500   0.0937500), wk =   0.0019531
        k(  219) = (   0.1562500   0.2187500   0.1562500), wk =   0.0039062
        k(  220) = (   0.1562500   0.2812500   0.1562500), wk =   0.0039062
        k(  221) = (   0.1562500   0.3437500   0.1562500), wk =   0.0039062
        k(  222) = (   0.1562500   0.4062500   0.1562500), wk =   0.0039062
        k(  223) = (   0.1562500   0.4687500   0.1562500), wk =   0.0039062
        k(  224) = (   0.2187500   0.2187500   0.1562500), wk =   0.0019531
        k(  225) = (   0.2187500   0.2812500   0.1562500), wk =   0.0039062
        k(  226) = (   0.2812500   0.1562500   0.2187500), wk =   0.0039062
        k(  227) = (   0.2187500   0.3437500   0.1562500), wk =   0.0039062
        k(  228) = (   0.3437500   0.1562500   0.2187500), wk =   0.0039062
        k(  229) = (   0.2187500   0.4062500   0.1562500), wk =   0.0039062
        k(  230) = (   0.4062500   0.1562500   0.2187500), wk =   0.0039062
        k(  231) = (   0.2187500   0.4687500   0.1562500), wk =   0.0039062
        k(  232) = (   0.4687500   0.1562500   0.2187500), wk =   0.0039062
        k(  233) = (   0.2812500   0.2812500   0.1562500), wk =   0.0019531
        k(  234) = (   0.2812500   0.3437500   0.1562500), wk =   0.0039062
        k(  235) = (   0.3437500   0.1562500   0.2812500), wk =   0.0039062
        k(  236) = (   0.2812500   0.4062500   0.1562500), wk =   0.0039062
        k(  237) = (   0.4062500   0.1562500   0.2812500), wk =   0.0039062
        k(  238) = (   0.2812500   0.4687500   0.1562500), wk =   0.0039062
        k(  239) = (   0.4687500   0.1562500   0.2812500), wk =   0.0039062
        k(  240) = (   0.3437500   0.3437500   0.1562500), wk =   0.0019531
        k(  241) = (   0.3437500   0.4062500   0.1562500), wk =   0.0039062
        k(  242) = (   0.4062500   0.1562500   0.3437500), wk =   0.0039062
        k(  243) = (   0.3437500   0.4687500   0.1562500), wk =   0.0039062
        k(  244) = (   0.4687500   0.1562500   0.3437500), wk =   0.0039062
        k(  245) = (   0.4062500   0.4062500   0.1562500), wk =   0.0019531
        k(  246) = (   0.4062500   0.4687500   0.1562500), wk =   0.0039062
        k(  247) = (   0.4687500   0.1562500   0.4062500), wk =   0.0039062
        k(  248) = (   0.4687500   0.4687500   0.1562500), wk =   0.0019531
        k(  249) = (   0.2187500   0.2812500   0.2187500), wk =   0.0039062
        k(  250) = (   0.2187500   0.3437500   0.2187500), wk =   0.0039062
        k(  251) = (   0.2187500   0.4062500   0.2187500), wk =   0.0039062
        k(  252) = (   0.2187500   0.4687500   0.2187500), wk =   0.0039062
        k(  253) = (   0.2812500   0.2812500   0.2187500), wk =   0.0019531
        k(  254) = (   0.2812500   0.3437500   0.2187500), wk =   0.0039062
        k(  255) = (   0.3437500   0.2187500   0.2812500), wk =   0.0039062
        k(  256) = (   0.2812500   0.4062500   0.2187500), wk =   0.0039062
        k(  257) = (   0.4062500   0.2187500   0.2812500), wk =   0.0039062
        k(  258) = (   0.2812500   0.4687500   0.2187500), wk =   0.0039062
        k(  259) = (   0.4687500   0.2187500   0.2812500), wk =   0.0039062
        k(  260) = (   0.3437500   0.3437500   0.2187500), wk =   0.0019531
        k(  261) = (   0.3437500   0.4062500   0.2187500), wk =   0.0039062
        k(  262) = (   0.4062500   0.2187500   0.3437500), wk =   0.0039062
        k(  263) = (   0.3437500   0.4687500   0.2187500), wk =   0.0039062
        k(  264) = (   0.4687500   0.2187500   0.3437500), wk =   0.0039062
        k(  265) = (   0.4062500   0.4062500   0.2187500), wk =   0.0019531
        k(  266) = (   0.4062500   0.4687500   0.2187500), wk =   0.0039062
        k(  267) = (   0.4687500   0.2187500   0.4062500), wk =   0.0039062
        k(  268) = (   0.4687500   0.4687500   0.2187500), wk =   0.0019531
        k(  269) = (   0.2812500   0.3437500   0.2812500), wk =   0.0039062
        k(  270) = (   0.2812500   0.4062500   0.2812500), wk =   0.0039062
        k(  271) = (   0.2812500   0.4687500   0.2812500), wk =   0.0039062
        k(  272) = (   0.3437500   0.3437500   0.2812500), wk =   0.0019531
        k(  273) = (   0.3437500   0.4062500   0.2812500), wk =   0.0039062
        k(  274) = (   0.4062500   0.2812500   0.3437500), wk =   0.0039062
        k(  275) = (   0.3437500   0.4687500   0.2812500), wk =   0.0039062
        k(  276) = (   0.4687500   0.2812500   0.3437500), wk =   0.0039062
        k(  277) = (   0.4062500   0.4062500   0.2812500), wk =   0.0019531
        k(  278) = (   0.4062500   0.4687500   0.2812500), wk =   0.0039062
        k(  279) = (   0.4687500   0.2812500   0.4062500), wk =   0.0039062
        k(  280) = (   0.4687500   0.4687500   0.2812500), wk =   0.0019531
        k(  281) = (   0.3437500   0.4062500   0.3437500), wk =   0.0039062
        k(  282) = (   0.3437500   0.4687500   0.3437500), wk =   0.0039062
        k(  283) = (   0.4062500   0.4062500   0.3437500), wk =   0.0019531
        k(  284) = (   0.4062500   0.4687500   0.3437500), wk =   0.0039062
        k(  285) = (   0.4687500   0.3437500   0.4062500), wk =   0.0039062
        k(  286) = (   0.4687500   0.4687500   0.3437500), wk =   0.0019531
        k(  287) = (   0.4062500   0.4687500   0.4062500), wk =   0.0039062
        k(  288) = (   0.4687500   0.4687500   0.4062500), wk =   0.0019531

                       cryst. coord.
        k(    1) = (   0.0312500   0.0312500   0.0312500), wk =   0.0019531
        k(    2) = (   0.0312500   0.0312500   0.0937500), wk =   0.0019531
        k(    3) = (   0.0312500   0.0312500   0.1562500), wk =   0.0019531
        k(    4) = (   0.0312500   0.0312500   0.2187500), wk =   0.0019531
        k(    5) = (   0.0312500   0.0312500   0.2812500), wk =   0.0019531
        k(    6) = (   0.0312500   0.0312500   0.3437500), wk =   0.0019531
        k(    7) = (   0.0312500   0.0312500   0.4062500), wk =   0.0019531
        k(    8) = (   0.0312500   0.0312500   0.4687500), wk =   0.0019531
        k(    9) = (   0.0312500   0.0937500   0.0937500), wk =   0.0039062
        k(   10) = (   0.0312500   0.0937500   0.1562500), wk =   0.0039062
        k(   11) = (   0.0312500   0.0937500   0.2187500), wk =   0.0039062
        k(   12) = (   0.0312500   0.0937500   0.2812500), wk =   0.0039062
        k(   13) = (   0.0312500   0.0937500   0.3437500), wk =   0.0039062
        k(   14) = (   0.0312500   0.0937500   0.4062500), wk =   0.0039062
        k(   15) = (   0.0312500   0.0937500   0.4687500), wk =   0.0039062
        k(   16) = (   0.0312500   0.1562500   0.1562500), wk =   0.0039062
        k(   17) = (   0.0312500   0.1562500   0.2187500), wk =   0.0039062
        k(   18) = (   0.0312500   0.1562500   0.2812500), wk =   0.0039062
        k(   19) = (   0.0312500   0.1562500   0.3437500), wk =   0.0039062
        k(   20) = (   0.0312500   0.1562500   0.4062500), wk =   0.0039062
        k(   21) = (   0.0312500   0.1562500   0.4687500), wk =   0.0039062
        k(   22) = (   0.0312500   0.2187500   0.2187500), wk =   0.0039062
        k(   23) = (   0.0312500   0.2187500   0.2812500), wk =   0.0039062
        k(   24) = (   0.0312500   0.2187500   0.3437500), wk =   0.0039062
        k(   25) = (   0.0312500   0.2187500   0.4062500), wk =   0.0039062
        k(   26) = (   0.0312500   0.2187500   0.4687500), wk =   0.0039062
        k(   27) = (   0.0312500   0.2812500   0.2812500), wk =   0.0039062
        k(   28) = (   0.0312500   0.2812500   0.3437500), wk =   0.0039062
        k(   29) = (   0.0312500   0.2812500   0.4062500), wk =   0.0039062
        k(   30) = (   0.0312500   0.2812500   0.4687500), wk =   0.0039062
        k(   31) = (   0.0312500   0.3437500   0.3437500), wk =   0.0039062
        k(   32) = (   0.0312500   0.3437500   0.4062500), wk =   0.0039062
        k(   33) = (   0.0312500   0.3437500   0.4687500), wk =   0.0039062
        k(   34) = (   0.0312500   0.4062500   0.4062500), wk =   0.0039062
        k(   35) = (   0.0312500   0.4062500   0.4687500), wk =   0.0039062
        k(   36) = (   0.0312500   0.4687500   0.4687500), wk =   0.0039062
        k(   37) = (   0.0937500   0.0937500   0.0937500), wk =   0.0019531
        k(   38) = (   0.0937500   0.0937500   0.1562500), wk =   0.0019531
        k(   39) = (   0.0937500   0.0937500   0.2187500), wk =   0.0019531
        k(   40) = (   0.0937500   0.0937500   0.2812500), wk =   0.0019531
        k(   41) = (   0.0937500   0.0937500   0.3437500), wk =   0.0019531
        k(   42) = (   0.0937500   0.0937500   0.4062500), wk =   0.0019531
        k(   43) = (   0.0937500   0.0937500   0.4687500), wk =   0.0019531
        k(   44) = (   0.0937500   0.1562500   0.1562500), wk =   0.0039062
        k(   45) = (   0.0937500   0.1562500   0.2187500), wk =   0.0039062
        k(   46) = (   0.0937500   0.1562500   0.2812500), wk =   0.0039062
        k(   47) = (   0.0937500   0.1562500   0.3437500), wk =   0.0039062
        k(   48) = (   0.0937500   0.1562500   0.4062500), wk =   0.0039062
        k(   49) = (   0.0937500   0.1562500   0.4687500), wk =   0.0039062
        k(   50) = (   0.0937500   0.2187500   0.2187500), wk =   0.0039062
        k(   51) = (   0.0937500   0.2187500   0.2812500), wk =   0.0039062
        k(   52) = (   0.0937500   0.2187500   0.3437500), wk =   0.0039062
        k(   53) = (   0.0937500   0.2187500   0.4062500), wk =   0.0039062
        k(   54) = (   0.0937500   0.2187500   0.4687500), wk =   0.0039062
        k(   55) = (   0.0937500   0.2812500   0.2812500), wk =   0.0039062
        k(   56) = (   0.0937500   0.2812500   0.3437500), wk =   0.0039062
        k(   57) = (   0.0937500   0.2812500   0.4062500), wk =   0.0039062
        k(   58) = (   0.0937500   0.2812500   0.4687500), wk =   0.0039062
        k(   59) = (   0.0937500   0.3437500   0.3437500), wk =   0.0039062
        k(   60) = (   0.0937500   0.3437500   0.4062500), wk =   0.0039062
        k(   61) = (   0.0937500   0.3437500   0.4687500), wk =   0.0039062
        k(   62) = (   0.0937500   0.4062500   0.4062500), wk =   0.0039062
        k(   63) = (   0.0937500   0.4062500   0.4687500), wk =   0.0039062
        k(   64) = (   0.0937500   0.4687500   0.4687500), wk =   0.0039062
        k(   65) = (   0.1562500   0.1562500   0.1562500), wk =   0.0019531
        k(   66) = (   0.1562500   0.1562500   0.2187500), wk =   0.0019531
        k(   67) = (   0.1562500   0.1562500   0.2812500), wk =   0.0019531
        k(   68) = (   0.1562500   0.1562500   0.3437500), wk =   0.0019531
        k(   69) = (   0.1562500   0.1562500   0.4062500), wk =   0.0019531
        k(   70) = (   0.1562500   0.1562500   0.4687500), wk =   0.0019531
        k(   71) = (   0.1562500   0.2187500   0.2187500), wk =   0.0039062
        k(   72) = (   0.1562500   0.2187500   0.2812500), wk =   0.0039062
        k(   73) = (   0.1562500   0.2187500   0.3437500), wk =   0.0039062
        k(   74) = (   0.1562500   0.2187500   0.4062500), wk =   0.0039062
        k(   75) = (   0.1562500   0.2187500   0.4687500), wk =   0.0039062
        k(   76) = (   0.1562500   0.2812500   0.2812500), wk =   0.0039062
        k(   77) = (   0.1562500   0.2812500   0.3437500), wk =   0.0039062
        k(   78) = (   0.1562500   0.2812500   0.4062500), wk =   0.0039062
        k(   79) = (   0.1562500   0.2812500   0.4687500), wk =   0.0039062
        k(   80) = (   0.1562500   0.3437500   0.3437500), wk =   0.0039062
        k(   81) = (   0.1562500   0.3437500   0.4062500), wk =   0.0039062
        k(   82) = (   0.1562500   0.3437500   0.4687500), wk =   0.0039062
        k(   83) = (   0.1562500   0.4062500   0.4062500), wk =   0.0039062
        k(   84) = (   0.1562500   0.4062500   0.4687500), wk =   0.0039062
        k(   85) = (   0.1562500   0.4687500   0.4687500), wk =   0.0039062
        k(   86) = (   0.2187500   0.2187500   0.2187500), wk =   0.0019531
        k(   87) = (   0.2187500   0.2187500   0.2812500), wk =   0.0019531
        k(   88) = (   0.2187500   0.2187500   0.3437500), wk =   0.0019531
        k(   89) = (   0.2187500   0.2187500   0.4062500), wk =   0.0019531
        k(   90) = (   0.2187500   0.2187500   0.4687500), wk =   0.0019531
        k(   91) = (   0.2187500   0.2812500   0.2812500), wk =   0.0039062
        k(   92) = (   0.2187500   0.2812500   0.3437500), wk =   0.0039062
        k(   93) = (   0.2187500   0.2812500   0.4062500), wk =   0.0039062
        k(   94) = (   0.2187500   0.2812500   0.4687500), wk =   0.0039062
        k(   95) = (   0.2187500   0.3437500   0.3437500), wk =   0.0039062
        k(   96) = (   0.2187500   0.3437500   0.4062500), wk =   0.0039062
        k(   97) = (   0.2187500   0.3437500   0.4687500), wk =   0.0039062
        k(   98) = (   0.2187500   0.4062500   0.4062500), wk =   0.0039062
        k(   99) = (   0.2187500   0.4062500   0.4687500), wk =   0.0039062
        k(  100) = (   0.2187500   0.4687500   0.4687500), wk =   0.0039062
        k(  101) = (   0.2812500   0.2812500   0.2812500), wk =   0.0019531
        k(  102) = (   0.2812500   0.2812500   0.3437500), wk =   0.0019531
        k(  103) = (   0.2812500   0.2812500   0.4062500), wk =   0.0019531
        k(  104) = (   0.2812500   0.2812500   0.4687500), wk =   0.0019531
        k(  105) = (   0.2812500   0.3437500   0.3437500), wk =   0.0039062
        k(  106) = (   0.2812500   0.3437500   0.4062500), wk =   0.0039062
        k(  107) = (   0.2812500   0.3437500   0.4687500), wk =   0.0039062
        k(  108) = (   0.2812500   0.4062500   0.4062500), wk =   0.0039062
        k(  109) = (   0.2812500   0.4062500   0.4687500), wk =   0.0039062
        k(  110) = (   0.2812500   0.4687500   0.4687500), wk =   0.0039062
        k(  111) = (   0.3437500   0.3437500   0.3437500), wk =   0.0019531
        k(  112) = (   0.3437500   0.3437500   0.4062500), wk =   0.0019531
        k(  113) = (   0.3437500   0.3437500   0.4687500), wk =   0.0019531
        k(  114) = (   0.3437500   0.4062500   0.4062500), wk =   0.0039062
        k(  115) = (   0.3437500   0.4062500   0.4687500), wk =   0.0039062
        k(  116) = (   0.3437500   0.4687500   0.4687500), wk =   0.0039062
        k(  117) = (   0.4062500   0.4062500   0.4062500), wk =   0.0019531
        k(  118) = (   0.4062500   0.4062500   0.4687500), wk =   0.0019531
        k(  119) = (   0.4062500   0.4687500   0.4687500), wk =   0.0039062
        k(  120) = (   0.4687500   0.4687500   0.4687500), wk =   0.0019531
        k(  121) = (   0.0312500   0.0937500   0.0312500), wk =   0.0039062
        k(  122) = (   0.0312500   0.1562500   0.0312500), wk =   0.0039062
        k(  123) = (   0.0312500   0.2187500   0.0312500), wk =   0.0039062
        k(  124) = (   0.0312500   0.2812500   0.0312500), wk =   0.0039062
        k(  125) = (   0.0312500   0.3437500   0.0312500), wk =   0.0039062
        k(  126) = (   0.0312500   0.4062500   0.0312500), wk =   0.0039062
        k(  127) = (   0.0312500   0.4687500   0.0312500), wk =   0.0039062
        k(  128) = (   0.0937500   0.0937500   0.0312500), wk =   0.0019531
        k(  129) = (   0.0937500   0.1562500   0.0312500), wk =   0.0039062
        k(  130) = (   0.1562500   0.0312500   0.0937500), wk =   0.0039062
        k(  131) = (   0.0937500   0.2187500   0.0312500), wk =   0.0039062
        k(  132) = (   0.2187500   0.0312500   0.0937500), wk =   0.0039062
        k(  133) = (   0.0937500   0.2812500   0.0312500), wk =   0.0039062
        k(  134) = (   0.2812500   0.0312500   0.0937500), wk =   0.0039062
        k(  135) = (   0.0937500   0.3437500   0.0312500), wk =   0.0039062
        k(  136) = (   0.3437500   0.0312500   0.0937500), wk =   0.0039062
        k(  137) = (   0.0937500   0.4062500   0.0312500), wk =   0.0039062
        k(  138) = (   0.4062500   0.0312500   0.0937500), wk =   0.0039062
        k(  139) = (   0.0937500   0.4687500   0.0312500), wk =   0.0039062
        k(  140) = (   0.4687500   0.0312500   0.0937500), wk =   0.0039062
        k(  141) = (   0.1562500   0.1562500   0.0312500), wk =   0.0019531
        k(  142) = (   0.1562500   0.2187500   0.0312500), wk =   0.0039062
        k(  143) = (   0.2187500   0.0312500   0.1562500), wk =   0.0039062
        k(  144) = (   0.1562500   0.2812500   0.0312500), wk =   0.0039062
        k(  145) = (   0.2812500   0.0312500   0.1562500), wk =   0.0039062
        k(  146) = (   0.1562500   0.3437500   0.0312500), wk =   0.0039062
        k(  147) = (   0.3437500   0.0312500   0.1562500), wk =   0.0039062
        k(  148) = (   0.1562500   0.4062500   0.0312500), wk =   0.0039062
        k(  149) = (   0.4062500   0.0312500   0.1562500), wk =   0.0039062
        k(  150) = (   0.1562500   0.4687500   0.0312500), wk =   0.0039062
        k(  151) = (   0.4687500   0.0312500   0.1562500), wk =   0.0039062
        k(  152) = (   0.2187500   0.2187500   0.0312500), wk =   0.0019531
        k(  153) = (   0.2187500   0.2812500   0.0312500), wk =   0.0039062
        k(  154) = (   0.2812500   0.0312500   0.2187500), wk =   0.0039062
        k(  155) = (   0.2187500   0.3437500   0.0312500), wk =   0.0039062
        k(  156) = (   0.3437500   0.0312500   0.2187500), wk =   0.0039062
        k(  157) = (   0.2187500   0.4062500   0.0312500), wk =   0.0039062
        k(  158) = (   0.4062500   0.0312500   0.2187500), wk =   0.0039062
        k(  159) = (   0.2187500   0.4687500   0.0312500), wk =   0.0039062
        k(  160) = (   0.4687500   0.0312500   0.2187500), wk =   0.0039062
        k(  161) = (   0.2812500   0.2812500   0.0312500), wk =   0.0019531
        k(  162) = (   0.2812500   0.3437500   0.0312500), wk =   0.0039062
        k(  163) = (   0.3437500   0.0312500   0.2812500), wk =   0.0039062
        k(  164) = (   0.2812500   0.4062500   0.0312500), wk =   0.0039062
        k(  165) = (   0.4062500   0.0312500   0.2812500), wk =   0.0039062
        k(  166) = (   0.2812500   0.4687500   0.0312500), wk =   0.0039062
        k(  167) = (   0.4687500   0.0312500   0.2812500), wk =   0.0039062
        k(  168) = (   0.3437500   0.3437500   0.0312500), wk =   0.0019531
        k(  169) = (   0.3437500   0.4062500   0.0312500), wk =   0.0039062
        k(  170) = (   0.4062500   0.0312500   0.3437500), wk =   0.0039062
        k(  171) = (   0.3437500   0.4687500   0.0312500), wk =   0.0039062
        k(  172) = (   0.4687500   0.0312500   0.3437500), wk =   0.0039062
        k(  173) = (   0.4062500   0.4062500   0.0312500), wk =   0.0019531
        k(  174) = (   0.4062500   0.4687500   0.0312500), wk =   0.0039062
        k(  175) = (   0.4687500   0.0312500   0.4062500), wk =   0.0039062
        k(  176) = (   0.4687500   0.4687500   0.0312500), wk =   0.0019531
        k(  177) = (   0.0937500   0.1562500   0.0937500), wk =   0.0039062
        k(  178) = (   0.0937500   0.2187500   0.0937500), wk =   0.0039062
        k(  179) = (   0.0937500   0.2812500   0.0937500), wk =   0.0039062
        k(  180) = (   0.0937500   0.3437500   0.0937500), wk =   0.0039062
        k(  181) = (   0.0937500   0.4062500   0.0937500), wk =   0.0039062
        k(  182) = (   0.0937500   0.4687500   0.0937500), wk =   0.0039062
        k(  183) = (   0.1562500   0.1562500   0.0937500), wk =   0.0019531
        k(  184) = (   0.1562500   0.2187500   0.0937500), wk =   0.0039062
        k(  185) = (   0.2187500   0.0937500   0.1562500), wk =   0.0039062
        k(  186) = (   0.1562500   0.2812500   0.0937500), wk =   0.0039062
        k(  187) = (   0.2812500   0.0937500   0.1562500), wk =   0.0039062
        k(  188) = (   0.1562500   0.3437500   0.0937500), wk =   0.0039062
        k(  189) = (   0.3437500   0.0937500   0.1562500), wk =   0.0039062
        k(  190) = (   0.1562500   0.4062500   0.0937500), wk =   0.0039062
        k(  191) = (   0.4062500   0.0937500   0.1562500), wk =   0.0039062
        k(  192) = (   0.1562500   0.4687500   0.0937500), wk =   0.0039062
        k(  193) = (   0.4687500   0.0937500   0.1562500), wk =   0.0039062
        k(  194) = (   0.2187500   0.2187500   0.0937500), wk =   0.0019531
        k(  195) = (   0.2187500   0.2812500   0.0937500), wk =   0.0039062
        k(  196) = (   0.2812500   0.0937500   0.2187500), wk =   0.0039062
        k(  197) = (   0.2187500   0.3437500   0.0937500), wk =   0.0039062
        k(  198) = (   0.3437500   0.0937500   0.2187500), wk =   0.0039062
        k(  199) = (   0.2187500   0.4062500   0.0937500), wk =   0.0039062
        k(  200) = (   0.4062500   0.0937500   0.2187500), wk =   0.0039062
        k(  201) = (   0.2187500   0.4687500   0.0937500), wk =   0.0039062
        k(  202) = (   0.4687500   0.0937500   0.2187500), wk =   0.0039062
        k(  203) = (   0.2812500   0.2812500   0.0937500), wk =   0.0019531
        k(  204) = (   0.2812500   0.3437500   0.0937500), wk =   0.0039062
        k(  205) = (   0.3437500   0.0937500   0.2812500), wk =   0.0039062
        k(  206) = (   0.2812500   0.4062500   0.0937500), wk =   0.0039062
        k(  207) = (   0.4062500   0.0937500   0.2812500), wk =   0.0039062
        k(  208) = (   0.2812500   0.4687500   0.0937500), wk =   0.0039062
        k(  209) = (   0.4687500   0.0937500   0.2812500), wk =   0.0039062
        k(  210) = (   0.3437500   0.3437500   0.0937500), wk =   0.0019531
        k(  211) = (   0.3437500   0.4062500   0.0937500), wk =   0.0039062
        k(  212) = (   0.4062500   0.0937500   0.3437500), wk =   0.0039062
        k(  213) = (   0.3437500   0.4687500   0.0937500), wk =   0.0039062
        k(  214) = (   0.4687500   0.0937500   0.3437500), wk =   0.0039062
        k(  215) = (   0.4062500   0.4062500   0.0937500), wk =   0.0019531
        k(  216) = (   0.4062500   0.4687500   0.0937500), wk =   0.0039062
        k(  217) = (   0.4687500   0.0937500   0.4062500), wk =   0.0039062
        k(  218) = (   0.4687500   0.4687500   0.0937500), wk =   0.0019531
        k(  219) = (   0.1562500   0.2187500   0.1562500), wk =   0.0039062
        k(  220) = (   0.1562500   0.2812500   0.1562500), wk =   0.0039062
        k(  221) = (   0.1562500   0.3437500   0.1562500), wk =   0.0039062
        k(  222) = (   0.1562500   0.4062500   0.1562500), wk =   0.0039062
        k(  223) = (   0.1562500   0.4687500   0.1562500), wk =   0.0039062
        k(  224) = (   0.2187500   0.2187500   0.1562500), wk =   0.0019531
        k(  225) = (   0.2187500   0.2812500   0.1562500), wk =   0.0039062
        k(  226) = (   0.2812500   0.1562500   0.2187500), wk =   0.0039062
        k(  227) = (   0.2187500   0.3437500   0.1562500), wk =   0.0039062
        k(  228) = (   0.3437500   0.1562500   0.2187500), wk =   0.0039062
        k(  229) = (   0.2187500   0.4062500   0.1562500), wk =   0.0039062
        k(  230) = (   0.4062500   0.1562500   0.2187500), wk =   0.0039062
        k(  231) = (   0.2187500   0.4687500   0.1562500), wk =   0.0039062
        k(  232) = (   0.4687500   0.1562500   0.2187500), wk =   0.0039062
        k(  233) = (   0.2812500   0.2812500   0.1562500), wk =   0.0019531
        k(  234) = (   0.2812500   0.3437500   0.1562500), wk =   0.0039062
        k(  235) = (   0.3437500   0.1562500   0.2812500), wk =   0.0039062
        k(  236) = (   0.2812500   0.4062500   0.1562500), wk =   0.0039062
        k(  237) = (   0.4062500   0.1562500   0.2812500), wk =   0.0039062
        k(  238) = (   0.2812500   0.4687500   0.1562500), wk =   0.0039062
        k(  239) = (   0.4687500   0.1562500   0.2812500), wk =   0.0039062
        k(  240) = (   0.3437500   0.3437500   0.1562500), wk =   0.0019531
        k(  241) = (   0.3437500   0.4062500   0.1562500), wk =   0.0039062
        k(  242) = (   0.4062500   0.1562500   0.3437500), wk =   0.0039062
        k(  243) = (   0.3437500   0.4687500   0.1562500), wk =   0.0039062
        k(  244) = (   0.4687500   0.1562500   0.3437500), wk =   0.0039062
        k(  245) = (   0.4062500   0.4062500   0.1562500), wk =   0.0019531
        k(  246) = (   0.4062500   0.4687500   0.1562500), wk =   0.0039062
        k(  247) = (   0.4687500   0.1562500   0.4062500), wk =   0.0039062
        k(  248) = (   0.4687500   0.4687500   0.1562500), wk =   0.0019531
        k(  249) = (   0.2187500   0.2812500   0.2187500), wk =   0.0039062
        k(  250) = (   0.2187500   0.3437500   0.2187500), wk =   0.0039062
        k(  251) = (   0.2187500   0.4062500   0.2187500), wk =   0.0039062
        k(  252) = (   0.2187500   0.4687500   0.2187500), wk =   0.0039062
        k(  253) = (   0.2812500   0.2812500   0.2187500), wk =   0.0019531
        k(  254) = (   0.2812500   0.3437500   0.2187500), wk =   0.0039062
        k(  255) = (   0.3437500   0.2187500   0.2812500), wk =   0.0039062
        k(  256) = (   0.2812500   0.4062500   0.2187500), wk =   0.0039062
        k(  257) = (   0.4062500   0.2187500   0.2812500), wk =   0.0039062
        k(  258) = (   0.2812500   0.4687500   0.2187500), wk =   0.0039062
        k(  259) = (   0.4687500   0.2187500   0.2812500), wk =   0.0039062
        k(  260) = (   0.3437500   0.3437500   0.2187500), wk =   0.0019531
        k(  261) = (   0.3437500   0.4062500   0.2187500), wk =   0.0039062
        k(  262) = (   0.4062500   0.2187500   0.3437500), wk =   0.0039062
        k(  263) = (   0.3437500   0.4687500   0.2187500), wk =   0.0039062
        k(  264) = (   0.4687500   0.2187500   0.3437500), wk =   0.0039062
        k(  265) = (   0.4062500   0.4062500   0.2187500), wk =   0.0019531
        k(  266) = (   0.4062500   0.4687500   0.2187500), wk =   0.0039062
        k(  267) = (   0.4687500   0.2187500   0.4062500), wk =   0.0039062
        k(  268) = (   0.4687500   0.4687500   0.2187500), wk =   0.0019531
        k(  269) = (   0.2812500   0.3437500   0.2812500), wk =   0.0039062
        k(  270) = (   0.2812500   0.4062500   0.2812500), wk =   0.0039062
        k(  271) = (   0.2812500   0.4687500   0.2812500), wk =   0.0039062
        k(  272) = (   0.3437500   0.3437500   0.2812500), wk =   0.0019531
        k(  273) = (   0.3437500   0.4062500   0.2812500), wk =   0.0039062
        k(  274) = (   0.4062500   0.2812500   0.3437500), wk =   0.0039062
        k(  275) = (   0.3437500   0.4687500   0.2812500), wk =   0.0039062
        k(  276) = (   0.4687500   0.2812500   0.3437500), wk =   0.0039062
        k(  277) = (   0.4062500   0.4062500   0.2812500), wk =   0.0019531
        k(  278) = (   0.4062500   0.4687500   0.2812500), wk =   0.0039062
        k(  279) = (   0.4687500   0.2812500   0.4062500), wk =   0.0039062
        k(  280) = (   0.4687500   0.4687500   0.2812500), wk =   0.0019531
        k(  281) = (   0.3437500   0.4062500   0.3437500), wk =   0.0039062
        k(  282) = (   0.3437500   0.4687500   0.3437500), wk =   0.0039062
        k(  283) = (   0.4062500   0.4062500   0.3437500), wk =   0.0019531
        k(  284) = (   0.4062500   0.4687500   0.3437500), wk =   0.0039062
        k(  285) = (   0.4687500   0.3437500   0.4062500), wk =   0.0039062
        k(  286) = (   0.4687500   0.4687500   0.3437500), wk =   0.0019531
        k(  287) = (   0.4062500   0.4687500   0.4062500), wk =   0.0039062
        k(  288) = (   0.4687500   0.4687500   0.4062500), wk =   0.0019531

     Dense  grid:   331237 G-vectors     FFT dimensions: (  90,  90,  90)

     Smooth grid:   237129 G-vectors     FFT dimensions: (  80,  80,  80)

     Dynamical RAM for                 wfc:       1.21 MB

     Dynamical RAM for     wfc (w. buffer):       1.21 MB

     Dynamical RAM for           str. fact:       0.21 MB

     Dynamical RAM for           local pot:       0.00 MB

     Dynamical RAM for          nlocal pot:       1.92 MB

     Dynamical RAM for                qrad:       7.86 MB

     Dynamical RAM for          rho,v,vnew:       2.75 MB

     Dynamical RAM for           G-vectors:       0.43 MB

     Dynamical RAM for          h,s,v(r/c):       0.75 MB

     Dynamical RAM for          <psi|beta>:       0.40 MB

     Dynamical RAM for                 psi:       2.41 MB

     Dynamical RAM for                hpsi:       2.41 MB

     Dynamical RAM for                spsi:       2.41 MB

     Dynamical RAM for      wfcinit/wfcrot:       2.03 MB

     Dynamical RAM for           addusdens:      64.66 MB

     Estimated static dynamical RAM per process >      15.68 MB

     Estimated max dynamical RAM per process >      80.35 MB

     Estimated total dynamical RAM >       3.77 GB

     The potential is recalculated from file :
     ./SnI2.save/charge-density

     Starting wfcs are   68 randomized atomic wfcs

     Band Structure Calculation
     Davidson diagonalization with overlap

     Computing kpt #:     1  of   288
     total cpu time spent up to now is       11.4 secs

     Computing kpt #:     2  of   288
     total cpu time spent up to now is       14.5 secs

     Computing kpt #:     3  of   288
     total cpu time spent up to now is       17.6 secs

     Computing kpt #:     4  of   288
     total cpu time spent up to now is       20.8 secs

     Computing kpt #:     5  of   288
     total cpu time spent up to now is       23.7 secs

     Computing kpt #:     6  of   288
     total cpu time spent up to now is       26.5 secs

     Computing kpt #:     7  of   288
     total cpu time spent up to now is       30.0 secs

     Computing kpt #:     8  of   288
     total cpu time spent up to now is       32.8 secs

     Computing kpt #:     9  of   288
     total cpu time spent up to now is       35.9 secs

     Computing kpt #:    10  of   288
     total cpu time spent up to now is       39.2 secs

     Computing kpt #:    11  of   288
     total cpu time spent up to now is       42.3 secs

     Computing kpt #:    12  of   288
     total cpu time spent up to now is       45.5 secs

     Computing kpt #:    13  of   288
     total cpu time spent up to now is       48.7 secs

     Computing kpt #:    14  of   288
     total cpu time spent up to now is       51.8 secs

     Computing kpt #:    15  of   288
     total cpu time spent up to now is       55.1 secs

     Computing kpt #:    16  of   288
     total cpu time spent up to now is       58.6 secs

     Computing kpt #:    17  of   288
     total cpu time spent up to now is       62.2 secs

     Computing kpt #:    18  of   288
     total cpu time spent up to now is       65.1 secs

     Computing kpt #:    19  of   288
     total cpu time spent up to now is       68.5 secs

     Computing kpt #:    20  of   288
     total cpu time spent up to now is       71.7 secs

     Computing kpt #:    21  of   288
     total cpu time spent up to now is       75.1 secs

     Computing kpt #:    22  of   288
     total cpu time spent up to now is       78.1 secs

     Computing kpt #:    23  of   288
     total cpu time spent up to now is       81.3 secs

     Computing kpt #:    24  of   288
     total cpu time spent up to now is       84.3 secs

     Computing kpt #:    25  of   288
     total cpu time spent up to now is       87.4 secs

     Computing kpt #:    26  of   288
     total cpu time spent up to now is       90.3 secs

     Computing kpt #:    27  of   288
     total cpu time spent up to now is       94.1 secs

     Computing kpt #:    28  of   288
     total cpu time spent up to now is       97.5 secs

     Computing kpt #:    29  of   288
     total cpu time spent up to now is      101.1 secs

     Computing kpt #:    30  of   288
     total cpu time spent up to now is      104.0 secs

     Computing kpt #:    31  of   288
     total cpu time spent up to now is      107.5 secs

     Computing kpt #:    32  of   288
     total cpu time spent up to now is      110.6 secs

     Computing kpt #:    33  of   288
     total cpu time spent up to now is      113.9 secs

     Computing kpt #:    34  of   288
     total cpu time spent up to now is      116.9 secs

     Computing kpt #:    35  of   288
     total cpu time spent up to now is      120.5 secs

     Computing kpt #:    36  of   288
     total cpu time spent up to now is      124.2 secs

     Computing kpt #:    37  of   288
     total cpu time spent up to now is      127.8 secs

     Computing kpt #:    38  of   288
     total cpu time spent up to now is      130.9 secs

     Computing kpt #:    39  of   288
     total cpu time spent up to now is      134.1 secs

     Computing kpt #:    40  of   288
     total cpu time spent up to now is      137.2 secs

     Computing kpt #:    41  of   288
     total cpu time spent up to now is      140.2 secs

     Computing kpt #:    42  of   288
     total cpu time spent up to now is      143.2 secs

     Computing kpt #:    43  of   288
     total cpu time spent up to now is      146.6 secs

     Computing kpt #:    44  of   288
     total cpu time spent up to now is      149.5 secs

     Computing kpt #:    45  of   288
     total cpu time spent up to now is      152.6 secs

     Computing kpt #:    46  of   288
     total cpu time spent up to now is      155.7 secs

     Computing kpt #:    47  of   288
     total cpu time spent up to now is      158.8 secs

     Computing kpt #:    48  of   288
     total cpu time spent up to now is      161.8 secs

     Computing kpt #:    49  of   288
     total cpu time spent up to now is      164.8 secs

     Computing kpt #:    50  of   288
     total cpu time spent up to now is      168.2 secs

     Computing kpt #:    51  of   288
     total cpu time spent up to now is      171.4 secs

     Computing kpt #:    52  of   288
     total cpu time spent up to now is      174.5 secs

     Computing kpt #:    53  of   288
     total cpu time spent up to now is      177.8 secs

     Computing kpt #:    54  of   288
     total cpu time spent up to now is      180.8 secs

     Computing kpt #:    55  of   288
     total cpu time spent up to now is      184.4 secs

     Computing kpt #:    56  of   288
     total cpu time spent up to now is      187.8 secs

     Computing kpt #:    57  of   288
     total cpu time spent up to now is      190.8 secs

     Computing kpt #:    58  of   288
     total cpu time spent up to now is      194.0 secs

     Computing kpt #:    59  of   288
     total cpu time spent up to now is      197.2 secs

     Computing kpt #:    60  of   288
     total cpu time spent up to now is      200.4 secs

     Computing kpt #:    61  of   288
     total cpu time spent up to now is      203.5 secs

     Computing kpt #:    62  of   288
     total cpu time spent up to now is      206.8 secs

     Computing kpt #:    63  of   288
     total cpu time spent up to now is      210.0 secs

     Computing kpt #:    64  of   288
     total cpu time spent up to now is      213.6 secs

     Computing kpt #:    65  of   288
     total cpu time spent up to now is      217.5 secs

     Computing kpt #:    66  of   288
     total cpu time spent up to now is      221.0 secs

     Computing kpt #:    67  of   288
     total cpu time spent up to now is      224.2 secs

     Computing kpt #:    68  of   288
     total cpu time spent up to now is      227.4 secs

     Computing kpt #:    69  of   288
     total cpu time spent up to now is      230.8 secs

     Computing kpt #:    70  of   288
     total cpu time spent up to now is      233.6 secs

     Computing kpt #:    71  of   288
     total cpu time spent up to now is      236.7 secs

     Computing kpt #:    72  of   288
     total cpu time spent up to now is      239.9 secs

     Computing kpt #:    73  of   288
     total cpu time spent up to now is      243.2 secs

     Computing kpt #:    74  of   288
     total cpu time spent up to now is      246.0 secs

     Computing kpt #:    75  of   288
     total cpu time spent up to now is      249.2 secs

     Computing kpt #:    76  of   288
     total cpu time spent up to now is      252.5 secs

     Computing kpt #:    77  of   288
     total cpu time spent up to now is      256.0 secs

     Computing kpt #:    78  of   288
     total cpu time spent up to now is      259.2 secs

     Computing kpt #:    79  of   288
     total cpu time spent up to now is      262.5 secs

     Computing kpt #:    80  of   288
     total cpu time spent up to now is      265.6 secs

     Computing kpt #:    81  of   288
     total cpu time spent up to now is      268.9 secs

     Computing kpt #:    82  of   288
     total cpu time spent up to now is      272.4 secs

     Computing kpt #:    83  of   288
     total cpu time spent up to now is      275.4 secs

     Computing kpt #:    84  of   288
     total cpu time spent up to now is      279.1 secs

     Computing kpt #:    85  of   288
     total cpu time spent up to now is      282.8 secs

     Computing kpt #:    86  of   288
     total cpu time spent up to now is      285.7 secs

     Computing kpt #:    87  of   288
     total cpu time spent up to now is      289.0 secs

     Computing kpt #:    88  of   288
     total cpu time spent up to now is      292.1 secs

     Computing kpt #:    89  of   288
     total cpu time spent up to now is      295.4 secs

     Computing kpt #:    90  of   288
     total cpu time spent up to now is      298.8 secs

     Computing kpt #:    91  of   288
     total cpu time spent up to now is      302.4 secs

     Computing kpt #:    92  of   288
     total cpu time spent up to now is      305.6 secs

     Computing kpt #:    93  of   288
     total cpu time spent up to now is      308.7 secs

     Computing kpt #:    94  of   288
     total cpu time spent up to now is      311.8 secs

     Computing kpt #:    95  of   288
     total cpu time spent up to now is      315.6 secs

     Computing kpt #:    96  of   288
     total cpu time spent up to now is      319.1 secs

     Computing kpt #:    97  of   288
     total cpu time spent up to now is      322.1 secs

     Computing kpt #:    98  of   288
     total cpu time spent up to now is      325.6 secs

     Computing kpt #:    99  of   288
     total cpu time spent up to now is      328.8 secs

     Computing kpt #:   100  of   288
     total cpu time spent up to now is      331.7 secs

     Computing kpt #:   101  of   288
     total cpu time spent up to now is      335.4 secs

     Computing kpt #:   102  of   288
     total cpu time spent up to now is      338.8 secs

     Computing kpt #:   103  of   288
     total cpu time spent up to now is      342.3 secs

     Computing kpt #:   104  of   288
     total cpu time spent up to now is      345.4 secs

     Computing kpt #:   105  of   288
     total cpu time spent up to now is      348.9 secs

     Computing kpt #:   106  of   288
     total cpu time spent up to now is      351.9 secs

     Computing kpt #:   107  of   288
     total cpu time spent up to now is      354.9 secs

     Computing kpt #:   108  of   288
     total cpu time spent up to now is      358.4 secs

     Computing kpt #:   109  of   288
     total cpu time spent up to now is      361.5 secs

     Computing kpt #:   110  of   288
     total cpu time spent up to now is      364.5 secs

     Computing kpt #:   111  of   288
     total cpu time spent up to now is      367.7 secs

     Computing kpt #:   112  of   288
     total cpu time spent up to now is      370.9 secs

     Computing kpt #:   113  of   288
     total cpu time spent up to now is      374.2 secs

     Computing kpt #:   114  of   288
     total cpu time spent up to now is      377.4 secs

     Computing kpt #:   115  of   288
     total cpu time spent up to now is      380.5 secs

     Computing kpt #:   116  of   288
     total cpu time spent up to now is      383.8 secs

     Computing kpt #:   117  of   288
     total cpu time spent up to now is      387.1 secs

     Computing kpt #:   118  of   288
     total cpu time spent up to now is      390.1 secs

     Computing kpt #:   119  of   288
     total cpu time spent up to now is      393.1 secs

     Computing kpt #:   120  of   288
     total cpu time spent up to now is      396.3 secs

     Computing kpt #:   121  of   288
     total cpu time spent up to now is      400.0 secs

     Computing kpt #:   122  of   288
     total cpu time spent up to now is      403.5 secs

     Computing kpt #:   123  of   288
     total cpu time spent up to now is      406.9 secs

     Computing kpt #:   124  of   288
     total cpu time spent up to now is      410.3 secs

     Computing kpt #:   125  of   288
     total cpu time spent up to now is      414.0 secs

     Computing kpt #:   126  of   288
     total cpu time spent up to now is      417.2 secs

     Computing kpt #:   127  of   288
     total cpu time spent up to now is      420.6 secs

     Computing kpt #:   128  of   288
     total cpu time spent up to now is      423.6 secs

     Computing kpt #:   129  of   288
     total cpu time spent up to now is      426.7 secs

     Computing kpt #:   130  of   288
     total cpu time spent up to now is      429.7 secs

     Computing kpt #:   131  of   288
     total cpu time spent up to now is      433.2 secs

     Computing kpt #:   132  of   288
     total cpu time spent up to now is      436.6 secs

     Computing kpt #:   133  of   288
     total cpu time spent up to now is      440.3 secs

     Computing kpt #:   134  of   288
     total cpu time spent up to now is      443.8 secs

     Computing kpt #:   135  of   288
     total cpu time spent up to now is      447.2 secs

     Computing kpt #:   136  of   288
     total cpu time spent up to now is      450.7 secs

     Computing kpt #:   137  of   288
     total cpu time spent up to now is      454.5 secs

     Computing kpt #:   138  of   288
     total cpu time spent up to now is      458.0 secs

     Computing kpt #:   139  of   288
     total cpu time spent up to now is      461.6 secs

     Computing kpt #:   140  of   288
     total cpu time spent up to now is      465.0 secs

     Computing kpt #:   141  of   288
     total cpu time spent up to now is      468.7 secs

     Computing kpt #:   142  of   288
     total cpu time spent up to now is      472.1 secs

     Computing kpt #:   143  of   288
     total cpu time spent up to now is      475.5 secs

     Computing kpt #:   144  of   288
     total cpu time spent up to now is      478.6 secs

     Computing kpt #:   145  of   288
     total cpu time spent up to now is      482.1 secs

     Computing kpt #:   146  of   288
     total cpu time spent up to now is      485.7 secs

     Computing kpt #:   147  of   288
     total cpu time spent up to now is      489.4 secs

     Computing kpt #:   148  of   288
     total cpu time spent up to now is      492.9 secs

     Computing kpt #:   149  of   288
     total cpu time spent up to now is      496.3 secs

     Computing kpt #:   150  of   288
     total cpu time spent up to now is      500.1 secs

     Computing kpt #:   151  of   288
     total cpu time spent up to now is      503.3 secs

     Computing kpt #:   152  of   288
     total cpu time spent up to now is      506.9 secs

     Computing kpt #:   153  of   288
     total cpu time spent up to now is      510.5 secs

     Computing kpt #:   154  of   288
     total cpu time spent up to now is      514.0 secs

     Computing kpt #:   155  of   288
     total cpu time spent up to now is      517.4 secs

     Computing kpt #:   156  of   288
     total cpu time spent up to now is      521.4 secs

     Computing kpt #:   157  of   288
     total cpu time spent up to now is      525.3 secs

     Computing kpt #:   158  of   288
     total cpu time spent up to now is      528.7 secs

     Computing kpt #:   159  of   288
     total cpu time spent up to now is      531.9 secs

     Computing kpt #:   160  of   288
     total cpu time spent up to now is      535.0 secs

     Computing kpt #:   161  of   288
     total cpu time spent up to now is      539.0 secs

     Computing kpt #:   162  of   288
     total cpu time spent up to now is      542.5 secs

     Computing kpt #:   163  of   288
     total cpu time spent up to now is      546.1 secs

     Computing kpt #:   164  of   288
     total cpu time spent up to now is      549.5 secs

     Computing kpt #:   165  of   288
     total cpu time spent up to now is      553.0 secs

     Computing kpt #:   166  of   288
     total cpu time spent up to now is      556.6 secs

     Computing kpt #:   167  of   288
     total cpu time spent up to now is      560.1 secs

     Computing kpt #:   168  of   288
     total cpu time spent up to now is      563.7 secs

     Computing kpt #:   169  of   288
     total cpu time spent up to now is      567.4 secs

     Computing kpt #:   170  of   288
     total cpu time spent up to now is      570.9 secs

     Computing kpt #:   171  of   288
     total cpu time spent up to now is      574.4 secs

     Computing kpt #:   172  of   288
     total cpu time spent up to now is      577.7 secs

     Computing kpt #:   173  of   288
     total cpu time spent up to now is      580.9 secs

     Computing kpt #:   174  of   288
     total cpu time spent up to now is      584.6 secs

     Computing kpt #:   175  of   288
     total cpu time spent up to now is      588.6 secs

     Computing kpt #:   176  of   288
     total cpu time spent up to now is      592.5 secs

     Computing kpt #:   177  of   288
     total cpu time spent up to now is      597.0 secs

     Computing kpt #:   178  of   288
     total cpu time spent up to now is      600.8 secs

     Computing kpt #:   179  of   288
     total cpu time spent up to now is      605.8 secs

     Computing kpt #:   180  of   288
     total cpu time spent up to now is      610.3 secs

     Computing kpt #:   181  of   288
     total cpu time spent up to now is      614.6 secs

     Computing kpt #:   182  of   288
     total cpu time spent up to now is      619.4 secs

     Computing kpt #:   183  of   288
     total cpu time spent up to now is      624.1 secs

     Computing kpt #:   184  of   288
     total cpu time spent up to now is      628.1 secs

     Computing kpt #:   185  of   288
     total cpu time spent up to now is      632.6 secs

     Computing kpt #:   186  of   288
     total cpu time spent up to now is      636.8 secs

     Computing kpt #:   187  of   288
     total cpu time spent up to now is      641.2 secs

     Computing kpt #:   188  of   288
     total cpu time spent up to now is      645.4 secs

     Computing kpt #:   189  of   288
     total cpu time spent up to now is      650.1 secs

     Computing kpt #:   190  of   288
     total cpu time spent up to now is      654.6 secs

     Computing kpt #:   191  of   288
     total cpu time spent up to now is      659.2 secs

     Computing kpt #:   192  of   288
     total cpu time spent up to now is      663.2 secs

     Computing kpt #:   193  of   288
     total cpu time spent up to now is      667.6 secs

     Computing kpt #:   194  of   288
     total cpu time spent up to now is      671.7 secs

     Computing kpt #:   195  of   288
     total cpu time spent up to now is      675.9 secs

     Computing kpt #:   196  of   288
     total cpu time spent up to now is      679.1 secs

     Computing kpt #:   197  of   288
     total cpu time spent up to now is      682.8 secs

     Computing kpt #:   198  of   288
     total cpu time spent up to now is      686.6 secs

     Computing kpt #:   199  of   288
     total cpu time spent up to now is      690.0 secs

     Computing kpt #:   200  of   288
     total cpu time spent up to now is      694.0 secs

     Computing kpt #:   201  of   288
     total cpu time spent up to now is      698.1 secs

     Computing kpt #:   202  of   288
     total cpu time spent up to now is      701.4 secs

     Computing kpt #:   203  of   288
     total cpu time spent up to now is      705.5 secs

     Computing kpt #:   204  of   288
     total cpu time spent up to now is      709.0 secs

     Computing kpt #:   205  of   288
     total cpu time spent up to now is      712.9 secs

     Computing kpt #:   206  of   288
[...]
     1.0000   1.0000   1.0000   1.0000   1.0000   1.0000   1.0000   1.0000
     1.0000   1.0000   1.0000   1.0000   1.0000   1.0000   1.0000   1.0000
     1.0000   1.0000   1.0000   1.0000   1.0000   1.0000   1.0000   1.0000
     1.0000   1.0000   1.0000   1.0000   1.0000   1.0000   1.0000   1.0000
     0.0000   0.0000   0.0000   0.0000   0.0000   0.0000   0.0000   0.0000

          k = 0.4688 0.2813 0.3438 ( 29652 PWs)   bands (ev):

   -23.2565 -23.2565 -23.2564 -23.2564 -23.1317 -23.1317 -23.1317 -23.1317
   -22.2361 -22.2361 -22.2361 -22.2361 -22.1273 -22.1273 -22.1273 -22.1273
   -22.0765 -22.0765 -22.0765 -22.0765 -11.5641 -11.5641 -11.5585 -11.5585
   -11.4972 -11.4972 -11.4925 -11.4925  -6.9947  -6.9947  -6.9863  -6.9863
    -2.7402  -2.7402  -2.6688  -2.6688  -2.0783  -2.0783  -1.9548  -1.9548
    -1.8231  -1.8231  -1.6143  -1.6143  -1.3072  -1.3072  -1.2775  -1.2775
    -1.0030  -1.0030  -0.9343  -0.9343  -0.8283  -0.8283  -0.7975  -0.7975
     0.4872   0.4872   0.6558   0.6558   0.8751   0.8751   1.0283   1.0283

     occupation numbers 
     1.0000   1.0000   1.0000   1.0000   1.0000   1.0000   1.0000   1.0000
     1.0000   1.0000   1.0000   1.0000   1.0000   1.0000   1.0000   1.0000
     1.0000   1.0000   1.0000   1.0000   1.0000   1.0000   1.0000   1.0000
     1.0000   1.0000   1.0000   1.0000   1.0000   1.0000   1.0000   1.0000
     1.0000   1.0000   1.0000   1.0000   1.0000   1.0000   1.0000   1.0000
     1.0000   1.0000   1.0000   1.0000   1.0000   1.0000   1.0000   1.0000
     1.0000   1.0000   1.0000   1.0000   1.0000   1.0000   1.0000   1.0000
     0.0000   0.0000   0.0000   0.0000   0.0000   0.0000   0.0000   0.0000

          k = 0.4063 0.4063 0.2813 ( 29645 PWs)   bands (ev):

   -23.2565 -23.2565 -23.2564 -23.2564 -23.1317 -23.1317 -23.1317 -23.1317
   -22.2361 -22.2361 -22.2361 -22.2361 -22.1273 -22.1273 -22.1273 -22.1273
   -22.0765 -22.0765 -22.0765 -22.0765 -11.5694 -11.5694 -11.5610 -11.5610
   -11.4937 -11.4937 -11.4875 -11.4875  -7.0011  -7.0011  -6.9877  -6.9877
    -2.6651  -2.6651  -2.5304  -2.5304  -2.0831  -2.0831  -1.9586  -1.9586
    -1.8713  -1.8713  -1.6825  -1.6825  -1.3627  -1.3627  -1.3326  -1.3326
    -1.0970  -1.0970  -0.9888  -0.9888  -0.8263  -0.8263  -0.8068  -0.8068
     0.5560   0.5560   0.6513   0.6513   0.9242   0.9242   1.0161   1.0161

     occupation numbers 
     1.0000   1.0000   1.0000   1.0000   1.0000   1.0000   1.0000   1.0000
     1.0000   1.0000   1.0000   1.0000   1.0000   1.0000   1.0000   1.0000
     1.0000   1.0000   1.0000   1.0000   1.0000   1.0000   1.0000   1.0000
     1.0000   1.0000   1.0000   1.0000   1.0000   1.0000   1.0000   1.0000
     1.0000   1.0000   1.0000   1.0000   1.0000   1.0000   1.0000   1.0000
     1.0000   1.0000   1.0000   1.0000   1.0000   1.0000   1.0000   1.0000
     1.0000   1.0000   1.0000   1.0000   1.0000   1.0000   1.0000   1.0000
     0.0000   0.0000   0.0000   0.0000   0.0000   0.0000   0.0000   0.0000

          k = 0.4063 0.4688 0.2813 ( 29658 PWs)   bands (ev):

   -23.2565 -23.2565 -23.2564 -23.2564 -23.1317 -23.1317 -23.1317 -23.1317
   -22.2361 -22.2361 -22.2361 -22.2361 -22.1273 -22.1273 -22.1273 -22.1273
   -22.0765 -22.0765 -22.0765 -22.0765 -11.5674 -11.5674 -11.5645 -11.5645
   -11.4908 -11.4908 -11.4887 -11.4887  -6.9986  -6.9986  -6.9938  -6.9938
    -2.5994  -2.5994  -2.5494  -2.5494  -2.0768  -2.0768  -1.9788  -1.9788
    -1.8533  -1.8533  -1.7097  -1.7097  -1.3652  -1.3652  -1.3509  -1.3509
    -1.0847  -1.0847  -1.0417  -1.0417  -0.8203  -0.8203  -0.8090  -0.8090
     0.5778   0.5778   0.6451   0.6451   0.9409   0.9409   1.0058   1.0058

     occupation numbers 
     1.0000   1.0000   1.0000   1.0000   1.0000   1.0000   1.0000   1.0000
     1.0000   1.0000   1.0000   1.0000   1.0000   1.0000   1.0000   1.0000
     1.0000   1.0000   1.0000   1.0000   1.0000   1.0000   1.0000   1.0000
     1.0000   1.0000   1.0000   1.0000   1.0000   1.0000   1.0000   1.0000
     1.0000   1.0000   1.0000   1.0000   1.0000   1.0000   1.0000   1.0000
     1.0000   1.0000   1.0000   1.0000   1.0000   1.0000   1.0000   1.0000
     1.0000   1.0000   1.0000   1.0000   1.0000   1.0000   1.0000   1.0000
     0.0000   0.0000   0.0000   0.0000   0.0000   0.0000   0.0000   0.0000

          k = 0.4688 0.2813 0.4063 ( 29658 PWs)   bands (ev):

   -23.2565 -23.2565 -23.2564 -23.2564 -23.1317 -23.1317 -23.1317 -23.1317
   -22.2361 -22.2361 -22.2361 -22.2361 -22.1273 -22.1273 -22.1273 -22.1273
   -22.0765 -22.0765 -22.0765 -22.0765 -11.5632 -11.5632 -11.5580 -11.5580
   -11.4978 -11.4978 -11.4929 -11.4929  -6.9962  -6.9962  -6.9893  -6.9893
    -2.7435  -2.7435  -2.6706  -2.6706  -2.0854  -2.0854  -1.9540  -1.9540
    -1.8245  -1.8245  -1.6015  -1.6015  -1.2966  -1.2966  -1.2558  -1.2558
    -1.0030  -1.0030  -0.9333  -0.9333  -0.8264  -0.8264  -0.7969  -0.7969
     0.4667   0.4667   0.6529   0.6529   0.8704   0.8704   1.0377   1.0377

     occupation numbers 
     1.0000   1.0000   1.0000   1.0000   1.0000   1.0000   1.0000   1.0000
     1.0000   1.0000   1.0000   1.0000   1.0000   1.0000   1.0000   1.0000
     1.0000   1.0000   1.0000   1.0000   1.0000   1.0000   1.0000   1.0000
     1.0000   1.0000   1.0000   1.0000   1.0000   1.0000   1.0000   1.0000
     1.0000   1.0000   1.0000   1.0000   1.0000   1.0000   1.0000   1.0000
     1.0000   1.0000   1.0000   1.0000   1.0000   1.0000   1.0000   1.0000
     1.0000   1.0000   1.0000   1.0000   1.0000   1.0000   1.0000   1.0000
     0.0000   0.0000   0.0000   0.0000   0.0000   0.0000   0.0000   0.0000

          k = 0.4688 0.4688 0.2813 ( 29669 PWs)   bands (ev):

   -23.2565 -23.2565 -23.2564 -23.2564 -23.1317 -23.1317 -23.1317 -23.1317
   -22.2361 -22.2361 -22.2361 -22.2361 -22.1273 -22.1273 -22.1273 -22.1273
   -22.0765 -22.0765 -22.0765 -22.0765 -11.5673 -11.5673 -11.5663 -11.5663
   -11.4891 -11.4891 -11.4884 -11.4884  -6.9990  -6.9990  -6.9974  -6.9974
    -2.5492  -2.5492  -2.5301  -2.5301  -2.0619  -2.0619  -2.0110  -2.0110
    -1.8325  -1.8325  -1.7605  -1.7605  -1.3728  -1.3728  -1.3663  -1.3663
    -1.0935  -1.0935  -1.0771  -1.0771  -0.8129  -0.8129  -0.8079  -0.8079
     0.6035   0.6035   0.6339   0.6339   0.9619   0.9619   0.9914   0.9914

     occupation numbers 
     1.0000   1.0000   1.0000   1.0000   1.0000   1.0000   1.0000   1.0000
     1.0000   1.0000   1.0000   1.0000   1.0000   1.0000   1.0000   1.0000
     1.0000   1.0000   1.0000   1.0000   1.0000   1.0000   1.0000   1.0000
     1.0000   1.0000   1.0000   1.0000   1.0000   1.0000   1.0000   1.0000
     1.0000   1.0000   1.0000   1.0000   1.0000   1.0000   1.0000   1.0000
     1.0000   1.0000   1.0000   1.0000   1.0000   1.0000   1.0000   1.0000
     1.0000   1.0000   1.0000   1.0000   1.0000   1.0000   1.0000   1.0000
     0.0000   0.0000   0.0000   0.0000   0.0000   0.0000   0.0000   0.0000

          k = 0.3438 0.4063 0.3438 ( 29650 PWs)   bands (ev):

   -23.2565 -23.2565 -23.2564 -23.2564 -23.1317 -23.1317 -23.1317 -23.1317
   -22.2361 -22.2361 -22.2361 -22.2361 -22.1273 -22.1273 -22.1273 -22.1273
   -22.0765 -22.0765 -22.0765 -22.0765 -11.5694 -11.5694 -11.5569 -11.5569
   -11.4980 -11.4980 -11.4874 -11.4874  -7.0027  -7.0027  -6.9855  -6.9855
    -2.7381  -2.7381  -2.5472  -2.5472  -2.0995  -2.0995  -1.9454  -1.9454
    -1.8717  -1.8717  -1.6350  -1.6350  -1.3378  -1.3378  -1.2836  -1.2836
    -1.0865  -1.0865  -0.9284  -0.9284  -0.8280  -0.8280  -0.7938  -0.7938
     0.5075   0.5075   0.6642   0.6642   0.8839   0.8839   1.0265   1.0265

     occupation numbers 
     1.0000   1.0000   1.0000   1.0000   1.0000   1.0000   1.0000   1.0000
     1.0000   1.0000   1.0000   1.0000   1.0000   1.0000   1.0000   1.0000
     1.0000   1.0000   1.0000   1.0000   1.0000   1.0000   1.0000   1.0000
     1.0000   1.0000   1.0000   1.0000   1.0000   1.0000   1.0000   1.0000
     1.0000   1.0000   1.0000   1.0000   1.0000   1.0000   1.0000   1.0000
     1.0000   1.0000   1.0000   1.0000   1.0000   1.0000   1.0000   1.0000
     1.0000   1.0000   1.0000   1.0000   1.0000   1.0000   1.0000   1.0000
     0.0000   0.0000   0.0000   0.0000   0.0000   0.0000   0.0000   0.0000

          k = 0.3438 0.4688 0.3438 ( 29648 PWs)   bands (ev):

   -23.2565 -23.2565 -23.2564 -23.2564 -23.1317 -23.1317 -23.1317 -23.1317
   -22.2361 -22.2361 -22.2361 -22.2361 -22.1273 -22.1273 -22.1273 -22.1273
   -22.0765 -22.0765 -22.0765 -22.0765 -11.5659 -11.5659 -11.5617 -11.5617
   -11.4937 -11.4937 -11.4901 -11.4901  -6.9987  -6.9987  -6.9923  -6.9923
    -2.6687  -2.6687  -2.5998  -2.5998  -2.0927  -2.0927  -1.9631  -1.9631
    -1.8500  -1.8500  -1.6461  -1.6461  -1.3314  -1.3314  -1.2997  -1.2997
    -1.0516  -1.0516  -0.9892  -0.9892  -0.8247  -0.8247  -0.8056  -0.8056
     0.5301   0.5301   0.6581   0.6581   0.8992   0.8992   1.0185   1.0185

     occupation numbers 
     1.0000   1.0000   1.0000   1.0000   1.0000   1.0000   1.0000   1.0000
     1.0000   1.0000   1.0000   1.0000   1.0000   1.0000   1.0000   1.0000
     1.0000   1.0000   1.0000   1.0000   1.0000   1.0000   1.0000   1.0000
     1.0000   1.0000   1.0000   1.0000   1.0000   1.0000   1.0000   1.0000
     1.0000   1.0000   1.0000   1.0000   1.0000   1.0000   1.0000   1.0000
     1.0000   1.0000   1.0000   1.0000   1.0000   1.0000   1.0000   1.0000
     1.0000   1.0000   1.0000   1.0000   1.0000   1.0000   1.0000   1.0000
     0.0000   0.0000   0.0000   0.0000   0.0000   0.0000   0.0000   0.0000

          k = 0.4063 0.4063 0.3438 ( 29658 PWs)   bands (ev):

   -23.2565 -23.2565 -23.2564 -23.2564 -23.1317 -23.1317 -23.1317 -23.1317
   -22.2361 -22.2361 -22.2361 -22.2361 -22.1273 -22.1273 -22.1273 -22.1273
   -22.0765 -22.0765 -22.0765 -22.0765 -11.5686 -11.5686 -11.5609 -11.5609
   -11.4941 -11.4941 -11.4874 -11.4874  -7.0029  -7.0029  -6.9920  -6.9920
    -2.6677  -2.6677  -2.5265  -2.5265  -2.1018  -2.1018  -1.9642  -1.9642
    -1.8741  -1.8741  -1.6664  -1.6664  -1.3479  -1.3479  -1.3043  -1.3043
    -1.0941  -1.0941  -0.9884  -0.9884  -0.8199  -0.8199  -0.8025  -0.8025
     0.5442   0.5442   0.6591   0.6591   0.9075   0.9075   1.0143   1.0143

     occupation numbers 
     1.0000   1.0000   1.0000   1.0000   1.0000   1.0000   1.0000   1.0000
     1.0000   1.0000   1.0000   1.0000   1.0000   1.0000   1.0000   1.0000
     1.0000   1.0000   1.0000   1.0000   1.0000   1.0000   1.0000   1.0000
     1.0000   1.0000   1.0000   1.0000   1.0000   1.0000   1.0000   1.0000
     1.0000   1.0000   1.0000   1.0000   1.0000   1.0000   1.0000   1.0000
     1.0000   1.0000   1.0000   1.0000   1.0000   1.0000   1.0000   1.0000
     1.0000   1.0000   1.0000   1.0000   1.0000   1.0000   1.0000   1.0000
     0.0000   0.0000   0.0000   0.0000   0.0000   0.0000   0.0000   0.0000

          k = 0.4063 0.4688 0.3438 ( 29656 PWs)   bands (ev):

   -23.2565 -23.2565 -23.2564 -23.2564 -23.1317 -23.1317 -23.1317 -23.1317
   -22.2361 -22.2361 -22.2361 -22.2361 -22.1273 -22.1273 -22.1273 -22.1273
   -22.0765 -22.0765 -22.0765 -22.0765 -11.5669 -11.5669 -11.5643 -11.5643
   -11.4909 -11.4909 -11.4886 -11.4886  -7.0013  -7.0013  -6.9972  -6.9972
    -2.5995  -2.5995  -2.5469  -2.5469  -2.0958  -2.0958  -1.9884  -1.9884
    -1.8551  -1.8551  -1.6957  -1.6957  -1.3474  -1.3474  -1.3213  -1.3213
    -1.0818  -1.0818  -1.0430  -1.0430  -0.8140  -0.8140  -0.8018  -0.8018
     0.5684   0.5684   0.6509   0.6509   0.9250   0.9250   1.0031   1.0031

     occupation numbers 
     1.0000   1.0000   1.0000   1.0000   1.0000   1.0000   1.0000   1.0000
     1.0000   1.0000   1.0000   1.0000   1.0000   1.0000   1.0000   1.0000
     1.0000   1.0000   1.0000   1.0000   1.0000   1.0000   1.0000   1.0000
     1.0000   1.0000   1.0000   1.0000   1.0000   1.0000   1.0000   1.0000
     1.0000   1.0000   1.0000   1.0000   1.0000   1.0000   1.0000   1.0000
     1.0000   1.0000   1.0000   1.0000   1.0000   1.0000   1.0000   1.0000
     1.0000   1.0000   1.0000   1.0000   1.0000   1.0000   1.0000   1.0000
     0.0000   0.0000   0.0000   0.0000   0.0000   0.0000   0.0000   0.0000

          k = 0.4688 0.3438 0.4063 ( 29656 PWs)   bands (ev):

   -23.2565 -23.2565 -23.2564 -23.2564 -23.1317 -23.1317 -23.1317 -23.1317
   -22.2361 -22.2361 -22.2361 -22.2361 -22.1273 -22.1273 -22.1273 -22.1273
   -22.0765 -22.0765 -22.0765 -22.0765 -11.5653 -11.5653 -11.5614 -11.5614
   -11.4941 -11.4941 -11.4902 -11.4902  -7.0005  -7.0005  -6.9951  -6.9951
    -2.6705  -2.6705  -2.5998  -2.5998  -2.1038  -2.1038  -1.9669  -1.9669
    -1.8509  -1.8509  -1.6332  -1.6332  -1.3192  -1.3192  -1.2747  -1.2747
    -1.0527  -1.0527  -0.9922  -0.9922  -0.8208  -0.8208  -0.8013  -0.8013
     0.5145   0.5145   0.6567   0.6567   0.8935   0.8935   1.0246   1.0246

     occupation numbers 
     1.0000   1.0000   1.0000   1.0000   1.0000   1.0000   1.0000   1.0000
     1.0000   1.0000   1.0000   1.0000   1.0000   1.0000   1.0000   1.0000
     1.0000   1.0000   1.0000   1.0000   1.0000   1.0000   1.0000   1.0000
     1.0000   1.0000   1.0000   1.0000   1.0000   1.0000   1.0000   1.0000
     1.0000   1.0000   1.0000   1.0000   1.0000   1.0000   1.0000   1.0000
     1.0000   1.0000   1.0000   1.0000   1.0000   1.0000   1.0000   1.0000
     1.0000   1.0000   1.0000   1.0000   1.0000   1.0000   1.0000   1.0000
     0.0000   0.0000   0.0000   0.0000   0.0000   0.0000   0.0000   0.0000

          k = 0.4688 0.4688 0.3438 ( 29672 PWs)   bands (ev):

   -23.2565 -23.2565 -23.2565 -23.2565 -23.1317 -23.1317 -23.1317 -23.1317
   -22.2361 -22.2361 -22.2361 -22.2361 -22.1273 -22.1273 -22.1273 -22.1273
   -22.0765 -22.0765 -22.0765 -22.0765 -11.5669 -11.5669 -11.5660 -11.5660
   -11.4891 -11.4891 -11.4883 -11.4883  -7.0021  -7.0021  -7.0006  -7.0006
    -2.5469  -2.5469  -2.5267  -2.5267  -2.0827  -2.0827  -2.0278  -2.0278
    -1.8293  -1.8293  -1.7506  -1.7506  -1.3510  -1.3510  -1.3382  -1.3382
    -1.0906  -1.0906  -1.0769  -1.0769  -0.8055  -0.8055  -0.7999  -0.7999
     0.5989   0.5989   0.6363   0.6363   0.9489   0.9489   0.9846   0.9846

     occupation numbers 
     1.0000   1.0000   1.0000   1.0000   1.0000   1.0000   1.0000   1.0000
     1.0000   1.0000   1.0000   1.0000   1.0000   1.0000   1.0000   1.0000
     1.0000   1.0000   1.0000   1.0000   1.0000   1.0000   1.0000   1.0000
     1.0000   1.0000   1.0000   1.0000   1.0000   1.0000   1.0000   1.0000
     1.0000   1.0000   1.0000   1.0000   1.0000   1.0000   1.0000   1.0000
     1.0000   1.0000   1.0000   1.0000   1.0000   1.0000   1.0000   1.0000
     1.0000   1.0000   1.0000   1.0000   1.0000   1.0000   1.0000   1.0000
     0.0000   0.0000   0.0000   0.0000   0.0000   0.0000   0.0000   0.0000

          k = 0.4063 0.4688 0.4063 ( 29652 PWs)   bands (ev):

   -23.2565 -23.2565 -23.2564 -23.2564 -23.1317 -23.1317 -23.1317 -23.1317
   -22.2361 -22.2361 -22.2361 -22.2361 -22.1273 -22.1273 -22.1273 -22.1273
   -22.0765 -22.0765 -22.0765 -22.0765 -11.5665 -11.5665 -11.5640 -11.5640
   -11.4911 -11.4911 -11.4886 -11.4886  -7.0034  -7.0034  -6.9999  -6.9999
    -2.5996  -2.5996  -2.5451  -2.5451  -2.1099  -2.1099  -1.9974  -1.9974
    -1.8543  -1.8543  -1.6855  -1.6855  -1.3320  -1.3320  -1.2950  -1.2950
    -1.0827  -1.0827  -1.0471  -1.0471  -0.8084  -0.8084  -0.7959  -0.7959
     0.5572   0.5572   0.6491   0.6491   0.9197   0.9197   1.0058   1.0058

     occupation numbers 
     1.0000   1.0000   1.0000   1.0000   1.0000   1.0000   1.0000   1.0000
     1.0000   1.0000   1.0000   1.0000   1.0000   1.0000   1.0000   1.0000
     1.0000   1.0000   1.0000   1.0000   1.0000   1.0000   1.0000   1.0000
     1.0000   1.0000   1.0000   1.0000   1.0000   1.0000   1.0000   1.0000
     1.0000   1.0000   1.0000   1.0000   1.0000   1.0000   1.0000   1.0000
     1.0000   1.0000   1.0000   1.0000   1.0000   1.0000   1.0000   1.0000
     1.0000   1.0000   1.0000   1.0000   1.0000   1.0000   1.0000   1.0000
     0.0000   0.0000   0.0000   0.0000   0.0000   0.0000   0.0000   0.0000

          k = 0.4688 0.4688 0.4063 ( 29656 PWs)   bands (ev):

   -23.2565 -23.2565 -23.2564 -23.2564 -23.1317 -23.1317 -23.1317 -23.1317
   -22.2361 -22.2361 -22.2361 -22.2361 -22.1273 -22.1273 -22.1273 -22.1273
   -22.0765 -22.0765 -22.0765 -22.0765 -11.5667 -11.5667 -11.5659 -11.5659
   -11.4891 -11.4891 -11.4882 -11.4882  -7.0044  -7.0044  -7.0030  -7.0030
    -2.5452  -2.5452  -2.5241  -2.5241  -2.0978  -2.0978  -2.0404  -2.0404
    -1.8268  -1.8268  -1.7438  -1.7438  -1.3317  -1.3317  -1.3133  -1.3133
    -1.0917  -1.0917  -1.0802  -1.0802  -0.7991  -0.7991  -0.7934  -0.7934
     0.5909   0.5909   0.6327   0.6327   0.9450   0.9450   0.9845   0.9845

     occupation numbers 
     1.0000   1.0000   1.0000   1.0000   1.0000   1.0000   1.0000   1.0000
     1.0000   1.0000   1.0000   1.0000   1.0000   1.0000   1.0000   1.0000
     1.0000   1.0000   1.0000   1.0000   1.0000   1.0000   1.0000   1.0000
     1.0000   1.0000   1.0000   1.0000   1.0000   1.0000   1.0000   1.0000
     1.0000   1.0000   1.0000   1.0000   1.0000   1.0000   1.0000   1.0000
     1.0000   1.0000   1.0000   1.0000   1.0000   1.0000   1.0000   1.0000
     1.0000   1.0000   1.0000   1.0000   1.0000   1.0000   1.0000   1.0000
     0.0000   0.0000   0.0000   0.0000   0.0000   0.0000   0.0000   0.0000

     highest occupied, lowest unoccupied level (ev):    -0.5681    0.2098

     Writing output data file ./SnI2.save/

     init_run     :      1.59s CPU      1.51s WALL (       1 calls)
     electrons    :   1681.72s CPU   1005.98s WALL (       1 calls)

     Called by init_run:
     wfcinit      :      0.00s CPU      0.24s WALL (       1 calls)
     wfcinit:atom :      0.75s CPU      0.39s WALL (     288 calls)
     wfcinit:wfcr :    106.70s CPU     58.09s WALL (     288 calls)
     potinit      :      0.22s CPU      0.19s WALL (       1 calls)
     hinit0       :      0.60s CPU      0.49s WALL (       1 calls)

     Called by electrons:
     c_bands      :   1681.70s CPU   1005.93s WALL (       1 calls)
     v_of_rho     :      0.06s CPU      0.04s WALL (       1 calls)
     v_h          :      0.00s CPU      0.00s WALL (       1 calls)
     v_xc         :      0.06s CPU      0.03s WALL (       1 calls)
     newd         :      0.61s CPU      0.41s WALL (       1 calls)

     Called by c_bands:
     init_us_2    :      0.96s CPU      0.71s WALL (     288 calls)
     cegterg      :   1556.45s CPU    824.99s WALL (     424 calls)

     Called by sum_band:

     Called by *egterg:
     cdiaghg      :     69.64s CPU     39.30s WALL (    6013 calls)
     cegterg:over :     97.01s CPU     54.90s WALL (    5725 calls)
     cegterg:upda :     31.56s CPU     15.93s WALL (    5725 calls)
     cegterg:last :     92.71s CPU     47.27s WALL (    4408 calls)
     h_psi        :   1237.88s CPU    645.20s WALL (    6437 calls)
     s_psi        :     87.52s CPU     52.32s WALL (    6437 calls)
     g_psi        :      5.09s CPU      2.57s WALL (    5725 calls)

     Called by h_psi:
     h_psi:calbec :     68.98s CPU     34.99s WALL (    6437 calls)
     vloc_psi     :   1089.48s CPU    564.64s WALL (    6437 calls)
     add_vuspsi   :     74.51s CPU     43.11s WALL (    6437 calls)

     General routines
     calbec       :     68.86s CPU     34.95s WALL (    6437 calls)
     fft          :      0.12s CPU      0.08s WALL (      19 calls)
     ffts         :      0.01s CPU      0.01s WALL (       4 calls)
     fftw         :    990.28s CPU    513.87s WALL ( 1183164 calls)
     interpolate  :      0.02s CPU      0.01s WALL (       4 calls)
     davcio       :      0.95s CPU     23.26s WALL (     576 calls)

     Parallel routines
     fft_scatt_xy :     53.39s CPU     27.22s WALL ( 1183187 calls)
     fft_scatt_yz :    681.57s CPU    355.71s WALL ( 1183187 calls)

     PWSCF        :  28m54.25s CPU  24m30.51s WALL


   This run was terminated on:  12:44: 9  31Jan2021            

=------------------------------------------------------------------------------=
   JOB DONE.
=------------------------------------------------------------------------------=
