
     Program PWSCF v.6.7MaX starts on 11Mar2021 at 21:51:27 

     This program is part of the open-source Quantum ESPRESSO suite
     for quantum simulation of materials; please cite
         "P. Giannozzi et al., J. Phys.:Condens. Matter 21 395502 (2009);
         "P. Giannozzi et al., J. Phys.:Condens. Matter 29 465901 (2017);
          URL http://www.quantum-espresso.org", 
     in publications or presentations arising from this work. More details at
     http://www.quantum-espresso.org/quote

     Parallel version (MPI & OpenMP), running on      96 processor cores
     Number of MPI processes:                48
     Threads/MPI process:                     2

     MPI processes distributed on     2 nodes
     R & G space division:  proc/nbgrp/npool/nimage =      48
     Waiting for input...
     Reading input from standard input

     Current dimensions of program PWSCF are:
     Max number of different atomic species (ntypx) = 10
     Max number of k-points (npk) =  40000
     Max angular momentum in pseudopotentials (lmaxx) =  3
     file Cs.rel-pbesol-spn-rrkjus_psl.1.0.0.UPF: wavefunction(s)  5S 6S renormalized
     file Sn.rel-pbesol-dn-rrkjus_psl.1.0.0.UPF: wavefunction(s)  5S 4D 4D renormalized
     file I.rel-pbesol-n-rrkjus_psl.1.0.0.UPF: wavefunction(s)  5S renormalized

     Subspace diagonalization in iterative solution of the eigenvalue problem:
     a serial algorithm will be used


     Parallelization info
     --------------------
     sticks:   dense  smooth     PW     G-vecs:    dense   smooth      PW
     Min          92      61     16                11640     6335     856
     Max          93      62     17                11651     6348     865
     Sum        4443    2963    783               558911   304449   41317


     Title: 
     CsSnI3                                                                     


     bravais-lattice index     =            8
     lattice parameter (alat)  =       9.1317  a.u.
     unit-cell volume          =    6370.5385 (a.u.)^3
     number of atoms/cell      =           20
     number of atomic types    =            3
     number of electrons       =       176.00
     number of Kohn-Sham states=          176
     kinetic-energy cutoff     =      50.0000  Ry
     charge density cutoff     =     300.0000  Ry
     scf convergence threshold =      1.0E-06
     mixing beta               =       0.3500
     number of iterations used =            8  plain     mixing
     Exchange-correlation= PBESOL
                           (   1   4  10   8   0   0   0)
     Non magnetic calculation with spin-orbit


     celldm(1)=   9.131705  celldm(2)=   2.227728  celldm(3)=   3.755420
     celldm(4)=   0.000000  celldm(5)=   0.000000  celldm(6)=   0.000000

     crystal axes: (cart. coord. in units of alat)
               a(1) = (   1.000000   0.000000   0.000000 )  
               a(2) = (   0.000000   2.227728   0.000000 )  
               a(3) = (   0.000000   0.000000   3.755420 )  

     reciprocal axes: (cart. coord. in units 2 pi/alat)
               b(1) = (  1.000000  0.000000  0.000000 )  
               b(2) = (  0.000000  0.448888  0.000000 )  
               b(3) = (  0.000000  0.000000  0.266282 )  


     PseudoPot. # 1 for Cs read from file:
     /scratch/cmalosso/degironcoli/pseudo/pseudo-usp/Cs.rel-pbesol-spn-rrkjus_psl.1.0.0.UPF
     MD5 check sum: 846889b67fb1b19751b5b37931589d70
     Pseudo is Ultrasoft + core correction, Zval =  9.0
     Generated using &quot;atomic&quot; code by A. Dal Corso  v.6.4.1
     Using radial grid of 1251 points, 15 beta functions with: 
                l(1) =   0
                l(2) =   0
                l(3) =   0
                l(4) =   1
                l(5) =   1
                l(6) =   1
                l(7) =   1
                l(8) =   2
                l(9) =   2
               l(10) =   2
               l(11) =   2
               l(12) =   3
               l(13) =   3
               l(14) =   3
               l(15) =   3
     Q(r) pseudized with 0 coefficients 


     PseudoPot. # 2 for Sn read from file:
     /scratch/cmalosso/degironcoli/pseudo/pseudo-usp/Sn.rel-pbesol-dn-rrkjus_psl.1.0.0.UPF
     MD5 check sum: c1cf6ea56b96a3656bdf0d1db379e093
     Pseudo is Ultrasoft + core correction, Zval = 14.0
     Generated using &quot;atomic&quot; code by A. Dal Corso  v.6.3
     Using radial grid of 1243 points, 10 beta functions with: 
                l(1) =   0
                l(2) =   0
                l(3) =   1
                l(4) =   1
                l(5) =   1
                l(6) =   1
                l(7) =   2
                l(8) =   2
                l(9) =   2
               l(10) =   2
     Q(r) pseudized with 0 coefficients 


     PseudoPot. # 3 for I  read from file:
     /scratch/cmalosso/degironcoli/pseudo/pseudo-usp/I.rel-pbesol-n-rrkjus_psl.1.0.0.UPF
     MD5 check sum: 0f96c6bfb1b448f280658f96eb466b08
     Pseudo is Ultrasoft + core correction, Zval =  7.0
     Generated using &quot;atomic&quot; code by A. Dal Corso  v.6.3
     Using radial grid of 1247 points, 10 beta functions with: 
                l(1) =   0
                l(2) =   0
                l(3) =   1
                l(4) =   1
                l(5) =   1
                l(6) =   1
                l(7) =   2
                l(8) =   2
                l(9) =   2
               l(10) =   2
     Q(r) pseudized with 0 coefficients 


     atomic species   valence    mass     pseudopotential
        Cs             9.00   132.90000     Cs( 1.00)
        Sn            14.00   118.70000     Sn( 1.00)
        I              7.00   126.90000     I ( 1.00)

      8 Sym. Ops., with inversion, found ( 6 have fractional translation)


                                    s                        frac. trans.

      isym =  1     identity                                     

 cryst.   s( 1) = (     1          0          0      )
                  (     0          1          0      )
                  (     0          0          1      )

 cart.    s( 1) = (  1.0000000  0.0000000  0.0000000 )
                  (  0.0000000  1.0000000  0.0000000 )
                  (  0.0000000  0.0000000  1.0000000 )


      isym =  2     180 deg rotation - cart. axis [0,0,1]        

 cryst.   s( 2) = (    -1          0          0      )    f =(  0.0000000 )
                  (     0         -1          0      )       (  0.5000000 )
                  (     0          0          1      )       (  0.5000000 )

 cart.    s( 2) = ( -1.0000000  0.0000000  0.0000000 )    f =(  0.0000000 )
                  (  0.0000000 -1.0000000  0.0000000 )       (  1.1138638 )
                  (  0.0000000  0.0000000  1.0000000 )       (  1.8777098 )


      isym =  3     180 deg rotation - cart. axis [0,1,0]        

 cryst.   s( 3) = (    -1          0          0      )    f =(  0.5000000 )
                  (     0          1          0      )       ( -0.5000000 )
                  (     0          0         -1      )       ( -0.5000000 )

 cart.    s( 3) = ( -1.0000000  0.0000000  0.0000000 )    f =(  0.5000000 )
                  (  0.0000000  1.0000000  0.0000000 )       ( -1.1138638 )
                  (  0.0000000  0.0000000 -1.0000000 )       ( -1.8777098 )


      isym =  4     180 deg rotation - cart. axis [1,0,0]        

 cryst.   s( 4) = (     1          0          0      )    f =( -0.5000000 )
                  (     0         -1          0      )       (  0.0000000 )
                  (     0          0         -1      )       (  0.0000000 )

 cart.    s( 4) = (  1.0000000  0.0000000  0.0000000 )    f =( -0.5000000 )
                  (  0.0000000 -1.0000000  0.0000000 )       (  0.0000000 )
                  (  0.0000000  0.0000000 -1.0000000 )       (  0.0000000 )


      isym =  5     inversion                                    

 cryst.   s( 5) = (    -1          0          0      )
                  (     0         -1          0      )
                  (     0          0         -1      )

 cart.    s( 5) = ( -1.0000000  0.0000000  0.0000000 )
                  (  0.0000000 -1.0000000  0.0000000 )
                  (  0.0000000  0.0000000 -1.0000000 )


      isym =  6     inv. 180 deg rotation - cart. axis [0,0,1]   

 cryst.   s( 6) = (     1          0          0      )    f =(  0.0000000 )
                  (     0          1          0      )       ( -0.5000000 )
                  (     0          0         -1      )       ( -0.5000000 )

 cart.    s( 6) = (  1.0000000  0.0000000  0.0000000 )    f =(  0.0000000 )
                  (  0.0000000  1.0000000  0.0000000 )       ( -1.1138638 )
                  (  0.0000000  0.0000000 -1.0000000 )       ( -1.8777098 )


      isym =  7     inv. 180 deg rotation - cart. axis [0,1,0]   

 cryst.   s( 7) = (     1          0          0      )    f =( -0.5000000 )
                  (     0         -1          0      )       (  0.5000000 )
                  (     0          0          1      )       (  0.5000000 )

 cart.    s( 7) = (  1.0000000  0.0000000  0.0000000 )    f =( -0.5000000 )
                  (  0.0000000 -1.0000000  0.0000000 )       (  1.1138638 )
                  (  0.0000000  0.0000000  1.0000000 )       (  1.8777098 )


      isym =  8     inv. 180 deg rotation - cart. axis [1,0,0]   

 cryst.   s( 8) = (    -1          0          0      )    f =(  0.5000000 )
                  (     0          1          0      )       (  0.0000000 )
                  (     0          0          1      )       (  0.0000000 )

 cart.    s( 8) = ( -1.0000000  0.0000000  0.0000000 )    f =(  0.5000000 )
                  (  0.0000000  1.0000000  0.0000000 )       (  0.0000000 )
                  (  0.0000000  0.0000000  1.0000000 )       (  0.0000000 )


     double point group D_2h (mmm) 
     there are 10 classes and  2 irreducible representations
     the character table:

       E     -E     C2    C2'  C2''  i     -i     s_v   s_v' s_v''
                   -C2   -C2'  -C2''             -s_v  -s_v' -s_v'
G_5+   2.00 -2.00  0.00  0.00  0.00  2.00 -2.00  0.00  0.00  0.00
G_5-   2.00 -2.00  0.00  0.00  0.00 -2.00  2.00  0.00  0.00  0.00

     the symmetry operations in each class and the name of the first element:

     E             1
          identity                                               
     -E           -1
          identity E                                             
      C2  -C2      2   -2
          180 deg rotation - cart. axis [0,0,1]                  
      C2' -C2'     4   -4
          180 deg rotation - cart. axis [1,0,0]                  
     C2'' -C2''    3   -3
          180 deg rotation - cart. axis [0,1,0]                  
     i             5
          inversion                                              
     -i           -5
          inversion E                                            
      s_v -s_v     6   -6
          inv. 180 deg rotation - cart. axis [0,0,1]             
      s_v'-s_v'    8   -8
          inv. 180 deg rotation - cart. axis [1,0,0]             
     s_v''-s_v'    7   -7
          inv. 180 deg rotation - cart. axis [0,1,0]             

   Cartesian axes

     site n.     atom                  positions (alat units)
         1           Cs  tau(   1) = (   0.2500000   0.1859640   2.5168147  )
         2           Cs  tau(   2) = (   0.7500000   2.0417636   1.2386050  )
         3           Cs  tau(   3) = (   0.2500000   1.2998278   3.1163149  )
         4           Cs  tau(   4) = (   0.7500000   0.9278998   0.6391048  )
         5           Sn  tau(   5) = (   0.2500000   0.7615710   1.6485466  )
         6           Sn  tau(   6) = (   0.7500000   1.4661567   2.1068731  )
         7           Sn  tau(   7) = (   0.2500000   1.8754348   0.2291632  )
         8           Sn  tau(   8) = (   0.7500000   0.3522928   3.5262565  )
         9           I   tau(   9) = (   0.7500000   0.0581437   0.4202578  )
        10           I   tau(  10) = (   0.2500000   2.1695839   3.3351619  )
        11           I   tau(  11) = (   0.7500000   1.1720075   1.4574521  )
        12           I   tau(  12) = (   0.2500000   1.0557201   2.2979676  )
        13           I   tau(  13) = (   0.7500000   0.6531118   2.9738192  )
        14           I   tau(  14) = (   0.2500000   1.5746158   0.7816005  )
        15           I   tau(  15) = (   0.7500000   1.7669756   2.6593103  )
        16           I   tau(  16) = (   0.2500000   0.4607520   1.0961094  )
        17           I   tau(  17) = (   0.7500000   0.3753632   1.8734812  )
        18           I   tau(  18) = (   0.2500000   1.8523644   1.8819384  )
        19           I   tau(  19) = (   0.7500000   1.4892270   0.0042286  )
        20           I   tau(  20) = (   0.2500000   0.7385006   3.7511911  )

   Crystallographic axes

     site n.     atom                  positions (cryst. coord.)
         1           Cs  tau(   1) = (  0.2500000  0.0834770  0.6701820  )
         2           Cs  tau(   2) = (  0.7500000  0.9165230  0.3298180  )
         3           Cs  tau(   3) = (  0.2500000  0.5834770  0.8298180  )
         4           Cs  tau(   4) = (  0.7500000  0.4165230  0.1701820  )
         5           Sn  tau(   5) = (  0.2500000  0.3418600  0.4389780  )
         6           Sn  tau(   6) = (  0.7500000  0.6581400  0.5610220  )
         7           Sn  tau(   7) = (  0.2500000  0.8418600  0.0610220  )
         8           Sn  tau(   8) = (  0.7500000  0.1581400  0.9389780  )
         9           I   tau(   9) = (  0.7500000  0.0261000  0.1119070  )
        10           I   tau(  10) = (  0.2500000  0.9739000  0.8880930  )
        11           I   tau(  11) = (  0.7500000  0.5261000  0.3880930  )
        12           I   tau(  12) = (  0.2500000  0.4739000  0.6119070  )
        13           I   tau(  13) = (  0.7500000  0.2931740  0.7918740  )
        14           I   tau(  14) = (  0.2500000  0.7068260  0.2081260  )
        15           I   tau(  15) = (  0.7500000  0.7931740  0.7081260  )
        16           I   tau(  16) = (  0.2500000  0.2068260  0.2918740  )
        17           I   tau(  17) = (  0.7500000  0.1684960  0.4988740  )
        18           I   tau(  18) = (  0.2500000  0.8315040  0.5011260  )
        19           I   tau(  19) = (  0.7500000  0.6684960  0.0011260  )
        20           I   tau(  20) = (  0.2500000  0.3315040  0.9988740  )

     number of k points=     1
                       cart. coord. in units 2pi/alat
        k(    1) = (   0.2500000   0.1122220   0.0665705), wk =   1.0000000

                       cryst. coord.
        k(    1) = (   0.2500000   0.2500000   0.2500000), wk =   1.0000000

     Dense  grid:   558911 G-vectors     FFT dimensions: (  54, 120, 192)

     Smooth grid:   304449 G-vectors     FFT dimensions: (  48,  96, 160)

     Dynamical RAM for                 wfc:       4.25 MB

     Dynamical RAM for     wfc (w. buffer):       4.25 MB

     Dynamical RAM for           str. fact:       0.53 MB

     Dynamical RAM for           local pot:       0.00 MB

     Dynamical RAM for          nlocal pot:       9.62 MB

     Dynamical RAM for                qrad:      33.38 MB

     Dynamical RAM for          rho,v,vnew:       4.50 MB

     Dynamical RAM for               rhoin:       1.50 MB

     Dynamical RAM for            rho*nmix:      11.37 MB

     Dynamical RAM for           G-vectors:       0.71 MB

     Dynamical RAM for          h,s,v(r/c):       5.67 MB

     Dynamical RAM for          <psi|beta>:       4.28 MB

     Dynamical RAM for                 psi:       8.51 MB

     Dynamical RAM for                hpsi:       8.51 MB

     Dynamical RAM for                spsi:       8.51 MB

     Dynamical RAM for      wfcinit/wfcrot:       8.53 MB

     Dynamical RAM for           addusdens:     365.06 MB

     Dynamical RAM for          addusforce:     369.61 MB

     Dynamical RAM for         addusstress:     368.25 MB

     Estimated static dynamical RAM per process >      68.17 MB

     Estimated max dynamical RAM per process >     437.77 MB

     Estimated total dynamical RAM >      20.52 GB

     Initial potential from superposition of free atoms

     starting charge  175.84164, renormalised to  176.00000
     Starting wfcs are  208 randomized atomic wfcs

     total cpu time spent up to now is        7.8 secs

     Self-consistent Calculation

     iteration #  1     ecut=    50.00 Ry     beta= 0.35
     Davidson diagonalization with overlap
     ethr =  1.00E-02,  avg # of iterations =  1.0

     Threshold (ethr) on eigenvalues was too large:
     Diagonalizing with lowered threshold

     Davidson diagonalization with overlap
     ethr =  3.05E-04,  avg # of iterations =  3.0

     total cpu time spent up to now is       22.0 secs

     total energy              =   -1267.98654271 Ry
     estimated scf accuracy    <       0.46366363 Ry

     iteration #  2     ecut=    50.00 Ry     beta= 0.35
     Davidson diagonalization with overlap
     ethr =  2.63E-04,  avg # of iterations =  4.0

     total cpu time spent up to now is       30.9 secs

     total energy              =   -1268.09115538 Ry
     estimated scf accuracy    <       0.04182197 Ry

     iteration #  3     ecut=    50.00 Ry     beta= 0.35
     Davidson diagonalization with overlap
     ethr =  2.38E-05,  avg # of iterations =  6.0

     total cpu time spent up to now is       41.7 secs

     total energy              =   -1268.11922717 Ry
     estimated scf accuracy    <       0.01662450 Ry

     iteration #  4     ecut=    50.00 Ry     beta= 0.35
     Davidson diagonalization with overlap
     ethr =  9.45E-06,  avg # of iterations =  2.0

     total cpu time spent up to now is       50.7 secs

     total energy              =   -1268.12240114 Ry
     estimated scf accuracy    <       0.00251409 Ry

     iteration #  5     ecut=    50.00 Ry     beta= 0.35
     Davidson diagonalization with overlap
     ethr =  1.43E-06,  avg # of iterations =  6.0

     total cpu time spent up to now is       62.2 secs

     total energy              =   -1268.12273208 Ry
     estimated scf accuracy    <       0.00346827 Ry

     iteration #  6     ecut=    50.00 Ry     beta= 0.35
     Davidson diagonalization with overlap
     ethr =  1.43E-06,  avg # of iterations =  4.0

     total cpu time spent up to now is       72.1 secs

     total energy              =   -1268.12334688 Ry
     estimated scf accuracy    <       0.00012054 Ry

     iteration #  7     ecut=    50.00 Ry     beta= 0.35
     Davidson diagonalization with overlap
     ethr =  6.85E-08,  avg # of iterations =  7.0

     total cpu time spent up to now is       83.6 secs

     total energy              =   -1268.12342127 Ry
     estimated scf accuracy    <       0.00003318 Ry

     iteration #  8     ecut=    50.00 Ry     beta= 0.35
     Davidson diagonalization with overlap
     ethr =  1.89E-08,  avg # of iterations =  5.0

     total cpu time spent up to now is       95.2 secs

     total energy              =   -1268.12343192 Ry
     estimated scf accuracy    <       0.00001305 Ry

     iteration #  9     ecut=    50.00 Ry     beta= 0.35
     Davidson diagonalization with overlap
     ethr =  7.41E-09,  avg # of iterations =  3.0

     total cpu time spent up to now is      103.4 secs

     total energy              =   -1268.12343229 Ry
     estimated scf accuracy    <       0.00000326 Ry

     iteration # 10     ecut=    50.00 Ry     beta= 0.35
     Davidson diagonalization with overlap
     ethr =  1.85E-09,  avg # of iterations =  5.0

     total cpu time spent up to now is      113.8 secs

     End of self-consistent calculation

          k = 0.2500 0.1122 0.0666 ( 38020 PWs)   bands (ev):

   -18.4167 -18.4167 -18.4167 -18.4167 -18.4166 -18.4166 -18.4166 -18.4166
   -18.4049 -18.4049 -18.4049 -18.4049 -18.4048 -18.4048 -18.4048 -18.4048
   -17.8378 -17.8378 -17.8377 -17.8377 -17.8372 -17.8372 -17.8371 -17.8371
   -17.3796 -17.3796 -17.3796 -17.3796 -17.3796 -17.3796 -17.3796 -17.3796
   -17.3676 -17.3676 -17.3676 -17.3676 -17.3675 -17.3675 -17.3675 -17.3675
   -17.3644 -17.3644 -17.3644 -17.3644 -17.3642 -17.3642 -17.3642 -17.3642
    -8.8083  -8.8083  -8.7970  -8.7970  -8.6586  -8.6586  -8.6428  -8.6428
    -8.5473  -8.5473  -8.5418  -8.5418  -8.4760  -8.4760  -8.4590  -8.4590
    -8.4023  -8.4023  -8.3977  -8.3977  -8.3823  -8.3823  -8.3767  -8.3767
    -5.8016  -5.8016  -5.7977  -5.7977  -5.7940  -5.7940  -5.7899  -5.7899
    -4.2232  -4.2232  -4.2179  -4.2179  -4.2067  -4.2067  -4.1995  -4.1995
    -4.1616  -4.1616  -4.1585  -4.1585  -4.1535  -4.1535  -4.1487  -4.1487
    -3.1717  -3.1717  -3.1676  -3.1676  -3.0792  -3.0792  -3.0692  -3.0692
    -0.0203  -0.0203   0.0397   0.0397   0.1310   0.1310   0.1638   0.1638
     0.2810   0.2810   0.3717   0.3717   0.5004   0.5004   0.5584   0.5584
     0.6746   0.6746   0.7077   0.7077   0.7418   0.7418   0.8082   0.8082
     1.0142   1.0142   1.0802   1.0802   1.2823   1.2823   1.3563   1.3563
     1.4101   1.4101   1.4769   1.4769   1.5950   1.5950   1.6546   1.6546
     1.7281   1.7281   1.7671   1.7671   1.8190   1.8190   1.8471   1.8471
     1.8791   1.8791   1.9582   1.9582   2.0063   2.0063   2.0774   2.0774
     2.1321   2.1321   2.1595   2.1595   2.3126   2.3126   2.3453   2.3453
     2.6542   2.6542   2.7515   2.7515   2.9426   2.9426   2.9903   2.9903

     occupation numbers 
     1.0000   1.0000   1.0000   1.0000   1.0000   1.0000   1.0000   1.0000
     1.0000   1.0000   1.0000   1.0000   1.0000   1.0000   1.0000   1.0000
     1.0000   1.0000   1.0000   1.0000   1.0000   1.0000   1.0000   1.0000
     1.0000   1.0000   1.0000   1.0000   1.0000   1.0000   1.0000   1.0000
     1.0000   1.0000   1.0000   1.0000   1.0000   1.0000   1.0000   1.0000
     1.0000   1.0000   1.0000   1.0000   1.0000   1.0000   1.0000   1.0000
     1.0000   1.0000   1.0000   1.0000   1.0000   1.0000   1.0000   1.0000
     1.0000   1.0000   1.0000   1.0000   1.0000   1.0000   1.0000   1.0000
     1.0000   1.0000   1.0000   1.0000   1.0000   1.0000   1.0000   1.0000
     1.0000   1.0000   1.0000   1.0000   1.0000   1.0000   1.0000   1.0000
     1.0000   1.0000   1.0000   1.0000   1.0000   1.0000   1.0000   1.0000
     1.0000   1.0000   1.0000   1.0000   1.0000   1.0000   1.0000   1.0000
     1.0000   1.0000   1.0000   1.0000   1.0000   1.0000   1.0000   1.0000
     1.0000   1.0000   1.0000   1.0000   1.0000   1.0000   1.0000   1.0000
     1.0000   1.0000   1.0000   1.0000   1.0000   1.0000   1.0000   1.0000
     1.0000   1.0000   1.0000   1.0000   1.0000   1.0000   1.0000   1.0000
     1.0000   1.0000   1.0000   1.0000   1.0000   1.0000   1.0000   1.0000
     1.0000   1.0000   1.0000   1.0000   1.0000   1.0000   1.0000   1.0000
     1.0000   1.0000   1.0000   1.0000   1.0000   1.0000   1.0000   1.0000
     1.0000   1.0000   1.0000   1.0000   1.0000   1.0000   1.0000   1.0000
     1.0000   1.0000   1.0000   1.0000   1.0000   1.0000   1.0000   1.0000
     1.0000   1.0000   1.0000   1.0000   1.0000   1.0000   1.0000   1.0000

     highest occupied level (ev):     2.9903

!    total energy              =   -1268.12343353 Ry
     estimated scf accuracy    <       0.00000079 Ry

     The total energy is the sum of the following terms:
     one-electron contribution =    -488.08469053 Ry
     hartree contribution      =     316.26845038 Ry
     xc contribution           =    -462.73758900 Ry
     ewald contribution        =    -633.56960439 Ry

     convergence has been achieved in  10 iterations

     Forces acting on atoms (cartesian axes, Ry/au):

     atom    1 type  1   force =     0.00000000   -0.00092105    0.00001693
     atom    2 type  1   force =     0.00000000    0.00092105   -0.00001693
     atom    3 type  1   force =     0.00000000   -0.00092105   -0.00001693
     atom    4 type  1   force =     0.00000000    0.00092105    0.00001693
     atom    5 type  2   force =     0.00000000   -0.00064541   -0.00000614
     atom    6 type  2   force =     0.00000000    0.00064541    0.00000614
     atom    7 type  2   force =     0.00000000   -0.00064541    0.00000614
     atom    8 type  2   force =     0.00000000    0.00064541   -0.00000614
     atom    9 type  3   force =     0.00000000    0.00102645   -0.00190264
     atom   10 type  3   force =     0.00000000   -0.00102645    0.00190264
     atom   11 type  3   force =     0.00000000    0.00102645    0.00190264
     atom   12 type  3   force =     0.00000000   -0.00102645   -0.00190264
     atom   13 type  3   force =     0.00000000   -0.00157930    0.00222160
     atom   14 type  3   force =     0.00000000    0.00157930   -0.00222160
     atom   15 type  3   force =     0.00000000   -0.00157930   -0.00222160
     atom   16 type  3   force =     0.00000000    0.00157930    0.00222160
     atom   17 type  3   force =     0.00000000   -0.00210057    0.00058543
     atom   18 type  3   force =     0.00000000    0.00210057   -0.00058543
     atom   19 type  3   force =     0.00000000   -0.00210057   -0.00058543
     atom   20 type  3   force =     0.00000000    0.00210057    0.00058543
     The non-local contrib.  to forces
     atom    1 type  1   force =     0.00000000    0.00256483   -0.00363090
     atom    2 type  1   force =     0.00000000   -0.00256483    0.00363090
     atom    3 type  1   force =     0.00000000    0.00256483    0.00363090
     atom    4 type  1   force =     0.00000000   -0.00256483   -0.00363090
     atom    5 type  2   force =     0.00000000   -0.08385797   -0.12908007
     atom    6 type  2   force =     0.00000000    0.08385797    0.12908007
     atom    7 type  2   force =     0.00000000   -0.08385797    0.12908007
     atom    8 type  2   force =     0.00000000    0.08385797   -0.12908007
     atom    9 type  3   force =     0.00000000   -0.05025599   -0.04895459
     atom   10 type  3   force =     0.00000000    0.05025599    0.04895459
     atom   11 type  3   force =     0.00000000   -0.05025599    0.04895459
     atom   12 type  3   force =     0.00000000    0.05025599   -0.04895459
     atom   13 type  3   force =     0.00000000   -0.03227645    0.05469353
     atom   14 type  3   force =    -0.00000000    0.03227645   -0.05469353
     atom   15 type  3   force =     0.00000000   -0.03227645   -0.05469353
     atom   16 type  3   force =    -0.00000000    0.03227645    0.05469353
     atom   17 type  3   force =     0.00000000    0.05649024   -0.01765080
     atom   18 type  3   force =     0.00000000   -0.05649024    0.01765080
     atom   19 type  3   force =     0.00000000    0.05649024    0.01765080
     atom   20 type  3   force =     0.00000000   -0.05649024   -0.01765080
     The ionic contribution  to forces
     atom    1 type  1   force =     0.00000000    0.02273773    0.42856976
     atom    2 type  1   force =    -0.00000000   -0.02273773   -0.42856976
     atom    3 type  1   force =     0.00000000    0.02273773   -0.42856976
     atom    4 type  1   force =    -0.00000000   -0.02273773    0.42856976
     atom    5 type  2   force =     0.00000000   -2.44382135   -1.60292983
     atom    6 type  2   force =     0.00000000    2.44382135    1.60292983
     atom    7 type  2   force =    -0.00000000   -2.44382135    1.60292983
     atom    8 type  2   force =     0.00000000    2.44382135   -1.60292983
     atom    9 type  3   force =     0.00000000    3.00608891    5.13288893
     atom   10 type  3   force =    -0.00000000   -3.00608891   -5.13288893
     atom   11 type  3   force =     0.00000000    3.00608891   -5.13288893
     atom   12 type  3   force =    -0.00000000   -3.00608891    5.13288893
     atom   13 type  3   force =     0.00000000    2.02422849   -3.75281499
     atom   14 type  3   force =     0.00000000   -2.02422849    3.75281499
     atom   15 type  3   force =    -0.00000000    2.02422849    3.75281499
     atom   16 type  3   force =    -0.00000000   -2.02422849   -3.75281499
     atom   17 type  3   force =     0.00000000   -4.20564473    2.10270404
     atom   18 type  3   force =    -0.00000000    4.20564473   -2.10270404
     atom   19 type  3   force =     0.00000000   -4.20564473   -2.10270404
     atom   20 type  3   force =    -0.00000000    4.20564473    2.10270404
     The local contribution  to forces
     atom    1 type  1   force =    -0.00000000   -0.02626385   -0.42517940
     atom    2 type  1   force =     0.00000000    0.02626385    0.42517940
     atom    3 type  1   force =    -0.00000000   -0.02626385    0.42517940
     atom    4 type  1   force =     0.00000000    0.02626385   -0.42517940
     atom    5 type  2   force =    -0.00000000    2.52560178    1.73160670
     atom    6 type  2   force =    -0.00000000   -2.52560178   -1.73160670
     atom    7 type  2   force =    -0.00000000    2.52560178   -1.73160670
     atom    8 type  2   force =    -0.00000000   -2.52560178    1.73160670
     atom    9 type  3   force =     0.00000000   -2.96005469   -5.09083821
     atom   10 type  3   force =    -0.00000000    2.96005469    5.09083821
     atom   11 type  3   force =     0.00000000   -2.96005469    5.09083821
     atom   12 type  3   force =    -0.00000000    2.96005469   -5.09083821
     atom   13 type  3   force =    -0.00000000   -1.99657131    3.70568571
     atom   14 type  3   force =    -0.00000000    1.99657131   -3.70568571
     atom   15 type  3   force =     0.00000000   -1.99657131   -3.70568571
     atom   16 type  3   force =    -0.00000000    1.99657131    3.70568571
     atom   17 type  3   force =    -0.00000000    4.15303928   -2.08651637
     atom   18 type  3   force =     0.00000000   -4.15303928    2.08651637
     atom   19 type  3   force =    -0.00000000    4.15303928    2.08651637
     atom   20 type  3   force =     0.00000000   -4.15303928   -2.08651637
     The core correction contribution to forces
     atom    1 type  1   force =     0.00000000   -0.00006380    0.00020963
     atom    2 type  1   force =     0.00000000    0.00006380   -0.00020963
     atom    3 type  1   force =     0.00000000   -0.00006380   -0.00020963
     atom    4 type  1   force =    -0.00000000    0.00006380    0.00020963
     atom    5 type  2   force =    -0.00000000    0.00017402    0.00017539
     atom    6 type  2   force =    -0.00000000   -0.00017402   -0.00017539
     atom    7 type  2   force =    -0.00000000    0.00017402   -0.00017539
     atom    8 type  2   force =    -0.00000000   -0.00017402    0.00017539
     atom    9 type  3   force =     0.00000000    0.00538847    0.00547000
     atom   10 type  3   force =    -0.00000000   -0.00538847   -0.00547000
     atom   11 type  3   force =     0.00000000    0.00538847   -0.00547000
     atom   12 type  3   force =     0.00000000   -0.00538847    0.00547000
     atom   13 type  3   force =     0.00000000    0.00319863   -0.00548096
     atom   14 type  3   force =    -0.00000000   -0.00319863    0.00548096
     atom   15 type  3   force =     0.00000000    0.00319863    0.00548096
     atom   16 type  3   force =    -0.00000000   -0.00319863   -0.00548096
     atom   17 type  3   force =     0.00000000   -0.00641605    0.00210686
     atom   18 type  3   force =    -0.00000000    0.00641605   -0.00210686
     atom   19 type  3   force =     0.00000000   -0.00641605   -0.00210686
     atom   20 type  3   force =    -0.00000000    0.00641605    0.00210686
     The Hubbard contrib.    to forces
     atom    1 type  1   force =     0.00000000    0.00000000    0.00000000
     atom    2 type  1   force =     0.00000000    0.00000000    0.00000000
     atom    3 type  1   force =     0.00000000    0.00000000    0.00000000
     atom    4 type  1   force =     0.00000000    0.00000000    0.00000000
     atom    5 type  2   force =     0.00000000    0.00000000    0.00000000
     atom    6 type  2   force =     0.00000000    0.00000000    0.00000000
     atom    7 type  2   force =     0.00000000    0.00000000    0.00000000
     atom    8 type  2   force =     0.00000000    0.00000000    0.00000000
     atom    9 type  3   force =     0.00000000    0.00000000    0.00000000
     atom   10 type  3   force =     0.00000000    0.00000000    0.00000000
     atom   11 type  3   force =     0.00000000    0.00000000    0.00000000
     atom   12 type  3   force =     0.00000000    0.00000000    0.00000000
     atom   13 type  3   force =     0.00000000    0.00000000    0.00000000
     atom   14 type  3   force =     0.00000000    0.00000000    0.00000000
     atom   15 type  3   force =     0.00000000    0.00000000    0.00000000
     atom   16 type  3   force =     0.00000000    0.00000000    0.00000000
     atom   17 type  3   force =     0.00000000    0.00000000    0.00000000
     atom   18 type  3   force =     0.00000000    0.00000000    0.00000000
     atom   19 type  3   force =     0.00000000    0.00000000    0.00000000
     atom   20 type  3   force =     0.00000000    0.00000000    0.00000000
     The SCF correction term to forces
     atom    1 type  1   force =     0.00000000    0.00010404    0.00004783
     atom    2 type  1   force =    -0.00000000   -0.00010404   -0.00004783
     atom    3 type  1   force =     0.00000000    0.00010404   -0.00004783
     atom    4 type  1   force =    -0.00000000   -0.00010404    0.00004783
     atom    5 type  2   force =    -0.00000000    0.00125812    0.00022168
     atom    6 type  2   force =     0.00000000   -0.00125812   -0.00022168
     atom    7 type  2   force =    -0.00000000    0.00125812   -0.00022168
     atom    8 type  2   force =     0.00000000   -0.00125812    0.00022168
     atom    9 type  3   force =     0.00000000   -0.00014026   -0.00046877
     atom   10 type  3   force =    -0.00000000    0.00014026    0.00046877
     atom   11 type  3   force =     0.00000000   -0.00014026    0.00046877
     atom   12 type  3   force =    -0.00000000    0.00014026   -0.00046877
     atom   13 type  3   force =    -0.00000000   -0.00015866    0.00013831
     atom   14 type  3   force =    -0.00000000    0.00015866   -0.00013831
     atom   15 type  3   force =    -0.00000000   -0.00015866   -0.00013831
     atom   16 type  3   force =     0.00000000    0.00015866    0.00013831
     atom   17 type  3   force =     0.00000000    0.00043069   -0.00005830
     atom   18 type  3   force =     0.00000000   -0.00043069    0.00005830
     atom   19 type  3   force =     0.00000000    0.00043069    0.00005830
     atom   20 type  3   force =    -0.00000000   -0.00043069   -0.00005830

     Total force =     0.008514     Total SCF correction =     0.002910
     SCF correction compared to forces is large: reduce conv_thr to get better values


     Computing stress (Cartesian axis) and pressure

          total   stress  (Ry/bohr**3)                   (kbar)     P=      -12.72
  -0.00011508   0.00000000   0.00000000          -16.93        0.00        0.00
   0.00000000  -0.00006500   0.00000000            0.00       -9.56        0.00
   0.00000000   0.00000000  -0.00007924            0.00        0.00      -11.66

     kinetic stress (kbar)   5515.42      0.00      0.00
                                0.00   5536.16      0.00
                                0.00      0.00   5528.13

     local   stress (kbar)  -4552.34     -0.00     -0.00
                               -0.00  -1926.20      0.00
                               -0.00      0.00  -1030.71

     nonloc. stress (kbar)   1156.69      0.00      0.00
                                0.00   1157.28      0.00
                                0.00      0.00   1159.54

     hartree stress (kbar)   3399.48      0.00      0.00
                                0.00   2187.35      0.00
                                0.00      0.00   1716.28

     exc-cor stress (kbar)   5452.24     -0.00     -0.00
                               -0.00   5452.16      0.00
                               -0.00      0.00   5452.36

     corecor stress (kbar)  -7203.61      0.00     -0.00
                                0.00  -7204.16     -0.00
                               -0.00     -0.00  -7204.17

     ewald   stress (kbar)  -3784.80     -0.00     -0.00
                               -0.00  -5212.16      0.00
                               -0.00      0.00  -5633.09

     hubbard stress (kbar)      0.00      0.00      0.00
                                0.00      0.00      0.00
                                0.00      0.00      0.00

     DFT-D   stress (kbar)      0.00      0.00      0.00
                                0.00      0.00      0.00
                                0.00      0.00      0.00

     XDM     stress (kbar)      0.00      0.00      0.00
                                0.00      0.00      0.00
                                0.00      0.00      0.00

     dft-nl  stress (kbar)      0.00      0.00      0.00
                                0.00      0.00      0.00
                                0.00      0.00      0.00

     TS-vdW  stress (kbar)      0.00      0.00      0.00
                                0.00      0.00      0.00
                                0.00      0.00      0.00



     Writing output data file ./CsSnI3.save/

     init_run     :      9.24s CPU      6.35s WALL (       1 calls)
     electrons    :    157.24s CPU    107.62s WALL (       1 calls)
     forces       :     11.08s CPU      8.53s WALL (       1 calls)
     stress       :     43.47s CPU     23.85s WALL (       1 calls)

     Called by init_run:
     wfcinit      :      1.87s CPU      1.16s WALL (       1 calls)
     wfcinit:atom :      0.01s CPU      0.00s WALL (       1 calls)
     wfcinit:wfcr :      1.81s CPU      1.09s WALL (       1 calls)
     potinit      :      0.84s CPU      0.45s WALL (       1 calls)
     hinit0       :      2.49s CPU      1.72s WALL (       1 calls)

     Called by electrons:
     c_bands      :     63.08s CPU     37.66s WALL (      11 calls)
     sum_band     :     38.56s CPU     26.12s WALL (      11 calls)
     v_of_rho     :      1.01s CPU      0.59s WALL (      11 calls)
     v_h          :      0.08s CPU      0.05s WALL (      11 calls)
     v_xc         :      1.14s CPU      0.69s WALL (      13 calls)
     newd         :     47.16s CPU     35.15s WALL (      11 calls)
     mix_rho      :      0.80s CPU      0.54s WALL (      11 calls)

     Called by c_bands:
     init_us_2    :      0.31s CPU      0.17s WALL (      23 calls)
     cegterg      :     60.15s CPU     35.87s WALL (      11 calls)

     Called by sum_band:
     sum_band:wei :      0.00s CPU      0.00s WALL (      11 calls)
     sum_band:loo :      8.58s CPU      4.77s WALL (      11 calls)
     sum_band:buf :      0.00s CPU      0.00s WALL (      11 calls)
     sum_band:ini :      0.16s CPU      0.08s WALL (      11 calls)
     sum_band:cal :      1.74s CPU      0.97s WALL (      11 calls)
     sum_band:bec :      1.62s CPU      1.08s WALL (      11 calls)
     addusdens    :     28.56s CPU     20.11s WALL (      11 calls)
     addusd:skk   :      0.04s CPU      0.02s WALL (      33 calls)
     addusd:dgemm :      6.76s CPU      9.06s WALL (      33 calls)
     addusd:qvan2 :     21.28s CPU     10.72s WALL (      33 calls)

     Called by *egterg:
     cdiaghg      :      3.59s CPU      2.37s WALL (      56 calls)
     cegterg:over :      3.74s CPU      2.58s WALL (      46 calls)
     cegterg:upda :      1.65s CPU      0.94s WALL (      46 calls)
     cegterg:last :      3.80s CPU      2.02s WALL (      29 calls)
     h_psi        :     39.76s CPU     22.00s WALL (      58 calls)
     s_psi        :      7.15s CPU      5.38s WALL (      58 calls)
     g_psi        :      0.10s CPU      0.05s WALL (      46 calls)

     Called by h_psi:
     h_psi:calbec :      5.62s CPU      3.11s WALL (      58 calls)
     vloc_psi     :     28.44s CPU     14.98s WALL (      58 calls)
     add_vuspsi   :      5.55s CPU      3.80s WALL (      58 calls)

     General routines
     calbec       :      8.81s CPU      5.28s WALL (      74 calls)
     fft          :      2.01s CPU      1.33s WALL (     260 calls)
     ffts         :      0.72s CPU      0.52s WALL (      88 calls)
     fftw         :     29.12s CPU     15.39s WALL (   28064 calls)
     interpolate  :      0.48s CPU      0.28s WALL (      44 calls)

     Parallel routines
     fft_scatt_xy :      1.81s CPU      0.92s WALL (   28412 calls)
     fft_scatt_yz :     21.37s CPU     11.84s WALL (   28412 calls)

     PWSCF        :   3m42.82s CPU   2m28.91s WALL


   This run was terminated on:  21:53:55  11Mar2021            

=------------------------------------------------------------------------------=
   JOB DONE.
=------------------------------------------------------------------------------=
