
     Program PWSCF v.6.6 starts on 25Jan2021 at 10:32:17 

     This program is part of the open-source Quantum ESPRESSO suite
     for quantum simulation of materials; please cite
         "P. Giannozzi et al., J. Phys.:Condens. Matter 21 395502 (2009);
         "P. Giannozzi et al., J. Phys.:Condens. Matter 29 465901 (2017);
          URL http://www.quantum-espresso.org", 
     in publications or presentations arising from this work. More details at
     http://www.quantum-espresso.org/quote

     Parallel version (MPI), running on    64 processors

     MPI processes distributed on     2 nodes
     R & G space division:  proc/nbgrp/npool/nimage =      64
     Fft bands division:     nmany     =       1
     Waiting for input...
     Reading input from standard input

     Current dimensions of program PWSCF are:
     Max number of different atomic species (ntypx) = 10
     Max number of k-points (npk) =  40000
     Max angular momentum in pseudopotentials (lmaxx) =  3
     file Sn.pbesol-dn-kjpaw_psl.1.0.0.UPF: wavefunction(s)  5S 5P 4D renormalized
     file I.pbesol-n-kjpaw_psl.1.0.0.UPF: wavefunction(s)  5S renormalized

     Subspace diagonalization in iterative solution of the eigenvalue problem:
     a serial algorithm will be used

 
     Parallelization info
     --------------------
     sticks:   dense  smooth     PW     G-vecs:    dense   smooth      PW
     Min          82      82     23                 2785     2785     405
     Max          83      83     24                 2789     2789     409
     Sum        5297    5297   1473               178307   178307   26059
 

     Title: 
     SnI2                                                                       


     bravais-lattice index     =            8
     lattice parameter (alat)  =      14.4199  a.u.
     unit-cell volume          =    1845.1511 (a.u.)^3
     number of atoms/cell      =            6
     number of atomic types    =            2
     number of electrons       =        56.00
     number of Kohn-Sham states=           28
     kinetic-energy cutoff     =      80.0000  Ry
     charge density cutoff     =     320.0000  Ry
     convergence threshold     =      1.0E-06
     mixing beta               =       0.5000
     number of iterations used =            8  plain     mixing
     Exchange-correlation= SLA PW PSX PSC
                           (   1   4  10   8   0   0   0)

     celldm(1)=  14.419944  celldm(2)=   1.000000  celldm(3)=   0.615377
     celldm(4)=   0.000000  celldm(5)=   0.000000  celldm(6)=   0.000000

     crystal axes: (cart. coord. in units of alat)
               a(1) = (   1.000000   0.000000   0.000000 )  
               a(2) = (   0.000000   1.000000   0.000000 )  
               a(3) = (   0.000000   0.000000   0.615377 )  

     reciprocal axes: (cart. coord. in units 2 pi/alat)
               b(1) = (  1.000000  0.000000  0.000000 )  
               b(2) = (  0.000000  1.000000  0.000000 )  
               b(3) = (  0.000000  0.000000  1.625020 )  


     PseudoPot. # 1 for Sn read from file:
     /scratch/gtenti/degironcoli/pseudo/Sn.pbesol-dn-kjpaw_psl.1.0.0.UPF
     MD5 check sum: 3b64f90c238cf26ccb627d174952382c
     Pseudo is Projector augmented-wave + core cor, Zval = 14.0
     Generated using "atomic" code by A. Dal Corso v.6.3
     Shape of augmentation charge: PSQ
     Using radial grid of 1243 points,  6 beta functions with: 
                l(1) =   0
                l(2) =   0
                l(3) =   1
                l(4) =   1
                l(5) =   2
                l(6) =   2
     Q(r) pseudized with 0 coefficients 


     PseudoPot. # 2 for I  read from file:
     /scratch/gtenti/degironcoli/pseudo/I.pbesol-n-kjpaw_psl.1.0.0.UPF
     MD5 check sum: 6038403ff9b03366b27f71806436e734
     Pseudo is Projector augmented-wave + core cor, Zval =  7.0
     Generated using "atomic" code by A. Dal Corso v.6.3
     Shape of augmentation charge: PSQ
     Using radial grid of 1247 points,  6 beta functions with: 
                l(1) =   0
                l(2) =   0
                l(3) =   1
                l(4) =   1
                l(5) =   2
                l(6) =   2
     Q(r) pseudized with 0 coefficients 


     atomic species   valence    mass     pseudopotential
        Sn            14.00   118.70000     Sn( 1.00)
        I              7.00   126.90000     I ( 1.00)

     16 Sym. Ops., with inversion, found ( 8 have fractional translation)


                                    s                        frac. trans.

      isym =  1     identity                                     

 cryst.   s( 1) = (     1          0          0      )
                  (     0          1          0      )
                  (     0          0          1      )

 cart.    s( 1) = (  1.0000000  0.0000000  0.0000000 )
                  (  0.0000000  1.0000000  0.0000000 )
                  (  0.0000000  0.0000000  1.0000000 )


      isym =  2     180 deg rotation - cart. axis [0,0,1]        

 cryst.   s( 2) = (    -1          0          0      )
                  (     0         -1          0      )
                  (     0          0          1      )

 cart.    s( 2) = ( -1.0000000  0.0000000  0.0000000 )
                  (  0.0000000 -1.0000000  0.0000000 )
                  (  0.0000000  0.0000000  1.0000000 )


      isym =  3     180 deg rotation - cart. axis [0,1,0]        

 cryst.   s( 3) = (    -1          0          0      )    f =(  0.5000000 )
                  (     0          1          0      )       ( -0.5000000 )
                  (     0          0         -1      )       (  0.5000000 )

 cart.    s( 3) = ( -1.0000000  0.0000000  0.0000000 )    f =(  0.5000000 )
                  (  0.0000000  1.0000000  0.0000000 )       ( -0.5000000 )
                  (  0.0000000  0.0000000 -1.0000000 )       (  0.3076884 )


      isym =  4     180 deg rotation - cart. axis [1,0,0]        

 cryst.   s( 4) = (     1          0          0      )    f =( -0.5000000 )
                  (     0         -1          0      )       (  0.5000000 )
                  (     0          0         -1      )       (  0.5000000 )

 cart.    s( 4) = (  1.0000000  0.0000000  0.0000000 )    f =( -0.5000000 )
                  (  0.0000000 -1.0000000  0.0000000 )       (  0.5000000 )
                  (  0.0000000  0.0000000 -1.0000000 )       (  0.3076884 )


      isym =  5     180 deg rotation - cart. axis [1,1,0]        

 cryst.   s( 5) = (     0          1          0      )
                  (     1          0          0      )
                  (     0          0         -1      )

 cart.    s( 5) = (  0.0000000  1.0000000  0.0000000 )
                  (  1.0000000  0.0000000  0.0000000 )
                  (  0.0000000  0.0000000 -1.0000000 )


      isym =  6     180 deg rotation - cart. axis [1,-1,0]       

 cryst.   s( 6) = (     0         -1          0      )
                  (    -1          0          0      )
                  (     0          0         -1      )

 cart.    s( 6) = (  0.0000000 -1.0000000  0.0000000 )
                  ( -1.0000000  0.0000000  0.0000000 )
                  (  0.0000000  0.0000000 -1.0000000 )


      isym =  7      90 deg rotation - cart. axis [0,0,-1]       

 cryst.   s( 7) = (     0         -1          0      )    f =( -0.5000000 )
                  (     1          0          0      )       (  0.5000000 )
                  (     0          0          1      )       ( -0.5000000 )

 cart.    s( 7) = (  0.0000000  1.0000000  0.0000000 )    f =( -0.5000000 )
                  ( -1.0000000  0.0000000  0.0000000 )       (  0.5000000 )
                  (  0.0000000  0.0000000  1.0000000 )       ( -0.3076884 )


      isym =  8      90 deg rotation - cart. axis [0,0,1]        

 cryst.   s( 8) = (     0          1          0      )    f =(  0.5000000 )
                  (    -1          0          0      )       ( -0.5000000 )
                  (     0          0          1      )       ( -0.5000000 )

 cart.    s( 8) = (  0.0000000 -1.0000000  0.0000000 )    f =(  0.5000000 )
                  (  1.0000000  0.0000000  0.0000000 )       ( -0.5000000 )
                  (  0.0000000  0.0000000  1.0000000 )       ( -0.3076884 )


      isym =  9     inversion                                    

 cryst.   s( 9) = (    -1          0          0      )
                  (     0         -1          0      )
                  (     0          0         -1      )

 cart.    s( 9) = ( -1.0000000  0.0000000  0.0000000 )
                  (  0.0000000 -1.0000000  0.0000000 )
                  (  0.0000000  0.0000000 -1.0000000 )


      isym = 10     inv. 180 deg rotation - cart. axis [0,0,1]   

 cryst.   s(10) = (     1          0          0      )
                  (     0          1          0      )
                  (     0          0         -1      )

 cart.    s(10) = (  1.0000000  0.0000000  0.0000000 )
                  (  0.0000000  1.0000000  0.0000000 )
                  (  0.0000000  0.0000000 -1.0000000 )


      isym = 11     inv. 180 deg rotation - cart. axis [0,1,0]   

 cryst.   s(11) = (     1          0          0      )    f =( -0.5000000 )
                  (     0         -1          0      )       (  0.5000000 )
                  (     0          0          1      )       ( -0.5000000 )

 cart.    s(11) = (  1.0000000  0.0000000  0.0000000 )    f =( -0.5000000 )
                  (  0.0000000 -1.0000000  0.0000000 )       (  0.5000000 )
                  (  0.0000000  0.0000000  1.0000000 )       ( -0.3076884 )


      isym = 12     inv. 180 deg rotation - cart. axis [1,0,0]   

 cryst.   s(12) = (    -1          0          0      )    f =(  0.5000000 )
                  (     0          1          0      )       ( -0.5000000 )
                  (     0          0          1      )       ( -0.5000000 )

 cart.    s(12) = ( -1.0000000  0.0000000  0.0000000 )    f =(  0.5000000 )
                  (  0.0000000  1.0000000  0.0000000 )       ( -0.5000000 )
                  (  0.0000000  0.0000000  1.0000000 )       ( -0.3076884 )


      isym = 13     inv. 180 deg rotation - cart. axis [1,1,0]   

 cryst.   s(13) = (     0         -1          0      )
                  (    -1          0          0      )
                  (     0          0          1      )

 cart.    s(13) = (  0.0000000 -1.0000000  0.0000000 )
                  ( -1.0000000  0.0000000  0.0000000 )
                  (  0.0000000  0.0000000  1.0000000 )


      isym = 14     inv. 180 deg rotation - cart. axis [1,-1,0]  

 cryst.   s(14) = (     0          1          0      )
                  (     1          0          0      )
                  (     0          0          1      )

 cart.    s(14) = (  0.0000000  1.0000000  0.0000000 )
                  (  1.0000000  0.0000000  0.0000000 )
                  (  0.0000000  0.0000000  1.0000000 )


      isym = 15     inv.  90 deg rotation - cart. axis [0,0,-1]  

 cryst.   s(15) = (     0          1          0      )    f =(  0.5000000 )
                  (    -1          0          0      )       ( -0.5000000 )
                  (     0          0         -1      )       (  0.5000000 )

 cart.    s(15) = (  0.0000000 -1.0000000  0.0000000 )    f =(  0.5000000 )
                  (  1.0000000  0.0000000  0.0000000 )       ( -0.5000000 )
                  (  0.0000000  0.0000000 -1.0000000 )       (  0.3076884 )


      isym = 16     inv.  90 deg rotation - cart. axis [0,0,1]   

 cryst.   s(16) = (     0         -1          0      )    f =( -0.5000000 )
                  (     1          0          0      )       (  0.5000000 )
                  (     0          0         -1      )       (  0.5000000 )

 cart.    s(16) = (  0.0000000  1.0000000  0.0000000 )    f =( -0.5000000 )
                  ( -1.0000000  0.0000000  0.0000000 )       (  0.5000000 )
                  (  0.0000000  0.0000000 -1.0000000 )       (  0.3076884 )


     point group D_4h(4/mmm)
     there are 10 classes
     the character table:

       E     2C4   C2    2C2'  2C2'' i     2S4   s_h   2s_v  2s_d 
A_1g   1.00  1.00  1.00  1.00  1.00  1.00  1.00  1.00  1.00  1.00
A_2g   1.00  1.00  1.00 -1.00 -1.00  1.00  1.00  1.00 -1.00 -1.00
B_1g   1.00 -1.00  1.00  1.00 -1.00  1.00 -1.00  1.00  1.00 -1.00
B_2g   1.00 -1.00  1.00 -1.00  1.00  1.00 -1.00  1.00 -1.00  1.00
E_g    2.00  0.00 -2.00  0.00  0.00  2.00  0.00 -2.00  0.00  0.00
A_1u   1.00  1.00  1.00  1.00  1.00 -1.00 -1.00 -1.00 -1.00 -1.00
A_2u   1.00  1.00  1.00 -1.00 -1.00 -1.00 -1.00 -1.00  1.00  1.00
B_1u   1.00 -1.00  1.00  1.00 -1.00 -1.00  1.00 -1.00 -1.00  1.00
B_2u   1.00 -1.00  1.00 -1.00  1.00 -1.00  1.00 -1.00  1.00 -1.00
E_u    2.00  0.00 -2.00  0.00  0.00 -2.00  0.00  2.00  0.00  0.00

     the symmetry operations in each class and the name of the first element:

     E        1
          identity                                               
     2C4      7    8
           90 deg rotation - cart. axis [0,0,-1]                 
     C2       2
          180 deg rotation - cart. axis [0,0,1]                  
     2C2'     3    4
          180 deg rotation - cart. axis [0,1,0]                  
     2C2''    5    6
          180 deg rotation - cart. axis [1,1,0]                  
     i        9
          inversion                                              
     2S4     15   16
          inv.  90 deg rotation - cart. axis [0,0,-1]            
     s_h     10
          inv. 180 deg rotation - cart. axis [0,0,1]             
     2s_v    11   12
          inv. 180 deg rotation - cart. axis [0,1,0]             
     2s_d    13   14
          inv. 180 deg rotation - cart. axis [1,1,0]             

   Cartesian axes

     site n.     atom                  positions (alat units)
         1           Sn  tau(   1) = (   0.0000000   0.0000000   0.0000000  )
         2           Sn  tau(   2) = (   0.5000000   0.5000000   0.3076884  )
         3           I   tau(   3) = (   0.2985210   0.2985210   0.0000000  )
         4           I   tau(   4) = (   0.7014790   0.7014790   0.0000000  )
         5           I   tau(   5) = (   0.7985210   0.2014790   0.3076884  )
         6           I   tau(   6) = (   0.2014790   0.7985210   0.3076884  )

   Crystallographic axes

     site n.     atom                  positions (cryst. coord.)
         1           Sn  tau(   1) = (  0.0000000  0.0000000  0.0000000  )
         2           Sn  tau(   2) = (  0.5000000  0.5000000  0.5000000  )
         3           I   tau(   3) = (  0.2985210  0.2985210  0.0000000  )
         4           I   tau(   4) = (  0.7014790  0.7014790  0.0000000  )
         5           I   tau(   5) = (  0.7985210  0.2014790  0.5000000  )
         6           I   tau(   6) = (  0.2014790  0.7985210  0.5000000  )

     number of k points=     6
                       cart. coord. in units 2pi/alat
        k(    1) = (   0.0000000   0.0000000   0.0000000), wk =   0.2500000
        k(    2) = (   0.0000000   0.0000000  -0.8125102), wk =   0.2500000
        k(    3) = (   0.0000000  -0.5000000   0.0000000), wk =   0.5000000
        k(    4) = (   0.0000000  -0.5000000  -0.8125102), wk =   0.5000000
        k(    5) = (  -0.5000000  -0.5000000   0.0000000), wk =   0.2500000
        k(    6) = (  -0.5000000  -0.5000000  -0.8125102), wk =   0.2500000

                       cryst. coord.
        k(    1) = (   0.0000000   0.0000000   0.0000000), wk =   0.2500000
        k(    2) = (   0.0000000   0.0000000  -0.5000000), wk =   0.2500000
        k(    3) = (   0.0000000  -0.5000000   0.0000000), wk =   0.5000000
        k(    4) = (   0.0000000  -0.5000000  -0.5000000), wk =   0.5000000
        k(    5) = (  -0.5000000  -0.5000000   0.0000000), wk =   0.2500000
        k(    6) = (  -0.5000000  -0.5000000  -0.5000000), wk =   0.2500000

     Dense  grid:   178307 G-vectors     FFT dimensions: (  90,  90,  54)

     Dynamical RAM for                 wfc:       0.15 MB

     Dynamical RAM for     wfc (w. buffer):       1.04 MB

     Dynamical RAM for           str. fact:       0.09 MB

     Dynamical RAM for           local pot:       0.00 MB

     Dynamical RAM for          nlocal pot:       0.57 MB

     Dynamical RAM for                qrad:       2.87 MB

     Dynamical RAM for          rho,v,vnew:       0.31 MB

     Dynamical RAM for               rhoin:       0.10 MB

     Dynamical RAM for            rho*nmix:       0.68 MB

     Dynamical RAM for           G-vectors:       0.18 MB

     Dynamical RAM for          h,s,v(r/c):       0.14 MB

     Dynamical RAM for          <psi|beta>:       0.05 MB

     Dynamical RAM for                 psi:       0.30 MB

     Dynamical RAM for                hpsi:       0.30 MB

     Dynamical RAM for                spsi:       0.30 MB

     Dynamical RAM for      wfcinit/wfcrot:       0.39 MB

     Dynamical RAM for           addusdens:       8.08 MB

     Dynamical RAM for          addusforce:       8.37 MB

     Dynamical RAM for         addusstress:       8.54 MB

     Estimated static dynamical RAM per process >       6.28 MB

     Estimated max dynamical RAM per process >      14.83 MB

     Estimated total dynamical RAM >     949.10 MB

     Initial potential from superposition of free atoms

     starting charge   55.99720, renormalised to   56.00000
     Starting wfcs are   34 randomized atomic wfcs
     Checking if some PAW data can be deallocated... 
       PAW data deallocated on   42 nodes for type:  1
       PAW data deallocated on   22 nodes for type:  2

     total cpu time spent up to now is        7.1 secs

     Self-consistent Calculation

     iteration #  1     ecut=    80.00 Ry     beta= 0.50
     Davidson diagonalization with overlap
     ethr =  1.00E-02,  avg # of iterations =  1.5

     Threshold (ethr) on eigenvalues was too large:
     Diagonalizing with lowered threshold

     Davidson diagonalization with overlap
     ethr =  2.34E-04,  avg # of iterations =  2.3

     total cpu time spent up to now is        8.7 secs

     total energy              =   -2364.94885783 Ry
     estimated scf accuracy    <       0.11746421 Ry

     iteration #  2     ecut=    80.00 Ry     beta= 0.50
     Davidson diagonalization with overlap
     ethr =  2.10E-04,  avg # of iterations =  3.5

     total cpu time spent up to now is        9.8 secs

     total energy              =   -2364.98095075 Ry
     estimated scf accuracy    <       0.00725387 Ry

     iteration #  3     ecut=    80.00 Ry     beta= 0.50
     Davidson diagonalization with overlap
     ethr =  1.30E-05,  avg # of iterations =  3.0

     total cpu time spent up to now is       10.7 secs

     total energy              =   -2364.98185918 Ry
     estimated scf accuracy    <       0.00144097 Ry

     iteration #  4     ecut=    80.00 Ry     beta= 0.50
     Davidson diagonalization with overlap
     ethr =  2.57E-06,  avg # of iterations =  4.0

     total cpu time spent up to now is       11.7 secs

     total energy              =   -2364.98221255 Ry
     estimated scf accuracy    <       0.00032475 Ry

     iteration #  5     ecut=    80.00 Ry     beta= 0.50
     Davidson diagonalization with overlap
     ethr =  5.80E-07,  avg # of iterations =  3.5

     total cpu time spent up to now is       12.6 secs

     total energy              =   -2364.98228016 Ry
     estimated scf accuracy    <       0.00000616 Ry

     iteration #  6     ecut=    80.00 Ry     beta= 0.50
     Davidson diagonalization with overlap
     ethr =  1.10E-08,  avg # of iterations =  6.3

     total cpu time spent up to now is       13.9 secs

     total energy              =   -2364.98228409 Ry
     estimated scf accuracy    <       0.00000478 Ry

     iteration #  7     ecut=    80.00 Ry     beta= 0.50
     Davidson diagonalization with overlap
     ethr =  8.53E-09,  avg # of iterations =  2.5

     total cpu time spent up to now is       14.8 secs

     End of self-consistent calculation

          k = 0.0000 0.0000 0.0000 ( 22385 PWs)   bands (ev):

   -18.4188 -18.4157 -18.4074 -18.4071 -18.3960 -18.3960 -18.3932 -18.3932
   -18.3924 -18.3923  -9.4721  -8.9573  -8.9573  -8.8375  -4.3027  -2.4577
    -0.2471  -0.2471   0.3080   0.6237   1.1357   1.2430   1.5023   1.5023
     1.9130   1.9130   2.2955   2.7279

     occupation numbers 
     1.0000   1.0000   1.0000   1.0000   1.0000   1.0000   1.0000   1.0000
     1.0000   1.0000   1.0000   1.0000   1.0000   1.0000   1.0000   1.0000
     1.0000   1.0000   1.0000   1.0000   1.0000   1.0000   1.0000   1.0000
     1.0000   1.0000   1.0000   1.0000

          k = 0.0000 0.0000-0.8125 ( 22322 PWs)   bands (ev):

   -18.4158 -18.4158 -18.4071 -18.4071 -18.3979 -18.3979 -18.3971 -18.3971
   -18.3879 -18.3879  -9.0074  -9.0074  -8.8334  -8.8334  -3.8469  -3.8469
    -0.1883  -0.1883  -0.1577  -0.1577   0.3938   0.3938   1.4650   1.4650
     1.5167   1.5167   2.2423   2.2423

     occupation numbers 
     1.0000   1.0000   1.0000   1.0000   1.0000   1.0000   1.0000   1.0000
     1.0000   1.0000   1.0000   1.0000   1.0000   1.0000   1.0000   1.0000
     1.0000   1.0000   1.0000   1.0000   1.0000   1.0000   1.0000   1.0000
     1.0000   1.0000   1.0000   1.0000

          k = 0.0000-0.5000 0.0000 ( 22322 PWs)   bands (ev):

   -18.4172 -18.4172 -18.4072 -18.4072 -18.3960 -18.3960 -18.3932 -18.3932
   -18.3924 -18.3924  -9.2587  -9.2587  -8.8704  -8.8704  -3.5592  -3.5592
     0.2400   0.2400   0.6557   0.6557   0.9525   0.9525   1.5932   1.5932
     1.7195   1.7195   2.0796   2.0796

     occupation numbers 
     1.0000   1.0000   1.0000   1.0000   1.0000   1.0000   1.0000   1.0000
     1.0000   1.0000   1.0000   1.0000   1.0000   1.0000   1.0000   1.0000
     1.0000   1.0000   1.0000   1.0000   1.0000   1.0000   1.0000   1.0000
     1.0000   1.0000   1.0000   1.0000

          k = 0.0000-0.5000-0.8125 ( 22240 PWs)   bands (ev):

   -18.4159 -18.4159 -18.4071 -18.4071 -18.3978 -18.3978 -18.3971 -18.3971
   -18.3879 -18.3879  -8.9859  -8.9859  -8.8554  -8.8554  -3.8285  -3.8285
    -0.7897  -0.7897  -0.1134  -0.1134   1.0567   1.0567   1.5895   1.5895
     1.7140   1.7140   2.4943   2.4943

     occupation numbers 
     1.0000   1.0000   1.0000   1.0000   1.0000   1.0000   1.0000   1.0000
     1.0000   1.0000   1.0000   1.0000   1.0000   1.0000   1.0000   1.0000
     1.0000   1.0000   1.0000   1.0000   1.0000   1.0000   1.0000   1.0000
     1.0000   1.0000   1.0000   1.0000

          k =-0.5000-0.5000 0.0000 ( 22228 PWs)   bands (ev):

   -18.4173 -18.4173 -18.4072 -18.4072 -18.3960 -18.3960 -18.3932 -18.3932
   -18.3924 -18.3924  -9.1750  -9.1750  -8.9704  -8.9704  -3.4667  -3.4667
    -0.0670  -0.0670   0.7245   0.7245   1.2315   1.2315   1.4771   1.4771
     1.5892   1.5892   2.0692   2.0692

     occupation numbers 
     1.0000   1.0000   1.0000   1.0000   1.0000   1.0000   1.0000   1.0000
     1.0000   1.0000   1.0000   1.0000   1.0000   1.0000   1.0000   1.0000
     1.0000   1.0000   1.0000   1.0000   1.0000   1.0000   1.0000   1.0000
     1.0000   1.0000   1.0000   1.0000

          k =-0.5000-0.5000-0.8125 ( 22248 PWs)   bands (ev):

   -18.4158 -18.4158 -18.4071 -18.4071 -18.3979 -18.3979 -18.3971 -18.3971
   -18.3879 -18.3879  -8.9929  -8.9929  -8.8440  -8.8440  -3.9110  -3.9110
    -0.3759  -0.3759   0.1310   0.1310   0.4229   0.4229   1.7260   1.7260
     1.7447   1.7447   1.8938   1.8938

     occupation numbers 
     1.0000   1.0000   1.0000   1.0000   1.0000   1.0000   1.0000   1.0000
     1.0000   1.0000   1.0000   1.0000   1.0000   1.0000   1.0000   1.0000
     1.0000   1.0000   1.0000   1.0000   1.0000   1.0000   1.0000   1.0000
     1.0000   1.0000   1.0000   1.0000

     highest occupied level (ev):     2.7279

!    total energy              =   -2364.98228527 Ry

     total all-electron energy =    -81606.543772 Ry
     estimated scf accuracy    <       0.00000006 Ry

     The total energy is the sum of the following terms:
     one-electron contribution =    -203.68737517 Ry
     hartree contribution      =     129.99555306 Ry
     xc contribution           =    -157.69912207 Ry
     ewald contribution        =    -219.54274838 Ry
     one-center paw contrib.   =   -1914.04859271 Ry
      -> PAW hartree energy AE =     108.22982058 Ry
      -> PAW hartree energy PS =    -107.45706441 Ry
      -> PAW xc energy AE      =    -323.40785324 Ry
      -> PAW xc energy PS      =      46.72148014 Ry
      -> total E_H with PAW    =     130.76830922 Ry
      -> total E_XC with PAW   =    -434.38549516 Ry

     convergence has been achieved in   7 iterations

     Forces acting on atoms (cartesian axes, Ry/au):

     atom    1 type  1   force =     0.00000000    0.00000000    0.00000000
     atom    2 type  1   force =     0.00000000    0.00000000   -0.00000000
     atom    3 type  2   force =     0.00425697    0.00425697    0.00000000
     atom    4 type  2   force =    -0.00425697   -0.00425697    0.00000000
     atom    5 type  2   force =     0.00425697   -0.00425697    0.00000000
     atom    6 type  2   force =    -0.00425697    0.00425697    0.00000000
     The non-local contrib.  to forces
     atom    1 type  1   force =     0.00000000    0.00000000    0.00000000
     atom    2 type  1   force =     0.00000000    0.00000000    0.00000000
     atom    3 type  2   force =     0.01590797    0.01590797    0.00000000
     atom    4 type  2   force =    -0.01590797   -0.01590797    0.00000000
     atom    5 type  2   force =     0.01590797   -0.01590797   -0.00000000
     atom    6 type  2   force =    -0.01590797    0.01590797   -0.00000000
     The ionic contribution  to forces
     atom    1 type  1   force =    -0.00000000   -0.00000000    0.00000000
     atom    2 type  1   force =     0.00000000    0.00000000   -0.00000000
     atom    3 type  2   force =    -0.90990984   -0.90990984    0.00000000
     atom    4 type  2   force =     0.90990984    0.90990984    0.00000000
     atom    5 type  2   force =    -0.90990984    0.90990984   -0.00000000
     atom    6 type  2   force =     0.90990984   -0.90990984   -0.00000000
     The local contribution  to forces
     atom    1 type  1   force =    -0.00000000   -0.00000000   -0.00000000
     atom    2 type  1   force =     0.00000000    0.00000000    0.00000000
     atom    3 type  2   force =     0.89973152    0.89973152   -0.00000000
     atom    4 type  2   force =    -0.89973152   -0.89973152   -0.00000000
     atom    5 type  2   force =     0.89973152   -0.89973152    0.00000000
     atom    6 type  2   force =    -0.89973152    0.89973152    0.00000000
     The core correction contribution to forces
     atom    1 type  1   force =     0.00000000    0.00000000    0.00000000
     atom    2 type  1   force =     0.00000000    0.00000000    0.00000000
     atom    3 type  2   force =    -0.00143707   -0.00143707    0.00000000
     atom    4 type  2   force =     0.00143707    0.00143707    0.00000000
     atom    5 type  2   force =    -0.00143707    0.00143707    0.00000000
     atom    6 type  2   force =     0.00143707   -0.00143707    0.00000000
     The Hubbard contrib.    to forces
     atom    1 type  1   force =     0.00000000    0.00000000    0.00000000
     atom    2 type  1   force =     0.00000000    0.00000000    0.00000000
     atom    3 type  2   force =     0.00000000    0.00000000    0.00000000
     atom    4 type  2   force =     0.00000000    0.00000000    0.00000000
     atom    5 type  2   force =     0.00000000    0.00000000    0.00000000
     atom    6 type  2   force =     0.00000000    0.00000000    0.00000000
     The SCF correction term to forces
     atom    1 type  1   force =     0.00000000   -0.00000000   -0.00000000
     atom    2 type  1   force =    -0.00000000    0.00000000    0.00000000
     atom    3 type  2   force =    -0.00003562   -0.00003562    0.00000000
     atom    4 type  2   force =     0.00003562    0.00003562    0.00000000
     atom    5 type  2   force =    -0.00003562    0.00003562   -0.00000000
     atom    6 type  2   force =     0.00003562   -0.00003562   -0.00000000

     Total force =     0.012041     Total SCF correction =     0.000101


     Computing stress (Cartesian axis) and pressure

          total   stress  (Ry/bohr**3)                   (kbar)     P=      -12.56
  -0.00010258   0.00000000   0.00000000          -15.09        0.00        0.00
   0.00000000  -0.00010258   0.00000000            0.00      -15.09        0.00
   0.00000000   0.00000000  -0.00005094            0.00        0.00       -7.49

     kinetic stress (kbar)   7308.32      0.00      0.00
                                0.00   7308.32      0.00
                                0.00      0.00   7296.20

     local   stress (kbar)  -1484.37      0.00     -0.00
                                0.00  -1484.37      0.00
                               -0.00      0.00  -5906.30

     nonloc. stress (kbar)    133.78      0.00      0.00
                                0.00    133.78      0.00
                                0.00      0.00    137.44

     hartree stress (kbar)   2822.12     -0.00     -0.00
                               -0.00   2822.12     -0.00
                               -0.00     -0.00   4719.69

     exc-cor stress (kbar)   6148.80      0.00      0.00
                                0.00   6148.80      0.00
                                0.00      0.00   6149.48

     corecor stress (kbar)  -8262.98      0.00     -0.00
                                0.00  -8262.98     -0.00
                               -0.00     -0.00  -8262.43

     ewald   stress (kbar)  -6680.77      0.00     -0.00
                                0.00  -6680.77     -0.00
                               -0.00     -0.00  -4141.56

     hubbard stress (kbar)      0.00      0.00      0.00
                                0.00      0.00      0.00
                                0.00      0.00      0.00

     DFT-D   stress (kbar)      0.00      0.00      0.00
                                0.00      0.00      0.00
                                0.00      0.00      0.00

     XDM     stress (kbar)      0.00      0.00      0.00
                                0.00      0.00      0.00
                                0.00      0.00      0.00

     dft-nl  stress (kbar)      0.00      0.00      0.00
                                0.00      0.00      0.00
                                0.00      0.00      0.00

     TS-vdW  stress (kbar)      0.00      0.00      0.00
                                0.00      0.00      0.00
                                0.00      0.00      0.00



     Writing output data file ./SnI2.save/
 
     init_run     :      0.99s CPU      2.67s WALL (       1 calls)
     electrons    :      7.39s CPU      7.79s WALL (       1 calls)
     forces       :      0.23s CPU      0.25s WALL (       1 calls)
     stress       :      0.53s CPU      0.54s WALL (       1 calls)

     Called by init_run:
     wfcinit      :      0.33s CPU      0.86s WALL (       1 calls)
     wfcinit:atom :      0.00s CPU      0.00s WALL (       6 calls)
     wfcinit:wfcr :      0.32s CPU      0.84s WALL (       6 calls)
     potinit      :      0.21s CPU      0.45s WALL (       1 calls)
     hinit0       :      0.21s CPU      1.01s WALL (       1 calls)

     Called by electrons:
     c_bands      :      4.89s CPU      5.08s WALL (       8 calls)
     sum_band     :      1.22s CPU      1.28s WALL (       8 calls)
     v_of_rho     :      0.13s CPU      0.15s WALL (       8 calls)
     v_h          :      0.01s CPU      0.01s WALL (       8 calls)
     v_xc         :      0.15s CPU      0.16s WALL (      10 calls)
     newd         :      0.32s CPU      0.42s WALL (       8 calls)
     PAW_pot      :      0.94s CPU      1.17s WALL (       8 calls)
     mix_rho      :      0.02s CPU      0.13s WALL (       8 calls)

     Called by c_bands:
     init_us_2    :      0.10s CPU      0.10s WALL (     114 calls)
     cegterg      :      4.56s CPU      4.75s WALL (      48 calls)

     Called by sum_band:
     sum_band:wei :      0.00s CPU      0.00s WALL (       8 calls)
     sum_band:loo :      0.75s CPU      0.77s WALL (       8 calls)
     sum_band:buf :      0.01s CPU      0.01s WALL (      48 calls)
     sum_band:ini :      0.04s CPU      0.04s WALL (      48 calls)
     sum_band:cal :      0.07s CPU      0.07s WALL (      48 calls)
     sum_band:bec :      0.00s CPU      0.00s WALL (      48 calls)
     addusdens    :      0.40s CPU      0.44s WALL (       8 calls)
     addusd:skk   :      0.00s CPU      0.00s WALL (      16 calls)
     addusd:dgemm :      0.20s CPU      0.23s WALL (      16 calls)
     addusd:qvan2 :      0.19s CPU      0.18s WALL (      16 calls)

     Called by *egterg:
     cdiaghg      :      0.24s CPU      0.75s WALL (     202 calls)
     cegterg:over :      0.18s CPU      0.18s WALL (     160 calls)
     cegterg:upda :      0.06s CPU      0.06s WALL (     160 calls)
     cegterg:last :      0.09s CPU      0.09s WALL (     104 calls)
     h_psi        :      4.03s CPU      4.22s WALL (     214 calls)
     s_psi        :      0.10s CPU      0.10s WALL (     214 calls)
     g_psi        :      0.01s CPU      0.01s WALL (     160 calls)

     Called by h_psi:
     h_psi:calbec :      0.29s CPU      0.37s WALL (     214 calls)
     vloc_psi     :      3.60s CPU      3.71s WALL (     214 calls)
     add_vuspsi   :      0.12s CPU      0.13s WALL (     214 calls)

     General routines
     calbec       :      0.39s CPU      0.47s WALL (     292 calls)
     fft          :      0.18s CPU      0.73s WALL (     114 calls)
     ffts         :      0.01s CPU      0.01s WALL (       8 calls)
     fftw         :      4.02s CPU      4.14s WALL (    9122 calls)
 
     Parallel routines
     fft_scatt_xy :      0.27s CPU      0.27s WALL (    9244 calls)
     fft_scatt_yz :      2.66s CPU      2.75s WALL (    9244 calls)

     PAW routines
     PAW_pot      :      0.94s CPU      1.17s WALL (       8 calls)
     PAW_symme    :      0.01s CPU      0.01s WALL (      16 calls)
 
     PWSCF        :     12.75s CPU     16.22s WALL

 
   This run was terminated on:  10:32:33  25Jan2021            

=------------------------------------------------------------------------------=
   JOB DONE.
=------------------------------------------------------------------------------=
