
     Program PWSCF v.6.6 starts on 24Jan2021 at 21:50:12 

     This program is part of the open-source Quantum ESPRESSO suite
     for quantum simulation of materials; please cite
         "P. Giannozzi et al., J. Phys.:Condens. Matter 21 395502 (2009);
         "P. Giannozzi et al., J. Phys.:Condens. Matter 29 465901 (2017);
          URL http://www.quantum-espresso.org", 
     in publications or presentations arising from this work. More details at
     http://www.quantum-espresso.org/quote

     Parallel version (MPI), running on    64 processors

     MPI processes distributed on     2 nodes
     R & G space division:  proc/nbgrp/npool/nimage =      64
     Fft bands division:     nmany     =       1
     Waiting for input...
     Reading input from standard input

     Current dimensions of program PWSCF are:
     Max number of different atomic species (ntypx) = 10
     Max number of k-points (npk) =  40000
     Max angular momentum in pseudopotentials (lmaxx) =  3
     file Cs.pbesol-spn-rrkjus_psl.1.0.0.UPF: wavefunction(s)  5S 6S renormalized
     file Sn.pbesol-dn-kjpaw_psl.1.0.0.UPF: wavefunction(s)  5S 5P 4D renormalized
     file I.pbesol-n-kjpaw_psl.1.0.0.UPF: wavefunction(s)  5S renormalized

     Subspace diagonalization in iterative solution of the eigenvalue problem:
     a serial algorithm will be used

 
     Parallelization info
     --------------------
     sticks:   dense  smooth     PW     G-vecs:    dense   smooth      PW
     Min          83      55     15                11483     6245     899
     Max          84      56     16                11492     6256     908
     Sum        5329    3545    975               735059   400005   57839
 

     Title: 
     CsSnI3                                                                     


     bravais-lattice index     =            8
     lattice parameter (alat)  =       9.1317  a.u.
     unit-cell volume          =    6370.5385 (a.u.)^3
     number of atoms/cell      =           20
     number of atomic types    =            3
     number of electrons       =       176.00
     number of Kohn-Sham states=           88
     kinetic-energy cutoff     =      60.0000  Ry
     charge density cutoff     =     360.0000  Ry
     convergence threshold     =      1.0E-06
     mixing beta               =       0.5000
     number of iterations used =            8  plain     mixing
     Exchange-correlation= SLA PW PSX PSC
                           (   1   4  10   8   0   0   0)

     celldm(1)=   9.131705  celldm(2)=   2.227728  celldm(3)=   3.755420
     celldm(4)=   0.000000  celldm(5)=   0.000000  celldm(6)=   0.000000

     crystal axes: (cart. coord. in units of alat)
               a(1) = (   1.000000   0.000000   0.000000 )  
               a(2) = (   0.000000   2.227728   0.000000 )  
               a(3) = (   0.000000   0.000000   3.755420 )  

     reciprocal axes: (cart. coord. in units 2 pi/alat)
               b(1) = (  1.000000  0.000000  0.000000 )  
               b(2) = (  0.000000  0.448888  0.000000 )  
               b(3) = (  0.000000  0.000000  0.266282 )  


     PseudoPot. # 1 for Cs read from file:
     /scratch/gtenti/degironcoli/pseudo/Cs.pbesol-spn-rrkjus_psl.1.0.0.UPF
     MD5 check sum: a505fbb08e6a224ea4404a33e275d1b5
     Pseudo is Ultrasoft + core correction, Zval =  9.0
     Generated using "atomic" code by A. Dal Corso v.6.4.1
     Using radial grid of 1251 points,  9 beta functions with: 
                l(1) =   0
                l(2) =   0
                l(3) =   0
                l(4) =   1
                l(5) =   1
                l(6) =   2
                l(7) =   2
                l(8) =   3
                l(9) =   3
     Q(r) pseudized with 0 coefficients 


     PseudoPot. # 2 for Sn read from file:
     /scratch/gtenti/degironcoli/pseudo/Sn.pbesol-dn-kjpaw_psl.1.0.0.UPF
     MD5 check sum: 3b64f90c238cf26ccb627d174952382c
     Pseudo is Projector augmented-wave + core cor, Zval = 14.0
     Generated using "atomic" code by A. Dal Corso v.6.3
     Shape of augmentation charge: PSQ
     Using radial grid of 1243 points,  6 beta functions with: 
                l(1) =   0
                l(2) =   0
                l(3) =   1
                l(4) =   1
                l(5) =   2
                l(6) =   2
     Q(r) pseudized with 0 coefficients 


     PseudoPot. # 3 for I  read from file:
     /scratch/gtenti/degironcoli/pseudo/I.pbesol-n-kjpaw_psl.1.0.0.UPF
     MD5 check sum: 6038403ff9b03366b27f71806436e734
     Pseudo is Projector augmented-wave + core cor, Zval =  7.0
     Generated using "atomic" code by A. Dal Corso v.6.3
     Shape of augmentation charge: PSQ
     Using radial grid of 1247 points,  6 beta functions with: 
                l(1) =   0
                l(2) =   0
                l(3) =   1
                l(4) =   1
                l(5) =   2
                l(6) =   2
     Q(r) pseudized with 0 coefficients 


     atomic species   valence    mass     pseudopotential
        Cs             9.00   132.90000     Cs( 1.00)
        Sn            14.00   118.70000     Sn( 1.00)
        I              7.00   126.90000     I ( 1.00)

      8 Sym. Ops., with inversion, found ( 6 have fractional translation)


                                    s                        frac. trans.

      isym =  1     identity                                     

 cryst.   s( 1) = (     1          0          0      )
                  (     0          1          0      )
                  (     0          0          1      )

 cart.    s( 1) = (  1.0000000  0.0000000  0.0000000 )
                  (  0.0000000  1.0000000  0.0000000 )
                  (  0.0000000  0.0000000  1.0000000 )


      isym =  2     180 deg rotation - cart. axis [0,0,1]        

 cryst.   s( 2) = (    -1          0          0      )    f =(  0.0000000 )
                  (     0         -1          0      )       (  0.5000000 )
                  (     0          0          1      )       (  0.5000000 )

 cart.    s( 2) = ( -1.0000000  0.0000000  0.0000000 )    f =(  0.0000000 )
                  (  0.0000000 -1.0000000  0.0000000 )       (  1.1138638 )
                  (  0.0000000  0.0000000  1.0000000 )       (  1.8777098 )


      isym =  3     180 deg rotation - cart. axis [0,1,0]        

 cryst.   s( 3) = (    -1          0          0      )    f =(  0.5000000 )
                  (     0          1          0      )       ( -0.5000000 )
                  (     0          0         -1      )       ( -0.5000000 )

 cart.    s( 3) = ( -1.0000000  0.0000000  0.0000000 )    f =(  0.5000000 )
                  (  0.0000000  1.0000000  0.0000000 )       ( -1.1138638 )
                  (  0.0000000  0.0000000 -1.0000000 )       ( -1.8777098 )


      isym =  4     180 deg rotation - cart. axis [1,0,0]        

 cryst.   s( 4) = (     1          0          0      )    f =( -0.5000000 )
                  (     0         -1          0      )       (  0.0000000 )
                  (     0          0         -1      )       (  0.0000000 )

 cart.    s( 4) = (  1.0000000  0.0000000  0.0000000 )    f =( -0.5000000 )
                  (  0.0000000 -1.0000000  0.0000000 )       (  0.0000000 )
                  (  0.0000000  0.0000000 -1.0000000 )       (  0.0000000 )


      isym =  5     inversion                                    

 cryst.   s( 5) = (    -1          0          0      )
                  (     0         -1          0      )
                  (     0          0         -1      )

 cart.    s( 5) = ( -1.0000000  0.0000000  0.0000000 )
                  (  0.0000000 -1.0000000  0.0000000 )
                  (  0.0000000  0.0000000 -1.0000000 )


      isym =  6     inv. 180 deg rotation - cart. axis [0,0,1]   

 cryst.   s( 6) = (     1          0          0      )    f =(  0.0000000 )
                  (     0          1          0      )       ( -0.5000000 )
                  (     0          0         -1      )       ( -0.5000000 )

 cart.    s( 6) = (  1.0000000  0.0000000  0.0000000 )    f =(  0.0000000 )
                  (  0.0000000  1.0000000  0.0000000 )       ( -1.1138638 )
                  (  0.0000000  0.0000000 -1.0000000 )       ( -1.8777098 )


      isym =  7     inv. 180 deg rotation - cart. axis [0,1,0]   

 cryst.   s( 7) = (     1          0          0      )    f =( -0.5000000 )
                  (     0         -1          0      )       (  0.5000000 )
                  (     0          0          1      )       (  0.5000000 )

 cart.    s( 7) = (  1.0000000  0.0000000  0.0000000 )    f =( -0.5000000 )
                  (  0.0000000 -1.0000000  0.0000000 )       (  1.1138638 )
                  (  0.0000000  0.0000000  1.0000000 )       (  1.8777098 )


      isym =  8     inv. 180 deg rotation - cart. axis [1,0,0]   

 cryst.   s( 8) = (    -1          0          0      )    f =(  0.5000000 )
                  (     0          1          0      )       (  0.0000000 )
                  (     0          0          1      )       (  0.0000000 )

 cart.    s( 8) = ( -1.0000000  0.0000000  0.0000000 )    f =(  0.5000000 )
                  (  0.0000000  1.0000000  0.0000000 )       (  0.0000000 )
                  (  0.0000000  0.0000000  1.0000000 )       (  0.0000000 )


     point group D_2h (mmm) 
     there are  8 classes
     the character table:

       E     C2    C2'   C2''  i     s_v   s_v'  s_v''
A_g    1.00  1.00  1.00  1.00  1.00  1.00  1.00  1.00
B_1g   1.00  1.00 -1.00 -1.00  1.00  1.00 -1.00 -1.00
B_2g   1.00 -1.00  1.00 -1.00  1.00 -1.00  1.00 -1.00
B_3g   1.00 -1.00 -1.00  1.00  1.00 -1.00 -1.00  1.00
A_u    1.00  1.00  1.00  1.00 -1.00 -1.00 -1.00 -1.00
B_1u   1.00  1.00 -1.00 -1.00 -1.00 -1.00  1.00  1.00
B_2u   1.00 -1.00  1.00 -1.00 -1.00  1.00 -1.00  1.00
B_3u   1.00 -1.00 -1.00  1.00 -1.00  1.00  1.00 -1.00

     the symmetry operations in each class and the name of the first element:

     E        1
          identity                                               
     C2       2
          180 deg rotation - cart. axis [0,0,1]                  
     C2'      4
          180 deg rotation - cart. axis [1,0,0]                  
     C2''     3
          180 deg rotation - cart. axis [0,1,0]                  
     i        5
          inversion                                              
     s_v      6
          inv. 180 deg rotation - cart. axis [0,0,1]             
     s_v'     8
          inv. 180 deg rotation - cart. axis [1,0,0]             
     s_v''    7
          inv. 180 deg rotation - cart. axis [0,1,0]             

   Cartesian axes

     site n.     atom                  positions (alat units)
         1           Cs  tau(   1) = (   0.2500000   0.1859640   2.5168147  )
         2           Cs  tau(   2) = (   0.7500000   2.0417636   1.2386050  )
         3           Cs  tau(   3) = (   0.2500000   1.2998278   3.1163149  )
         4           Cs  tau(   4) = (   0.7500000   0.9278998   0.6391048  )
         5           Sn  tau(   5) = (   0.2500000   0.7615710   1.6485466  )
         6           Sn  tau(   6) = (   0.7500000   1.4661567   2.1068731  )
         7           Sn  tau(   7) = (   0.2500000   1.8754348   0.2291632  )
         8           Sn  tau(   8) = (   0.7500000   0.3522928   3.5262565  )
         9           I   tau(   9) = (   0.7500000   0.0581437   0.4202578  )
        10           I   tau(  10) = (   0.2500000   2.1695839   3.3351619  )
        11           I   tau(  11) = (   0.7500000   1.1720075   1.4574521  )
        12           I   tau(  12) = (   0.2500000   1.0557201   2.2979676  )
        13           I   tau(  13) = (   0.7500000   0.6531118   2.9738192  )
        14           I   tau(  14) = (   0.2500000   1.5746158   0.7816005  )
        15           I   tau(  15) = (   0.7500000   1.7669756   2.6593103  )
        16           I   tau(  16) = (   0.2500000   0.4607520   1.0961094  )
        17           I   tau(  17) = (   0.7500000   0.3753632   1.8734812  )
        18           I   tau(  18) = (   0.2500000   1.8523644   1.8819384  )
        19           I   tau(  19) = (   0.7500000   1.4892270   0.0042286  )
        20           I   tau(  20) = (   0.2500000   0.7385006   3.7511911  )

   Crystallographic axes

     site n.     atom                  positions (cryst. coord.)
         1           Cs  tau(   1) = (  0.2500000  0.0834770  0.6701820  )
         2           Cs  tau(   2) = (  0.7500000  0.9165230  0.3298180  )
         3           Cs  tau(   3) = (  0.2500000  0.5834770  0.8298180  )
         4           Cs  tau(   4) = (  0.7500000  0.4165230  0.1701820  )
         5           Sn  tau(   5) = (  0.2500000  0.3418600  0.4389780  )
         6           Sn  tau(   6) = (  0.7500000  0.6581400  0.5610220  )
         7           Sn  tau(   7) = (  0.2500000  0.8418600  0.0610220  )
         8           Sn  tau(   8) = (  0.7500000  0.1581400  0.9389780  )
         9           I   tau(   9) = (  0.7500000  0.0261000  0.1119070  )
        10           I   tau(  10) = (  0.2500000  0.9739000  0.8880930  )
        11           I   tau(  11) = (  0.7500000  0.5261000  0.3880930  )
        12           I   tau(  12) = (  0.2500000  0.4739000  0.6119070  )
        13           I   tau(  13) = (  0.7500000  0.2931740  0.7918740  )
        14           I   tau(  14) = (  0.2500000  0.7068260  0.2081260  )
        15           I   tau(  15) = (  0.7500000  0.7931740  0.7081260  )
        16           I   tau(  16) = (  0.2500000  0.2068260  0.2918740  )
        17           I   tau(  17) = (  0.7500000  0.1684960  0.4988740  )
        18           I   tau(  18) = (  0.2500000  0.8315040  0.5011260  )
        19           I   tau(  19) = (  0.7500000  0.6684960  0.0011260  )
        20           I   tau(  20) = (  0.2500000  0.3315040  0.9988740  )

     number of k points=     8
                       cart. coord. in units 2pi/alat
        k(    1) = (   0.0000000   0.0000000   0.0000000), wk =   0.2500000
        k(    2) = (   0.0000000   0.0000000  -0.1331409), wk =   0.2500000
        k(    3) = (   0.0000000  -0.2244440   0.0000000), wk =   0.2500000
        k(    4) = (   0.0000000  -0.2244440  -0.1331409), wk =   0.2500000
        k(    5) = (  -0.5000000   0.0000000   0.0000000), wk =   0.2500000
        k(    6) = (  -0.5000000   0.0000000  -0.1331409), wk =   0.2500000
        k(    7) = (  -0.5000000  -0.2244440   0.0000000), wk =   0.2500000
        k(    8) = (  -0.5000000  -0.2244440  -0.1331409), wk =   0.2500000

                       cryst. coord.
        k(    1) = (   0.0000000   0.0000000   0.0000000), wk =   0.2500000
        k(    2) = (   0.0000000   0.0000000  -0.5000000), wk =   0.2500000
        k(    3) = (   0.0000000  -0.5000000   0.0000000), wk =   0.2500000
        k(    4) = (   0.0000000  -0.5000000  -0.5000000), wk =   0.2500000
        k(    5) = (  -0.5000000   0.0000000   0.0000000), wk =   0.2500000
        k(    6) = (  -0.5000000   0.0000000  -0.5000000), wk =   0.2500000
        k(    7) = (  -0.5000000  -0.5000000   0.0000000), wk =   0.2500000
        k(    8) = (  -0.5000000  -0.5000000  -0.5000000), wk =   0.2500000

     Dense  grid:   735059 G-vectors     FFT dimensions: (  60, 128, 216)

     Smooth grid:   400005 G-vectors     FFT dimensions: (  48, 108, 180)

     Dynamical RAM for                 wfc:       1.05 MB

     Dynamical RAM for     wfc (w. buffer):       9.44 MB

     Dynamical RAM for           str. fact:       0.53 MB

     Dynamical RAM for           local pot:       0.00 MB

     Dynamical RAM for          nlocal pot:       5.01 MB

     Dynamical RAM for                qrad:      13.71 MB

     Dynamical RAM for          rho,v,vnew:       1.23 MB

     Dynamical RAM for               rhoin:       0.41 MB

     Dynamical RAM for            rho*nmix:       2.80 MB

     Dynamical RAM for           G-vectors:       0.70 MB

     Dynamical RAM for          h,s,v(r/c):       1.42 MB

     Dynamical RAM for          <psi|beta>:       0.56 MB

     Dynamical RAM for                 psi:       2.10 MB

     Dynamical RAM for                hpsi:       2.10 MB

     Dynamical RAM for                spsi:       2.10 MB

     Dynamical RAM for      wfcinit/wfcrot:       2.73 MB

     Dynamical RAM for           addusdens:     105.15 MB

     Dynamical RAM for          addusforce:     109.25 MB

     Dynamical RAM for         addusstress:     107.78 MB

     Estimated static dynamical RAM per process >      35.70 MB

     Estimated max dynamical RAM per process >     144.94 MB

     Estimated total dynamical RAM >       9.06 GB

     Initial potential from superposition of free atoms

     starting charge  175.84071, renormalised to  176.00000
     Starting wfcs are  104 randomized atomic wfcs
     Checking if some PAW data can be deallocated... 
       PAW data deallocated on   52 nodes for type:  2
       PAW data deallocated on   28 nodes for type:  3

     total cpu time spent up to now is       13.2 secs

     Self-consistent Calculation

     iteration #  1     ecut=    60.00 Ry     beta= 0.50
     Davidson diagonalization with overlap
     ethr =  1.00E-02,  avg # of iterations =  1.1

     Threshold (ethr) on eigenvalues was too large:
     Diagonalizing with lowered threshold

     Davidson diagonalization with overlap
     ethr =  2.90E-04,  avg # of iterations =  4.8

     total cpu time spent up to now is       29.6 secs

     total energy              =   -6438.57466561 Ry
     estimated scf accuracy    <       0.41282770 Ry

     iteration #  2     ecut=    60.00 Ry     beta= 0.50
     Davidson diagonalization with overlap
     ethr =  2.35E-04,  avg # of iterations =  3.9

     total cpu time spent up to now is       39.1 secs

     total energy              =   -6438.71405004 Ry
     estimated scf accuracy    <       0.11879610 Ry

     iteration #  3     ecut=    60.00 Ry     beta= 0.50
     Davidson diagonalization with overlap
     ethr =  6.75E-05,  avg # of iterations =  2.0

     total cpu time spent up to now is       47.3 secs

     total energy              =   -6438.73144042 Ry
     estimated scf accuracy    <       0.01171975 Ry

     iteration #  4     ecut=    60.00 Ry     beta= 0.50
     Davidson diagonalization with overlap
     ethr =  6.66E-06,  avg # of iterations =  7.4

     total cpu time spent up to now is       59.5 secs

     total energy              =   -6438.73902220 Ry
     estimated scf accuracy    <       0.01108333 Ry

     iteration #  5     ecut=    60.00 Ry     beta= 0.50
     Davidson diagonalization with overlap
     ethr =  6.30E-06,  avg # of iterations =  5.2

     total cpu time spent up to now is       68.8 secs

     total energy              =   -6438.74181629 Ry
     estimated scf accuracy    <       0.00045464 Ry

     iteration #  6     ecut=    60.00 Ry     beta= 0.50
     Davidson diagonalization with overlap
     ethr =  2.58E-07,  avg # of iterations =  8.0

     total cpu time spent up to now is       81.0 secs

     total energy              =   -6438.74192536 Ry
     estimated scf accuracy    <       0.00096915 Ry

     iteration #  7     ecut=    60.00 Ry     beta= 0.50
     Davidson diagonalization with overlap
     ethr =  2.58E-07,  avg # of iterations =  4.9

     total cpu time spent up to now is       90.3 secs

     total energy              =   -6438.74205495 Ry
     estimated scf accuracy    <       0.00003298 Ry

     iteration #  8     ecut=    60.00 Ry     beta= 0.50
     Davidson diagonalization with overlap
     ethr =  1.87E-08,  avg # of iterations =  7.8

     total cpu time spent up to now is      102.5 secs

     total energy              =   -6438.74207988 Ry
     estimated scf accuracy    <       0.00003746 Ry

     iteration #  9     ecut=    60.00 Ry     beta= 0.50
     Davidson diagonalization with overlap
     ethr =  1.87E-08,  avg # of iterations =  3.5

     total cpu time spent up to now is      111.2 secs

     total energy              =   -6438.74208310 Ry
     estimated scf accuracy    <       0.00000328 Ry

     iteration # 10     ecut=    60.00 Ry     beta= 0.50
     Davidson diagonalization with overlap
     ethr =  1.87E-09,  avg # of iterations =  7.2

     total cpu time spent up to now is      123.5 secs

     total energy              =   -6438.74208620 Ry
     estimated scf accuracy    <       0.00000417 Ry

     iteration # 11     ecut=    60.00 Ry     beta= 0.50
     Davidson diagonalization with overlap
     ethr =  1.87E-09,  avg # of iterations =  2.0

     total cpu time spent up to now is      131.2 secs

     total energy              =   -6438.74208551 Ry
     estimated scf accuracy    <       0.00000140 Ry

     iteration # 12     ecut=    60.00 Ry     beta= 0.50
     Davidson diagonalization with overlap
     ethr =  7.96E-10,  avg # of iterations =  7.2

     total cpu time spent up to now is      142.7 secs

     total energy              =   -6438.74208636 Ry
     estimated scf accuracy    <       0.00000136 Ry

     iteration # 13     ecut=    60.00 Ry     beta= 0.50
     Davidson diagonalization with overlap
     ethr =  7.73E-10,  avg # of iterations =  2.0

     total cpu time spent up to now is      150.1 secs

     End of self-consistent calculation

          k = 0.0000 0.0000 0.0000 ( 49997 PWs)   bands (ev):

   -17.9050 -17.9049 -17.9047 -17.9046 -17.8977 -17.8977 -17.8973 -17.8973
   -17.8938 -17.8937 -17.8934 -17.8931 -17.8861 -17.8858 -17.8850 -17.8846
   -17.8830 -17.8828 -17.8816 -17.8815 -17.8741 -17.8740 -17.8728 -17.8727
    -8.9552  -8.9306  -8.7478  -8.6856  -8.5985  -8.5888  -8.5689  -8.5584
    -8.4306  -8.4071  -8.3894  -8.3464  -4.6944  -4.6937  -4.6921  -4.6842
    -4.6747  -4.6487  -4.6262  -4.6244  -4.6209  -4.6177  -4.6176  -4.6161
    -3.0429  -3.0182  -2.9821  -2.9012  -0.0244   0.1780   0.6125   0.7591
     0.7735   0.8518   0.9779   0.9866   1.0812   1.1537   1.1920   1.1967
     1.2072   1.4261   1.5064   1.6063   1.6550   1.6730   1.6947   1.7011
     1.7063   1.7205   1.8600   1.9446   1.9533   2.0598   2.0911   2.1032
     2.1166   2.1223   2.1702   2.2036   2.2704   2.3443   2.4941   2.7965

     occupation numbers 
     1.0000   1.0000   1.0000   1.0000   1.0000   1.0000   1.0000   1.0000
     1.0000   1.0000   1.0000   1.0000   1.0000   1.0000   1.0000   1.0000
     1.0000   1.0000   1.0000   1.0000   1.0000   1.0000   1.0000   1.0000
     1.0000   1.0000   1.0000   1.0000   1.0000   1.0000   1.0000   1.0000
     1.0000   1.0000   1.0000   1.0000   1.0000   1.0000   1.0000   1.0000
     1.0000   1.0000   1.0000   1.0000   1.0000   1.0000   1.0000   1.0000
     1.0000   1.0000   1.0000   1.0000   1.0000   1.0000   1.0000   1.0000
     1.0000   1.0000   1.0000   1.0000   1.0000   1.0000   1.0000   1.0000
     1.0000   1.0000   1.0000   1.0000   1.0000   1.0000   1.0000   1.0000
     1.0000   1.0000   1.0000   1.0000   1.0000   1.0000   1.0000   1.0000
     1.0000   1.0000   1.0000   1.0000   1.0000   1.0000   1.0000   1.0000

          k = 0.0000 0.0000-0.1331 ( 49996 PWs)   bands (ev):

   -17.9049 -17.9049 -17.9046 -17.9046 -17.8977 -17.8977 -17.8973 -17.8973
   -17.8938 -17.8938 -17.8933 -17.8933 -17.8860 -17.8860 -17.8848 -17.8848
   -17.8828 -17.8828 -17.8815 -17.8815 -17.8741 -17.8741 -17.8727 -17.8727
    -8.9442  -8.9442  -8.7172  -8.7172  -8.5937  -8.5937  -8.5622  -8.5622
    -8.4237  -8.4237  -8.3627  -8.3627  -4.7003  -4.7003  -4.6827  -4.6827
    -4.6618  -4.6618  -4.6254  -4.6254  -4.6184  -4.6184  -4.6168  -4.6168
    -3.0356  -3.0356  -2.9369  -2.9369   0.0658   0.0658   0.7038   0.7038
     0.7659   0.7659   1.0077   1.0077   1.1508   1.1508   1.1802   1.1802
     1.3935   1.3935   1.4537   1.4537   1.6687   1.6687   1.7013   1.7013
     1.7106   1.7106   1.8655   1.8655   2.0030   2.0030   2.1018   2.1018
     2.1075   2.1075   2.2419   2.2419   2.3229   2.3229   2.6355   2.6355

     occupation numbers 
     1.0000   1.0000   1.0000   1.0000   1.0000   1.0000   1.0000   1.0000
     1.0000   1.0000   1.0000   1.0000   1.0000   1.0000   1.0000   1.0000
     1.0000   1.0000   1.0000   1.0000   1.0000   1.0000   1.0000   1.0000
     1.0000   1.0000   1.0000   1.0000   1.0000   1.0000   1.0000   1.0000
     1.0000   1.0000   1.0000   1.0000   1.0000   1.0000   1.0000   1.0000
     1.0000   1.0000   1.0000   1.0000   1.0000   1.0000   1.0000   1.0000
     1.0000   1.0000   1.0000   1.0000   1.0000   1.0000   1.0000   1.0000
     1.0000   1.0000   1.0000   1.0000   1.0000   1.0000   1.0000   1.0000
     1.0000   1.0000   1.0000   1.0000   1.0000   1.0000   1.0000   1.0000
     1.0000   1.0000   1.0000   1.0000   1.0000   1.0000   1.0000   1.0000
     1.0000   1.0000   1.0000   1.0000   1.0000   1.0000   1.0000   1.0000

          k = 0.0000-0.2244 0.0000 ( 50022 PWs)   bands (ev):

   -17.9050 -17.9050 -17.9047 -17.9047 -17.8976 -17.8976 -17.8973 -17.8973
   -17.8939 -17.8939 -17.8932 -17.8932 -17.8856 -17.8856 -17.8852 -17.8852
   -17.8829 -17.8829 -17.8815 -17.8815 -17.8741 -17.8741 -17.8728 -17.8728
    -8.9209  -8.9209  -8.7609  -8.7609  -8.6400  -8.6400  -8.4968  -8.4968
    -8.4061  -8.4061  -8.3764  -8.3764  -4.7017  -4.7017  -4.6806  -4.6806
    -4.6554  -4.6554  -4.6373  -4.6373  -4.6220  -4.6220  -4.6202  -4.6202
    -3.0524  -3.0524  -2.9084  -2.9084   0.1059   0.1059   0.6780   0.6780
     0.8190   0.8190   1.0514   1.0514   1.0738   1.0738   1.1807   1.1807
     1.2858   1.2858   1.4242   1.4242   1.6257   1.6257   1.6566   1.6566
     1.8527   1.8527   1.8910   1.8910   1.9522   1.9522   2.1192   2.1192
     2.1477   2.1477   2.1985   2.1985   2.2632   2.2632   2.8123   2.8123

     occupation numbers 
     1.0000   1.0000   1.0000   1.0000   1.0000   1.0000   1.0000   1.0000
     1.0000   1.0000   1.0000   1.0000   1.0000   1.0000   1.0000   1.0000
     1.0000   1.0000   1.0000   1.0000   1.0000   1.0000   1.0000   1.0000
     1.0000   1.0000   1.0000   1.0000   1.0000   1.0000   1.0000   1.0000
     1.0000   1.0000   1.0000   1.0000   1.0000   1.0000   1.0000   1.0000
     1.0000   1.0000   1.0000   1.0000   1.0000   1.0000   1.0000   1.0000
     1.0000   1.0000   1.0000   1.0000   1.0000   1.0000   1.0000   1.0000
     1.0000   1.0000   1.0000   1.0000   1.0000   1.0000   1.0000   1.0000
     1.0000   1.0000   1.0000   1.0000   1.0000   1.0000   1.0000   1.0000
     1.0000   1.0000   1.0000   1.0000   1.0000   1.0000   1.0000   1.0000
     1.0000   1.0000   1.0000   1.0000   1.0000   1.0000   1.0000   1.0000

          k = 0.0000-0.2244-0.1331 ( 49992 PWs)   bands (ev):

   -17.9049 -17.9049 -17.9047 -17.9047 -17.8975 -17.8975 -17.8974 -17.8974
   -17.8938 -17.8938 -17.8932 -17.8932 -17.8856 -17.8856 -17.8852 -17.8852
   -17.8829 -17.8829 -17.8814 -17.8814 -17.8740 -17.8740 -17.8728 -17.8728
    -8.9210  -8.9210  -8.7611  -8.7611  -8.6379  -8.6379  -8.5025  -8.5025
    -8.3909  -8.3909  -8.3877  -8.3877  -4.6986  -4.6986  -4.6880  -4.6880
    -4.6503  -4.6503  -4.6381  -4.6381  -4.6220  -4.6220  -4.6202  -4.6202
    -3.0510  -3.0510  -2.9100  -2.9100   0.1114   0.1114   0.6685   0.6685
     0.8190   0.8190   1.0739   1.0739   1.0763   1.0763   1.1830   1.1830
     1.2221   1.2221   1.4361   1.4361   1.6270   1.6270   1.7005   1.7005
     1.8483   1.8483   1.8785   1.8785   1.9652   1.9652   2.1044   2.1044
     2.1725   2.1725   2.1767   2.1767   2.2775   2.2775   2.7946   2.7946

     occupation numbers 
     1.0000   1.0000   1.0000   1.0000   1.0000   1.0000   1.0000   1.0000
     1.0000   1.0000   1.0000   1.0000   1.0000   1.0000   1.0000   1.0000
     1.0000   1.0000   1.0000   1.0000   1.0000   1.0000   1.0000   1.0000
     1.0000   1.0000   1.0000   1.0000   1.0000   1.0000   1.0000   1.0000
     1.0000   1.0000   1.0000   1.0000   1.0000   1.0000   1.0000   1.0000
     1.0000   1.0000   1.0000   1.0000   1.0000   1.0000   1.0000   1.0000
     1.0000   1.0000   1.0000   1.0000   1.0000   1.0000   1.0000   1.0000
     1.0000   1.0000   1.0000   1.0000   1.0000   1.0000   1.0000   1.0000
     1.0000   1.0000   1.0000   1.0000   1.0000   1.0000   1.0000   1.0000
     1.0000   1.0000   1.0000   1.0000   1.0000   1.0000   1.0000   1.0000
     1.0000   1.0000   1.0000   1.0000   1.0000   1.0000   1.0000   1.0000

          k =-0.5000 0.0000 0.0000 ( 49966 PWs)   bands (ev):

   -17.9042 -17.9042 -17.9042 -17.9042 -17.9009 -17.9009 -17.9009 -17.9009
   -17.8933 -17.8933 -17.8933 -17.8933 -17.8788 -17.8788 -17.8788 -17.8788
   -17.8748 -17.8748 -17.8741 -17.8741 -17.8736 -17.8736 -17.8736 -17.8736
    -8.6356  -8.6356  -8.6333  -8.6333  -8.4592  -8.4592  -8.4504  -8.4504
    -8.4381  -8.4381  -8.4180  -8.4180  -4.8704  -4.8704  -4.8018  -4.8018
    -4.6866  -4.6866  -4.6775  -4.6775  -4.6631  -4.6631  -4.6337  -4.6337
    -3.3577  -3.3577  -3.3201  -3.3201  -0.0708  -0.0708  -0.0697  -0.0697
     0.4242   0.4242   0.4830   0.4830   0.7563   0.7563   0.7755   0.7755
     1.1078   1.1078   1.5083   1.5083   1.5522   1.5522   1.6601   1.6601
     1.6742   1.6742   1.7356   1.7356   1.7873   1.7873   1.8099   1.8099
     1.9431   1.9431   1.9835   1.9835   2.3948   2.3948   2.7835   2.7835

     occupation numbers 
     1.0000   1.0000   1.0000   1.0000   1.0000   1.0000   1.0000   1.0000
     1.0000   1.0000   1.0000   1.0000   1.0000   1.0000   1.0000   1.0000
     1.0000   1.0000   1.0000   1.0000   1.0000   1.0000   1.0000   1.0000
     1.0000   1.0000   1.0000   1.0000   1.0000   1.0000   1.0000   1.0000
     1.0000   1.0000   1.0000   1.0000   1.0000   1.0000   1.0000   1.0000
     1.0000   1.0000   1.0000   1.0000   1.0000   1.0000   1.0000   1.0000
     1.0000   1.0000   1.0000   1.0000   1.0000   1.0000   1.0000   1.0000
     1.0000   1.0000   1.0000   1.0000   1.0000   1.0000   1.0000   1.0000
     1.0000   1.0000   1.0000   1.0000   1.0000   1.0000   1.0000   1.0000
     1.0000   1.0000   1.0000   1.0000   1.0000   1.0000   1.0000   1.0000
     1.0000   1.0000   1.0000   1.0000   1.0000   1.0000   1.0000   1.0000

          k =-0.5000 0.0000-0.1331 ( 49968 PWs)   bands (ev):

   -17.9042 -17.9042 -17.9042 -17.9042 -17.9009 -17.9009 -17.9008 -17.9008
   -17.8933 -17.8933 -17.8933 -17.8933 -17.8788 -17.8788 -17.8788 -17.8788
   -17.8748 -17.8748 -17.8741 -17.8741 -17.8736 -17.8736 -17.8735 -17.8735
    -8.6362  -8.6362  -8.6327  -8.6327  -8.4586  -8.4586  -8.4513  -8.4513
    -8.4378  -8.4378  -8.4180  -8.4180  -4.8703  -4.8703  -4.8019  -4.8019
    -4.6868  -4.6868  -4.6775  -4.6775  -4.6628  -4.6628  -4.6339  -4.6339
    -3.3507  -3.3507  -3.3272  -3.3272  -0.0842  -0.0842  -0.0508  -0.0508
     0.4434   0.4434   0.4898   0.4898   0.7019   0.7019   0.7425   0.7425
     1.1987   1.1987   1.4770   1.4770   1.5634   1.5634   1.6770   1.6770
     1.6793   1.6793   1.7068   1.7068   1.7156   1.7156   1.8419   1.8419
     1.9371   1.9371   2.0150   2.0150   2.4566   2.4566   2.7224   2.7224

     occupation numbers 
     1.0000   1.0000   1.0000   1.0000   1.0000   1.0000   1.0000   1.0000
     1.0000   1.0000   1.0000   1.0000   1.0000   1.0000   1.0000   1.0000
     1.0000   1.0000   1.0000   1.0000   1.0000   1.0000   1.0000   1.0000
     1.0000   1.0000   1.0000   1.0000   1.0000   1.0000   1.0000   1.0000
     1.0000   1.0000   1.0000   1.0000   1.0000   1.0000   1.0000   1.0000
     1.0000   1.0000   1.0000   1.0000   1.0000   1.0000   1.0000   1.0000
     1.0000   1.0000   1.0000   1.0000   1.0000   1.0000   1.0000   1.0000
     1.0000   1.0000   1.0000   1.0000   1.0000   1.0000   1.0000   1.0000
     1.0000   1.0000   1.0000   1.0000   1.0000   1.0000   1.0000   1.0000
     1.0000   1.0000   1.0000   1.0000   1.0000   1.0000   1.0000   1.0000
     1.0000   1.0000   1.0000   1.0000   1.0000   1.0000   1.0000   1.0000

          k =-0.5000-0.2244 0.0000 ( 50024 PWs)   bands (ev):

   -17.9042 -17.9042 -17.9042 -17.9042 -17.9009 -17.9009 -17.9009 -17.9009
   -17.8934 -17.8934 -17.8934 -17.8934 -17.8788 -17.8788 -17.8788 -17.8788
   -17.8745 -17.8745 -17.8745 -17.8745 -17.8735 -17.8735 -17.8735 -17.8735
    -8.6345  -8.6345  -8.6345  -8.6345  -8.4559  -8.4559  -8.4559  -8.4559
    -8.4271  -8.4271  -8.4271  -8.4271  -4.8362  -4.8362  -4.8362  -4.8362
    -4.6797  -4.6797  -4.6797  -4.6797  -4.6507  -4.6507  -4.6507  -4.6507
    -3.3395  -3.3395  -3.3395  -3.3395   0.0761   0.0761   0.0761   0.0761
     0.2953   0.2953   0.2953   0.2953   0.7063   0.7063   0.7063   0.7063
     1.3259   1.3259   1.3259   1.3259   1.5128   1.5128   1.5128   1.5128
     1.6781   1.6781   1.6781   1.6781   1.8060   1.8060   1.8060   1.8060
     2.0367   2.0367   2.0367   2.0367   2.7476   2.7476   2.7476   2.7476

     occupation numbers 
     1.0000   1.0000   1.0000   1.0000   1.0000   1.0000   1.0000   1.0000
     1.0000   1.0000   1.0000   1.0000   1.0000   1.0000   1.0000   1.0000
     1.0000   1.0000   1.0000   1.0000   1.0000   1.0000   1.0000   1.0000
     1.0000   1.0000   1.0000   1.0000   1.0000   1.0000   1.0000   1.0000
     1.0000   1.0000   1.0000   1.0000   1.0000   1.0000   1.0000   1.0000
     1.0000   1.0000   1.0000   1.0000   1.0000   1.0000   1.0000   1.0000
     1.0000   1.0000   1.0000   1.0000   1.0000   1.0000   1.0000   1.0000
     1.0000   1.0000   1.0000   1.0000   1.0000   1.0000   1.0000   1.0000
     1.0000   1.0000   1.0000   1.0000   1.0000   1.0000   1.0000   1.0000
     1.0000   1.0000   1.0000   1.0000   1.0000   1.0000   1.0000   1.0000
     1.0000   1.0000   1.0000   1.0000   1.0000   1.0000   1.0000   1.0000

          k =-0.5000-0.2244-0.1331 ( 50040 PWs)   bands (ev):

   -17.9043 -17.9043 -17.9043 -17.9043 -17.9009 -17.9009 -17.9009 -17.9009
   -17.8934 -17.8934 -17.8934 -17.8934 -17.8788 -17.8788 -17.8788 -17.8788
   -17.8745 -17.8745 -17.8745 -17.8745 -17.8736 -17.8736 -17.8736 -17.8736
    -8.6345  -8.6345  -8.6345  -8.6345  -8.4558  -8.4558  -8.4558  -8.4558
    -8.4271  -8.4271  -8.4271  -8.4271  -4.8362  -4.8362  -4.8362  -4.8362
    -4.6796  -4.6796  -4.6796  -4.6796  -4.6508  -4.6508  -4.6508  -4.6508
    -3.3395  -3.3395  -3.3395  -3.3395   0.0697   0.0697   0.0697   0.0697
     0.2984   0.2984   0.2984   0.2984   0.7331   0.7331   0.7331   0.7331
     1.2383   1.2383   1.2383   1.2383   1.5869   1.5869   1.5869   1.5869
     1.6809   1.6809   1.6809   1.6809   1.8265   1.8265   1.8265   1.8265
     1.9958   1.9958   1.9958   1.9958   2.7573   2.7573   2.7573   2.7573

     occupation numbers 
     1.0000   1.0000   1.0000   1.0000   1.0000   1.0000   1.0000   1.0000
     1.0000   1.0000   1.0000   1.0000   1.0000   1.0000   1.0000   1.0000
     1.0000   1.0000   1.0000   1.0000   1.0000   1.0000   1.0000   1.0000
     1.0000   1.0000   1.0000   1.0000   1.0000   1.0000   1.0000   1.0000
     1.0000   1.0000   1.0000   1.0000   1.0000   1.0000   1.0000   1.0000
     1.0000   1.0000   1.0000   1.0000   1.0000   1.0000   1.0000   1.0000
     1.0000   1.0000   1.0000   1.0000   1.0000   1.0000   1.0000   1.0000
     1.0000   1.0000   1.0000   1.0000   1.0000   1.0000   1.0000   1.0000
     1.0000   1.0000   1.0000   1.0000   1.0000   1.0000   1.0000   1.0000
     1.0000   1.0000   1.0000   1.0000   1.0000   1.0000   1.0000   1.0000
     1.0000   1.0000   1.0000   1.0000   1.0000   1.0000   1.0000   1.0000

     highest occupied level (ev):     2.8123

!    total energy              =   -6438.74208592 Ry
     estimated scf accuracy    <       0.00000055 Ry

     The total energy is the sum of the following terms:
     one-electron contribution =    -468.61820320 Ry
     hartree contribution      =     316.28002111 Ry
     xc contribution           =    -462.52028681 Ry
     ewald contribution        =    -633.56960439 Ry
     one-center paw contrib.   =   -5190.31401264 Ry
      -> PAW hartree energy AE =       0.00000000 Ry
      -> PAW hartree energy PS =       0.00000000 Ry
      -> PAW xc energy AE      =       0.00000000 Ry
      -> PAW xc energy PS      =       0.00000000 Ry
      -> total E_H with PAW    =     316.28002111 Ry
      -> total E_XC with PAW   =    -462.52028681 Ry

     convergence has been achieved in  13 iterations

     Forces acting on atoms (cartesian axes, Ry/au):

     atom    1 type  1   force =     0.00000000   -0.00098543    0.00071155
     atom    2 type  1   force =     0.00000000    0.00098543   -0.00071155
     atom    3 type  1   force =     0.00000000   -0.00098543   -0.00071155
     atom    4 type  1   force =     0.00000000    0.00098543    0.00071155
     atom    5 type  2   force =     0.00000000   -0.00124888   -0.00114740
     atom    6 type  2   force =     0.00000000    0.00124888    0.00114740
     atom    7 type  2   force =     0.00000000   -0.00124888    0.00114740
     atom    8 type  2   force =     0.00000000    0.00124888   -0.00114740
     atom    9 type  3   force =     0.00000000   -0.00692068   -0.00590010
     atom   10 type  3   force =     0.00000000    0.00692068    0.00590010
     atom   11 type  3   force =     0.00000000   -0.00692068    0.00590010
     atom   12 type  3   force =     0.00000000    0.00692068   -0.00590010
     atom   13 type  3   force =     0.00000000   -0.00275471    0.00438937
     atom   14 type  3   force =     0.00000000    0.00275471   -0.00438937
     atom   15 type  3   force =     0.00000000   -0.00275471   -0.00438937
     atom   16 type  3   force =     0.00000000    0.00275471    0.00438937
     atom   17 type  3   force =     0.00000000    0.00664014   -0.00441274
     atom   18 type  3   force =     0.00000000   -0.00664014    0.00441274
     atom   19 type  3   force =     0.00000000    0.00664014    0.00441274
     atom   20 type  3   force =     0.00000000   -0.00664014   -0.00441274
     The non-local contrib.  to forces
     atom    1 type  1   force =     0.00000000    0.00223941   -0.00122080
     atom    2 type  1   force =     0.00000000   -0.00223941    0.00122080
     atom    3 type  1   force =    -0.00000000    0.00223941    0.00122080
     atom    4 type  1   force =     0.00000000   -0.00223941   -0.00122080
     atom    5 type  2   force =     0.00000000   -0.08461191   -0.12678452
     atom    6 type  2   force =     0.00000000    0.08461191    0.12678452
     atom    7 type  2   force =     0.00000000   -0.08461191    0.12678452
     atom    8 type  2   force =     0.00000000    0.08461191   -0.12678452
     atom    9 type  3   force =     0.00000000   -0.04945838   -0.04872175
     atom   10 type  3   force =     0.00000000    0.04945838    0.04872175
     atom   11 type  3   force =    -0.00000000   -0.04945838    0.04872175
     atom   12 type  3   force =     0.00000000    0.04945838   -0.04872175
     atom   13 type  3   force =     0.00000000   -0.03341154    0.05679223
     atom   14 type  3   force =     0.00000000    0.03341154   -0.05679223
     atom   15 type  3   force =     0.00000000   -0.03341154   -0.05679223
     atom   16 type  3   force =     0.00000000    0.03341154    0.05679223
     atom   17 type  3   force =     0.00000000    0.05716569   -0.01807461
     atom   18 type  3   force =     0.00000000   -0.05716569    0.01807461
     atom   19 type  3   force =     0.00000000    0.05716569    0.01807461
     atom   20 type  3   force =     0.00000000   -0.05716569   -0.01807461
     The ionic contribution  to forces
     atom    1 type  1   force =     0.00000000    0.02273773    0.42856976
     atom    2 type  1   force =    -0.00000000   -0.02273773   -0.42856976
     atom    3 type  1   force =    -0.00000000    0.02273773   -0.42856976
     atom    4 type  1   force =    -0.00000000   -0.02273773    0.42856976
     atom    5 type  2   force =    -0.00000000   -2.44382135   -1.60292983
     atom    6 type  2   force =     0.00000000    2.44382135    1.60292983
     atom    7 type  2   force =    -0.00000000   -2.44382135    1.60292983
     atom    8 type  2   force =     0.00000000    2.44382135   -1.60292983
     atom    9 type  3   force =    -0.00000000    3.00608891    5.13288893
     atom   10 type  3   force =     0.00000000   -3.00608891   -5.13288893
     atom   11 type  3   force =    -0.00000000    3.00608891   -5.13288893
     atom   12 type  3   force =    -0.00000000   -3.00608891    5.13288893
     atom   13 type  3   force =     0.00000000    2.02422849   -3.75281499
     atom   14 type  3   force =    -0.00000000   -2.02422849    3.75281499
     atom   15 type  3   force =     0.00000000    2.02422849    3.75281499
     atom   16 type  3   force =    -0.00000000   -2.02422849   -3.75281499
     atom   17 type  3   force =     0.00000000   -4.20564473    2.10270404
     atom   18 type  3   force =    -0.00000000    4.20564473   -2.10270404
     atom   19 type  3   force =     0.00000000   -4.20564473   -2.10270404
     atom   20 type  3   force =    -0.00000000    4.20564473    2.10270404
     The local contribution  to forces
     atom    1 type  1   force =    -0.00000000   -0.02602043   -0.42674043
     atom    2 type  1   force =     0.00000000    0.02602043    0.42674043
     atom    3 type  1   force =    -0.00000000   -0.02602043    0.42674043
     atom    4 type  1   force =     0.00000000    0.02602043   -0.42674043
     atom    5 type  2   force =    -0.00000000    2.52591636    1.72835457
     atom    6 type  2   force =    -0.00000000   -2.52591636   -1.72835457
     atom    7 type  2   force =    -0.00000000    2.52591636   -1.72835457
     atom    8 type  2   force =    -0.00000000   -2.52591636    1.72835457
     atom    9 type  3   force =    -0.00000000   -2.96858969   -5.09510905
     atom   10 type  3   force =     0.00000000    2.96858969    5.09510905
     atom   11 type  3   force =    -0.00000000   -2.96858969    5.09510905
     atom   12 type  3   force =     0.00000000    2.96858969   -5.09510905
     atom   13 type  3   force =     0.00000000   -1.99671403    3.70598369
     atom   14 type  3   force =    -0.00000000    1.99671403   -3.70598369
     atom   15 type  3   force =     0.00000000   -1.99671403   -3.70598369
     atom   16 type  3   force =    -0.00000000    1.99671403    3.70598369
     atom   17 type  3   force =     0.00000000    4.16110063   -2.09107679
     atom   18 type  3   force =    -0.00000000   -4.16110063    2.09107679
     atom   19 type  3   force =     0.00000000    4.16110063    2.09107679
     atom   20 type  3   force =     0.00000000   -4.16110063   -2.09107679
     The core correction contribution to forces
     atom    1 type  1   force =     0.00000000   -0.00002343   -0.00004074
     atom    2 type  1   force =    -0.00000000    0.00002343    0.00004074
     atom    3 type  1   force =     0.00000000   -0.00002343    0.00004074
     atom    4 type  1   force =    -0.00000000    0.00002343   -0.00004074
     atom    5 type  2   force =     0.00000000    0.00012659   -0.00001959
     atom    6 type  2   force =    -0.00000000   -0.00012659    0.00001959
     atom    7 type  2   force =    -0.00000000    0.00012659    0.00001959
     atom    8 type  2   force =    -0.00000000   -0.00012659   -0.00001959
     atom    9 type  3   force =     0.00000000    0.00520337    0.00541680
     atom   10 type  3   force =    -0.00000000   -0.00520337   -0.00541680
     atom   11 type  3   force =     0.00000000    0.00520337   -0.00541680
     atom   12 type  3   force =     0.00000000   -0.00520337    0.00541680
     atom   13 type  3   force =    -0.00000000    0.00331385   -0.00570774
     atom   14 type  3   force =     0.00000000   -0.00331385    0.00570774
     atom   15 type  3   force =    -0.00000000    0.00331385    0.00570774
     atom   16 type  3   force =     0.00000000   -0.00331385   -0.00570774
     atom   17 type  3   force =    -0.00000000   -0.00644033    0.00212329
     atom   18 type  3   force =     0.00000000    0.00644033   -0.00212329
     atom   19 type  3   force =    -0.00000000   -0.00644033   -0.00212329
     atom   20 type  3   force =     0.00000000    0.00644033    0.00212329
     The Hubbard contrib.    to forces
     atom    1 type  1   force =     0.00000000    0.00000000    0.00000000
     atom    2 type  1   force =     0.00000000    0.00000000    0.00000000
     atom    3 type  1   force =     0.00000000    0.00000000    0.00000000
     atom    4 type  1   force =     0.00000000    0.00000000    0.00000000
     atom    5 type  2   force =     0.00000000    0.00000000    0.00000000
     atom    6 type  2   force =     0.00000000    0.00000000    0.00000000
     atom    7 type  2   force =     0.00000000    0.00000000    0.00000000
     atom    8 type  2   force =     0.00000000    0.00000000    0.00000000
     atom    9 type  3   force =     0.00000000    0.00000000    0.00000000
     atom   10 type  3   force =     0.00000000    0.00000000    0.00000000
     atom   11 type  3   force =     0.00000000    0.00000000    0.00000000
     atom   12 type  3   force =     0.00000000    0.00000000    0.00000000
     atom   13 type  3   force =     0.00000000    0.00000000    0.00000000
     atom   14 type  3   force =     0.00000000    0.00000000    0.00000000
     atom   15 type  3   force =     0.00000000    0.00000000    0.00000000
     atom   16 type  3   force =     0.00000000    0.00000000    0.00000000
     atom   17 type  3   force =     0.00000000    0.00000000    0.00000000
     atom   18 type  3   force =     0.00000000    0.00000000    0.00000000
     atom   19 type  3   force =     0.00000000    0.00000000    0.00000000
     atom   20 type  3   force =     0.00000000    0.00000000    0.00000000
     The SCF correction term to forces
     atom    1 type  1   force =     0.00000000    0.00008129    0.00014376
     atom    2 type  1   force =    -0.00000000   -0.00008129   -0.00014376
     atom    3 type  1   force =    -0.00000000    0.00008129   -0.00014376
     atom    4 type  1   force =    -0.00000000   -0.00008129    0.00014376
     atom    5 type  2   force =     0.00000000    0.00114143    0.00023197
     atom    6 type  2   force =     0.00000000   -0.00114143   -0.00023197
     atom    7 type  2   force =     0.00000000    0.00114143   -0.00023197
     atom    8 type  2   force =     0.00000000   -0.00114143    0.00023197
     atom    9 type  3   force =    -0.00000000   -0.00016489   -0.00037503
     atom   10 type  3   force =     0.00000000    0.00016489    0.00037503
     atom   11 type  3   force =     0.00000000   -0.00016489    0.00037503
     atom   12 type  3   force =     0.00000000    0.00016489   -0.00037503
     atom   13 type  3   force =     0.00000000   -0.00017148    0.00013617
     atom   14 type  3   force =     0.00000000    0.00017148   -0.00013617
     atom   15 type  3   force =    -0.00000000   -0.00017148   -0.00013617
     atom   16 type  3   force =     0.00000000    0.00017148    0.00013617
     atom   17 type  3   force =    -0.00000000    0.00045887   -0.00008869
     atom   18 type  3   force =     0.00000000   -0.00045887    0.00008869
     atom   19 type  3   force =     0.00000000    0.00045887    0.00008869
     atom   20 type  3   force =    -0.00000000   -0.00045887   -0.00008869

     Total force =     0.026644     Total SCF correction =     0.002697
     SCF correction compared to forces is large: reduce conv_thr to get better values


     Computing stress (Cartesian axis) and pressure

          total   stress  (Ry/bohr**3)                   (kbar)     P=      -15.22
  -0.00007677   0.00000000   0.00000000          -11.29        0.00        0.00
   0.00000000  -0.00012068   0.00000000            0.00      -17.75        0.00
   0.00000000   0.00000000  -0.00011302            0.00        0.00      -16.63

     kinetic stress (kbar)   5526.17      0.00      0.00
                                0.00   5526.39      0.00
                                0.00      0.00   5522.41

     local   stress (kbar)  -4566.76      0.00      0.00
                                0.00  -1923.35      0.00
                                0.00      0.00  -1030.98

     nonloc. stress (kbar)   1162.81      0.00      0.00
                                0.00   1158.14      0.00
                                0.00      0.00   1161.40

     hartree stress (kbar)   3403.15     -0.00     -0.00
                               -0.00   2184.99     -0.00
                               -0.00     -0.00   1715.23

     exc-cor stress (kbar)   5446.20      0.00      0.00
                                0.00   5446.08      0.00
                                0.00      0.00   5446.32

     corecor stress (kbar)  -7198.06     -0.00     -0.00
                               -0.00  -7197.84     -0.00
                               -0.00      0.00  -7197.92

     ewald   stress (kbar)  -3784.80      0.00     -0.00
                                0.00  -5212.16      0.00
                               -0.00      0.00  -5633.09

     hubbard stress (kbar)      0.00      0.00      0.00
                                0.00      0.00      0.00
                                0.00      0.00      0.00

     DFT-D   stress (kbar)      0.00      0.00      0.00
                                0.00      0.00      0.00
                                0.00      0.00      0.00

     XDM     stress (kbar)      0.00      0.00      0.00
                                0.00      0.00      0.00
                                0.00      0.00      0.00

     dft-nl  stress (kbar)      0.00      0.00      0.00
                                0.00      0.00      0.00
                                0.00      0.00      0.00

     TS-vdW  stress (kbar)      0.00      0.00      0.00
                                0.00      0.00      0.00
                                0.00      0.00      0.00



     Writing output data file ./CsSnI3.save/
 
     init_run     :      4.98s CPU      6.65s WALL (       1 calls)
     electrons    :    125.91s CPU    136.96s WALL (       1 calls)
     forces       :      2.84s CPU      3.15s WALL (       1 calls)
     stress       :     16.29s CPU     16.86s WALL (       1 calls)

     Called by init_run:
     wfcinit      :      2.48s CPU      3.40s WALL (       1 calls)
     wfcinit:atom :      0.02s CPU      0.02s WALL (       8 calls)
     wfcinit:wfcr :      2.35s CPU      3.25s WALL (       8 calls)
     potinit      :      0.53s CPU      0.58s WALL (       1 calls)
     hinit0       :      0.86s CPU      1.19s WALL (       1 calls)

     Called by electrons:
     c_bands      :     99.94s CPU    102.44s WALL (      14 calls)
     sum_band     :     17.56s CPU     22.58s WALL (      14 calls)
     v_of_rho     :      0.94s CPU      0.97s WALL (      14 calls)
     v_h          :      0.08s CPU      0.08s WALL (      14 calls)
     v_xc         :      0.99s CPU      1.01s WALL (      16 calls)
     newd         :      5.28s CPU      9.06s WALL (      14 calls)
     PAW_pot      :      2.20s CPU      2.22s WALL (      14 calls)
     mix_rho      :      0.28s CPU      0.30s WALL (      14 calls)

     Called by c_bands:
     init_us_2    :      1.78s CPU      1.80s WALL (     248 calls)
     cegterg      :     92.03s CPU     94.45s WALL (     112 calls)

     Called by sum_band:
     sum_band:wei :      0.00s CPU      0.00s WALL (      14 calls)
     sum_band:loo :     11.71s CPU     12.11s WALL (      14 calls)
     sum_band:buf :      0.19s CPU      0.20s WALL (     112 calls)
     sum_band:ini :      0.76s CPU      0.77s WALL (     112 calls)
     sum_band:cal :      2.72s CPU      2.91s WALL (     112 calls)
     sum_band:bec :      0.12s CPU      0.13s WALL (     112 calls)
     addusdens    :      5.08s CPU      9.69s WALL (      14 calls)
     addusd:skk   :      0.03s CPU      0.05s WALL (      42 calls)
     addusd:dgemm :      0.90s CPU      3.32s WALL (      42 calls)
     addusd:qvan2 :      3.84s CPU      4.38s WALL (      42 calls)

     Called by *egterg:
     cdiaghg      :      8.07s CPU      9.22s WALL (     640 calls)
     cegterg:over :      5.35s CPU      5.61s WALL (     536 calls)
     cegterg:upda :      2.61s CPU      2.64s WALL (     536 calls)
     cegterg:last :      4.84s CPU      4.87s WALL (     284 calls)
     h_psi        :     63.16s CPU     64.86s WALL (     656 calls)
     s_psi        :      7.22s CPU      7.34s WALL (     656 calls)
     g_psi        :      0.13s CPU      0.14s WALL (     536 calls)

     Called by h_psi:
     h_psi:calbec :     11.30s CPU     11.94s WALL (     656 calls)
     vloc_psi     :     44.10s CPU     45.07s WALL (     656 calls)
     add_vuspsi   :      7.32s CPU      7.40s WALL (     656 calls)

     General routines
     calbec       :     15.21s CPU     16.06s WALL (     808 calls)
     fft          :      0.98s CPU      1.10s WALL (     206 calls)
     ffts         :      0.06s CPU      0.09s WALL (      28 calls)
     fftw         :     48.94s CPU     50.02s WALL (   70010 calls)
     interpolate  :      0.10s CPU      0.14s WALL (      14 calls)
 
     Parallel routines
     fft_scatt_xy :      2.98s CPU      3.03s WALL (   70244 calls)
     fft_scatt_yz :     31.03s CPU     31.75s WALL (   70244 calls)

     PAW routines
     PAW_pot      :      2.20s CPU      2.22s WALL (      14 calls)
     PAW_symme    :      0.05s CPU      0.05s WALL (      28 calls)
 
     PWSCF        :   2m37.42s CPU   2m52.46s WALL

 
   This run was terminated on:  21:53: 4  24Jan2021            

=------------------------------------------------------------------------------=
   JOB DONE.
=------------------------------------------------------------------------------=
