
     Program PWSCF v.6.4.1 starts on 24Jan2021 at 17:47:58 

     This program is part of the open-source Quantum ESPRESSO suite
     for quantum simulation of materials; please cite
         "P. Giannozzi et al., J. Phys.:Condens. Matter 21 395502 (2009);
         "P. Giannozzi et al., J. Phys.:Condens. Matter 29 465901 (2017);
          URL http://www.quantum-espresso.org", 
     in publications or presentations arising from this work. More details at
     http://www.quantum-espresso.org/quote

     Parallel version (MPI & OpenMP), running on      48 processor cores
     Number of MPI processes:                24
     Threads/MPI process:                     2

     MPI processes distributed on     1 nodes
     R & G space division:  proc/nbgrp/npool/nimage =      24
     Waiting for input...
     Reading input from standard input

     Current dimensions of program PWSCF are:
     Max number of different atomic species (ntypx) = 10
     Max number of k-points (npk) =  40000
     Max angular momentum in pseudopotentials (lmaxx) =  3
               file Sn.rel-pbesol-dn-kjpaw_psl.1.0.0.UPF: wavefunction(s)  5S 5P 5P 4D 4D renormalized
               file I.rel-pbesol-n-kjpaw_psl.1.0.0.UPF: wavefunction(s)  5S renormalized

     Subspace diagonalization in iterative solution of the eigenvalue problem:
     one sub-group per band group will be used
     scalapack distributed-memory algorithm (size of sub-group:  3*  3 procs)

 
     Parallelization info
     --------------------
     sticks:   dense  smooth     PW     G-vecs:    dense   smooth      PW
     Min         372     248     67                26472    14418    2019
     Max         373     249     68                26475    14423    2023
     Sum        8945    5957   1609               635371   346083   48501
 

     Title: 
     CsIsalt                                                                    


     bravais-lattice index     =            1
     lattice parameter (alat)  =      14.4199  a.u.
     unit-cell volume          =    2998.4083 (a.u.)^3
     number of atoms/cell      =            6
     number of atomic types    =            2
     number of electrons       =        56.00
     number of Kohn-Sham states=           56
     kinetic-energy cutoff     =      90.0000  Ry
     charge density cutoff     =     540.0000  Ry
     convergence threshold     =      1.0E-06
     mixing beta               =       0.3500
     number of iterations used =            8  plain     mixing
     Exchange-correlation      = SLA PW PSX PSC ( 1  4 10  8 0 0)
     Non magnetic calculation with spin-orbit


     celldm(1)=  14.419945  celldm(2)=   0.000000  celldm(3)=   0.000000
     celldm(4)=   0.000000  celldm(5)=   0.000000  celldm(6)=   0.000000

     crystal axes: (cart. coord. in units of alat)
               a(1) = (   1.000000   0.000000   0.000000 )  
               a(2) = (   0.000000   1.000000   0.000000 )  
               a(3) = (   0.000000   0.000000   1.000000 )  

     reciprocal axes: (cart. coord. in units 2 pi/alat)
               b(1) = (  1.000000  0.000000  0.000000 )  
               b(2) = (  0.000000  1.000000  0.000000 )  
               b(3) = (  0.000000  0.000000  1.000000 )  


     PseudoPot. # 1 for Sn read from file:
     /marconi_scratch/userexternal/cmalosso/degironcoli/pseudo/Sn.rel-pbesol-dn-kjpaw_psl.1.0.0.UPF
     MD5 check sum: e69eff64f15ae39ad43ef58bacbfdf88
     Pseudo is Projector augmented-wave + core cor, Zval = 14.0
     Generated using "atomic" code by A. Dal Corso v.6.3
     Shape of augmentation charge: PSQ
     Using radial grid of 1243 points, 10 beta functions with: 
                l(1) =   0
                l(2) =   0
                l(3) =   1
                l(4) =   1
                l(5) =   1
                l(6) =   1
                l(7) =   2
                l(8) =   2
                l(9) =   2
               l(10) =   2
     Q(r) pseudized with 0 coefficients 


     PseudoPot. # 2 for I  read from file:
     /marconi_scratch/userexternal/cmalosso/degironcoli/pseudo/I.rel-pbesol-n-kjpaw_psl.1.0.0.UPF
     MD5 check sum: 4478c427bd443f303eca1937a163b991
     Pseudo is Projector augmented-wave + core cor, Zval =  7.0
     Generated using "atomic" code by A. Dal Corso v.6.3
     Shape of augmentation charge: PSQ
     Using radial grid of 1247 points, 10 beta functions with: 
                l(1) =   0
                l(2) =   0
                l(3) =   1
                l(4) =   1
                l(5) =   1
                l(6) =   1
                l(7) =   2
                l(8) =   2
                l(9) =   2
               l(10) =   2
     Q(r) pseudized with 0 coefficients 


     atomic species   valence    mass     pseudopotential
        Sn            14.00   118.70000     Sn( 1.00)
        I              7.00   126.90000     I ( 1.00)

     16 Sym. Ops., with inversion, found ( 8 have fractional translation)


                                    s                        frac. trans.

      isym =  1     identity                                     

 cryst.   s( 1) = (     1          0          0      )
                  (     0          1          0      )
                  (     0          0          1      )

 cart.    s( 1) = (  1.0000000  0.0000000  0.0000000 )
                  (  0.0000000  1.0000000  0.0000000 )
                  (  0.0000000  0.0000000  1.0000000 )


      isym =  2     180 deg rotation - cart. axis [0,0,1]        

 cryst.   s( 2) = (    -1          0          0      )
                  (     0         -1          0      )
                  (     0          0          1      )

 cart.    s( 2) = ( -1.0000000  0.0000000  0.0000000 )
                  (  0.0000000 -1.0000000  0.0000000 )
                  (  0.0000000  0.0000000  1.0000000 )


      isym =  3     180 deg rotation - cart. axis [0,1,0]        

 cryst.   s( 3) = (    -1          0          0      )    f =(  0.5000000 )
                  (     0          1          0      )       ( -0.5000000 )
                  (     0          0         -1      )       (  0.5000000 )

 cart.    s( 3) = ( -1.0000000  0.0000000  0.0000000 )    f =(  0.5000000 )
                  (  0.0000000  1.0000000  0.0000000 )       ( -0.5000000 )
                  (  0.0000000  0.0000000 -1.0000000 )       (  0.5000000 )


      isym =  4     180 deg rotation - cart. axis [1,0,0]        

 cryst.   s( 4) = (     1          0          0      )    f =( -0.5000000 )
                  (     0         -1          0      )       (  0.5000000 )
                  (     0          0         -1      )       (  0.5000000 )

 cart.    s( 4) = (  1.0000000  0.0000000  0.0000000 )    f =( -0.5000000 )
                  (  0.0000000 -1.0000000  0.0000000 )       (  0.5000000 )
                  (  0.0000000  0.0000000 -1.0000000 )       (  0.5000000 )


      isym =  5     180 deg rotation - cart. axis [1,1,0]        

 cryst.   s( 5) = (     0          1          0      )
                  (     1          0          0      )
                  (     0          0         -1      )

 cart.    s( 5) = (  0.0000000  1.0000000  0.0000000 )
                  (  1.0000000  0.0000000  0.0000000 )
                  (  0.0000000  0.0000000 -1.0000000 )


      isym =  6     180 deg rotation - cart. axis [1,-1,0]       

 cryst.   s( 6) = (     0         -1          0      )
                  (    -1          0          0      )
                  (     0          0         -1      )

 cart.    s( 6) = (  0.0000000 -1.0000000  0.0000000 )
                  ( -1.0000000  0.0000000  0.0000000 )
                  (  0.0000000  0.0000000 -1.0000000 )


      isym =  7      90 deg rotation - cart. axis [0,0,-1]       

 cryst.   s( 7) = (     0         -1          0      )    f =( -0.5000000 )
                  (     1          0          0      )       (  0.5000000 )
                  (     0          0          1      )       ( -0.5000000 )

 cart.    s( 7) = (  0.0000000  1.0000000  0.0000000 )    f =( -0.5000000 )
                  ( -1.0000000  0.0000000  0.0000000 )       (  0.5000000 )
                  (  0.0000000  0.0000000  1.0000000 )       ( -0.5000000 )


      isym =  8      90 deg rotation - cart. axis [0,0,1]        

 cryst.   s( 8) = (     0          1          0      )    f =(  0.5000000 )
                  (    -1          0          0      )       ( -0.5000000 )
                  (     0          0          1      )       ( -0.5000000 )

 cart.    s( 8) = (  0.0000000 -1.0000000  0.0000000 )    f =(  0.5000000 )
                  (  1.0000000  0.0000000  0.0000000 )       ( -0.5000000 )
                  (  0.0000000  0.0000000  1.0000000 )       ( -0.5000000 )


      isym =  9     inversion                                    

 cryst.   s( 9) = (    -1          0          0      )
                  (     0         -1          0      )
                  (     0          0         -1      )

 cart.    s( 9) = ( -1.0000000  0.0000000  0.0000000 )
                  (  0.0000000 -1.0000000  0.0000000 )
                  (  0.0000000  0.0000000 -1.0000000 )


      isym = 10     inv. 180 deg rotation - cart. axis [0,0,1]   

 cryst.   s(10) = (     1          0          0      )
                  (     0          1          0      )
                  (     0          0         -1      )

 cart.    s(10) = (  1.0000000  0.0000000  0.0000000 )
                  (  0.0000000  1.0000000  0.0000000 )
                  (  0.0000000  0.0000000 -1.0000000 )


      isym = 11     inv. 180 deg rotation - cart. axis [0,1,0]   

 cryst.   s(11) = (     1          0          0      )    f =( -0.5000000 )
                  (     0         -1          0      )       (  0.5000000 )
                  (     0          0          1      )       ( -0.5000000 )

 cart.    s(11) = (  1.0000000  0.0000000  0.0000000 )    f =( -0.5000000 )
                  (  0.0000000 -1.0000000  0.0000000 )       (  0.5000000 )
                  (  0.0000000  0.0000000  1.0000000 )       ( -0.5000000 )


      isym = 12     inv. 180 deg rotation - cart. axis [1,0,0]   

 cryst.   s(12) = (    -1          0          0      )    f =(  0.5000000 )
                  (     0          1          0      )       ( -0.5000000 )
                  (     0          0          1      )       ( -0.5000000 )

 cart.    s(12) = ( -1.0000000  0.0000000  0.0000000 )    f =(  0.5000000 )
                  (  0.0000000  1.0000000  0.0000000 )       ( -0.5000000 )
                  (  0.0000000  0.0000000  1.0000000 )       ( -0.5000000 )


      isym = 13     inv. 180 deg rotation - cart. axis [1,1,0]   

 cryst.   s(13) = (     0         -1          0      )
                  (    -1          0          0      )
                  (     0          0          1      )

 cart.    s(13) = (  0.0000000 -1.0000000  0.0000000 )
                  ( -1.0000000  0.0000000  0.0000000 )
                  (  0.0000000  0.0000000  1.0000000 )


      isym = 14     inv. 180 deg rotation - cart. axis [1,-1,0]  

 cryst.   s(14) = (     0          1          0      )
                  (     1          0          0      )
                  (     0          0          1      )

 cart.    s(14) = (  0.0000000  1.0000000  0.0000000 )
                  (  1.0000000  0.0000000  0.0000000 )
                  (  0.0000000  0.0000000  1.0000000 )


      isym = 15     inv.  90 deg rotation - cart. axis [0,0,-1]  

 cryst.   s(15) = (     0          1          0      )    f =(  0.5000000 )
                  (    -1          0          0      )       ( -0.5000000 )
                  (     0          0         -1      )       (  0.5000000 )

 cart.    s(15) = (  0.0000000 -1.0000000  0.0000000 )    f =(  0.5000000 )
                  (  1.0000000  0.0000000  0.0000000 )       ( -0.5000000 )
                  (  0.0000000  0.0000000 -1.0000000 )       (  0.5000000 )


      isym = 16     inv.  90 deg rotation - cart. axis [0,0,1]   

 cryst.   s(16) = (     0         -1          0      )    f =( -0.5000000 )
                  (     1          0          0      )       (  0.5000000 )
                  (     0          0         -1      )       (  0.5000000 )

 cart.    s(16) = (  0.0000000  1.0000000  0.0000000 )    f =( -0.5000000 )
                  ( -1.0000000  0.0000000  0.0000000 )       (  0.5000000 )
                  (  0.0000000  0.0000000 -1.0000000 )       (  0.5000000 )


     double point group D_4h(4/mmm)
     there are 14 classes and  4 irreducible representations
     the character table:

       E     -E    2C4   -2C4   C2    2C2' 2C2'' i     -i    2S4   -2S4   s_h 
                               -C2   -2C2' -2C2'                         -s_h 
G_6+   2.00 -2.00  1.41 -1.41  0.00  0.00  0.00  2.00 -2.00  1.41 -1.41  0.00
G_7+   2.00 -2.00 -1.41  1.41  0.00  0.00  0.00  2.00 -2.00 -1.41  1.41  0.00
G_6-   2.00 -2.00  1.41 -1.41  0.00  0.00  0.00 -2.00  2.00 -1.41  1.41  0.00
G_7-   2.00 -2.00 -1.41  1.41  0.00  0.00  0.00 -2.00  2.00  1.41 -1.41  0.00

        2s_v  2s_d
       -2s_v -2s_d
G_6+   0.00  0.00
G_7+   0.00  0.00
G_6-   0.00  0.00
G_7-   0.00  0.00

     the symmetry operations in each class and the name of the first element:

     E             1
          identity                                               
     -E           -1
          identity E                                             
     2C4           7    8
           90 deg rotation - cart. axis [0,0,-1]                 
     -2C4         -7   -8
           90 deg rotation - cart. axis [0,0,-1] E               
      C2  -C2      2   -2
          180 deg rotation - cart. axis [0,0,1]                  
      2C2'-2C2'    3   -3    4   -4
          180 deg rotation - cart. axis [0,1,0]                  
     2C2''-2C2'    5   -5   -6    6
          180 deg rotation - cart. axis [1,1,0]                  
     i             9
          inversion                                              
     -i           -9
          inversion E                                            
     2S4          15   16
          inv.  90 deg rotation - cart. axis [0,0,-1]            
     -2S4        -15  -16
          inv.  90 deg rotation - cart. axis [0,0,-1] E          
      s_h -s_h    10  -10
          inv. 180 deg rotation - cart. axis [0,0,1]             
      2s_v-2s_v   11  -11   12  -12
          inv. 180 deg rotation - cart. axis [0,1,0]             
      2s_d-2s_d   13  -13  -14   14
          inv. 180 deg rotation - cart. axis [1,1,0]             

   Cartesian axes

     site n.     atom                  positions (alat units)
         1           Sn  tau(   1) = (   0.0000000   0.0000000   0.0000000  )
         2           Sn  tau(   2) = (   0.5000000   0.5000000   0.5000000  )
         3           I   tau(   3) = (   0.2985210   0.2985210   0.0000000  )
         4           I   tau(   4) = (   0.7014790   0.7014790   0.0000000  )
         5           I   tau(   5) = (   0.7985210   0.2014790   0.5000000  )
         6           I   tau(   6) = (   0.2014790   0.7985210   0.5000000  )

   Crystallographic axes

     site n.     atom                  positions (cryst. coord.)
         1           Sn  tau(   1) = (  0.0000000  0.0000000  0.0000000  )
         2           Sn  tau(   2) = (  0.5000000  0.5000000  0.5000000  )
         3           I   tau(   3) = (  0.2985210  0.2985210  0.0000000  )
         4           I   tau(   4) = (  0.7014790  0.7014790  0.0000000  )
         5           I   tau(   5) = (  0.7985210  0.2014790  0.5000000  )
         6           I   tau(   6) = (  0.2014790  0.7985210  0.5000000  )

     number of k points=    75
                       cart. coord. in units 2pi/alat
        k(    1) = (   0.0555556   0.0555556   0.0555556), wk =   0.0109739
        k(    2) = (   0.0555556   0.0555556   0.1666667), wk =   0.0109739
        k(    3) = (   0.0555556   0.0555556   0.2777778), wk =   0.0109739
        k(    4) = (   0.0555556   0.0555556   0.3888889), wk =   0.0109739
        k(    5) = (   0.0555556   0.0555556  -0.5000000), wk =   0.0054870
        k(    6) = (   0.0555556   0.1666667   0.1666667), wk =   0.0219479
        k(    7) = (   0.0555556   0.1666667   0.2777778), wk =   0.0219479
        k(    8) = (   0.0555556   0.1666667   0.3888889), wk =   0.0219479
        k(    9) = (   0.0555556   0.1666667  -0.5000000), wk =   0.0109739
        k(   10) = (   0.0555556   0.2777778   0.2777778), wk =   0.0219479
        k(   11) = (   0.0555556   0.2777778   0.3888889), wk =   0.0219479
        k(   12) = (   0.0555556   0.2777778  -0.5000000), wk =   0.0109739
        k(   13) = (   0.0555556   0.3888889   0.3888889), wk =   0.0219479
        k(   14) = (   0.0555556   0.3888889  -0.5000000), wk =   0.0109739
        k(   15) = (   0.0555556  -0.5000000  -0.5000000), wk =   0.0054870
        k(   16) = (   0.1666667   0.1666667   0.1666667), wk =   0.0109739
        k(   17) = (   0.1666667   0.1666667   0.2777778), wk =   0.0109739
        k(   18) = (   0.1666667   0.1666667   0.3888889), wk =   0.0109739
        k(   19) = (   0.1666667   0.1666667  -0.5000000), wk =   0.0054870
        k(   20) = (   0.1666667   0.2777778   0.2777778), wk =   0.0219479
        k(   21) = (   0.1666667   0.2777778   0.3888889), wk =   0.0219479
        k(   22) = (   0.1666667   0.2777778  -0.5000000), wk =   0.0109739
        k(   23) = (   0.1666667   0.3888889   0.3888889), wk =   0.0219479
        k(   24) = (   0.1666667   0.3888889  -0.5000000), wk =   0.0109739
        k(   25) = (   0.1666667  -0.5000000  -0.5000000), wk =   0.0054870
        k(   26) = (   0.2777778   0.2777778   0.2777778), wk =   0.0109739
        k(   27) = (   0.2777778   0.2777778   0.3888889), wk =   0.0109739
        k(   28) = (   0.2777778   0.2777778  -0.5000000), wk =   0.0054870
        k(   29) = (   0.2777778   0.3888889   0.3888889), wk =   0.0219479
        k(   30) = (   0.2777778   0.3888889  -0.5000000), wk =   0.0109739
        k(   31) = (   0.2777778  -0.5000000  -0.5000000), wk =   0.0054870
        k(   32) = (   0.3888889   0.3888889   0.3888889), wk =   0.0109739
        k(   33) = (   0.3888889   0.3888889  -0.5000000), wk =   0.0054870
        k(   34) = (   0.3888889  -0.5000000  -0.5000000), wk =   0.0054870
        k(   35) = (  -0.5000000  -0.5000000  -0.5000000), wk =   0.0013717
        k(   36) = (   0.0555556   0.1666667   0.0555556), wk =   0.0219479
        k(   37) = (   0.0555556   0.2777778   0.0555556), wk =   0.0219479
        k(   38) = (   0.0555556   0.3888889   0.0555556), wk =   0.0219479
        k(   39) = (   0.0555556  -0.5000000   0.0555556), wk =   0.0109739
        k(   40) = (   0.1666667   0.1666667   0.0555556), wk =   0.0109739
        k(   41) = (   0.1666667   0.2777778   0.0555556), wk =   0.0219479
        k(   42) = (   0.2777778   0.0555556   0.1666667), wk =   0.0219479
        k(   43) = (   0.1666667   0.3888889   0.0555556), wk =   0.0219479
        k(   44) = (   0.3888889   0.0555556   0.1666667), wk =   0.0219479
        k(   45) = (   0.1666667  -0.5000000   0.0555556), wk =   0.0109739
        k(   46) = (  -0.5000000   0.0555556   0.1666667), wk =   0.0109739
        k(   47) = (   0.2777778   0.2777778   0.0555556), wk =   0.0109739
        k(   48) = (   0.2777778   0.3888889   0.0555556), wk =   0.0219479
        k(   49) = (   0.3888889   0.0555556   0.2777778), wk =   0.0219479
        k(   50) = (   0.2777778  -0.5000000   0.0555556), wk =   0.0109739
        k(   51) = (  -0.5000000   0.0555556   0.2777778), wk =   0.0109739
        k(   52) = (   0.3888889   0.3888889   0.0555556), wk =   0.0109739
        k(   53) = (   0.3888889  -0.5000000   0.0555556), wk =   0.0109739
        k(   54) = (  -0.5000000   0.0555556   0.3888889), wk =   0.0109739
        k(   55) = (  -0.5000000  -0.5000000   0.0555556), wk =   0.0027435
        k(   56) = (   0.1666667   0.2777778   0.1666667), wk =   0.0219479
        k(   57) = (   0.1666667   0.3888889   0.1666667), wk =   0.0219479
        k(   58) = (   0.1666667  -0.5000000   0.1666667), wk =   0.0109739
        k(   59) = (   0.2777778   0.2777778   0.1666667), wk =   0.0109739
        k(   60) = (   0.2777778   0.3888889   0.1666667), wk =   0.0219479
        k(   61) = (   0.3888889   0.1666667   0.2777778), wk =   0.0219479
        k(   62) = (   0.2777778  -0.5000000   0.1666667), wk =   0.0109739
        k(   63) = (  -0.5000000   0.1666667   0.2777778), wk =   0.0109739
        k(   64) = (   0.3888889   0.3888889   0.1666667), wk =   0.0109739
        k(   65) = (   0.3888889  -0.5000000   0.1666667), wk =   0.0109739
        k(   66) = (  -0.5000000   0.1666667   0.3888889), wk =   0.0109739
        k(   67) = (  -0.5000000  -0.5000000   0.1666667), wk =   0.0027435
        k(   68) = (   0.2777778   0.3888889   0.2777778), wk =   0.0219479
        k(   69) = (   0.2777778  -0.5000000   0.2777778), wk =   0.0109739
        k(   70) = (   0.3888889   0.3888889   0.2777778), wk =   0.0109739
        k(   71) = (   0.3888889  -0.5000000   0.2777778), wk =   0.0109739
        k(   72) = (  -0.5000000   0.2777778   0.3888889), wk =   0.0109739
        k(   73) = (  -0.5000000  -0.5000000   0.2777778), wk =   0.0027435
        k(   74) = (   0.3888889  -0.5000000   0.3888889), wk =   0.0109739
        k(   75) = (  -0.5000000  -0.5000000   0.3888889), wk =   0.0027435

                       cryst. coord.
        k(    1) = (   0.0555556   0.0555556   0.0555556), wk =   0.0109739
        k(    2) = (   0.0555556   0.0555556   0.1666667), wk =   0.0109739
        k(    3) = (   0.0555556   0.0555556   0.2777778), wk =   0.0109739
        k(    4) = (   0.0555556   0.0555556   0.3888889), wk =   0.0109739
        k(    5) = (   0.0555556   0.0555556  -0.5000000), wk =   0.0054870
        k(    6) = (   0.0555556   0.1666667   0.1666667), wk =   0.0219479
        k(    7) = (   0.0555556   0.1666667   0.2777778), wk =   0.0219479
        k(    8) = (   0.0555556   0.1666667   0.3888889), wk =   0.0219479
        k(    9) = (   0.0555556   0.1666667  -0.5000000), wk =   0.0109739
        k(   10) = (   0.0555556   0.2777778   0.2777778), wk =   0.0219479
        k(   11) = (   0.0555556   0.2777778   0.3888889), wk =   0.0219479
        k(   12) = (   0.0555556   0.2777778  -0.5000000), wk =   0.0109739
        k(   13) = (   0.0555556   0.3888889   0.3888889), wk =   0.0219479
        k(   14) = (   0.0555556   0.3888889  -0.5000000), wk =   0.0109739
        k(   15) = (   0.0555556  -0.5000000  -0.5000000), wk =   0.0054870
        k(   16) = (   0.1666667   0.1666667   0.1666667), wk =   0.0109739
        k(   17) = (   0.1666667   0.1666667   0.2777778), wk =   0.0109739
        k(   18) = (   0.1666667   0.1666667   0.3888889), wk =   0.0109739
        k(   19) = (   0.1666667   0.1666667  -0.5000000), wk =   0.0054870
        k(   20) = (   0.1666667   0.2777778   0.2777778), wk =   0.0219479
        k(   21) = (   0.1666667   0.2777778   0.3888889), wk =   0.0219479
        k(   22) = (   0.1666667   0.2777778  -0.5000000), wk =   0.0109739
        k(   23) = (   0.1666667   0.3888889   0.3888889), wk =   0.0219479
        k(   24) = (   0.1666667   0.3888889  -0.5000000), wk =   0.0109739
        k(   25) = (   0.1666667  -0.5000000  -0.5000000), wk =   0.0054870
        k(   26) = (   0.2777778   0.2777778   0.2777778), wk =   0.0109739
        k(   27) = (   0.2777778   0.2777778   0.3888889), wk =   0.0109739
        k(   28) = (   0.2777778   0.2777778  -0.5000000), wk =   0.0054870
        k(   29) = (   0.2777778   0.3888889   0.3888889), wk =   0.0219479
        k(   30) = (   0.2777778   0.3888889  -0.5000000), wk =   0.0109739
        k(   31) = (   0.2777778  -0.5000000  -0.5000000), wk =   0.0054870
        k(   32) = (   0.3888889   0.3888889   0.3888889), wk =   0.0109739
        k(   33) = (   0.3888889   0.3888889  -0.5000000), wk =   0.0054870
        k(   34) = (   0.3888889  -0.5000000  -0.5000000), wk =   0.0054870
        k(   35) = (  -0.5000000  -0.5000000  -0.5000000), wk =   0.0013717
        k(   36) = (   0.0555556   0.1666667   0.0555556), wk =   0.0219479
        k(   37) = (   0.0555556   0.2777778   0.0555556), wk =   0.0219479
        k(   38) = (   0.0555556   0.3888889   0.0555556), wk =   0.0219479
        k(   39) = (   0.0555556  -0.5000000   0.0555556), wk =   0.0109739
        k(   40) = (   0.1666667   0.1666667   0.0555556), wk =   0.0109739
        k(   41) = (   0.1666667   0.2777778   0.0555556), wk =   0.0219479
        k(   42) = (   0.2777778   0.0555556   0.1666667), wk =   0.0219479
        k(   43) = (   0.1666667   0.3888889   0.0555556), wk =   0.0219479
        k(   44) = (   0.3888889   0.0555556   0.1666667), wk =   0.0219479
        k(   45) = (   0.1666667  -0.5000000   0.0555556), wk =   0.0109739
        k(   46) = (  -0.5000000   0.0555556   0.1666667), wk =   0.0109739
        k(   47) = (   0.2777778   0.2777778   0.0555556), wk =   0.0109739
        k(   48) = (   0.2777778   0.3888889   0.0555556), wk =   0.0219479
        k(   49) = (   0.3888889   0.0555556   0.2777778), wk =   0.0219479
        k(   50) = (   0.2777778  -0.5000000   0.0555556), wk =   0.0109739
        k(   51) = (  -0.5000000   0.0555556   0.2777778), wk =   0.0109739
        k(   52) = (   0.3888889   0.3888889   0.0555556), wk =   0.0109739
        k(   53) = (   0.3888889  -0.5000000   0.0555556), wk =   0.0109739
        k(   54) = (  -0.5000000   0.0555556   0.3888889), wk =   0.0109739
        k(   55) = (  -0.5000000  -0.5000000   0.0555556), wk =   0.0027435
        k(   56) = (   0.1666667   0.2777778   0.1666667), wk =   0.0219479
        k(   57) = (   0.1666667   0.3888889   0.1666667), wk =   0.0219479
        k(   58) = (   0.1666667  -0.5000000   0.1666667), wk =   0.0109739
        k(   59) = (   0.2777778   0.2777778   0.1666667), wk =   0.0109739
        k(   60) = (   0.2777778   0.3888889   0.1666667), wk =   0.0219479
        k(   61) = (   0.3888889   0.1666667   0.2777778), wk =   0.0219479
        k(   62) = (   0.2777778  -0.5000000   0.1666667), wk =   0.0109739
        k(   63) = (  -0.5000000   0.1666667   0.2777778), wk =   0.0109739
        k(   64) = (   0.3888889   0.3888889   0.1666667), wk =   0.0109739
        k(   65) = (   0.3888889  -0.5000000   0.1666667), wk =   0.0109739
        k(   66) = (  -0.5000000   0.1666667   0.3888889), wk =   0.0109739
        k(   67) = (  -0.5000000  -0.5000000   0.1666667), wk =   0.0027435
        k(   68) = (   0.2777778   0.3888889   0.2777778), wk =   0.0219479
        k(   69) = (   0.2777778  -0.5000000   0.2777778), wk =   0.0109739
        k(   70) = (   0.3888889   0.3888889   0.2777778), wk =   0.0109739
        k(   71) = (   0.3888889  -0.5000000   0.2777778), wk =   0.0109739
        k(   72) = (  -0.5000000   0.2777778   0.3888889), wk =   0.0109739
        k(   73) = (  -0.5000000  -0.5000000   0.2777778), wk =   0.0027435
        k(   74) = (   0.3888889  -0.5000000   0.3888889), wk =   0.0109739
        k(   75) = (  -0.5000000  -0.5000000   0.3888889), wk =   0.0027435

     Dense  grid:   635371 G-vectors     FFT dimensions: ( 108, 108, 108)

     Smooth grid:   346083 G-vectors     FFT dimensions: (  90,  90,  90)

     Dynamical RAM for                 wfc:       3.08 MB

     Dynamical RAM for     wfc (w. buffer):     233.92 MB

     Dynamical RAM for           str. fact:       0.81 MB

     Dynamical RAM for           local pot:       0.00 MB

     Dynamical RAM for          nlocal pot:       5.61 MB

     Dynamical RAM for                qrad:      22.39 MB

     Dynamical RAM for          rho,v,vnew:      10.19 MB

     Dynamical RAM for               rhoin:       3.40 MB

     Dynamical RAM for            rho*nmix:      25.85 MB

     Dynamical RAM for           G-vectors:       1.62 MB

     Dynamical RAM for          h,s,v(r/c):       0.25 MB

     Dynamical RAM for          <psi|beta>:       0.35 MB

     Dynamical RAM for                 psi:      12.31 MB

     Dynamical RAM for                hpsi:      12.31 MB

     Dynamical RAM for                spsi:      12.31 MB

     Dynamical RAM for      wfcinit/wfcrot:       5.71 MB

     Dynamical RAM for           addusdens:     248.04 MB

     Dynamical RAM for          addusforce:     253.17 MB

     Dynamical RAM for         addusstress:     253.70 MB

     Estimated static dynamical RAM per process >     308.56 MB

     Estimated max dynamical RAM per process >     562.26 MB

     Estimated total dynamical RAM >      13.18 GB

     Initial potential from superposition of free atoms

     starting charge   55.99771, renormalised to   56.00000
     Starting wfcs are   68 randomized atomic wfcs
     Checking if some PAW data can be deallocated... 
       PAW data deallocated on   16 nodes for type:  1
       PAW data deallocated on    8 nodes for type:  2

     total cpu time spent up to now is      101.2 secs

     Self-consistent Calculation

     iteration #  1     ecut=    90.00 Ry     beta= 0.35
     Davidson diagonalization with overlap
     ethr =  1.00E-02,  avg # of iterations =  1.0

     total cpu time spent up to now is      331.2 secs

     total energy              =   -2370.83365993 Ry
     Harris-Foulkes estimate   =   -2371.11850027 Ry
     estimated scf accuracy    <       0.58885742 Ry

     iteration #  2     ecut=    90.00 Ry     beta= 0.35
     Davidson diagonalization with overlap
     ethr =  1.05E-03,  avg # of iterations =  3.0

     total cpu time spent up to now is      610.8 secs

     total energy              =   -2370.93719433 Ry
     Harris-Foulkes estimate   =   -2370.94809194 Ry
     estimated scf accuracy    <       0.04040311 Ry

     iteration #  3     ecut=    90.00 Ry     beta= 0.35
     Davidson diagonalization with overlap
     ethr =  7.21E-05,  avg # of iterations =  3.4

     total cpu time spent up to now is      883.9 secs

     total energy              =   -2370.94079639 Ry
     Harris-Foulkes estimate   =   -2370.94310947 Ry
     estimated scf accuracy    <       0.00911627 Ry

     iteration #  4     ecut=    90.00 Ry     beta= 0.35
     Davidson diagonalization with overlap
     ethr =  1.63E-05,  avg # of iterations =  3.1

     total cpu time spent up to now is     1180.0 secs

     total energy              =   -2370.94200536 Ry
     Harris-Foulkes estimate   =   -2370.94195527 Ry
     estimated scf accuracy    <       0.00057465 Ry

     iteration #  5     ecut=    90.00 Ry     beta= 0.35
     Davidson diagonalization with overlap
     ethr =  1.03E-06,  avg # of iterations =  4.9

     total cpu time spent up to now is     1558.4 secs

     total energy              =   -2370.94216925 Ry
     Harris-Foulkes estimate   =   -2370.94221257 Ry
     estimated scf accuracy    <       0.00009673 Ry

     iteration #  6     ecut=    90.00 Ry     beta= 0.35
     Davidson diagonalization with overlap
     ethr =  1.73E-07,  avg # of iterations =  3.3

     total cpu time spent up to now is     1911.0 secs

     total energy              =   -2370.94219470 Ry
     Harris-Foulkes estimate   =   -2370.94218739 Ry
     estimated scf accuracy    <       0.00000941 Ry

     iteration #  7     ecut=    90.00 Ry     beta= 0.35
     Davidson diagonalization with overlap
     ethr =  1.68E-08,  avg # of iterations =  2.9

     total cpu time spent up to now is     2240.7 secs

     End of self-consistent calculation

          k = 0.0556 0.0556 0.0556 ( 43282 PWs)   bands (ev):

   -23.2739 -23.2739 -23.2739 -23.2739 -23.1415 -23.1415 -23.1414 -23.1414
   -22.2542 -22.2542 -22.2542 -22.2542 -22.1389 -22.1389 -22.1389 -22.1389
   -22.0853 -22.0853 -22.0852 -22.0852 -11.6288 -11.6288 -11.5346 -11.5346
   -11.4825 -11.4825 -11.4806 -11.4806  -7.0809  -7.0809  -6.8697  -6.8697
    -2.6654  -2.6654  -2.5037  -2.5037  -2.1354  -2.1354  -2.0461  -2.0461
    -1.9053  -1.9053  -1.5269  -1.5269  -1.2361  -1.2361  -1.1208  -1.1208
    -1.0998  -1.0998  -1.0276  -1.0276  -0.9280  -0.9280  -0.8954  -0.8954

     occupation numbers 
     1.0000   1.0000   1.0000   1.0000   1.0000   1.0000   1.0000   1.0000
     1.0000   1.0000   1.0000   1.0000   1.0000   1.0000   1.0000   1.0000
     1.0000   1.0000   1.0000   1.0000   1.0000   1.0000   1.0000   1.0000
     1.0000   1.0000   1.0000   1.0000   1.0000   1.0000   1.0000   1.0000
     1.0000   1.0000   1.0000   1.0000   1.0000   1.0000   1.0000   1.0000
     1.0000   1.0000   1.0000   1.0000   1.0000   1.0000   1.0000   1.0000
     1.0000   1.0000   1.0000   1.0000   1.0000   1.0000   1.0000   1.0000

          k = 0.0556 0.0556 0.1667 ( 43233 PWs)   bands (ev):

   -23.2739 -23.2739 -23.2738 -23.2738 -23.1415 -23.1415 -23.1414 -23.1414
   -22.2542 -22.2542 -22.2542 -22.2542 -22.1389 -22.1389 -22.1389 -22.1389
   -22.0852 -22.0852 -22.0852 -22.0852 -11.6230 -11.6230 -11.5401 -11.5401
   -11.4825 -11.4825 -11.4805 -11.4805  -7.0715  -7.0715  -6.8861  -6.8861
    -2.6518  -2.6518  -2.5061  -2.5061  -2.1305  -2.1305  -2.0423  -2.0423
    -1.8890  -1.8890  -1.5341  -1.5341  -1.2389  -1.2389  -1.1418  -1.1418
    -1.1175  -1.1175  -1.0427  -1.0427  -0.9301  -0.9301  -0.9064  -0.9064

     occupation numbers 
     1.0000   1.0000   1.0000   1.0000   1.0000   1.0000   1.0000   1.0000
     1.0000   1.0000   1.0000   1.0000   1.0000   1.0000   1.0000   1.0000
     1.0000   1.0000   1.0000   1.0000   1.0000   1.0000   1.0000   1.0000
     1.0000   1.0000   1.0000   1.0000   1.0000   1.0000   1.0000   1.0000
     1.0000   1.0000   1.0000   1.0000   1.0000   1.0000   1.0000   1.0000
     1.0000   1.0000   1.0000   1.0000   1.0000   1.0000   1.0000   1.0000
     1.0000   1.0000   1.0000   1.0000   1.0000   1.0000   1.0000   1.0000

          k = 0.0556 0.0556 0.2778 ( 43209 PWs)   bands (ev):

   -23.2739 -23.2739 -23.2738 -23.2738 -23.1415 -23.1415 -23.1414 -23.1414
   -22.2542 -22.2542 -22.2542 -22.2542 -22.1389 -22.1389 -22.1389 -22.1389
   -22.0852 -22.0852 -22.0852 -22.0852 -11.6122 -11.6122 -11.5506 -11.5506
   -11.4824 -11.4824 -11.4803 -11.4803  -7.0528  -7.0528  -6.9154  -6.9154
    -2.6298  -2.6298  -2.5108  -2.5108  -2.1271  -2.1271  -2.0370  -2.0370
    -1.8505  -1.8505  -1.5597  -1.5597  -1.2372  -1.2372  -1.1713  -1.1713
    -1.1356  -1.1356  -1.0651  -1.0651  -0.9487  -0.9487  -0.9180  -0.9180

     occupation numbers 
     1.0000   1.0000   1.0000   1.0000   1.0000   1.0000   1.0000   1.0000
     1.0000   1.0000   1.0000   1.0000   1.0000   1.0000   1.0000   1.0000
     1.0000   1.0000   1.0000   1.0000   1.0000   1.0000   1.0000   1.0000
     1.0000   1.0000   1.0000   1.0000   1.0000   1.0000   1.0000   1.0000
     1.0000   1.0000   1.0000   1.0000   1.0000   1.0000   1.0000   1.0000
     1.0000   1.0000   1.0000   1.0000   1.0000   1.0000   1.0000   1.0000
     1.0000   1.0000   1.0000   1.0000   1.0000   1.0000   1.0000   1.0000

          k = 0.0556 0.0556 0.3889 ( 43226 PWs)   bands (ev):

   -23.2739 -23.2739 -23.2738 -23.2738 -23.1415 -23.1415 -23.1414 -23.1414
   -22.2542 -22.2542 -22.2542 -22.2542 -22.1389 -22.1389 -22.1389 -22.1389
   -22.0852 -22.0852 -22.0852 -22.0852 -11.5976 -11.5976 -11.5648 -11.5648
   -11.4823 -11.4823 -11.4802 -11.4802  -7.0253  -7.0253  -6.9523  -6.9523
    -2.6084  -2.6084  -2.5169  -2.5169  -2.1271  -2.1271  -2.0343  -2.0343
    -1.7913  -1.7913  -1.6089  -1.6089  -1.2283  -1.2283  -1.1894  -1.1894
    -1.1497  -1.1497  -1.0838  -1.0838  -0.9709  -0.9709  -0.9335  -0.9335

     occupation numbers 
     1.0000   1.0000   1.0000   1.0000   1.0000   1.0000   1.0000   1.0000
     1.0000   1.0000   1.0000   1.0000   1.0000   1.0000   1.0000   1.0000
     1.0000   1.0000   1.0000   1.0000   1.0000   1.0000   1.0000   1.0000
     1.0000   1.0000   1.0000   1.0000   1.0000   1.0000   1.0000   1.0000
     1.0000   1.0000   1.0000   1.0000   1.0000   1.0000   1.0000   1.0000
     1.0000   1.0000   1.0000   1.0000   1.0000   1.0000   1.0000   1.0000
     1.0000   1.0000   1.0000   1.0000   1.0000   1.0000   1.0000   1.0000

          k = 0.0556 0.0556-0.5000 ( 43278 PWs)   bands (ev):

   -23.2739 -23.2739 -23.2739 -23.2739 -23.1415 -23.1415 -23.1415 -23.1415
   -22.2542 -22.2542 -22.2542 -22.2542 -22.1389 -22.1389 -22.1389 -22.1389
   -22.0852 -22.0852 -22.0852 -22.0852 -11.5821 -11.5821 -11.5802 -11.5802
   -11.4822 -11.4822 -11.4802 -11.4802  -6.9921  -6.9921  -6.9892  -6.9892
    -2.5989  -2.5989  -2.5203  -2.5203  -2.1277  -2.1277  -2.0338  -2.0338
    -1.7475  -1.7475  -1.6491  -1.6491  -1.2214  -1.2214  -1.1955  -1.1955
    -1.1553  -1.1553  -1.0907  -1.0907  -0.9803  -0.9803  -0.9421  -0.9421

     occupation numbers 
     1.0000   1.0000   1.0000   1.0000   1.0000   1.0000   1.0000   1.0000
     1.0000   1.0000   1.0000   1.0000   1.0000   1.0000   1.0000   1.0000
     1.0000   1.0000   1.0000   1.0000   1.0000   1.0000   1.0000   1.0000
     1.0000   1.0000   1.0000   1.0000   1.0000   1.0000   1.0000   1.0000
     1.0000   1.0000   1.0000   1.0000   1.0000   1.0000   1.0000   1.0000
     1.0000   1.0000   1.0000   1.0000   1.0000   1.0000   1.0000   1.0000
     1.0000   1.0000   1.0000   1.0000   1.0000   1.0000   1.0000   1.0000

          k = 0.0556 0.1667 0.1667 ( 43193 PWs)   bands (ev):

   -23.2739 -23.2739 -23.2738 -23.2738 -23.1415 -23.1415 -23.1414 -23.1414
   -22.2542 -22.2542 -22.2542 -22.2542 -22.1389 -22.1389 -22.1389 -22.1389
   -22.0852 -22.0852 -22.0852 -22.0852 -11.6154 -11.6154 -11.5382 -11.5382
   -11.4899 -11.4899 -11.4830 -11.4830  -7.0583  -7.0583  -6.8949  -6.8949
    -2.7294  -2.7294  -2.5868  -2.5868  -2.1436  -2.1436  -1.9824  -1.9824
    -1.8462  -1.8462  -1.5485  -1.5485  -1.2267  -1.2267  -1.1593  -1.1593
    -1.0916  -1.0916  -0.9838  -0.9838  -0.9213  -0.9213  -0.8496  -0.8496

     occupation numbers 
     1.0000   1.0000   1.0000   1.0000   1.0000   1.0000   1.0000   1.0000
     1.0000   1.0000   1.0000   1.0000   1.0000   1.0000   1.0000   1.0000
     1.0000   1.0000   1.0000   1.0000   1.0000   1.0000   1.0000   1.0000
     1.0000   1.0000   1.0000   1.0000   1.0000   1.0000   1.0000   1.0000
     1.0000   1.0000   1.0000   1.0000   1.0000   1.0000   1.0000   1.0000
     1.0000   1.0000   1.0000   1.0000   1.0000   1.0000   1.0000   1.0000
     1.0000   1.0000   1.0000   1.0000   1.0000   1.0000   1.0000   1.0000

          k = 0.0556 0.1667 0.2778 ( 43204 PWs)   bands (ev):

   -23.2739 -23.2739 -23.2738 -23.2738 -23.1415 -23.1415 -23.1414 -23.1414
   -22.2542 -22.2542 -22.2542 -22.2542 -22.1389 -22.1389 -22.1389 -22.1389
   -22.0852 -22.0852 -22.0852 -22.0852 -11.6053 -11.6053 -11.5477 -11.5477
   -11.4897 -11.4897 -11.4832 -11.4832  -7.0424  -7.0424  -6.9212  -6.9212
    -2.7293  -2.7293  -2.5886  -2.5886  -2.1150  -2.1150  -1.9612  -1.9612
    -1.8390  -1.8390  -1.5697  -1.5697  -1.2300  -1.2300  -1.1749  -1.1749
    -1.1048  -1.1048  -1.0019  -1.0019  -0.9280  -0.9280  -0.8552  -0.8552

     occupation numbers 
     1.0000   1.0000   1.0000   1.0000   1.0000   1.0000   1.0000   1.0000
     1.0000   1.0000   1.0000   1.0000   1.0000   1.0000   1.0000   1.0000
     1.0000   1.0000   1.0000   1.0000   1.0000   1.0000   1.0000   1.0000
     1.0000   1.0000   1.0000   1.0000   1.0000   1.0000   1.0000   1.0000
     1.0000   1.0000   1.0000   1.0000   1.0000   1.0000   1.0000   1.0000
     1.0000   1.0000   1.0000   1.0000   1.0000   1.0000   1.0000   1.0000
     1.0000   1.0000   1.0000   1.0000   1.0000   1.0000   1.0000   1.0000

          k = 0.0556 0.1667 0.3889 ( 43228 PWs)   bands (ev):

   -23.2739 -23.2739 -23.2738 -23.2738 -23.1415 -23.1415 -23.1414 -23.1414
   -22.2542 -22.2542 -22.2542 -22.2542 -22.1389 -22.1389 -22.1389 -22.1389
   -22.0852 -22.0852 -22.0852 -22.0852 -11.5917 -11.5917 -11.5607 -11.5607
   -11.4895 -11.4895 -11.4835 -11.4835  -7.0187  -7.0187  -6.9540  -6.9540
    -2.7288  -2.7288  -2.5896  -2.5896  -2.0987  -2.0987  -1.9407  -1.9407
    -1.8196  -1.8196  -1.5931  -1.5931  -1.2377  -1.2377  -1.1832  -1.1832
    -1.1112  -1.1112  -1.0213  -1.0213  -0.9383  -0.9383  -0.8599  -0.8599

     occupation numbers 
     1.0000   1.0000   1.0000   1.0000   1.0000   1.0000   1.0000   1.0000
     1.0000   1.0000   1.0000   1.0000   1.0000   1.0000   1.0000   1.0000
     1.0000   1.0000   1.0000   1.0000   1.0000   1.0000   1.0000   1.0000
     1.0000   1.0000   1.0000   1.0000   1.0000   1.0000   1.0000   1.0000
     1.0000   1.0000   1.0000   1.0000   1.0000   1.0000   1.0000   1.0000
     1.0000   1.0000   1.0000   1.0000   1.0000   1.0000   1.0000   1.0000
     1.0000   1.0000   1.0000   1.0000   1.0000   1.0000   1.0000   1.0000

          k = 0.0556 0.1667-0.5000 ( 43218 PWs)   bands (ev):

   -23.2739 -23.2739 -23.2739 -23.2739 -23.1415 -23.1415 -23.1415 -23.1415
   -22.2542 -22.2542 -22.2542 -22.2542 -22.1389 -22.1389 -22.1389 -22.1389
   -22.0852 -22.0852 -22.0852 -22.0852 -11.5787 -11.5787 -11.5735 -11.5735
   -11.4893 -11.4893 -11.4836 -11.4836  -6.9917  -6.9917  -6.9846  -6.9846
    -2.7285  -2.7285  -2.5899  -2.5899  -2.0943  -2.0943  -1.9341  -1.9341
    -1.8055  -1.8055  -1.6046  -1.6046  -1.2420  -1.2420  -1.1850  -1.1850
    -1.1124  -1.1124  -1.0303  -1.0303  -0.9437  -0.9437  -0.8619  -0.8619

     occupation numbers 
     1.0000   1.0000   1.0000   1.0000   1.0000   1.0000   1.0000   1.0000
     1.0000   1.0000   1.0000   1.0000   1.0000   1.0000   1.0000   1.0000
     1.0000   1.0000   1.0000   1.0000   1.0000   1.0000   1.0000   1.0000
     1.0000   1.0000   1.0000   1.0000   1.0000   1.0000   1.0000   1.0000
     1.0000   1.0000   1.0000   1.0000   1.0000   1.0000   1.0000   1.0000
     1.0000   1.0000   1.0000   1.0000   1.0000   1.0000   1.0000   1.0000
     1.0000   1.0000   1.0000   1.0000   1.0000   1.0000   1.0000   1.0000

          k = 0.0556 0.2778 0.2778 ( 43224 PWs)   bands (ev):

   -23.2739 -23.2739 -23.2738 -23.2738 -23.1415 -23.1415 -23.1414 -23.1414
   -22.2542 -22.2542 -22.2542 -22.2542 -22.1389 -22.1389 -22.1389 -22.1389
   -22.0852 -22.0852 -22.0852 -22.0852 -11.5923 -11.5923 -11.5435 -11.5435
   -11.5010 -11.5010 -11.4897 -11.4897  -7.0234  -7.0234  -6.9331  -6.9331
    -2.8272  -2.8272  -2.7101  -2.7101  -2.0802  -2.0802  -1.9333  -1.9333
    -1.8011  -1.8011  -1.5812  -1.5812  -1.2533  -1.2533  -1.1833  -1.1833
    -1.0237  -1.0237  -0.9556  -0.9556  -0.8762  -0.8762  -0.7133  -0.7133

     occupation numbers 
     1.0000   1.0000   1.0000   1.0000   1.0000   1.0000   1.0000   1.0000
     1.0000   1.0000   1.0000   1.0000   1.0000   1.0000   1.0000   1.0000
     1.0000   1.0000   1.0000   1.0000   1.0000   1.0000   1.0000   1.0000
     1.0000   1.0000   1.0000   1.0000   1.0000   1.0000   1.0000   1.0000
     1.0000   1.0000   1.0000   1.0000   1.0000   1.0000   1.0000   1.0000
     1.0000   1.0000   1.0000   1.0000   1.0000   1.0000   1.0000   1.0000
     1.0000   1.0000   1.0000   1.0000   1.0000   1.0000   1.0000   1.0000

          k = 0.0556 0.2778 0.3889 ( 43263 PWs)   bands (ev):

   -23.2739 -23.2739 -23.2739 -23.2739 -23.1415 -23.1415 -23.1415 -23.1415
   -22.2542 -22.2542 -22.2542 -22.2542 -22.1389 -22.1389 -22.1389 -22.1389
   -22.0852 -22.0852 -22.0852 -22.0852 -11.5807 -11.5807 -11.5537 -11.5537
   -11.5004 -11.5004 -11.4911 -11.4911  -7.0069  -7.0069  -6.9583  -6.9583
    -2.8356  -2.8356  -2.7171  -2.7171  -2.0508  -2.0508  -1.8945  -1.8945
    -1.8228  -1.8228  -1.5845  -1.5845  -1.2545  -1.2545  -1.1779  -1.1779
    -1.0299  -1.0299  -0.9724  -0.9724  -0.8652  -0.8652  -0.7134  -0.7134

     occupation numbers 
     1.0000   1.0000   1.0000   1.0000   1.0000   1.0000   1.0000   1.0000
     1.0000   1.0000   1.0000   1.0000   1.0000   1.0000   1.0000   1.0000
     1.0000   1.0000   1.0000   1.0000   1.0000   1.0000   1.0000   1.0000
     1.0000   1.0000   1.0000   1.0000   1.0000   1.0000   1.0000   1.0000
     1.0000   1.0000   1.0000   1.0000   1.0000   1.0000   1.0000   1.0000
     1.0000   1.0000   1.0000   1.0000   1.0000   1.0000   1.0000   1.0000
     1.0000   1.0000   1.0000   1.0000   1.0000   1.0000   1.0000   1.0000

          k = 0.0556 0.2778-0.5000 ( 43236 PWs)   bands (ev):

   -23.2739 -23.2739 -23.2739 -23.2739 -23.1415 -23.1415 -23.1415 -23.1415
   -22.2542 -22.2542 -22.2542 -22.2542 -22.1389 -22.1389 -22.1389 -22.1389
   -22.0852 -22.0852 -22.0852 -22.0852 -11.5707 -11.5707 -11.5631 -11.5631
   -11.5000 -11.5000 -11.4918 -11.4918  -6.9888  -6.9888  -6.9800  -6.9800
    -2.8386  -2.8386  -2.7196  -2.7196  -2.0429  -2.0429  -1.8661  -1.8661
    -1.8423  -1.8423  -1.5839  -1.5839  -1.2525  -1.2525  -1.1748  -1.1748
    -1.0402  -1.0402  -0.9763  -0.9763  -0.8596  -0.8596  -0.7134  -0.7134

     occupation numbers 
     1.0000   1.0000   1.0000   1.0000   1.0000   1.0000   1.0000   1.0000
     1.0000   1.0000   1.0000   1.0000   1.0000   1.0000   1.0000   1.0000
     1.0000   1.0000   1.0000   1.0000   1.0000   1.0000   1.0000   1.0000
     1.0000   1.0000   1.0000   1.0000   1.0000   1.0000   1.0000   1.0000
     1.0000   1.0000   1.0000   1.0000   1.0000   1.0000   1.0000   1.0000
     1.0000   1.0000   1.0000   1.0000   1.0000   1.0000   1.0000   1.0000
     1.0000   1.0000   1.0000   1.0000   1.0000   1.0000   1.0000   1.0000

          k = 0.0556 0.3889 0.3889 ( 43249 PWs)   bands (ev):

   -23.2739 -23.2739 -23.2739 -23.2739 -23.1415 -23.1415 -23.1415 -23.1415
   -22.2542 -22.2542 -22.2542 -22.2542 -22.1389 -22.1389 -22.1389 -22.1389
   -22.0852 -22.0852 -22.0852 -22.0852 -11.5664 -11.5664 -11.5479 -11.5479
   -11.5107 -11.5107 -11.5014 -11.5014  -6.9926  -6.9926  -6.9660  -6.9660
    -2.8952  -2.8952  -2.8251  -2.8251  -2.0225  -2.0225  -1.9091  -1.9091
    -1.7897  -1.7897  -1.5875  -1.5875  -1.2477  -1.2477  -1.1942  -1.1942
    -0.9824  -0.9824  -0.9430  -0.9430  -0.7234  -0.7234  -0.5945  -0.5945

     occupation numbers 
     1.0000   1.0000   1.0000   1.0000   1.0000   1.0000   1.0000   1.0000
     1.0000   1.0000   1.0000   1.0000   1.0000   1.0000   1.0000   1.0000
     1.0000   1.0000   1.0000   1.0000   1.0000   1.0000   1.0000   1.0000
     1.0000   1.0000   1.0000   1.0000   1.0000   1.0000   1.0000   1.0000
     1.0000   1.0000   1.0000   1.0000   1.0000   1.0000   1.0000   1.0000
     1.0000   1.0000   1.0000   1.0000   1.0000   1.0000   1.0000   1.0000
     1.0000   1.0000   1.0000   1.0000   1.0000   1.0000   1.0000   1.0000

          k = 0.0556 0.3889-0.5000 ( 43256 PWs)   bands (ev):

   -23.2739 -23.2739 -23.2739 -23.2739 -23.1415 -23.1415 -23.1415 -23.1415
   -22.2542 -22.2542 -22.2542 -22.2542 -22.1389 -22.1389 -22.1389 -22.1389
   -22.0852 -22.0852 -22.0852 -22.0852 -11.5599 -11.5599 -11.5526 -11.5526
   -11.5106 -11.5106 -11.5030 -11.5030  -6.9850  -6.9850  -6.9771  -6.9771
    -2.8997  -2.8997  -2.8290  -2.8290  -2.0158  -2.0158  -1.8951  -1.8951
    -1.7968  -1.7968  -1.5867  -1.5867  -1.2425  -1.2425  -1.1860  -1.1860
    -0.9778  -0.9778  -0.9460  -0.9460  -0.7190  -0.7190  -0.5905  -0.5905

     occupation numbers 
     1.0000   1.0000   1.0000   1.0000   1.0000   1.0000   1.0000   1.0000
     1.0000   1.0000   1.0000   1.0000   1.0000   1.0000   1.0000   1.0000
     1.0000   1.0000   1.0000   1.0000   1.0000   1.0000   1.0000   1.0000
     1.0000   1.0000   1.0000   1.0000   1.0000   1.0000   1.0000   1.0000
     1.0000   1.0000   1.0000   1.0000   1.0000   1.0000   1.0000   1.0000
     1.0000   1.0000   1.0000   1.0000   1.0000   1.0000   1.0000   1.0000
     1.0000   1.0000   1.0000   1.0000   1.0000   1.0000   1.0000   1.0000

          k = 0.0556-0.5000-0.5000 ( 43232 PWs)   bands (ev):

   -23.2739 -23.2739 -23.2738 -23.2738 -23.1415 -23.1415 -23.1414 -23.1414
   -22.2542 -22.2542 -22.2542 -22.2542 -22.1389 -22.1389 -22.1389 -22.1389
   -22.0852 -22.0852 -22.0852 -22.0852 -11.5509 -11.5509 -11.5506 -11.5506
   -11.5124 -11.5124 -11.5124 -11.5124  -6.9831  -6.9831  -6.9763  -6.9763
    -2.9103  -2.9103  -2.8787  -2.8787  -2.0081  -2.0081  -1.9070  -1.9070
    -1.7798  -1.7798  -1.5914  -1.5914  -1.2327  -1.2327  -1.1952  -1.1952
    -0.9555  -0.9555  -0.9393  -0.9393  -0.6045  -0.6045  -0.5832  -0.5832

     occupation numbers 
     1.0000   1.0000   1.0000   1.0000   1.0000   1.0000   1.0000   1.0000
     1.0000   1.0000   1.0000   1.0000   1.0000   1.0000   1.0000   1.0000
     1.0000   1.0000   1.0000   1.0000   1.0000   1.0000   1.0000   1.0000
     1.0000   1.0000   1.0000   1.0000   1.0000   1.0000   1.0000   1.0000
     1.0000   1.0000   1.0000   1.0000   1.0000   1.0000   1.0000   1.0000
     1.0000   1.0000   1.0000   1.0000   1.0000   1.0000   1.0000   1.0000
     1.0000   1.0000   1.0000   1.0000   1.0000   1.0000   1.0000   1.0000

          k = 0.1667 0.1667 0.1667 ( 43204 PWs)   bands (ev):

   -23.2739 -23.2739 -23.2738 -23.2738 -23.1415 -23.1415 -23.1414 -23.1414
   -22.2542 -22.2542 -22.2542 -22.2542 -22.1389 -22.1389 -22.1389 -22.1389
   -22.0852 -22.0852 -22.0852 -22.0852 -11.6091 -11.6091 -11.5369 -11.5369
   -11.4977 -11.4977 -11.4830 -11.4830  -7.0483  -7.0483  -6.9040  -6.9040
    -2.8148  -2.8148  -2.5475  -2.5475  -2.1198  -2.1198  -1.9848  -1.9848
    -1.8556  -1.8556  -1.5634  -1.5634  -1.2376  -1.2375  -1.1858  -1.1858
    -1.1326  -1.1326  -0.9634  -0.9634  -0.9074  -0.9074  -0.7198  -0.7198

     occupation numbers 
     1.0000   1.0000   1.0000   1.0000   1.0000   1.0000   1.0000   1.0000
     1.0000   1.0000   1.0000   1.0000   1.0000   1.0000   1.0000   1.0000
     1.0000   1.0000   1.0000   1.0000   1.0000   1.0000   1.0000   1.0000
     1.0000   1.0000   1.0000   1.0000   1.0000   1.0000   1.0000   1.0000
     1.0000   1.0000   1.0000   1.0000   1.0000   1.0000   1.0000   1.0000
     1.0000   1.0000   1.0000   1.0000   1.0000   1.0000   1.0000   1.0000
     1.0000   1.0000   1.0000   1.0000   1.0000   1.0000   1.0000   1.0000

          k = 0.1667 0.1667 0.2778 ( 43248 PWs)   bands (ev):

   -23.2739 -23.2739 -23.2739 -23.2739 -23.1415 -23.1415 -23.1414 -23.1414
   -22.2542 -22.2542 -22.2542 -22.2542 -22.1389 -22.1389 -22.1389 -22.1389
   -22.0852 -22.0852 -22.0852 -22.0852 -11.5998 -11.5998 -11.5450 -11.5450
   -11.4983 -11.4983 -11.4829 -11.4829  -7.0351  -7.0351  -6.9276  -6.9276
    -2.8261  -2.8261  -2.5346  -2.5346  -2.1187  -2.1187  -1.9413  -1.9413
    -1.8550  -1.8550  -1.5800  -1.5800  -1.2490  -1.2490  -1.1921  -1.1921
    -1.1365  -1.1365  -0.9721  -0.9721  -0.9074  -0.9074  -0.7193  -0.7193

     occupation numbers 
     1.0000   1.0000   1.0000   1.0000   1.0000   1.0000   1.0000   1.0000
     1.0000   1.0000   1.0000   1.0000   1.0000   1.0000   1.0000   1.0000
     1.0000   1.0000   1.0000   1.0000   1.0000   1.0000   1.0000   1.0000
     1.0000   1.0000   1.0000   1.0000   1.0000   1.0000   1.0000   1.0000
     1.0000   1.0000   1.0000   1.0000   1.0000   1.0000   1.0000   1.0000
     1.0000   1.0000   1.0000   1.0000   1.0000   1.0000   1.0000   1.0000
     1.0000   1.0000   1.0000   1.0000   1.0000   1.0000   1.0000   1.0000

          k = 0.1667 0.1667 0.3889 ( 43241 PWs)   bands (ev):

   -23.2739 -23.2739 -23.2739 -23.2739 -23.1415 -23.1415 -23.1414 -23.1414
   -22.2542 -22.2542 -22.2542 -22.2542 -22.1389 -22.1389 -22.1389 -22.1389
   -22.0852 -22.0852 -22.0852 -22.0852 -11.5879 -11.5879 -11.5560 -11.5560
   -11.4987 -11.4987 -11.4827 -11.4827  -7.0152  -7.0152  -6.9565  -6.9565
    -2.8346  -2.8346  -2.5239  -2.5239  -2.1234  -2.1234  -1.9058  -1.9058
    -1.8463  -1.8463  -1.5892  -1.5892  -1.2682  -1.2682  -1.1951  -1.1951
    -1.1301  -1.1301  -0.9858  -0.9858  -0.9111  -0.9111  -0.7188  -0.7188

     occupation numbers 
     1.0000   1.0000   1.0000   1.0000   1.0000   1.0000   1.0000   1.0000
     1.0000   1.0000   1.0000   1.0000   1.0000   1.0000   1.0000   1.0000
     1.0000   1.0000   1.0000   1.0000   1.0000   1.0000   1.0000   1.0000
     1.0000   1.0000   1.0000   1.0000   1.0000   1.0000   1.0000   1.0000
     1.0000   1.0000   1.0000   1.0000   1.0000   1.0000   1.0000   1.0000
     1.0000   1.0000   1.0000   1.0000   1.0000   1.0000   1.0000   1.0000
     1.0000   1.0000   1.0000   1.0000   1.0000   1.0000   1.0000   1.0000

          k = 0.1667 0.1667-0.5000 ( 43246 PWs)   bands (ev):

   -23.2739 -23.2739 -23.2739 -23.2739 -23.1415 -23.1415 -23.1415 -23.1415
   -22.2542 -22.2542 -22.2542 -22.2542 -22.1389 -22.1389 -22.1389 -22.1389
   -22.0852 -22.0852 -22.0852 -22.0852 -11.5792 -11.5792 -11.5644 -11.5644
   -11.4988 -11.4988 -11.4827 -11.4827  -6.9957  -6.9957  -6.9796  -6.9796
    -2.8376  -2.8376  -2.5198  -2.5198  -2.1260  -2.1260  -1.8976  -1.8976
    -1.8364  -1.8364  -1.5910  -1.5910  -1.2770  -1.2770  -1.1958  -1.1958
    -1.1261  -1.1261  -0.9932  -0.9932  -0.9138  -0.9138  -0.7185  -0.7185

     occupation numbers 
     1.0000   1.0000   1.0000   1.0000   1.0000   1.0000   1.0000   1.0000
     1.0000   1.0000   1.0000   1.0000   1.0000   1.0000   1.0000   1.0000
     1.0000   1.0000   1.0000   1.0000   1.0000   1.0000   1.0000   1.0000
     1.0000   1.0000   1.0000   1.0000   1.0000   1.0000   1.0000   1.0000
     1.0000   1.0000   1.0000   1.0000   1.0000   1.0000   1.0000   1.0000
     1.0000   1.0000   1.0000   1.0000   1.0000   1.0000   1.0000   1.0000
     1.0000   1.0000   1.0000   1.0000   1.0000   1.0000   1.0000   1.0000

          k = 0.1667 0.2778 0.2778 ( 43224 PWs)   bands (ev):

   -23.2739 -23.2739 -23.2738 -23.2738 -23.1415 -23.1415 -23.1414 -23.1414
   -22.2542 -22.2542 -22.2542 -22.2542 -22.1389 -22.1389 -22.1389 -22.1389
   -22.0852 -22.0852 -22.0852 -22.0852 -11.5896 -11.5896 -11.5425 -11.5425
   -11.5074 -11.5074 -11.4867 -11.4867  -7.0211  -7.0211  -6.9402  -6.9402
    -2.8806  -2.8806  -2.5931  -2.5931  -2.0914  -2.0914  -1.9311  -1.9311
    -1.8375  -1.8375  -1.5937  -1.5937  -1.2791  -1.2791  -1.2086  -1.2086
    -1.0891  -1.0891  -0.9493  -0.9493  -0.8864  -0.8864  -0.6039  -0.6039

     occupation numbers 
     1.0000   1.0000   1.0000   1.0000   1.0000   1.0000   1.0000   1.0000
     1.0000   1.0000   1.0000   1.0000   1.0000   1.0000   1.0000   1.0000
     1.0000   1.0000   1.0000   1.0000   1.0000   1.0000   1.0000   1.0000
     1.0000   1.0000   1.0000   1.0000   1.0000   1.0000   1.0000   1.0000
     1.0000   1.0000   1.0000   1.0000   1.0000   1.0000   1.0000   1.0000
     1.0000   1.0000   1.0000   1.0000   1.0000   1.0000   1.0000   1.0000
     1.0000   1.0000   1.0000   1.0000   1.0000   1.0000   1.0000   1.0000

          k = 0.1667 0.2778 0.3889 ( 43230 PWs)   bands (ev):

   -23.2739 -23.2739 -23.2738 -23.2738 -23.1415 -23.1415 -23.1414 -23.1414
   -22.2542 -22.2542 -22.2542 -22.2542 -22.1389 -22.1389 -22.1389 -22.1389
   -22.0852 -22.0852 -22.0852 -22.0852 -11.5804 -11.5804 -11.5495 -11.5495
   -11.5087 -11.5087 -11.4869 -11.4869  -7.0080  -7.0080  -6.9623  -6.9623
    -2.8922  -2.8922  -2.5902  -2.5902  -2.0883  -2.0883  -1.8993  -1.8993
    -1.8443  -1.8443  -1.5864  -1.5864  -1.2844  -1.2844  -1.1982  -1.1982
    -1.0950  -1.0950  -0.9491  -0.9491  -0.8809  -0.8809  -0.5968  -0.5968

     occupation numbers 
     1.0000   1.0000   1.0000   1.0000   1.0000   1.0000   1.0000   1.0000
     1.0000   1.0000   1.0000   1.0000   1.0000   1.0000   1.0000   1.0000
     1.0000   1.0000   1.0000   1.0000   1.0000   1.0000   1.0000   1.0000
     1.0000   1.0000   1.0000   1.0000   1.0000   1.0000   1.0000   1.0000
     1.0000   1.0000   1.0000   1.0000   1.0000   1.0000   1.0000   1.0000
     1.0000   1.0000   1.0000   1.0000   1.0000   1.0000   1.0000   1.0000
     1.0000   1.0000   1.0000   1.0000   1.0000   1.0000   1.0000   1.0000

          k = 0.1667 0.2778-0.5000 ( 43234 PWs)   bands (ev):

   -23.2739 -23.2739 -23.2739 -23.2739 -23.1415 -23.1415 -23.1415 -23.1415
   -22.2542 -22.2542 -22.2542 -22.2542 -22.1389 -22.1389 -22.1389 -22.1389
   -22.0852 -22.0852 -22.0852 -22.0852 -11.5749 -11.5749 -11.5542 -11.5542
   -11.5091 -11.5091 -11.4869 -11.4869  -6.9962  -6.9962  -6.9777  -6.9777
    -2.8965  -2.8965  -2.5891  -2.5891  -2.0887  -2.0887  -1.8894  -1.8894
    -1.8451  -1.8451  -1.5795  -1.5795  -1.2860  -1.2860  -1.1936  -1.1936
    -1.1000  -1.1000  -0.9489  -0.9489  -0.8788  -0.8788  -0.5938  -0.5938

     occupation numbers 
     1.0000   1.0000   1.0000   1.0000   1.0000   1.0000   1.0000   1.0000
     1.0000   1.0000   1.0000   1.0000   1.0000   1.0000   1.0000   1.0000
     1.0000   1.0000   1.0000   1.0000   1.0000   1.0000   1.0000   1.0000
     1.0000   1.0000   1.0000   1.0000   1.0000   1.0000   1.0000   1.0000
     1.0000   1.0000   1.0000   1.0000   1.0000   1.0000   1.0000   1.0000
     1.0000   1.0000   1.0000   1.0000   1.0000   1.0000   1.0000   1.0000
     1.0000   1.0000   1.0000   1.0000   1.0000   1.0000   1.0000   1.0000

          k = 0.1667 0.3889 0.3889 ( 43222 PWs)   bands (ev):

   -23.2739 -23.2739 -23.2738 -23.2738 -23.1415 -23.1415 -23.1414 -23.1414
   -22.2542 -22.2542 -22.2542 -22.2542 -22.1389 -22.1389 -22.1389 -22.1389
   -22.0852 -22.0852 -22.0852 -22.0852 -11.5697 -11.5697 -11.5486 -11.5486
   -11.5122 -11.5122 -11.4950 -11.4950  -6.9974  -6.9974  -6.9717  -6.9717
    -2.8893  -2.8893  -2.7148  -2.7148  -2.0526  -2.0526  -1.9255  -1.9255
    -1.8033  -1.8033  -1.5872  -1.5872  -1.2723  -1.2723  -1.2165  -1.2165
    -0.9978  -0.9978  -0.9237  -0.9237  -0.8347  -0.8347  -0.6007  -0.6007

     occupation numbers 
     1.0000   1.0000   1.0000   1.0000   1.0000   1.0000   1.0000   1.0000
     1.0000   1.0000   1.0000   1.0000   1.0000   1.0000   1.0000   1.0000
     1.0000   1.0000   1.0000   1.0000   1.0000   1.0000   1.0000   1.0000
     1.0000   1.0000   1.0000   1.0000   1.0000   1.0000   1.0000   1.0000
     1.0000   1.0000   1.0000   1.0000   1.0000   1.0000   1.0000   1.0000
     1.0000   1.0000   1.0000   1.0000   1.0000   1.0000   1.0000   1.0000
     1.0000   1.0000   1.0000   1.0000   1.0000   1.0000   1.0000   1.0000

          k = 0.1667 0.3889-0.5000 ( 43262 PWs)   bands (ev):

   -23.2739 -23.2739 -23.2739 -23.2739 -23.1415 -23.1415 -23.1415 -23.1415
   -22.2542 -22.2542 -22.2542 -22.2542 -22.1389 -22.1389 -22.1389 -22.1389
   -22.0852 -22.0852 -22.0852 -22.0852 -11.5666 -11.5666 -11.5498 -11.5498
   -11.5133 -11.5133 -11.4955 -11.4955  -6.9928  -6.9928  -6.9798  -6.9798
    -2.8938  -2.8938  -2.7169  -2.7169  -2.0518  -2.0518  -1.9195  -1.9195
    -1.8043  -1.8043  -1.5802  -1.5802  -1.2658  -1.2658  -1.2062  -1.2062
    -1.0018  -1.0018  -0.9203  -0.9203  -0.8304  -0.8304  -0.5980  -0.5980

     occupation numbers 
     1.0000   1.0000   1.0000   1.0000   1.0000   1.0000   1.0000   1.0000
     1.0000   1.0000   1.0000   1.0000   1.0000   1.0000   1.0000   1.0000
     1.0000   1.0000   1.0000   1.0000   1.0000   1.0000   1.0000   1.0000
     1.0000   1.0000   1.0000   1.0000   1.0000   1.0000   1.0000   1.0000
     1.0000   1.0000   1.0000   1.0000   1.0000   1.0000   1.0000   1.0000
     1.0000   1.0000   1.0000   1.0000   1.0000   1.0000   1.0000   1.0000
     1.0000   1.0000   1.0000   1.0000   1.0000   1.0000   1.0000   1.0000

          k = 0.1667-0.5000-0.5000 ( 43236 PWs)   bands (ev):

   -23.2739 -23.2739 -23.2739 -23.2739 -23.1415 -23.1415 -23.1414 -23.1414
   -22.2542 -22.2542 -22.2542 -22.2542 -22.1389 -22.1389 -22.1389 -22.1389
   -22.0852 -22.0852 -22.0852 -22.0852 -11.5565 -11.5565 -11.5562 -11.5562
   -11.5062 -11.5062 -11.5062 -11.5062  -6.9891  -6.9891  -6.9831  -6.9831
    -2.8431  -2.8431  -2.8155  -2.8155  -2.0418  -2.0418  -1.9316  -1.9316
    -1.7852  -1.7852  -1.5833  -1.5833  -1.2515  -1.2515  -1.2158  -1.2158
    -0.9342  -0.9342  -0.9183  -0.9183  -0.7237  -0.7237  -0.7167  -0.7167

     occupation numbers 
     1.0000   1.0000   1.0000   1.0000   1.0000   1.0000   1.0000   1.0000
     1.0000   1.0000   1.0000   1.0000   1.0000   1.0000   1.0000   1.0000
     1.0000   1.0000   1.0000   1.0000   1.0000   1.0000   1.0000   1.0000
     1.0000   1.0000   1.0000   1.0000   1.0000   1.0000   1.0000   1.0000
     1.0000   1.0000   1.0000   1.0000   1.0000   1.0000   1.0000   1.0000
     1.0000   1.0000   1.0000   1.0000   1.0000   1.0000   1.0000   1.0000
     1.0000   1.0000   1.0000   1.0000   1.0000   1.0000   1.0000   1.0000

          k = 0.2778 0.2778 0.2778 ( 43231 PWs)   bands (ev):

   -23.2739 -23.2739 -23.2739 -23.2739 -23.1415 -23.1415 -23.1414 -23.1414
   -22.2542 -22.2542 -22.2542 -22.2542 -22.1389 -22.1389 -22.1389 -22.1389
   -22.0852 -22.0852 -22.0852 -22.0852 -11.5840 -11.5840 -11.5450 -11.5450
   -11.5097 -11.5097 -11.4867 -11.4867  -7.0153  -7.0153  -6.9536  -6.9536
    -2.8757  -2.8757  -2.5331  -2.5331  -2.0965  -2.0965  -1.9168  -1.9168
    -1.8812  -1.8812  -1.6137  -1.6137  -1.3141  -1.3141  -1.2425  -1.2425
    -1.1164  -1.1164  -0.9219  -0.9219  -0.8673  -0.8673  -0.6063  -0.6063

     occupation numbers 
     1.0000   1.0000   1.0000   1.0000   1.0000   1.0000   1.0000   1.0000
     1.0000   1.0000   1.0000   1.0000   1.0000   1.0000   1.0000   1.0000
     1.0000   1.0000   1.0000   1.0000   1.0000   1.0000   1.0000   1.0000
     1.0000   1.0000   1.0000   1.0000   1.0000   1.0000   1.0000   1.0000
     1.0000   1.0000   1.0000   1.0000   1.0000   1.0000   1.0000   1.0000
     1.0000   1.0000   1.0000   1.0000   1.0000   1.0000   1.0000   1.0000
     1.0000   1.0000   1.0000   1.0000   1.0000   1.0000   1.0000   1.0000

          k = 0.2778 0.2778 0.3889 ( 43228 PWs)   bands (ev):

   -23.2739 -23.2739 -23.2738 -23.2738 -23.1415 -23.1415 -23.1415 -23.1415
   -22.2542 -22.2542 -22.2542 -22.2542 -22.1389 -22.1389 -22.1389 -22.1389
   -22.0852 -22.0852 -22.0852 -22.0852 -11.5778 -11.5778 -11.5478 -11.5478
   -11.5124 -11.5124 -11.4866 -11.4866  -7.0077  -7.0077  -6.9705  -6.9705
    -2.8878  -2.8878  -2.5238  -2.5238  -2.1143  -2.1143  -1.8975  -1.8975
    -1.8821  -1.8821  -1.5918  -1.5918  -1.3172  -1.3172  -1.2219  -1.2219
    -1.1159  -1.1159  -0.9136  -0.9136  -0.8579  -0.8579  -0.6023  -0.6023

     occupation numbers 
     1.0000   1.0000   1.0000   1.0000   1.0000   1.0000   1.0000   1.0000
     1.0000   1.0000   1.0000   1.0000   1.0000   1.0000   1.0000   1.0000
     1.0000   1.0000   1.0000   1.0000   1.0000   1.0000   1.0000   1.0000
     1.0000   1.0000   1.0000   1.0000   1.0000   1.0000   1.0000   1.0000
     1.0000   1.0000   1.0000   1.0000   1.0000   1.0000   1.0000   1.0000
     1.0000   1.0000   1.0000   1.0000   1.0000   1.0000   1.0000   1.0000
     1.0000   1.0000   1.0000   1.0000   1.0000   1.0000   1.0000   1.0000

          k = 0.2778 0.2778-0.5000 ( 43226 PWs)   bands (ev):

   -23.2739 -23.2739 -23.2739 -23.2739 -23.1415 -23.1415 -23.1415 -23.1415
   -22.2542 -22.2542 -22.2542 -22.2542 -22.1389 -22.1389 -22.1389 -22.1389
   -22.0852 -22.0852 -22.0852 -22.0852 -11.5748 -11.5748 -11.5495 -11.5495
   -11.5135 -11.5135 -11.4865 -11.4865  -7.0012  -7.0012  -6.9806  -6.9806
    -2.8921  -2.8921  -2.5202  -2.5202  -2.1216  -2.1216  -1.9013  -1.9013
    -1.8740  -1.8740  -1.5776  -1.5776  -1.3189  -1.3189  -1.2129  -1.2129
    -1.1182  -1.1182  -0.9093  -0.9093  -0.8547  -0.8547  -0.6006  -0.6006

     occupation numbers 
     1.0000   1.0000   1.0000   1.0000   1.0000   1.0000   1.0000   1.0000
     1.0000   1.0000   1.0000   1.0000   1.0000   1.0000   1.0000   1.0000
     1.0000   1.0000   1.0000   1.0000   1.0000   1.0000   1.0000   1.0000
     1.0000   1.0000   1.0000   1.0000   1.0000   1.0000   1.0000   1.0000
     1.0000   1.0000   1.0000   1.0000   1.0000   1.0000   1.0000   1.0000
     1.0000   1.0000   1.0000   1.0000   1.0000   1.0000   1.0000   1.0000
     1.0000   1.0000   1.0000   1.0000   1.0000   1.0000   1.0000   1.0000

          k = 0.2778 0.3889 0.3889 ( 43244 PWs)   bands (ev):

   -23.2739 -23.2739 -23.2739 -23.2739 -23.1415 -23.1415 -23.1415 -23.1415
   -22.2542 -22.2542 -22.2542 -22.2542 -22.1389 -22.1389 -22.1389 -22.1389
   -22.0852 -22.0852 -22.0852 -22.0852 -11.5721 -11.5721 -11.5540 -11.5540
   -11.5072 -11.5072 -11.4907 -11.4907  -7.0032  -7.0032  -6.9819  -6.9819
    -2.8228  -2.8228  -2.5875  -2.5875  -2.0946  -2.0946  -1.9369  -1.9369
    -1.8490  -1.8490  -1.5997  -1.5997  -1.3137  -1.3137  -1.2457  -1.2457
    -1.0713  -1.0713  -0.8968  -0.8968  -0.8366  -0.8366  -0.7233  -0.7233

     occupation numbers 
     1.0000   1.0000   1.0000   1.0000   1.0000   1.0000   1.0000   1.0000
     1.0000   1.0000   1.0000   1.0000   1.0000   1.0000   1.0000   1.0000
     1.0000   1.0000   1.0000   1.0000   1.0000   1.0000   1.0000   1.0000
     1.0000   1.0000   1.0000   1.0000   1.0000   1.0000   1.0000   1.0000
     1.0000   1.0000   1.0000   1.0000   1.0000   1.0000   1.0000   1.0000
     1.0000   1.0000   1.0000   1.0000   1.0000   1.0000   1.0000   1.0000
     1.0000   1.0000   1.0000   1.0000   1.0000   1.0000   1.0000   1.0000

          k = 0.2778 0.3889-0.5000 ( 43250 PWs)   bands (ev):

   -23.2739 -23.2739 -23.2739 -23.2739 -23.1415 -23.1415 -23.1415 -23.1415
   -22.2542 -22.2542 -22.2542 -22.2542 -22.1389 -22.1389 -22.1389 -22.1389
   -22.0852 -22.0852 -22.0852 -22.0852 -11.5705 -11.5705 -11.5542 -11.5542
   -11.5081 -11.5081 -11.4907 -11.4907  -7.0013  -7.0013  -6.9875  -6.9875
    -2.8266  -2.8266  -2.5868  -2.5868  -2.1013  -2.1013  -1.9379  -1.9379
    -1.8480  -1.8480  -1.5862  -1.5862  -1.3073  -1.3073  -1.2306  -1.2306
    -1.0754  -1.0754  -0.8891  -0.8891  -0.8322  -0.8322  -0.7270  -0.7270

     occupation numbers 
     1.0000   1.0000   1.0000   1.0000   1.0000   1.0000   1.0000   1.0000
     1.0000   1.0000   1.0000   1.0000   1.0000   1.0000   1.0000   1.0000
     1.0000   1.0000   1.0000   1.0000   1.0000   1.0000   1.0000   1.0000
     1.0000   1.0000   1.0000   1.0000   1.0000   1.0000   1.0000   1.0000
     1.0000   1.0000   1.0000   1.0000   1.0000   1.0000   1.0000   1.0000
     1.0000   1.0000   1.0000   1.0000   1.0000   1.0000   1.0000   1.0000
     1.0000   1.0000   1.0000   1.0000   1.0000   1.0000   1.0000   1.0000

          k = 0.2778-0.5000-0.5000 ( 43220 PWs)   bands (ev):

   -23.2739 -23.2739 -23.2738 -23.2738 -23.1415 -23.1415 -23.1414 -23.1414
   -22.2542 -22.2542 -22.2542 -22.2542 -22.1389 -22.1389 -22.1389 -22.1389
   -22.0852 -22.0852 -22.0852 -22.0852 -11.5630 -11.5630 -11.5628 -11.5628
   -11.4987 -11.4987 -11.4987 -11.4987  -6.9980  -6.9980  -6.9936  -6.9936
    -2.7228  -2.7228  -2.7045  -2.7045  -2.0880  -2.0880  -1.9571  -1.9571
    -1.8193  -1.8193  -1.5940  -1.5940  -1.2871  -1.2871  -1.2421  -1.2421
    -0.9715  -0.9715  -0.9602  -0.9602  -0.8254  -0.8254  -0.8008  -0.8008

     occupation numbers 
     1.0000   1.0000   1.0000   1.0000   1.0000   1.0000   1.0000   1.0000
     1.0000   1.0000   1.0000   1.0000   1.0000   1.0000   1.0000   1.0000
     1.0000   1.0000   1.0000   1.0000   1.0000   1.0000   1.0000   1.0000
     1.0000   1.0000   1.0000   1.0000   1.0000   1.0000   1.0000   1.0000
     1.0000   1.0000   1.0000   1.0000   1.0000   1.0000   1.0000   1.0000
     1.0000   1.0000   1.0000   1.0000   1.0000   1.0000   1.0000   1.0000
     1.0000   1.0000   1.0000   1.0000   1.0000   1.0000   1.0000   1.0000

          k = 0.3889 0.3889 0.3889 ( 43240 PWs)   bands (ev):

   -23.2739 -23.2739 -23.2739 -23.2739 -23.1415 -23.1415 -23.1415 -23.1415
   -22.2542 -22.2542 -22.2542 -22.2542 -22.1389 -22.1389 -22.1389 -22.1389
   -22.0852 -22.0852 -22.0852 -22.0852 -11.5716 -11.5716 -11.5615 -11.5615
   -11.4996 -11.4996 -11.4900 -11.4900  -7.0057  -7.0057  -6.9933  -6.9933
    -2.7096  -2.7096  -2.5245  -2.5245  -2.1140  -2.1140  -1.9543  -1.9543
    -1.8820  -1.8820  -1.6393  -1.6393  -1.3379  -1.3379  -1.2764  -1.2764
    -1.0968  -1.0968  -0.9532  -0.9532  -0.8211  -0.8211  -0.7998  -0.7998

     occupation numbers 
     1.0000   1.0000   1.0000   1.0000   1.0000   1.0000   1.0000   1.0000
     1.0000   1.0000   1.0000   1.0000   1.0000   1.0000   1.0000   1.0000
     1.0000   1.0000   1.0000   1.0000   1.0000   1.0000   1.0000   1.0000
     1.0000   1.0000   1.0000   1.0000   1.0000   1.0000   1.0000   1.0000
     1.0000   1.0000   1.0000   1.0000   1.0000   1.0000   1.0000   1.0000
     1.0000   1.0000   1.0000   1.0000   1.0000   1.0000   1.0000   1.0000
     1.0000   1.0000   1.0000   1.0000   1.0000   1.0000   1.0000   1.0000

          k = 0.3889 0.3889-0.5000 ( 43192 PWs)   bands (ev):

   -23.2738 -23.2738 -23.2738 -23.2738 -23.1415 -23.1415 -23.1414 -23.1414
   -22.2542 -22.2542 -22.2542 -22.2542 -22.1389 -22.1389 -22.1389 -22.1389
   -22.0852 -22.0852 -22.0852 -22.0852 -11.5708 -11.5708 -11.5615 -11.5615
   -11.5000 -11.5000 -11.4899 -11.4899  -7.0060  -7.0060  -6.9970  -6.9970
    -2.7118  -2.7118  -2.5219  -2.5219  -2.1253  -2.1253  -1.9606  -1.9606
    -1.8805  -1.8805  -1.6267  -1.6267  -1.3281  -1.3281  -1.2549  -1.2549
    -1.0994  -1.0994  -0.9534  -0.9534  -0.8173  -0.8173  -0.7976  -0.7976

     occupation numbers 
     1.0000   1.0000   1.0000   1.0000   1.0000   1.0000   1.0000   1.0000
     1.0000   1.0000   1.0000   1.0000   1.0000   1.0000   1.0000   1.0000
     1.0000   1.0000   1.0000   1.0000   1.0000   1.0000   1.0000   1.0000
     1.0000   1.0000   1.0000   1.0000   1.0000   1.0000   1.0000   1.0000
     1.0000   1.0000   1.0000   1.0000   1.0000   1.0000   1.0000   1.0000
     1.0000   1.0000   1.0000   1.0000   1.0000   1.0000   1.0000   1.0000
     1.0000   1.0000   1.0000   1.0000   1.0000   1.0000   1.0000   1.0000

          k = 0.3889-0.5000-0.5000 ( 43236 PWs)   bands (ev):

   -23.2739 -23.2739 -23.2739 -23.2739 -23.1415 -23.1415 -23.1415 -23.1415
   -22.2542 -22.2542 -22.2542 -22.2542 -22.1389 -22.1389 -22.1389 -22.1389
   -22.0852 -22.0852 -22.0852 -22.0852 -11.5677 -11.5677 -11.5676 -11.5676
   -11.4932 -11.4932 -11.4932 -11.4932  -7.0054  -7.0054  -7.0031  -7.0031
    -2.5879  -2.5879  -2.5836  -2.5836  -2.1170  -2.1170  -1.9963  -1.9963
    -1.8525  -1.8525  -1.6681  -1.6681  -1.3192  -1.3192  -1.2743  -1.2743
    -1.0648  -1.0648  -1.0597  -1.0597  -0.8081  -0.8081  -0.7941  -0.7941

     occupation numbers 
     1.0000   1.0000   1.0000   1.0000   1.0000   1.0000   1.0000   1.0000
     1.0000   1.0000   1.0000   1.0000   1.0000   1.0000   1.0000   1.0000
     1.0000   1.0000   1.0000   1.0000   1.0000   1.0000   1.0000   1.0000
     1.0000   1.0000   1.0000   1.0000   1.0000   1.0000   1.0000   1.0000
     1.0000   1.0000   1.0000   1.0000   1.0000   1.0000   1.0000   1.0000
     1.0000   1.0000   1.0000   1.0000   1.0000   1.0000   1.0000   1.0000
     1.0000   1.0000   1.0000   1.0000   1.0000   1.0000   1.0000   1.0000

          k =-0.5000-0.5000-0.5000 ( 43160 PWs)   bands (ev):

   -23.2738 -23.2738 -23.2738 -23.2738 -23.1414 -23.1414 -23.1414 -23.1414
   -22.2542 -22.2542 -22.2542 -22.2542 -22.1389 -22.1389 -22.1389 -22.1389
   -22.0852 -22.0852 -22.0852 -22.0852 -11.5693 -11.5693 -11.5693 -11.5693
   -11.4912 -11.4912 -11.4912 -11.4912  -7.0076  -7.0076  -7.0076  -7.0076
    -2.5230  -2.5230  -2.5230  -2.5230  -2.0830  -2.0830  -2.0830  -2.0830
    -1.7877  -1.7877  -1.7877  -1.7877  -1.3101  -1.3101  -1.3101  -1.3101
    -1.0948  -1.0948  -1.0948  -1.0948  -0.7912  -0.7912  -0.7912  -0.7912

     occupation numbers 
     1.0000   1.0000   1.0000   1.0000   1.0000   1.0000   1.0000   1.0000
     1.0000   1.0000   1.0000   1.0000   1.0000   1.0000   1.0000   1.0000
     1.0000   1.0000   1.0000   1.0000   1.0000   1.0000   1.0000   1.0000
     1.0000   1.0000   1.0000   1.0000   1.0000   1.0000   1.0000   1.0000
     1.0000   1.0000   1.0000   1.0000   1.0000   1.0000   1.0000   1.0000
     1.0000   1.0000   1.0000   1.0000   1.0000   1.0000   1.0000   1.0000
     1.0000   1.0000   1.0000   1.0000   1.0000   1.0000   1.0000   1.0000

          k = 0.0556 0.1667 0.0556 ( 43233 PWs)   bands (ev):

   -23.2739 -23.2739 -23.2738 -23.2738 -23.1415 -23.1415 -23.1414 -23.1414
   -22.2542 -22.2542 -22.2542 -22.2542 -22.1389 -22.1389 -22.1389 -22.1389
   -22.0852 -22.0852 -22.0852 -22.0852 -11.6209 -11.6209 -11.5332 -11.5332
   -11.4900 -11.4900 -11.4829 -11.4829  -7.0661  -7.0661  -6.8802  -6.8802
    -2.7292  -2.7292  -2.5851  -2.5851  -2.1674  -2.1674  -1.9926  -1.9926
    -1.8474  -1.8474  -1.5366  -1.5366  -1.2249  -1.2249  -1.1499  -1.1499
    -1.0784  -1.0784  -0.9719  -0.9719  -0.9199  -0.9199  -0.8458  -0.8458

     occupation numbers 
     1.0000   1.0000   1.0000   1.0000   1.0000   1.0000   1.0000   1.0000
     1.0000   1.0000   1.0000   1.0000   1.0000   1.0000   1.0000   1.0000
     1.0000   1.0000   1.0000   1.0000   1.0000   1.0000   1.0000   1.0000
     1.0000   1.0000   1.0000   1.0000   1.0000   1.0000   1.0000   1.0000
     1.0000   1.0000   1.0000   1.0000   1.0000   1.0000   1.0000   1.0000
     1.0000   1.0000   1.0000   1.0000   1.0000   1.0000   1.0000   1.0000
     1.0000   1.0000   1.0000   1.0000   1.0000   1.0000   1.0000   1.0000

          k = 0.0556 0.2778 0.0556 ( 43209 PWs)   bands (ev):

   -23.2739 -23.2739 -23.2738 -23.2738 -23.1415 -23.1415 -23.1414 -23.1414
   -22.2542 -22.2542 -22.2542 -22.2542 -22.1389 -22.1389 -22.1389 -22.1389
   -22.0852 -22.0852 -22.0852 -22.0852 -11.6060 -11.6060 -11.5335 -11.5335
   -11.5006 -11.5006 -11.4878 -11.4878  -7.0391  -7.0391  -6.9007  -6.9007
    -2.8075  -2.8075  -2.6943  -2.6943  -2.1657  -2.1657  -1.9732  -1.9732
    -1.7772  -1.7772  -1.5590  -1.5590  -1.2451  -1.2451  -1.1927  -1.1927
    -1.0152  -1.0152  -0.9491  -0.9491  -0.8757  -0.8757  -0.7125  -0.7125

     occupation numbers 
     1.0000   1.0000   1.0000   1.0000   1.0000   1.0000   1.0000   1.0000
     1.0000   1.0000   1.0000   1.0000   1.0000   1.0000   1.0000   1.0000
     1.0000   1.0000   1.0000   1.0000   1.0000   1.0000   1.0000   1.0000
     1.0000   1.0000   1.0000   1.0000   1.0000   1.0000   1.0000   1.0000
     1.0000   1.0000   1.0000   1.0000   1.0000   1.0000   1.0000   1.0000
     1.0000   1.0000   1.0000   1.0000   1.0000   1.0000   1.0000   1.0000
     1.0000   1.0000   1.0000   1.0000   1.0000   1.0000   1.0000   1.0000

          k = 0.0556 0.3889 0.0556 ( 43226 PWs)   bands (ev):

   -23.2739 -23.2739 -23.2738 -23.2738 -23.1415 -23.1415 -23.1414 -23.1414
   -22.2542 -22.2542 -22.2542 -22.2542 -22.1389 -22.1389 -22.1389 -22.1389
   -22.0852 -22.0852 -22.0852 -22.0852 -11.5860 -11.5860 -11.5436 -11.5436
   -11.5049 -11.5049 -11.4942 -11.4942  -7.0039  -7.0039  -6.9301  -6.9301
    -2.8541  -2.8541  -2.7916  -2.7916  -2.1245  -2.1245  -2.0055  -2.0055
    -1.7120  -1.7120  -1.5961  -1.5961  -1.2615  -1.2615  -1.2323  -1.2323
    -1.0002  -1.0002  -0.9555  -0.9555  -0.7309  -0.7309  -0.6106  -0.6106

     occupation numbers 
     1.0000   1.0000   1.0000   1.0000   1.0000   1.0000   1.0000   1.0000
     1.0000   1.0000   1.0000   1.0000   1.0000   1.0000   1.0000   1.0000
     1.0000   1.0000   1.0000   1.0000   1.0000   1.0000   1.0000   1.0000
     1.0000   1.0000   1.0000   1.0000   1.0000   1.0000   1.0000   1.0000
     1.0000   1.0000   1.0000   1.0000   1.0000   1.0000   1.0000   1.0000
     1.0000   1.0000   1.0000   1.0000   1.0000   1.0000   1.0000   1.0000
     1.0000   1.0000   1.0000   1.0000   1.0000   1.0000   1.0000   1.0000

          k = 0.0556-0.5000 0.0556 ( 43278 PWs)   bands (ev):

   -23.2739 -23.2739 -23.2739 -23.2739 -23.1415 -23.1415 -23.1415 -23.1415
   -22.2542 -22.2542 -22.2542 -22.2542 -22.1389 -22.1389 -22.1389 -22.1389
   -22.0852 -22.0852 -22.0852 -22.0852 -11.5637 -11.5637 -11.5636 -11.5636
   -11.5009 -11.5009 -11.5009 -11.5009  -6.9665  -6.9665  -6.9652  -6.9652
    -2.8528  -2.8528  -2.8456  -2.8456  -2.0700  -2.0700  -2.0576  -2.0576
    -1.6696  -1.6696  -1.6310  -1.6310  -1.2589  -1.2589  -1.2556  -1.2556
    -0.9947  -0.9947  -0.9639  -0.9639  -0.6181  -0.6181  -0.6151  -0.6151

     occupation numbers 
     1.0000   1.0000   1.0000   1.0000   1.0000   1.0000   1.0000   1.0000
     1.0000   1.0000   1.0000   1.0000   1.0000   1.0000   1.0000   1.0000
     1.0000   1.0000   1.0000   1.0000   1.0000   1.0000   1.0000   1.0000
     1.0000   1.0000   1.0000   1.0000   1.0000   1.0000   1.0000   1.0000
     1.0000   1.0000   1.0000   1.0000   1.0000   1.0000   1.0000   1.0000
     1.0000   1.0000   1.0000   1.0000   1.0000   1.0000   1.0000   1.0000
     1.0000   1.0000   1.0000   1.0000   1.0000   1.0000   1.0000   1.0000

          k = 0.1667 0.1667 0.0556 ( 43193 PWs)   bands (ev):

   -23.2739 -23.2739 -23.2738 -23.2738 -23.1415 -23.1415 -23.1414 -23.1414
   -22.2542 -22.2542 -22.2542 -22.2542 -22.1389 -22.1389 -22.1389 -22.1389
   -22.0852 -22.0852 -22.0852 -22.0852 -11.6142 -11.6142 -11.5327 -11.5327
   -11.4973 -11.4973 -11.4831 -11.4831  -7.0548  -7.0548  -6.8907  -6.8907
    -2.8063  -2.8063  -2.5565  -2.5565  -2.1275  -2.1275  -2.0067  -2.0067
    -1.8556  -1.8556  -1.5498  -1.5498  -1.2369  -1.2369  -1.1839  -1.1839
    -1.1181  -1.1181  -0.9598  -0.9598  -0.9105  -0.9105  -0.7202  -0.7202

     occupation numbers 
     1.0000   1.0000   1.0000   1.0000   1.0000   1.0000   1.0000   1.0000
     1.0000   1.0000   1.0000   1.0000   1.0000   1.0000   1.0000   1.0000
     1.0000   1.0000   1.0000   1.0000   1.0000   1.0000   1.0000   1.0000
     1.0000   1.0000   1.0000   1.0000   1.0000   1.0000   1.0000   1.0000
     1.0000   1.0000   1.0000   1.0000   1.0000   1.0000   1.0000   1.0000
     1.0000   1.0000   1.0000   1.0000   1.0000   1.0000   1.0000   1.0000
     1.0000   1.0000   1.0000   1.0000   1.0000   1.0000   1.0000   1.0000

          k = 0.1667 0.2778 0.0556 ( 43204 PWs)   bands (ev):

   -23.2738 -23.2738 -23.2738 -23.2738 -23.1415 -23.1415 -23.1414 -23.1414
   -22.2542 -22.2542 -22.2542 -22.2542 -22.1389 -22.1389 -22.1389 -22.1389
   -22.0852 -22.0852 -22.0852 -22.0852 -11.6015 -11.6015 -11.5355 -11.5355
   -11.5042 -11.5042 -11.4864 -11.4864  -7.0334  -7.0334  -6.9110  -6.9110
    -2.8539  -2.8539  -2.5997  -2.5997  -2.1240  -2.1240  -1.9830  -1.9830
    -1.8254  -1.8254  -1.5734  -1.5734  -1.2772  -1.2772  -1.2283  -1.2283
    -1.0773  -1.0773  -0.9474  -0.9474  -0.9027  -0.9027  -0.6154  -0.6154

     occupation numbers 
     1.0000   1.0000   1.0000   1.0000   1.0000   1.0000   1.0000   1.0000
     1.0000   1.0000   1.0000   1.0000   1.0000   1.0000   1.0000   1.0000
     1.0000   1.0000   1.0000   1.0000   1.0000   1.0000   1.0000   1.0000
     1.0000   1.0000   1.0000   1.0000   1.0000   1.0000   1.0000   1.0000
     1.0000   1.0000   1.0000   1.0000   1.0000   1.0000   1.0000   1.0000
     1.0000   1.0000   1.0000   1.0000   1.0000   1.0000   1.0000   1.0000
     1.0000   1.0000   1.0000   1.0000   1.0000   1.0000   1.0000   1.0000

          k = 0.2778 0.0556 0.1667 ( 43204 PWs)   bands (ev):

   -23.2739 -23.2739 -23.2738 -23.2738 -23.1415 -23.1415 -23.1414 -23.1414
   -22.2542 -22.2542 -22.2542 -22.2542 -22.1389 -22.1389 -22.1389 -22.1389
   -22.0852 -22.0852 -22.0852 -22.0852 -11.6012 -11.6012 -11.5367 -11.5367
   -11.5010 -11.5010 -11.4885 -11.4885  -7.0340  -7.0340  -6.9123  -6.9123
    -2.8160  -2.8160  -2.7011  -2.7011  -2.1283  -2.1283  -1.9602  -1.9602
    -1.7853  -1.7853  -1.5701  -1.5701  -1.2480  -1.2480  -1.1885  -1.1885
    -1.0233  -1.0233  -0.9441  -0.9441  -0.8799  -0.8799  -0.7130  -0.7130

     occupation numbers 
     1.0000   1.0000   1.0000   1.0000   1.0000   1.0000   1.0000   1.0000
     1.0000   1.0000   1.0000   1.0000   1.0000   1.0000   1.0000   1.0000
     1.0000   1.0000   1.0000   1.0000   1.0000   1.0000   1.0000   1.0000
     1.0000   1.0000   1.0000   1.0000   1.0000   1.0000   1.0000   1.0000
     1.0000   1.0000   1.0000   1.0000   1.0000   1.0000   1.0000   1.0000
     1.0000   1.0000   1.0000   1.0000   1.0000   1.0000   1.0000   1.0000
     1.0000   1.0000   1.0000   1.0000   1.0000   1.0000   1.0000   1.0000

          k = 0.1667 0.3889 0.0556 ( 43228 PWs)   bands (ev):

   -23.2739 -23.2739 -23.2739 -23.2739 -23.1415 -23.1415 -23.1414 -23.1414
   -22.2542 -22.2542 -22.2542 -22.2542 -22.1389 -22.1389 -22.1389 -22.1389
   -22.0852 -22.0852 -22.0852 -22.0852 -11.5845 -11.5845 -11.5474 -11.5474
   -11.5040 -11.5040 -11.4920 -11.4920  -7.0045  -7.0045  -6.9390  -6.9390
    -2.8490  -2.8490  -2.6960  -2.6960  -2.1022  -2.1022  -2.0070  -2.0070
    -1.7442  -1.7442  -1.6097  -1.6097  -1.3071  -1.3071  -1.2719  -1.2719
    -1.0016  -1.0016  -0.9435  -0.9435  -0.8472  -0.8472  -0.6135  -0.6135

     occupation numbers 
[...]
     1.0000   1.0000   1.0000   1.0000   1.0000   1.0000   1.0000   1.0000
     1.0000   1.0000   1.0000   1.0000   1.0000   1.0000   1.0000   1.0000
     1.0000   1.0000   1.0000   1.0000   1.0000   1.0000   1.0000   1.0000
     1.0000   1.0000   1.0000   1.0000   1.0000   1.0000   1.0000   1.0000
     1.0000   1.0000   1.0000   1.0000   1.0000   1.0000   1.0000   1.0000
     1.0000   1.0000   1.0000   1.0000   1.0000   1.0000   1.0000   1.0000

          k =-0.5000 0.1667 0.3889 ( 43262 PWs)   bands (ev):

   -23.2739 -23.2739 -23.2739 -23.2739 -23.1415 -23.1415 -23.1415 -23.1415
   -22.2542 -22.2542 -22.2542 -22.2542 -22.1389 -22.1389 -22.1389 -22.1389
   -22.0852 -22.0852 -22.0852 -22.0852 -11.5577 -11.5577 -11.5575 -11.5575
   -11.5051 -11.5051 -11.5051 -11.5051  -6.9871  -6.9871  -6.9815  -6.9815
    -2.8388  -2.8388  -2.8120  -2.8120  -2.0421  -2.0421  -1.9360  -1.9360
    -1.7859  -1.7859  -1.5885  -1.5885  -1.2578  -1.2578  -1.2309  -1.2309
    -0.9469  -0.9469  -0.9147  -0.9147  -0.7230  -0.7230  -0.7175  -0.7175

     occupation numbers 
     1.0000   1.0000   1.0000   1.0000   1.0000   1.0000   1.0000   1.0000
     1.0000   1.0000   1.0000   1.0000   1.0000   1.0000   1.0000   1.0000
     1.0000   1.0000   1.0000   1.0000   1.0000   1.0000   1.0000   1.0000
     1.0000   1.0000   1.0000   1.0000   1.0000   1.0000   1.0000   1.0000
     1.0000   1.0000   1.0000   1.0000   1.0000   1.0000   1.0000   1.0000
     1.0000   1.0000   1.0000   1.0000   1.0000   1.0000   1.0000   1.0000
     1.0000   1.0000   1.0000   1.0000   1.0000   1.0000   1.0000   1.0000

          k =-0.5000-0.5000 0.1667 ( 43236 PWs)   bands (ev):

   -23.2739 -23.2739 -23.2739 -23.2739 -23.1415 -23.1415 -23.1415 -23.1415
   -22.2542 -22.2542 -22.2542 -22.2542 -22.1389 -22.1389 -22.1389 -22.1389
   -22.0852 -22.0852 -22.0852 -22.0852 -11.5704 -11.5704 -11.5704 -11.5704
   -11.4916 -11.4916 -11.4916 -11.4916  -6.9945  -6.9945  -6.9945  -6.9945
    -2.5374  -2.5374  -2.5374  -2.5374  -1.9968  -1.9968  -1.9968  -1.9968
    -1.8177  -1.8177  -1.8177  -1.8177  -1.4117  -1.4117  -1.4117  -1.4117
    -1.1073  -1.1073  -1.1073  -1.1073  -0.8228  -0.8228  -0.8228  -0.8228

     occupation numbers 
     1.0000   1.0000   1.0000   1.0000   1.0000   1.0000   1.0000   1.0000
     1.0000   1.0000   1.0000   1.0000   1.0000   1.0000   1.0000   1.0000
     1.0000   1.0000   1.0000   1.0000   1.0000   1.0000   1.0000   1.0000
     1.0000   1.0000   1.0000   1.0000   1.0000   1.0000   1.0000   1.0000
     1.0000   1.0000   1.0000   1.0000   1.0000   1.0000   1.0000   1.0000
     1.0000   1.0000   1.0000   1.0000   1.0000   1.0000   1.0000   1.0000
     1.0000   1.0000   1.0000   1.0000   1.0000   1.0000   1.0000   1.0000

          k = 0.2778 0.3889 0.2778 ( 43228 PWs)   bands (ev):

   -23.2739 -23.2739 -23.2738 -23.2738 -23.1415 -23.1415 -23.1414 -23.1414
   -22.2542 -22.2542 -22.2542 -22.2542 -22.1389 -22.1389 -22.1389 -22.1389
   -22.0852 -22.0852 -22.0852 -22.0852 -11.5757 -11.5757 -11.5539 -11.5539
   -11.5049 -11.5049 -11.4905 -11.4905  -7.0047  -7.0047  -6.9710  -6.9710
    -2.8125  -2.8125  -2.5893  -2.5893  -2.0789  -2.0789  -1.9479  -1.9479
    -1.8406  -1.8406  -1.6277  -1.6277  -1.3284  -1.3284  -1.2788  -1.2788
    -1.0696  -1.0696  -0.9111  -0.9111  -0.8480  -0.8480  -0.7161  -0.7161

     occupation numbers 
     1.0000   1.0000   1.0000   1.0000   1.0000   1.0000   1.0000   1.0000
     1.0000   1.0000   1.0000   1.0000   1.0000   1.0000   1.0000   1.0000
     1.0000   1.0000   1.0000   1.0000   1.0000   1.0000   1.0000   1.0000
     1.0000   1.0000   1.0000   1.0000   1.0000   1.0000   1.0000   1.0000
     1.0000   1.0000   1.0000   1.0000   1.0000   1.0000   1.0000   1.0000
     1.0000   1.0000   1.0000   1.0000   1.0000   1.0000   1.0000   1.0000
     1.0000   1.0000   1.0000   1.0000   1.0000   1.0000   1.0000   1.0000

          k = 0.2778-0.5000 0.2778 ( 43226 PWs)   bands (ev):

   -23.2739 -23.2739 -23.2739 -23.2739 -23.1415 -23.1415 -23.1415 -23.1415
   -22.2542 -22.2542 -22.2542 -22.2542 -22.1389 -22.1389 -22.1389 -22.1389
   -22.0852 -22.0852 -22.0852 -22.0852 -11.5652 -11.5652 -11.5650 -11.5650
   -11.4972 -11.4972 -11.4972 -11.4972  -6.9909  -6.9909  -6.9875  -6.9875
    -2.7136  -2.7136  -2.6969  -2.6969  -2.0683  -2.0683  -1.9650  -1.9650
    -1.8097  -1.8097  -1.6310  -1.6310  -1.3175  -1.3175  -1.3072  -1.3072
    -0.9897  -0.9897  -0.9458  -0.9458  -0.8250  -0.8250  -0.8092  -0.8092

     occupation numbers 
     1.0000   1.0000   1.0000   1.0000   1.0000   1.0000   1.0000   1.0000
     1.0000   1.0000   1.0000   1.0000   1.0000   1.0000   1.0000   1.0000
     1.0000   1.0000   1.0000   1.0000   1.0000   1.0000   1.0000   1.0000
     1.0000   1.0000   1.0000   1.0000   1.0000   1.0000   1.0000   1.0000
     1.0000   1.0000   1.0000   1.0000   1.0000   1.0000   1.0000   1.0000
     1.0000   1.0000   1.0000   1.0000   1.0000   1.0000   1.0000   1.0000
     1.0000   1.0000   1.0000   1.0000   1.0000   1.0000   1.0000   1.0000

          k = 0.3889 0.3889 0.2778 ( 43244 PWs)   bands (ev):

   -23.2739 -23.2739 -23.2739 -23.2739 -23.1415 -23.1415 -23.1415 -23.1415
   -22.2542 -22.2542 -22.2542 -22.2542 -22.1389 -22.1389 -22.1389 -22.1389
   -22.0852 -22.0852 -22.0852 -22.0852 -11.5734 -11.5734 -11.5617 -11.5617
   -11.4985 -11.4985 -11.4901 -11.4901  -7.0038  -7.0038  -6.9853  -6.9853
    -2.7035  -2.7035  -2.5312  -2.5312  -2.0849  -2.0849  -1.9484  -1.9484
    -1.8774  -1.8774  -1.6683  -1.6683  -1.3596  -1.3596  -1.3221  -1.3221
    -1.0995  -1.0995  -0.9570  -0.9570  -0.8318  -0.8318  -0.8021  -0.8021

     occupation numbers 
     1.0000   1.0000   1.0000   1.0000   1.0000   1.0000   1.0000   1.0000
     1.0000   1.0000   1.0000   1.0000   1.0000   1.0000   1.0000   1.0000
     1.0000   1.0000   1.0000   1.0000   1.0000   1.0000   1.0000   1.0000
     1.0000   1.0000   1.0000   1.0000   1.0000   1.0000   1.0000   1.0000
     1.0000   1.0000   1.0000   1.0000   1.0000   1.0000   1.0000   1.0000
     1.0000   1.0000   1.0000   1.0000   1.0000   1.0000   1.0000   1.0000
     1.0000   1.0000   1.0000   1.0000   1.0000   1.0000   1.0000   1.0000

          k = 0.3889-0.5000 0.2778 ( 43250 PWs)   bands (ev):

   -23.2739 -23.2739 -23.2739 -23.2739 -23.1415 -23.1415 -23.1415 -23.1415
   -22.2542 -22.2542 -22.2542 -22.2542 -22.1389 -22.1389 -22.1389 -22.1389
   -22.0852 -22.0852 -22.0852 -22.0852 -11.5686 -11.5686 -11.5686 -11.5686
   -11.4930 -11.4930 -11.4930 -11.4930  -6.9981  -6.9981  -6.9964  -6.9964
    -2.5900  -2.5900  -2.5838  -2.5838  -2.0769  -2.0769  -1.9756  -1.9756
    -1.8500  -1.8500  -1.7008  -1.7008  -1.3615  -1.3615  -1.3513  -1.3513
    -1.0702  -1.0702  -1.0433  -1.0433  -0.8231  -0.8231  -0.8113  -0.8113

     occupation numbers 
     1.0000   1.0000   1.0000   1.0000   1.0000   1.0000   1.0000   1.0000
     1.0000   1.0000   1.0000   1.0000   1.0000   1.0000   1.0000   1.0000
     1.0000   1.0000   1.0000   1.0000   1.0000   1.0000   1.0000   1.0000
     1.0000   1.0000   1.0000   1.0000   1.0000   1.0000   1.0000   1.0000
     1.0000   1.0000   1.0000   1.0000   1.0000   1.0000   1.0000   1.0000
     1.0000   1.0000   1.0000   1.0000   1.0000   1.0000   1.0000   1.0000
     1.0000   1.0000   1.0000   1.0000   1.0000   1.0000   1.0000   1.0000

          k =-0.5000 0.2778 0.3889 ( 43250 PWs)   bands (ev):

   -23.2739 -23.2739 -23.2739 -23.2739 -23.1415 -23.1415 -23.1415 -23.1415
   -22.2542 -22.2542 -22.2542 -22.2542 -22.1389 -22.1389 -22.1389 -22.1389
   -22.0852 -22.0852 -22.0852 -22.0852 -11.5636 -11.5636 -11.5635 -11.5635
   -11.4983 -11.4983 -11.4983 -11.4983  -6.9960  -6.9960  -6.9919  -6.9919
    -2.7205  -2.7205  -2.7024  -2.7024  -2.0820  -2.0820  -1.9554  -1.9554
    -1.8210  -1.8210  -1.6045  -1.6045  -1.2961  -1.2961  -1.2630  -1.2630
    -0.9766  -0.9766  -0.9532  -0.9532  -0.8260  -0.8260  -0.8034  -0.8034

     occupation numbers 
     1.0000   1.0000   1.0000   1.0000   1.0000   1.0000   1.0000   1.0000
     1.0000   1.0000   1.0000   1.0000   1.0000   1.0000   1.0000   1.0000
     1.0000   1.0000   1.0000   1.0000   1.0000   1.0000   1.0000   1.0000
     1.0000   1.0000   1.0000   1.0000   1.0000   1.0000   1.0000   1.0000
     1.0000   1.0000   1.0000   1.0000   1.0000   1.0000   1.0000   1.0000
     1.0000   1.0000   1.0000   1.0000   1.0000   1.0000   1.0000   1.0000
     1.0000   1.0000   1.0000   1.0000   1.0000   1.0000   1.0000   1.0000

          k =-0.5000-0.5000 0.2778 ( 43220 PWs)   bands (ev):

   -23.2739 -23.2739 -23.2739 -23.2739 -23.1415 -23.1415 -23.1415 -23.1415
   -22.2542 -22.2542 -22.2542 -22.2542 -22.1389 -22.1389 -22.1389 -22.1389
   -22.0852 -22.0852 -22.0852 -22.0852 -11.5699 -11.5699 -11.5699 -11.5699
   -11.4914 -11.4914 -11.4914 -11.4914  -7.0004  -7.0004  -7.0004  -7.0004
    -2.5307  -2.5307  -2.5307  -2.5307  -2.0387  -2.0387  -2.0387  -2.0387
    -1.8015  -1.8015  -1.8015  -1.8015  -1.3746  -1.3746  -1.3746  -1.3746
    -1.0919  -1.0919  -1.0919  -1.0919  -0.8104  -0.8104  -0.8104  -0.8104

     occupation numbers 
     1.0000   1.0000   1.0000   1.0000   1.0000   1.0000   1.0000   1.0000
     1.0000   1.0000   1.0000   1.0000   1.0000   1.0000   1.0000   1.0000
     1.0000   1.0000   1.0000   1.0000   1.0000   1.0000   1.0000   1.0000
     1.0000   1.0000   1.0000   1.0000   1.0000   1.0000   1.0000   1.0000
     1.0000   1.0000   1.0000   1.0000   1.0000   1.0000   1.0000   1.0000
     1.0000   1.0000   1.0000   1.0000   1.0000   1.0000   1.0000   1.0000
     1.0000   1.0000   1.0000   1.0000   1.0000   1.0000   1.0000   1.0000

          k = 0.3889-0.5000 0.3889 ( 43192 PWs)   bands (ev):

   -23.2738 -23.2738 -23.2738 -23.2738 -23.1415 -23.1415 -23.1414 -23.1414
   -22.2542 -22.2542 -22.2542 -22.2542 -22.1389 -22.1389 -22.1389 -22.1389
   -22.0852 -22.0852 -22.0852 -22.0852 -11.5679 -11.5679 -11.5679 -11.5679
   -11.4932 -11.4932 -11.4932 -11.4932  -7.0034  -7.0034  -7.0012  -7.0012
    -2.5886  -2.5886  -2.5836  -2.5836  -2.1059  -2.1059  -1.9887  -1.9887
    -1.8540  -1.8540  -1.6768  -1.6768  -1.3326  -1.3326  -1.2994  -1.2994
    -1.0647  -1.0647  -1.0513  -1.0513  -0.8131  -0.8131  -0.7991  -0.7991

     occupation numbers 
     1.0000   1.0000   1.0000   1.0000   1.0000   1.0000   1.0000   1.0000
     1.0000   1.0000   1.0000   1.0000   1.0000   1.0000   1.0000   1.0000
     1.0000   1.0000   1.0000   1.0000   1.0000   1.0000   1.0000   1.0000
     1.0000   1.0000   1.0000   1.0000   1.0000   1.0000   1.0000   1.0000
     1.0000   1.0000   1.0000   1.0000   1.0000   1.0000   1.0000   1.0000
     1.0000   1.0000   1.0000   1.0000   1.0000   1.0000   1.0000   1.0000
     1.0000   1.0000   1.0000   1.0000   1.0000   1.0000   1.0000   1.0000

          k =-0.5000-0.5000 0.3889 ( 43236 PWs)   bands (ev):

   -23.2739 -23.2739 -23.2739 -23.2739 -23.1415 -23.1415 -23.1415 -23.1415
   -22.2542 -22.2542 -22.2542 -22.2542 -22.1389 -22.1389 -22.1389 -22.1389
   -22.0852 -22.0852 -22.0852 -22.0852 -11.5695 -11.5695 -11.5695 -11.5695
   -11.4913 -11.4913 -11.4913 -11.4913  -7.0055  -7.0055  -7.0055  -7.0055
    -2.5251  -2.5251  -2.5251  -2.5251  -2.0711  -2.0711  -2.0711  -2.0711
    -1.7911  -1.7911  -1.7911  -1.7911  -1.3311  -1.3311  -1.3311  -1.3311
    -1.0910  -1.0910  -1.0910  -1.0910  -0.7970  -0.7970  -0.7970  -0.7970

     occupation numbers 
     1.0000   1.0000   1.0000   1.0000   1.0000   1.0000   1.0000   1.0000
     1.0000   1.0000   1.0000   1.0000   1.0000   1.0000   1.0000   1.0000
     1.0000   1.0000   1.0000   1.0000   1.0000   1.0000   1.0000   1.0000
     1.0000   1.0000   1.0000   1.0000   1.0000   1.0000   1.0000   1.0000
     1.0000   1.0000   1.0000   1.0000   1.0000   1.0000   1.0000   1.0000
     1.0000   1.0000   1.0000   1.0000   1.0000   1.0000   1.0000   1.0000
     1.0000   1.0000   1.0000   1.0000   1.0000   1.0000   1.0000   1.0000

     highest occupied level (ev):    -0.5832

!    total energy              =   -2370.94219659 Ry
     Harris-Foulkes estimate   =   -2370.94219659 Ry
     estimated scf accuracy    <       0.00000054 Ry

     total all-electron energy =    -81634.464402 Ry

     The total energy is the sum of the following terms:

     one-electron contribution =    -248.68368254 Ry
     hartree contribution      =     145.43371448 Ry
     xc contribution           =    -157.08942024 Ry
     ewald contribution        =    -190.25175950 Ry
     one-center paw contrib.   =   -1920.35104878 Ry
      -> PAW hartree energy AE =     107.22979969 Ry
      -> PAW hartree energy PS =    -106.44513623 Ry
      -> PAW xc energy AE      =    -324.23285876 Ry
      -> PAW xc energy PS      =      46.59310933 Ry
      -> total E_H with PAW    =     146.21837794 Ry
      -> total E_XC with PAW   =    -434.72916966 Ry

     convergence has been achieved in   7 iterations

     Forces acting on atoms (cartesian axes, Ry/au):

     atom    1 type  1   force =     0.00000000    0.00000000    0.00000000
     atom    2 type  1   force =     0.00000000    0.00000000    0.00000000
     atom    3 type  2   force =    -0.01799497   -0.01799497    0.00000000
     atom    4 type  2   force =     0.01799497    0.01799497    0.00000000
     atom    5 type  2   force =    -0.01799497    0.01799497    0.00000000
     atom    6 type  2   force =     0.01799497   -0.01799497    0.00000000
     The non-local contrib.  to forces
     atom    1 type  1   force =     0.00000000    0.00000000    0.00000000
     atom    2 type  1   force =     0.00000000    0.00000000    0.00000000
     atom    3 type  2   force =    -0.04126739   -0.04126739    0.00000000
     atom    4 type  2   force =     0.04126739    0.04126739    0.00000000
     atom    5 type  2   force =    -0.04126739    0.04126739   -0.00000000
     atom    6 type  2   force =     0.04126739   -0.04126739   -0.00000000
     The ionic contribution  to forces
     atom    1 type  1   force =    -0.00000000   -0.00000000   -0.00000000
     atom    2 type  1   force =     0.00000000    0.00000000    0.00000000
     atom    3 type  2   force =     1.38633657    1.38633657    0.00000000
     atom    4 type  2   force =    -1.38633657   -1.38633657   -0.00000000
     atom    5 type  2   force =     1.38633657   -1.38633657    0.00000000
     atom    6 type  2   force =    -1.38633657    1.38633657    0.00000000
     The local contribution  to forces
     atom    1 type  1   force =     0.00000000    0.00000000    0.00000000
     atom    2 type  1   force =     0.00000000    0.00000000    0.00000000
     atom    3 type  2   force =    -1.36673282   -1.36673282    0.00000000
     atom    4 type  2   force =     1.36673282    1.36673282    0.00000000
     atom    5 type  2   force =    -1.36673282    1.36673282    0.00000000
     atom    6 type  2   force =     1.36673282   -1.36673282    0.00000000
     The core correction contribution to forces
     atom    1 type  1   force =     0.00000000    0.00000000    0.00000000
     atom    2 type  1   force =     0.00000000    0.00000000    0.00000000
     atom    3 type  2   force =     0.00390547    0.00390547    0.00000000
     atom    4 type  2   force =    -0.00390547   -0.00390547    0.00000000
     atom    5 type  2   force =     0.00390547   -0.00390547    0.00000000
     atom    6 type  2   force =    -0.00390547    0.00390547   -0.00000000
     The Hubbard contrib.    to forces
     atom    1 type  1   force =     0.00000000    0.00000000    0.00000000
     atom    2 type  1   force =     0.00000000    0.00000000    0.00000000
     atom    3 type  2   force =     0.00000000    0.00000000    0.00000000
     atom    4 type  2   force =     0.00000000    0.00000000    0.00000000
     atom    5 type  2   force =     0.00000000    0.00000000    0.00000000
     atom    6 type  2   force =     0.00000000    0.00000000    0.00000000
     The SCF correction term to forces
     atom    1 type  1   force =     0.00000000    0.00000000   -0.00000000
     atom    2 type  1   force =     0.00000000   -0.00000000   -0.00000000
     atom    3 type  2   force =    -0.00023681   -0.00023681    0.00000000
     atom    4 type  2   force =     0.00023681    0.00023681   -0.00000000
     atom    5 type  2   force =    -0.00023681    0.00023681    0.00000000
     atom    6 type  2   force =     0.00023681   -0.00023681    0.00000000

     Total force =     0.050897     Total SCF correction =     0.000670


     Computing stress (Cartesian axis) and pressure

     Message from routine stres:
     noncollinear stress + GGA not implemented

     Writing output data file CsIsalt.save/
 
     init_run     :     61.71s CPU     96.28s WALL (       1 calls)
     electrons    :   1495.65s CPU   2139.72s WALL (       1 calls)
     forces       :     14.07s CPU     19.52s WALL (       1 calls)

     Called by init_run:
     wfcinit      :     59.56s CPU     93.23s WALL (       1 calls)
     wfcinit:atom :      0.29s CPU      0.32s WALL (      75 calls)
     wfcinit:wfcr :     57.76s CPU     90.62s WALL (      75 calls)
     potinit      :      0.53s CPU      0.76s WALL (       1 calls)
     hinit0       :      0.50s CPU      0.73s WALL (       1 calls)

     Called by electrons:
     c_bands      :   1218.65s CPU   1695.08s WALL (       7 calls)
     sum_band     :    265.43s CPU    428.12s WALL (       7 calls)
     v_of_rho     :      0.97s CPU      1.42s WALL (       8 calls)
     v_h          :      0.03s CPU      0.03s WALL (       8 calls)
     v_xc         :      1.19s CPU      1.75s WALL (       9 calls)
     newd         :      7.42s CPU      9.93s WALL (       8 calls)
     PAW_pot      :      1.93s CPU      2.71s WALL (       8 calls)
     mix_rho      :      0.95s CPU      1.69s WALL (       7 calls)

     Called by c_bands:
     init_us_2    :      4.93s CPU      6.94s WALL (    1200 calls)
     cegterg      :   1152.22s CPU   1620.27s WALL (     525 calls)

     Called by sum_band:
     sum_band:bec :      6.76s CPU      9.25s WALL (     525 calls)
     addusdens    :      6.30s CPU      7.80s WALL (       7 calls)

     Called by *egterg:
     h_psi        :    894.15s CPU   1243.08s WALL (    2224 calls)
     s_psi        :     18.07s CPU     20.49s WALL (    2224 calls)
     g_psi        :      1.38s CPU      1.42s WALL (    1624 calls)
     cdiaghg      :     59.99s CPU     97.84s WALL (    2149 calls)
     cegterg:over :     92.27s CPU    130.80s WALL (    1624 calls)
     cegterg:upda :     70.40s CPU    104.52s WALL (    1624 calls)
     cegterg:last :     16.18s CPU     23.06s WALL (     525 calls)
     cdiaghg:chol :      4.79s CPU      7.17s WALL (    2149 calls)
     cdiaghg:inve :      2.27s CPU      4.02s WALL (    2149 calls)
     cdiaghg:para :     13.93s CPU     23.23s WALL (    4298 calls)

     Called by h_psi:
     h_psi:pot    :    890.11s CPU   1238.58s WALL (    2224 calls)
     h_psi:calbec :     21.41s CPU     25.20s WALL (    2224 calls)
     vloc_psi     :    849.52s CPU   1191.58s WALL (    2224 calls)
     add_vuspsi   :     19.17s CPU     21.79s WALL (    2224 calls)

     General routines
     calbec       :     35.87s CPU     44.28s WALL (    3049 calls)
     fft          :      2.44s CPU      4.12s WALL (     176 calls)
     ffts         :      0.62s CPU      0.94s WALL (      60 calls)
     fftw         :   1027.51s CPU   1519.56s WALL (  387568 calls)
     interpolate  :      0.90s CPU      1.57s WALL (      32 calls)
 
     Parallel routines
     fft_scatt_xy :     31.35s CPU     38.19s WALL (  387804 calls)
     fft_scatt_yz :    844.36s CPU   1277.57s WALL (  387804 calls)

     PAW routines
     PAW_pot      :      1.93s CPU      2.71s WALL (       8 calls)
     PAW_symme    :      0.04s CPU      0.06s WALL (      15 calls)
 
     PWSCF        :  26m28.06s CPU  38m 4.00s WALL

 
   This run was terminated on:  18:26: 2  24Jan2021            

=------------------------------------------------------------------------------=
   JOB DONE.
=------------------------------------------------------------------------------=
