
     Program PWSCF v.6.4.1 starts on 23Jan2021 at 18:48:29 

     This program is part of the open-source Quantum ESPRESSO suite
     for quantum simulation of materials; please cite
         "P. Giannozzi et al., J. Phys.:Condens. Matter 21 395502 (2009);
         "P. Giannozzi et al., J. Phys.:Condens. Matter 29 465901 (2017);
          URL http://www.quantum-espresso.org", 
     in publications or presentations arising from this work. More details at
     http://www.quantum-espresso.org/quote

     Parallel version (MPI & OpenMP), running on      48 processor cores
     Number of MPI processes:                24
     Threads/MPI process:                     2

     MPI processes distributed on     1 nodes
     R & G space division:  proc/nbgrp/npool/nimage =      24
     Waiting for input...
     Reading input from standard input

     Current dimensions of program PWSCF are:
     Max number of different atomic species (ntypx) = 10
     Max number of k-points (npk) =  40000
     Max angular momentum in pseudopotentials (lmaxx) =  3
               file Sn.rel-pbesol-dn-kjpaw_psl.1.0.0.UPF: wavefunction(s)  5S 5P 5P 4D 4D renormalized
               file I.rel-pbesol-n-kjpaw_psl.1.0.0.UPF: wavefunction(s)  5S renormalized

     Subspace diagonalization in iterative solution of the eigenvalue problem:
     one sub-group per band group will be used
     scalapack distributed-memory algorithm (size of sub-group:  3*  3 procs)

 
     Parallelization info
     --------------------
     sticks:   dense  smooth     PW     G-vecs:    dense   smooth      PW
     Min         538     358     93                45944    24994    3385
     Max         539     359     94                45947    25000    3390
     Sum       12917    8597   2253              1102677   599941   81313
 

     Title: 
     SnI2                                                                       


     bravais-lattice index     =            1
     lattice parameter (alat)  =      14.4199  a.u.
     unit-cell volume          =    2998.4083 (a.u.)^3
     number of atoms/cell      =            6
     number of atomic types    =            2
     number of electrons       =        56.00
     number of Kohn-Sham states=           56
     kinetic-energy cutoff     =     130.0000  Ry
     charge density cutoff     =     780.0000  Ry
     convergence threshold     =      1.0E-06
     mixing beta               =       0.3500
     number of iterations used =            8  plain     mixing
     Exchange-correlation      = SLA PW PSX PSC ( 1  4 10  8 0 0)
     Non magnetic calculation with spin-orbit


     celldm(1)=  14.419945  celldm(2)=   0.000000  celldm(3)=   0.000000
     celldm(4)=   0.000000  celldm(5)=   0.000000  celldm(6)=   0.000000

     crystal axes: (cart. coord. in units of alat)
               a(1) = (   1.000000   0.000000   0.000000 )  
               a(2) = (   0.000000   1.000000   0.000000 )  
               a(3) = (   0.000000   0.000000   1.000000 )  

     reciprocal axes: (cart. coord. in units 2 pi/alat)
               b(1) = (  1.000000  0.000000  0.000000 )  
               b(2) = (  0.000000  1.000000  0.000000 )  
               b(3) = (  0.000000  0.000000  1.000000 )  


     PseudoPot. # 1 for Sn read from file:
     /marconi_scratch/userexternal/cmalosso/degironcoli/pseudo/Sn.rel-pbesol-dn-kjpaw_psl.1.0.0.UPF
     MD5 check sum: e69eff64f15ae39ad43ef58bacbfdf88
     Pseudo is Projector augmented-wave + core cor, Zval = 14.0
     Generated using "atomic" code by A. Dal Corso v.6.3
     Shape of augmentation charge: PSQ
     Using radial grid of 1243 points, 10 beta functions with: 
                l(1) =   0
                l(2) =   0
                l(3) =   1
                l(4) =   1
                l(5) =   1
                l(6) =   1
                l(7) =   2
                l(8) =   2
                l(9) =   2
               l(10) =   2
     Q(r) pseudized with 0 coefficients 


     PseudoPot. # 2 for I  read from file:
     /marconi_scratch/userexternal/cmalosso/degironcoli/pseudo/I.rel-pbesol-n-kjpaw_psl.1.0.0.UPF
     MD5 check sum: 4478c427bd443f303eca1937a163b991
     Pseudo is Projector augmented-wave + core cor, Zval =  7.0
     Generated using "atomic" code by A. Dal Corso v.6.3
     Shape of augmentation charge: PSQ
     Using radial grid of 1247 points, 10 beta functions with: 
                l(1) =   0
                l(2) =   0
                l(3) =   1
                l(4) =   1
                l(5) =   1
                l(6) =   1
                l(7) =   2
                l(8) =   2
                l(9) =   2
               l(10) =   2
     Q(r) pseudized with 0 coefficients 


     atomic species   valence    mass     pseudopotential
        Sn            14.00   118.70000     Sn( 1.00)
        I              7.00   126.90000     I ( 1.00)

     16 Sym. Ops., with inversion, found ( 8 have fractional translation)


                                    s                        frac. trans.

      isym =  1     identity                                     

 cryst.   s( 1) = (     1          0          0      )
                  (     0          1          0      )
                  (     0          0          1      )

 cart.    s( 1) = (  1.0000000  0.0000000  0.0000000 )
                  (  0.0000000  1.0000000  0.0000000 )
                  (  0.0000000  0.0000000  1.0000000 )


      isym =  2     180 deg rotation - cart. axis [0,0,1]        

 cryst.   s( 2) = (    -1          0          0      )
                  (     0         -1          0      )
                  (     0          0          1      )

 cart.    s( 2) = ( -1.0000000  0.0000000  0.0000000 )
                  (  0.0000000 -1.0000000  0.0000000 )
                  (  0.0000000  0.0000000  1.0000000 )


      isym =  3     180 deg rotation - cart. axis [0,1,0]        

 cryst.   s( 3) = (    -1          0          0      )    f =(  0.5000000 )
                  (     0          1          0      )       ( -0.5000000 )
                  (     0          0         -1      )       (  0.5000000 )

 cart.    s( 3) = ( -1.0000000  0.0000000  0.0000000 )    f =(  0.5000000 )
                  (  0.0000000  1.0000000  0.0000000 )       ( -0.5000000 )
                  (  0.0000000  0.0000000 -1.0000000 )       (  0.5000000 )


      isym =  4     180 deg rotation - cart. axis [1,0,0]        

 cryst.   s( 4) = (     1          0          0      )    f =( -0.5000000 )
                  (     0         -1          0      )       (  0.5000000 )
                  (     0          0         -1      )       (  0.5000000 )

 cart.    s( 4) = (  1.0000000  0.0000000  0.0000000 )    f =( -0.5000000 )
                  (  0.0000000 -1.0000000  0.0000000 )       (  0.5000000 )
                  (  0.0000000  0.0000000 -1.0000000 )       (  0.5000000 )


      isym =  5     180 deg rotation - cart. axis [1,1,0]        

 cryst.   s( 5) = (     0          1          0      )
                  (     1          0          0      )
                  (     0          0         -1      )

 cart.    s( 5) = (  0.0000000  1.0000000  0.0000000 )
                  (  1.0000000  0.0000000  0.0000000 )
                  (  0.0000000  0.0000000 -1.0000000 )


      isym =  6     180 deg rotation - cart. axis [1,-1,0]       

 cryst.   s( 6) = (     0         -1          0      )
                  (    -1          0          0      )
                  (     0          0         -1      )

 cart.    s( 6) = (  0.0000000 -1.0000000  0.0000000 )
                  ( -1.0000000  0.0000000  0.0000000 )
                  (  0.0000000  0.0000000 -1.0000000 )


      isym =  7      90 deg rotation - cart. axis [0,0,-1]       

 cryst.   s( 7) = (     0         -1          0      )    f =( -0.5000000 )
                  (     1          0          0      )       (  0.5000000 )
                  (     0          0          1      )       ( -0.5000000 )

 cart.    s( 7) = (  0.0000000  1.0000000  0.0000000 )    f =( -0.5000000 )
                  ( -1.0000000  0.0000000  0.0000000 )       (  0.5000000 )
                  (  0.0000000  0.0000000  1.0000000 )       ( -0.5000000 )


      isym =  8      90 deg rotation - cart. axis [0,0,1]        

 cryst.   s( 8) = (     0          1          0      )    f =(  0.5000000 )
                  (    -1          0          0      )       ( -0.5000000 )
                  (     0          0          1      )       ( -0.5000000 )

 cart.    s( 8) = (  0.0000000 -1.0000000  0.0000000 )    f =(  0.5000000 )
                  (  1.0000000  0.0000000  0.0000000 )       ( -0.5000000 )
                  (  0.0000000  0.0000000  1.0000000 )       ( -0.5000000 )


      isym =  9     inversion                                    

 cryst.   s( 9) = (    -1          0          0      )
                  (     0         -1          0      )
                  (     0          0         -1      )

 cart.    s( 9) = ( -1.0000000  0.0000000  0.0000000 )
                  (  0.0000000 -1.0000000  0.0000000 )
                  (  0.0000000  0.0000000 -1.0000000 )


      isym = 10     inv. 180 deg rotation - cart. axis [0,0,1]   

 cryst.   s(10) = (     1          0          0      )
                  (     0          1          0      )
                  (     0          0         -1      )

 cart.    s(10) = (  1.0000000  0.0000000  0.0000000 )
                  (  0.0000000  1.0000000  0.0000000 )
                  (  0.0000000  0.0000000 -1.0000000 )


      isym = 11     inv. 180 deg rotation - cart. axis [0,1,0]   

 cryst.   s(11) = (     1          0          0      )    f =( -0.5000000 )
                  (     0         -1          0      )       (  0.5000000 )
                  (     0          0          1      )       ( -0.5000000 )

 cart.    s(11) = (  1.0000000  0.0000000  0.0000000 )    f =( -0.5000000 )
                  (  0.0000000 -1.0000000  0.0000000 )       (  0.5000000 )
                  (  0.0000000  0.0000000  1.0000000 )       ( -0.5000000 )


      isym = 12     inv. 180 deg rotation - cart. axis [1,0,0]   

 cryst.   s(12) = (    -1          0          0      )    f =(  0.5000000 )
                  (     0          1          0      )       ( -0.5000000 )
                  (     0          0          1      )       ( -0.5000000 )

 cart.    s(12) = ( -1.0000000  0.0000000  0.0000000 )    f =(  0.5000000 )
                  (  0.0000000  1.0000000  0.0000000 )       ( -0.5000000 )
                  (  0.0000000  0.0000000  1.0000000 )       ( -0.5000000 )


      isym = 13     inv. 180 deg rotation - cart. axis [1,1,0]   

 cryst.   s(13) = (     0         -1          0      )
                  (    -1          0          0      )
                  (     0          0          1      )

 cart.    s(13) = (  0.0000000 -1.0000000  0.0000000 )
                  ( -1.0000000  0.0000000  0.0000000 )
                  (  0.0000000  0.0000000  1.0000000 )


      isym = 14     inv. 180 deg rotation - cart. axis [1,-1,0]  

 cryst.   s(14) = (     0          1          0      )
                  (     1          0          0      )
                  (     0          0          1      )

 cart.    s(14) = (  0.0000000  1.0000000  0.0000000 )
                  (  1.0000000  0.0000000  0.0000000 )
                  (  0.0000000  0.0000000  1.0000000 )


      isym = 15     inv.  90 deg rotation - cart. axis [0,0,-1]  

 cryst.   s(15) = (     0          1          0      )    f =(  0.5000000 )
                  (    -1          0          0      )       ( -0.5000000 )
                  (     0          0         -1      )       (  0.5000000 )

 cart.    s(15) = (  0.0000000 -1.0000000  0.0000000 )    f =(  0.5000000 )
                  (  1.0000000  0.0000000  0.0000000 )       ( -0.5000000 )
                  (  0.0000000  0.0000000 -1.0000000 )       (  0.5000000 )


      isym = 16     inv.  90 deg rotation - cart. axis [0,0,1]   

 cryst.   s(16) = (     0         -1          0      )    f =( -0.5000000 )
                  (     1          0          0      )       (  0.5000000 )
                  (     0          0         -1      )       (  0.5000000 )

 cart.    s(16) = (  0.0000000  1.0000000  0.0000000 )    f =( -0.5000000 )
                  ( -1.0000000  0.0000000  0.0000000 )       (  0.5000000 )
                  (  0.0000000  0.0000000 -1.0000000 )       (  0.5000000 )


     double point group D_4h(4/mmm)
     there are 14 classes and  4 irreducible representations
     the character table:

       E     -E    2C4   -2C4   C2    2C2' 2C2'' i     -i    2S4   -2S4   s_h 
                               -C2   -2C2' -2C2'                         -s_h 
G_6+   2.00 -2.00  1.41 -1.41  0.00  0.00  0.00  2.00 -2.00  1.41 -1.41  0.00
G_7+   2.00 -2.00 -1.41  1.41  0.00  0.00  0.00  2.00 -2.00 -1.41  1.41  0.00
G_6-   2.00 -2.00  1.41 -1.41  0.00  0.00  0.00 -2.00  2.00 -1.41  1.41  0.00
G_7-   2.00 -2.00 -1.41  1.41  0.00  0.00  0.00 -2.00  2.00  1.41 -1.41  0.00

        2s_v  2s_d
       -2s_v -2s_d
G_6+   0.00  0.00
G_7+   0.00  0.00
G_6-   0.00  0.00
G_7-   0.00  0.00

     the symmetry operations in each class and the name of the first element:

     E             1
          identity                                               
     -E           -1
          identity E                                             
     2C4           7    8
           90 deg rotation - cart. axis [0,0,-1]                 
     -2C4         -7   -8
           90 deg rotation - cart. axis [0,0,-1] E               
      C2  -C2      2   -2
          180 deg rotation - cart. axis [0,0,1]                  
      2C2'-2C2'    3   -3    4   -4
          180 deg rotation - cart. axis [0,1,0]                  
     2C2''-2C2'    5   -5   -6    6
          180 deg rotation - cart. axis [1,1,0]                  
     i             9
          inversion                                              
     -i           -9
          inversion E                                            
     2S4          15   16
          inv.  90 deg rotation - cart. axis [0,0,-1]            
     -2S4        -15  -16
          inv.  90 deg rotation - cart. axis [0,0,-1] E          
      s_h -s_h    10  -10
          inv. 180 deg rotation - cart. axis [0,0,1]             
      2s_v-2s_v   11  -11   12  -12
          inv. 180 deg rotation - cart. axis [0,1,0]             
      2s_d-2s_d   13  -13  -14   14
          inv. 180 deg rotation - cart. axis [1,1,0]             

   Cartesian axes

     site n.     atom                  positions (alat units)
         1           Sn  tau(   1) = (   0.0000000   0.0000000   0.0000000  )
         2           Sn  tau(   2) = (   0.5000000   0.5000000   0.5000000  )
         3           I   tau(   3) = (   0.2985210   0.2985210   0.0000000  )
         4           I   tau(   4) = (   0.7014790   0.7014790   0.0000000  )
         5           I   tau(   5) = (   0.7985210   0.2014790   0.5000000  )
         6           I   tau(   6) = (   0.2014790   0.7985210   0.5000000  )

   Crystallographic axes

     site n.     atom                  positions (cryst. coord.)
         1           Sn  tau(   1) = (  0.0000000  0.0000000  0.0000000  )
         2           Sn  tau(   2) = (  0.5000000  0.5000000  0.5000000  )
         3           I   tau(   3) = (  0.2985210  0.2985210  0.0000000  )
         4           I   tau(   4) = (  0.7014790  0.7014790  0.0000000  )
         5           I   tau(   5) = (  0.7985210  0.2014790  0.5000000  )
         6           I   tau(   6) = (  0.2014790  0.7985210  0.5000000  )

     number of k points=    18
                       cart. coord. in units 2pi/alat
        k(    1) = (   0.0833333   0.0833333   0.0833333), wk =   0.0370370
        k(    2) = (   0.0833333   0.0833333   0.2500000), wk =   0.0370370
        k(    3) = (   0.0833333   0.0833333   0.4166667), wk =   0.0370370
        k(    4) = (   0.0833333   0.2500000   0.2500000), wk =   0.0740741
        k(    5) = (   0.0833333   0.2500000   0.4166667), wk =   0.0740741
        k(    6) = (   0.0833333   0.4166667   0.4166667), wk =   0.0740741
        k(    7) = (   0.2500000   0.2500000   0.2500000), wk =   0.0370370
        k(    8) = (   0.2500000   0.2500000   0.4166667), wk =   0.0370370
        k(    9) = (   0.2500000   0.4166667   0.4166667), wk =   0.0740741
        k(   10) = (   0.4166667   0.4166667   0.4166667), wk =   0.0370370
        k(   11) = (   0.0833333   0.2500000   0.0833333), wk =   0.0740741
        k(   12) = (   0.0833333   0.4166667   0.0833333), wk =   0.0740741
        k(   13) = (   0.2500000   0.2500000   0.0833333), wk =   0.0370370
        k(   14) = (   0.2500000   0.4166667   0.0833333), wk =   0.0740741
        k(   15) = (   0.4166667   0.0833333   0.2500000), wk =   0.0740741
        k(   16) = (   0.4166667   0.4166667   0.0833333), wk =   0.0370370
        k(   17) = (   0.2500000   0.4166667   0.2500000), wk =   0.0740741
        k(   18) = (   0.4166667   0.4166667   0.2500000), wk =   0.0370370

                       cryst. coord.
        k(    1) = (   0.0833333   0.0833333   0.0833333), wk =   0.0370370
        k(    2) = (   0.0833333   0.0833333   0.2500000), wk =   0.0370370
        k(    3) = (   0.0833333   0.0833333   0.4166667), wk =   0.0370370
        k(    4) = (   0.0833333   0.2500000   0.2500000), wk =   0.0740741
        k(    5) = (   0.0833333   0.2500000   0.4166667), wk =   0.0740741
        k(    6) = (   0.0833333   0.4166667   0.4166667), wk =   0.0740741
        k(    7) = (   0.2500000   0.2500000   0.2500000), wk =   0.0370370
        k(    8) = (   0.2500000   0.2500000   0.4166667), wk =   0.0370370
        k(    9) = (   0.2500000   0.4166667   0.4166667), wk =   0.0740741
        k(   10) = (   0.4166667   0.4166667   0.4166667), wk =   0.0370370
        k(   11) = (   0.0833333   0.2500000   0.0833333), wk =   0.0740741
        k(   12) = (   0.0833333   0.4166667   0.0833333), wk =   0.0740741
        k(   13) = (   0.2500000   0.2500000   0.0833333), wk =   0.0370370
        k(   14) = (   0.2500000   0.4166667   0.0833333), wk =   0.0740741
        k(   15) = (   0.4166667   0.0833333   0.2500000), wk =   0.0740741
        k(   16) = (   0.4166667   0.4166667   0.0833333), wk =   0.0370370
        k(   17) = (   0.2500000   0.4166667   0.2500000), wk =   0.0740741
        k(   18) = (   0.4166667   0.4166667   0.2500000), wk =   0.0370370

     Dense  grid:  1102677 G-vectors     FFT dimensions: ( 144, 144, 144)

     Smooth grid:   599941 G-vectors     FFT dimensions: ( 108, 108, 108)

     Dynamical RAM for                 wfc:       5.34 MB

     Dynamical RAM for     wfc (w. buffer):     101.54 MB

     Dynamical RAM for           str. fact:       1.40 MB

     Dynamical RAM for           local pot:       0.00 MB

     Dynamical RAM for          nlocal pot:       9.73 MB

     Dynamical RAM for                qrad:      26.91 MB

     Dynamical RAM for          rho,v,vnew:      19.80 MB

     Dynamical RAM for               rhoin:       6.60 MB

     Dynamical RAM for            rho*nmix:      44.87 MB

     Dynamical RAM for           G-vectors:       2.82 MB

     Dynamical RAM for          h,s,v(r/c):       0.25 MB

     Dynamical RAM for          <psi|beta>:       0.35 MB

     Dynamical RAM for                 psi:      21.38 MB

     Dynamical RAM for                hpsi:      21.38 MB

     Dynamical RAM for                spsi:      21.38 MB

     Dynamical RAM for      wfcinit/wfcrot:       9.84 MB

     Dynamical RAM for           addusdens:     430.46 MB

     Dynamical RAM for          addusforce:     439.31 MB

     Dynamical RAM for         addusstress:     440.28 MB

     Estimated static dynamical RAM per process >     223.37 MB

     Estimated max dynamical RAM per process >     663.65 MB

     Estimated total dynamical RAM >      15.55 GB

     Initial potential from superposition of free atoms

     starting charge   55.99771, renormalised to   56.00000
     Starting wfcs are   68 randomized atomic wfcs
     Checking if some PAW data can be deallocated... 
       PAW data deallocated on   16 nodes for type:  1
       PAW data deallocated on    8 nodes for type:  2

     total cpu time spent up to now is       58.1 secs

     Self-consistent Calculation

     iteration #  1     ecut=   130.00 Ry     beta= 0.35
     Davidson diagonalization with overlap
     ethr =  1.00E-02,  avg # of iterations =  1.0

     total cpu time spent up to now is      180.0 secs

     total energy              =   -2370.83449509 Ry
     Harris-Foulkes estimate   =   -2371.11986368 Ry
     estimated scf accuracy    <       0.58984353 Ry

     iteration #  2     ecut=   130.00 Ry     beta= 0.35
     Davidson diagonalization with overlap
     ethr =  1.05E-03,  avg # of iterations =  3.0

     total cpu time spent up to now is      334.1 secs

     total energy              =   -2370.93849682 Ry
     Harris-Foulkes estimate   =   -2370.94948318 Ry
     estimated scf accuracy    <       0.04067725 Ry

     iteration #  3     ecut=   130.00 Ry     beta= 0.35
     Davidson diagonalization with overlap
     ethr =  7.26E-05,  avg # of iterations =  3.4

     total cpu time spent up to now is      486.8 secs

     total energy              =   -2370.94233431 Ry
     Harris-Foulkes estimate   =   -2370.94463578 Ry
     estimated scf accuracy    <       0.00910336 Ry

     iteration #  4     ecut=   130.00 Ry     beta= 0.35
     Davidson diagonalization with overlap
     ethr =  1.63E-05,  avg # of iterations =  3.1

     total cpu time spent up to now is      640.4 secs

     total energy              =   -2370.94356932 Ry
     Harris-Foulkes estimate   =   -2370.94352087 Ry
     estimated scf accuracy    <       0.00058081 Ry

     iteration #  5     ecut=   130.00 Ry     beta= 0.35
     Davidson diagonalization with overlap
     ethr =  1.04E-06,  avg # of iterations =  4.9

     total cpu time spent up to now is      819.4 secs

     total energy              =   -2370.94373686 Ry
     Harris-Foulkes estimate   =   -2370.94377236 Ry
     estimated scf accuracy    <       0.00008094 Ry

     iteration #  6     ecut=   130.00 Ry     beta= 0.35
     Davidson diagonalization with overlap
     ethr =  1.45E-07,  avg # of iterations =  3.4

     total cpu time spent up to now is      973.9 secs

     total energy              =   -2370.94375948 Ry
     Harris-Foulkes estimate   =   -2370.94375216 Ry
     estimated scf accuracy    <       0.00000932 Ry

     iteration #  7     ecut=   130.00 Ry     beta= 0.35
     Davidson diagonalization with overlap
     ethr =  1.66E-08,  avg # of iterations =  2.3

     total cpu time spent up to now is     1126.0 secs

     End of self-consistent calculation

          k = 0.0833 0.0833 0.0833 ( 75010 PWs)   bands (ev):

   -23.2753 -23.2753 -23.2753 -23.2753 -23.1429 -23.1429 -23.1429 -23.1429
   -22.2556 -22.2556 -22.2556 -22.2556 -22.1404 -22.1404 -22.1404 -22.1404
   -22.0867 -22.0867 -22.0866 -22.0866 -11.6253 -11.6253 -11.5348 -11.5348
   -11.4852 -11.4852 -11.4809 -11.4809  -7.0750  -7.0750  -6.8757  -6.8757
    -2.6892  -2.6892  -2.5275  -2.5275  -2.1414  -2.1414  -2.0304  -2.0304
    -1.8829  -1.8829  -1.5312  -1.5312  -1.2279  -1.2279  -1.1347  -1.1347
    -1.1098  -1.1098  -0.9974  -0.9974  -0.9257  -0.9257  -0.8853  -0.8853

     occupation numbers 
     1.0000   1.0000   1.0000   1.0000   1.0000   1.0000   1.0000   1.0000
     1.0000   1.0000   1.0000   1.0000   1.0000   1.0000   1.0000   1.0000
     1.0000   1.0000   1.0000   1.0000   1.0000   1.0000   1.0000   1.0000
     1.0000   1.0000   1.0000   1.0000   1.0000   1.0000   1.0000   1.0000
     1.0000   1.0000   1.0000   1.0000   1.0000   1.0000   1.0000   1.0000
     1.0000   1.0000   1.0000   1.0000   1.0000   1.0000   1.0000   1.0000
     1.0000   1.0000   1.0000   1.0000   1.0000   1.0000   1.0000   1.0000

          k = 0.0833 0.0833 0.2500 ( 75025 PWs)   bands (ev):

   -23.2753 -23.2753 -23.2753 -23.2753 -23.1429 -23.1429 -23.1429 -23.1429
   -22.2556 -22.2556 -22.2556 -22.2556 -22.1404 -22.1404 -22.1404 -22.1404
   -22.0867 -22.0867 -22.0866 -22.0866 -11.6130 -11.6130 -11.5466 -11.5466
   -11.4851 -11.4851 -11.4807 -11.4807  -7.0550  -7.0550  -6.9094  -6.9094
    -2.6764  -2.6764  -2.5248  -2.5248  -2.1301  -2.1301  -2.0088  -2.0088
    -1.8574  -1.8574  -1.5557  -1.5557  -1.2256  -1.2256  -1.1758  -1.1758
    -1.1332  -1.1332  -1.0253  -1.0253  -0.9361  -0.9361  -0.8987  -0.8987

     occupation numbers 
     1.0000   1.0000   1.0000   1.0000   1.0000   1.0000   1.0000   1.0000
     1.0000   1.0000   1.0000   1.0000   1.0000   1.0000   1.0000   1.0000
     1.0000   1.0000   1.0000   1.0000   1.0000   1.0000   1.0000   1.0000
     1.0000   1.0000   1.0000   1.0000   1.0000   1.0000   1.0000   1.0000
     1.0000   1.0000   1.0000   1.0000   1.0000   1.0000   1.0000   1.0000
     1.0000   1.0000   1.0000   1.0000   1.0000   1.0000   1.0000   1.0000
     1.0000   1.0000   1.0000   1.0000   1.0000   1.0000   1.0000   1.0000

          k = 0.0833 0.0833 0.4167 ( 75071 PWs)   bands (ev):

   -23.2753 -23.2753 -23.2753 -23.2753 -23.1429 -23.1429 -23.1429 -23.1429
   -22.2556 -22.2556 -22.2556 -22.2556 -22.1404 -22.1404 -22.1404 -22.1404
   -22.0867 -22.0867 -22.0867 -22.0867 -11.5918 -11.5918 -11.5672 -11.5672
   -11.4851 -11.4851 -11.4805 -11.4805  -7.0157  -7.0157  -6.9623  -6.9623
    -2.6642  -2.6642  -2.5208  -2.5208  -2.1289  -2.1289  -1.9914  -1.9914
    -1.7909  -1.7909  -1.6125  -1.6125  -1.2244  -1.2244  -1.2046  -1.2046
    -1.1369  -1.1369  -1.0601  -1.0601  -0.9631  -0.9631  -0.9127  -0.9127

     occupation numbers 
     1.0000   1.0000   1.0000   1.0000   1.0000   1.0000   1.0000   1.0000
     1.0000   1.0000   1.0000   1.0000   1.0000   1.0000   1.0000   1.0000
     1.0000   1.0000   1.0000   1.0000   1.0000   1.0000   1.0000   1.0000
     1.0000   1.0000   1.0000   1.0000   1.0000   1.0000   1.0000   1.0000
     1.0000   1.0000   1.0000   1.0000   1.0000   1.0000   1.0000   1.0000
     1.0000   1.0000   1.0000   1.0000   1.0000   1.0000   1.0000   1.0000
     1.0000   1.0000   1.0000   1.0000   1.0000   1.0000   1.0000   1.0000

          k = 0.0833 0.2500 0.2500 ( 75046 PWs)   bands (ev):

   -23.2753 -23.2753 -23.2753 -23.2753 -23.1429 -23.1429 -23.1429 -23.1429
   -22.2556 -22.2556 -22.2556 -22.2556 -22.1404 -22.1404 -22.1404 -22.1404
   -22.0867 -22.0867 -22.0867 -22.0867 -11.5980 -11.5980 -11.5418 -11.5418
   -11.4996 -11.4996 -11.4868 -11.4868  -7.0319  -7.0319  -6.9246  -6.9246
    -2.8236  -2.8236  -2.6496  -2.6496  -2.1001  -2.1001  -1.9427  -1.9427
    -1.8154  -1.8154  -1.5776  -1.5776  -1.2511  -1.2511  -1.1835  -1.1835
    -1.0539  -1.0539  -0.9654  -0.9654  -0.9006  -0.9006  -0.7166  -0.7166

     occupation numbers 
     1.0000   1.0000   1.0000   1.0000   1.0000   1.0000   1.0000   1.0000
     1.0000   1.0000   1.0000   1.0000   1.0000   1.0000   1.0000   1.0000
     1.0000   1.0000   1.0000   1.0000   1.0000   1.0000   1.0000   1.0000
     1.0000   1.0000   1.0000   1.0000   1.0000   1.0000   1.0000   1.0000
     1.0000   1.0000   1.0000   1.0000   1.0000   1.0000   1.0000   1.0000
     1.0000   1.0000   1.0000   1.0000   1.0000   1.0000   1.0000   1.0000
     1.0000   1.0000   1.0000   1.0000   1.0000   1.0000   1.0000   1.0000

          k = 0.0833 0.2500 0.4167 ( 75071 PWs)   bands (ev):

   -23.2753 -23.2753 -23.2753 -23.2753 -23.1429 -23.1429 -23.1429 -23.1429
   -22.2556 -22.2556 -22.2556 -22.2556 -22.1404 -22.1404 -22.1404 -22.1404
   -22.0867 -22.0867 -22.0867 -22.0867 -11.5805 -11.5805 -11.5575 -11.5575
   -11.4995 -11.4995 -11.4877 -11.4877  -7.0051  -7.0051  -6.9645  -6.9645
    -2.8362  -2.8362  -2.6535  -2.6535  -2.0663  -2.0663  -1.8882  -1.8882
    -1.8358  -1.8358  -1.5856  -1.5856  -1.2581  -1.2581  -1.1793  -1.1793
    -1.0693  -1.0693  -0.9814  -0.9814  -0.8939  -0.8939  -0.7159  -0.7159

     occupation numbers 
     1.0000   1.0000   1.0000   1.0000   1.0000   1.0000   1.0000   1.0000
     1.0000   1.0000   1.0000   1.0000   1.0000   1.0000   1.0000   1.0000
     1.0000   1.0000   1.0000   1.0000   1.0000   1.0000   1.0000   1.0000
     1.0000   1.0000   1.0000   1.0000   1.0000   1.0000   1.0000   1.0000
     1.0000   1.0000   1.0000   1.0000   1.0000   1.0000   1.0000   1.0000
     1.0000   1.0000   1.0000   1.0000   1.0000   1.0000   1.0000   1.0000
     1.0000   1.0000   1.0000   1.0000   1.0000   1.0000   1.0000   1.0000

          k = 0.0833 0.4167 0.4167 ( 75088 PWs)   bands (ev):

   -23.2753 -23.2753 -23.2753 -23.2753 -23.1429 -23.1429 -23.1429 -23.1429
   -22.2556 -22.2556 -22.2556 -22.2556 -22.1404 -22.1404 -22.1404 -22.1404
   -22.0867 -22.0867 -22.0867 -22.0867 -11.5617 -11.5617 -11.5486 -11.5486
   -11.5126 -11.5126 -11.5030 -11.5030  -6.9888  -6.9888  -6.9724  -6.9724
    -2.9034  -2.9034  -2.8266  -2.8266  -2.0211  -2.0211  -1.9111  -1.9111
    -1.7872  -1.7872  -1.5875  -1.5875  -1.2455  -1.2455  -1.1990  -1.1990
    -0.9700  -0.9700  -0.9367  -0.9367  -0.7197  -0.7197  -0.5768  -0.5768

     occupation numbers 
     1.0000   1.0000   1.0000   1.0000   1.0000   1.0000   1.0000   1.0000
     1.0000   1.0000   1.0000   1.0000   1.0000   1.0000   1.0000   1.0000
     1.0000   1.0000   1.0000   1.0000   1.0000   1.0000   1.0000   1.0000
     1.0000   1.0000   1.0000   1.0000   1.0000   1.0000   1.0000   1.0000
     1.0000   1.0000   1.0000   1.0000   1.0000   1.0000   1.0000   1.0000
     1.0000   1.0000   1.0000   1.0000   1.0000   1.0000   1.0000   1.0000
     1.0000   1.0000   1.0000   1.0000   1.0000   1.0000   1.0000   1.0000

          k = 0.2500 0.2500 0.2500 ( 75111 PWs)   bands (ev):

   -23.2753 -23.2753 -23.2753 -23.2753 -23.1429 -23.1429 -23.1429 -23.1429
   -22.2556 -22.2556 -22.2556 -22.2556 -22.1404 -22.1404 -22.1404 -22.1404
   -22.0867 -22.0867 -22.0867 -22.0867 -11.5895 -11.5895 -11.5417 -11.5417
   -11.5088 -11.5088 -11.4857 -11.4857  -7.0219  -7.0219  -6.9414  -6.9414
    -2.8819  -2.8819  -2.5368  -2.5368  -2.0974  -2.0974  -1.9283  -1.9283
    -1.8741  -1.8741  -1.6051  -1.6051  -1.2972  -1.2972  -1.2298  -1.2298
    -1.1230  -1.1230  -0.9350  -0.9350  -0.8799  -0.8799  -0.5900  -0.5900

     occupation numbers 
     1.0000   1.0000   1.0000   1.0000   1.0000   1.0000   1.0000   1.0000
     1.0000   1.0000   1.0000   1.0000   1.0000   1.0000   1.0000   1.0000
     1.0000   1.0000   1.0000   1.0000   1.0000   1.0000   1.0000   1.0000
     1.0000   1.0000   1.0000   1.0000   1.0000   1.0000   1.0000   1.0000
     1.0000   1.0000   1.0000   1.0000   1.0000   1.0000   1.0000   1.0000
     1.0000   1.0000   1.0000   1.0000   1.0000   1.0000   1.0000   1.0000
     1.0000   1.0000   1.0000   1.0000   1.0000   1.0000   1.0000   1.0000

          k = 0.2500 0.2500 0.4167 ( 75055 PWs)   bands (ev):

   -23.2753 -23.2753 -23.2753 -23.2753 -23.1429 -23.1429 -23.1429 -23.1429
   -22.2556 -22.2556 -22.2556 -22.2556 -22.1404 -22.1404 -22.1404 -22.1404
   -22.0867 -22.0867 -22.0867 -22.0867 -11.5783 -11.5783 -11.5489 -11.5489
   -11.5118 -11.5118 -11.4855 -11.4855  -7.0060  -7.0060  -6.9705  -6.9705
    -2.8997  -2.8997  -2.5221  -2.5221  -2.1182  -2.1182  -1.8889  -1.8889
    -1.8750  -1.8750  -1.5845  -1.5845  -1.3096  -1.3096  -1.2080  -1.2080
    -1.1225  -1.1225  -0.9293  -0.9293  -0.8697  -0.8697  -0.5795  -0.5795

     occupation numbers 
     1.0000   1.0000   1.0000   1.0000   1.0000   1.0000   1.0000   1.0000
     1.0000   1.0000   1.0000   1.0000   1.0000   1.0000   1.0000   1.0000
     1.0000   1.0000   1.0000   1.0000   1.0000   1.0000   1.0000   1.0000
     1.0000   1.0000   1.0000   1.0000   1.0000   1.0000   1.0000   1.0000
     1.0000   1.0000   1.0000   1.0000   1.0000   1.0000   1.0000   1.0000
     1.0000   1.0000   1.0000   1.0000   1.0000   1.0000   1.0000   1.0000
     1.0000   1.0000   1.0000   1.0000   1.0000   1.0000   1.0000   1.0000

          k = 0.2500 0.4167 0.4167 ( 75078 PWs)   bands (ev):

   -23.2753 -23.2753 -23.2753 -23.2753 -23.1429 -23.1429 -23.1429 -23.1429
   -22.2556 -22.2556 -22.2556 -22.2556 -22.1404 -22.1404 -22.1404 -22.1404
   -22.0867 -22.0867 -22.0867 -22.0867 -11.5688 -11.5688 -11.5545 -11.5545
   -11.5072 -11.5072 -11.4934 -11.4934  -6.9995  -6.9995  -6.9842  -6.9842
    -2.8252  -2.8252  -2.6486  -2.6486  -2.0810  -2.0810  -1.9416  -1.9416
    -1.8243  -1.8243  -1.5905  -1.5905  -1.2941  -1.2941  -1.2374  -1.2374
    -1.0311  -1.0311  -0.8998  -0.8998  -0.8335  -0.8335  -0.7235  -0.7235

     occupation numbers 
     1.0000   1.0000   1.0000   1.0000   1.0000   1.0000   1.0000   1.0000
     1.0000   1.0000   1.0000   1.0000   1.0000   1.0000   1.0000   1.0000
     1.0000   1.0000   1.0000   1.0000   1.0000   1.0000   1.0000   1.0000
     1.0000   1.0000   1.0000   1.0000   1.0000   1.0000   1.0000   1.0000
     1.0000   1.0000   1.0000   1.0000   1.0000   1.0000   1.0000   1.0000
     1.0000   1.0000   1.0000   1.0000   1.0000   1.0000   1.0000   1.0000
     1.0000   1.0000   1.0000   1.0000   1.0000   1.0000   1.0000   1.0000

          k = 0.4167 0.4167 0.4167 ( 74970 PWs)   bands (ev):

   -23.2753 -23.2753 -23.2753 -23.2753 -23.1429 -23.1429 -23.1429 -23.1429
   -22.2556 -22.2556 -22.2556 -22.2556 -22.1404 -22.1404 -22.1404 -22.1404
   -22.0867 -22.0867 -22.0867 -22.0867 -11.5704 -11.5704 -11.5647 -11.5647
   -11.4961 -11.4961 -11.4904 -11.4904  -7.0063  -7.0063  -6.9996  -6.9996
    -2.6459  -2.6459  -2.5237  -2.5237  -2.1168  -2.1168  -1.9833  -1.9833
    -1.8687  -1.8687  -1.6656  -1.6656  -1.3341  -1.3341  -1.2827  -1.2827
    -1.0951  -1.0951  -1.0128  -1.0128  -0.8120  -0.8120  -0.7972  -0.7972

     occupation numbers 
     1.0000   1.0000   1.0000   1.0000   1.0000   1.0000   1.0000   1.0000
     1.0000   1.0000   1.0000   1.0000   1.0000   1.0000   1.0000   1.0000
     1.0000   1.0000   1.0000   1.0000   1.0000   1.0000   1.0000   1.0000
     1.0000   1.0000   1.0000   1.0000   1.0000   1.0000   1.0000   1.0000
     1.0000   1.0000   1.0000   1.0000   1.0000   1.0000   1.0000   1.0000
     1.0000   1.0000   1.0000   1.0000   1.0000   1.0000   1.0000   1.0000
     1.0000   1.0000   1.0000   1.0000   1.0000   1.0000   1.0000   1.0000

          k = 0.0833 0.2500 0.0833 ( 75025 PWs)   bands (ev):

   -23.2753 -23.2753 -23.2753 -23.2753 -23.1429 -23.1429 -23.1429 -23.1429
   -22.2556 -22.2556 -22.2556 -22.2556 -22.1404 -22.1404 -22.1404 -22.1404
   -22.0867 -22.0867 -22.0866 -22.0866 -11.6086 -11.6086 -11.5335 -11.5335
   -11.4992 -11.4992 -11.4860 -11.4860  -7.0450  -7.0450  -6.8985  -6.8985
    -2.8081  -2.8081  -2.6446  -2.6446  -2.1571  -2.1571  -1.9729  -1.9729
    -1.8038  -1.8038  -1.5565  -1.5565  -1.2441  -1.2441  -1.1876  -1.1876
    -1.0402  -1.0402  -0.9576  -0.9576  -0.9032  -0.9032  -0.7165  -0.7165

     occupation numbers 
     1.0000   1.0000   1.0000   1.0000   1.0000   1.0000   1.0000   1.0000
     1.0000   1.0000   1.0000   1.0000   1.0000   1.0000   1.0000   1.0000
     1.0000   1.0000   1.0000   1.0000   1.0000   1.0000   1.0000   1.0000
     1.0000   1.0000   1.0000   1.0000   1.0000   1.0000   1.0000   1.0000
     1.0000   1.0000   1.0000   1.0000   1.0000   1.0000   1.0000   1.0000
     1.0000   1.0000   1.0000   1.0000   1.0000   1.0000   1.0000   1.0000
     1.0000   1.0000   1.0000   1.0000   1.0000   1.0000   1.0000   1.0000

          k = 0.0833 0.4167 0.0833 ( 75071 PWs)   bands (ev):

   -23.2753 -23.2753 -23.2753 -23.2753 -23.1429 -23.1429 -23.1429 -23.1429
   -22.2556 -22.2556 -22.2556 -22.2556 -22.1404 -22.1404 -22.1404 -22.1404
   -22.0867 -22.0867 -22.0867 -22.0867 -11.5798 -11.5798 -11.5483 -11.5483
   -11.5045 -11.5045 -11.4957 -11.4957  -6.9950  -6.9950  -6.9411  -6.9411
    -2.8608  -2.8608  -2.7939  -2.7939  -2.1020  -2.1020  -2.0142  -2.0142
    -1.7072  -1.7072  -1.6073  -1.6073  -1.2702  -1.2702  -1.2459  -1.2459
    -0.9985  -0.9985  -0.9500  -0.9500  -0.7257  -0.7257  -0.5977  -0.5977

     occupation numbers 
     1.0000   1.0000   1.0000   1.0000   1.0000   1.0000   1.0000   1.0000
     1.0000   1.0000   1.0000   1.0000   1.0000   1.0000   1.0000   1.0000
     1.0000   1.0000   1.0000   1.0000   1.0000   1.0000   1.0000   1.0000
     1.0000   1.0000   1.0000   1.0000   1.0000   1.0000   1.0000   1.0000
     1.0000   1.0000   1.0000   1.0000   1.0000   1.0000   1.0000   1.0000
     1.0000   1.0000   1.0000   1.0000   1.0000   1.0000   1.0000   1.0000
     1.0000   1.0000   1.0000   1.0000   1.0000   1.0000   1.0000   1.0000

          k = 0.2500 0.2500 0.0833 ( 75046 PWs)   bands (ev):

   -23.2753 -23.2753 -23.2753 -23.2753 -23.1429 -23.1429 -23.1429 -23.1429
   -22.2556 -22.2556 -22.2556 -22.2556 -22.1404 -22.1404 -22.1404 -22.1404
   -22.0867 -22.0867 -22.0867 -22.0867 -11.5976 -11.5976 -11.5381 -11.5381
   -11.5053 -11.5053 -11.4859 -11.4859  -7.0292  -7.0292  -6.9207  -6.9207
    -2.8603  -2.8603  -2.5530  -2.5530  -2.0866  -2.0866  -1.9816  -1.9816
    -1.8704  -1.8704  -1.5882  -1.5882  -1.2966  -1.2966  -1.2510  -1.2510
    -1.1230  -1.1230  -0.9343  -0.9343  -0.8993  -0.8993  -0.5992  -0.5992

     occupation numbers 
     1.0000   1.0000   1.0000   1.0000   1.0000   1.0000   1.0000   1.0000
     1.0000   1.0000   1.0000   1.0000   1.0000   1.0000   1.0000   1.0000
     1.0000   1.0000   1.0000   1.0000   1.0000   1.0000   1.0000   1.0000
     1.0000   1.0000   1.0000   1.0000   1.0000   1.0000   1.0000   1.0000
     1.0000   1.0000   1.0000   1.0000   1.0000   1.0000   1.0000   1.0000
     1.0000   1.0000   1.0000   1.0000   1.0000   1.0000   1.0000   1.0000
     1.0000   1.0000   1.0000   1.0000   1.0000   1.0000   1.0000   1.0000

          k = 0.2500 0.4167 0.0833 ( 75071 PWs)   bands (ev):

   -23.2753 -23.2753 -23.2753 -23.2753 -23.1429 -23.1429 -23.1429 -23.1429
   -22.2556 -22.2556 -22.2556 -22.2556 -22.1404 -22.1404 -22.1404 -22.1404
   -22.0867 -22.0867 -22.0867 -22.0867 -11.5783 -11.5783 -11.5557 -11.5557
   -11.5008 -11.5008 -11.4918 -11.4918  -6.9983  -6.9983  -6.9581  -6.9581
    -2.7912  -2.7912  -2.6407  -2.6407  -2.0666  -2.0666  -2.0085  -2.0085
    -1.7683  -1.7683  -1.6419  -1.6419  -1.3508  -1.3508  -1.3231  -1.3231
    -1.0352  -1.0352  -0.9337  -0.9337  -0.8594  -0.8594  -0.7096  -0.7096

     occupation numbers 
     1.0000   1.0000   1.0000   1.0000   1.0000   1.0000   1.0000   1.0000
     1.0000   1.0000   1.0000   1.0000   1.0000   1.0000   1.0000   1.0000
     1.0000   1.0000   1.0000   1.0000   1.0000   1.0000   1.0000   1.0000
     1.0000   1.0000   1.0000   1.0000   1.0000   1.0000   1.0000   1.0000
     1.0000   1.0000   1.0000   1.0000   1.0000   1.0000   1.0000   1.0000
     1.0000   1.0000   1.0000   1.0000   1.0000   1.0000   1.0000   1.0000
     1.0000   1.0000   1.0000   1.0000   1.0000   1.0000   1.0000   1.0000

          k = 0.4167 0.0833 0.2500 ( 75071 PWs)   bands (ev):

   -23.2753 -23.2753 -23.2753 -23.2753 -23.1429 -23.1429 -23.1429 -23.1429
   -22.2556 -22.2556 -22.2556 -22.2556 -22.1404 -22.1404 -22.1404 -22.1404
   -22.0867 -22.0867 -22.0867 -22.0867 -11.5725 -11.5725 -11.5469 -11.5469
   -11.5088 -11.5088 -11.4989 -11.4989  -6.9942  -6.9942  -6.9545  -6.9545
    -2.8842  -2.8842  -2.8114  -2.8114  -2.0498  -2.0498  -1.9617  -1.9617
    -1.7572  -1.7572  -1.5945  -1.5945  -1.2609  -1.2609  -1.2264  -1.2264
    -1.0000  -1.0000  -0.9285  -0.9285  -0.7265  -0.7265  -0.5901  -0.5901

     occupation numbers 
     1.0000   1.0000   1.0000   1.0000   1.0000   1.0000   1.0000   1.0000
     1.0000   1.0000   1.0000   1.0000   1.0000   1.0000   1.0000   1.0000
     1.0000   1.0000   1.0000   1.0000   1.0000   1.0000   1.0000   1.0000
     1.0000   1.0000   1.0000   1.0000   1.0000   1.0000   1.0000   1.0000
     1.0000   1.0000   1.0000   1.0000   1.0000   1.0000   1.0000   1.0000
     1.0000   1.0000   1.0000   1.0000   1.0000   1.0000   1.0000   1.0000
     1.0000   1.0000   1.0000   1.0000   1.0000   1.0000   1.0000   1.0000

          k = 0.4167 0.4167 0.0833 ( 75088 PWs)   bands (ev):

   -23.2753 -23.2753 -23.2753 -23.2753 -23.1429 -23.1429 -23.1429 -23.1429
   -22.2556 -22.2556 -22.2556 -22.2556 -22.1404 -22.1404 -22.1404 -22.1404
   -22.0867 -22.0867 -22.0867 -22.0867 -11.5738 -11.5738 -11.5656 -11.5656
   -11.4946 -11.4946 -11.4908 -11.4908  -6.9957  -6.9957  -6.9808  -6.9808
    -2.6362  -2.6362  -2.5427  -2.5427  -2.0242  -2.0242  -1.9620  -1.9620
    -1.8502  -1.8502  -1.7241  -1.7241  -1.4118  -1.4118  -1.4022  -1.4022
    -1.1230  -1.1230  -1.0285  -1.0285  -0.8419  -0.8419  -0.8178  -0.8178

     occupation numbers 
     1.0000   1.0000   1.0000   1.0000   1.0000   1.0000   1.0000   1.0000
     1.0000   1.0000   1.0000   1.0000   1.0000   1.0000   1.0000   1.0000
     1.0000   1.0000   1.0000   1.0000   1.0000   1.0000   1.0000   1.0000
     1.0000   1.0000   1.0000   1.0000   1.0000   1.0000   1.0000   1.0000
     1.0000   1.0000   1.0000   1.0000   1.0000   1.0000   1.0000   1.0000
     1.0000   1.0000   1.0000   1.0000   1.0000   1.0000   1.0000   1.0000
     1.0000   1.0000   1.0000   1.0000   1.0000   1.0000   1.0000   1.0000

          k = 0.2500 0.4167 0.2500 ( 75055 PWs)   bands (ev):

   -23.2753 -23.2753 -23.2753 -23.2753 -23.1429 -23.1429 -23.1429 -23.1429
   -22.2556 -22.2556 -22.2556 -22.2556 -22.1404 -22.1404 -22.1404 -22.1404
   -22.0867 -22.0867 -22.0867 -22.0867 -11.5739 -11.5739 -11.5549 -11.5549
   -11.5038 -11.5038 -11.4926 -11.4926  -7.0002  -7.0002  -6.9699  -6.9699
    -2.8098  -2.8098  -2.6449  -2.6449  -2.0675  -2.0675  -1.9632  -1.9632
    -1.8082  -1.8082  -1.6265  -1.6265  -1.3210  -1.3210  -1.2850  -1.2850
    -1.0290  -1.0290  -0.9175  -0.9175  -0.8474  -0.8474  -0.7151  -0.7151

     occupation numbers 
     1.0000   1.0000   1.0000   1.0000   1.0000   1.0000   1.0000   1.0000
     1.0000   1.0000   1.0000   1.0000   1.0000   1.0000   1.0000   1.0000
     1.0000   1.0000   1.0000   1.0000   1.0000   1.0000   1.0000   1.0000
     1.0000   1.0000   1.0000   1.0000   1.0000   1.0000   1.0000   1.0000
     1.0000   1.0000   1.0000   1.0000   1.0000   1.0000   1.0000   1.0000
     1.0000   1.0000   1.0000   1.0000   1.0000   1.0000   1.0000   1.0000
     1.0000   1.0000   1.0000   1.0000   1.0000   1.0000   1.0000   1.0000

          k = 0.4167 0.4167 0.2500 ( 75078 PWs)   bands (ev):

   -23.2753 -23.2753 -23.2753 -23.2753 -23.1429 -23.1429 -23.1429 -23.1429
   -22.2556 -22.2556 -22.2556 -22.2556 -22.1404 -22.1404 -22.1404 -22.1404
   -22.0867 -22.0867 -22.0867 -22.0867 -11.5721 -11.5721 -11.5652 -11.5652
   -11.4954 -11.4954 -11.4906 -11.4906  -7.0014  -7.0014  -6.9899  -6.9899
    -2.6416  -2.6416  -2.5328  -2.5328  -2.0711  -2.0711  -1.9638  -1.9638
    -1.8650  -1.8650  -1.7019  -1.7019  -1.3741  -1.3741  -1.3543  -1.3543
    -1.1000  -1.1000  -1.0102  -1.0102  -0.8278  -0.8278  -0.8111  -0.8111

     occupation numbers 
     1.0000   1.0000   1.0000   1.0000   1.0000   1.0000   1.0000   1.0000
     1.0000   1.0000   1.0000   1.0000   1.0000   1.0000   1.0000   1.0000
     1.0000   1.0000   1.0000   1.0000   1.0000   1.0000   1.0000   1.0000
     1.0000   1.0000   1.0000   1.0000   1.0000   1.0000   1.0000   1.0000
     1.0000   1.0000   1.0000   1.0000   1.0000   1.0000   1.0000   1.0000
     1.0000   1.0000   1.0000   1.0000   1.0000   1.0000   1.0000   1.0000
     1.0000   1.0000   1.0000   1.0000   1.0000   1.0000   1.0000   1.0000

     highest occupied level (ev):    -0.5768

!    total energy              =   -2370.94376137 Ry
     Harris-Foulkes estimate   =   -2370.94376126 Ry
     estimated scf accuracy    <       0.00000043 Ry

     total all-electron energy =    -81634.465967 Ry

     The total energy is the sum of the following terms:

     one-electron contribution =    -248.68533361 Ry
     hartree contribution      =     145.43416511 Ry
     xc contribution           =    -157.08933092 Ry
     ewald contribution        =    -190.25175950 Ry
     one-center paw contrib.   =   -1920.35150245 Ry
      -> PAW hartree energy AE =     107.23060528 Ry
      -> PAW hartree energy PS =    -106.44598687 Ry
      -> PAW xc energy AE      =    -324.23354737 Ry
      -> PAW xc energy PS      =      46.59357024 Ry
      -> total E_H with PAW    =     146.21878352 Ry
      -> total E_XC with PAW   =    -434.72930805 Ry

     convergence has been achieved in   7 iterations

     Forces acting on atoms (cartesian axes, Ry/au):

     atom    1 type  1   force =     0.00000000    0.00000000    0.00000000
     atom    2 type  1   force =     0.00000000    0.00000000    0.00000000
     atom    3 type  2   force =    -0.01800042   -0.01800042    0.00000000
     atom    4 type  2   force =     0.01800042    0.01800042    0.00000000
     atom    5 type  2   force =    -0.01800042    0.01800042    0.00000000
     atom    6 type  2   force =     0.01800042   -0.01800042    0.00000000
     The non-local contrib.  to forces
     atom    1 type  1   force =     0.00000000    0.00000000    0.00000000
     atom    2 type  1   force =     0.00000000    0.00000000   -0.00000000
     atom    3 type  2   force =    -0.04126206   -0.04126206   -0.00000000
     atom    4 type  2   force =     0.04126206    0.04126206   -0.00000000
     atom    5 type  2   force =    -0.04126206    0.04126206   -0.00000000
     atom    6 type  2   force =     0.04126206   -0.04126206   -0.00000000
     The ionic contribution  to forces
     atom    1 type  1   force =    -0.00000000   -0.00000000   -0.00000000
     atom    2 type  1   force =     0.00000000    0.00000000    0.00000000
     atom    3 type  2   force =     1.38633657    1.38633657    0.00000000
     atom    4 type  2   force =    -1.38633657   -1.38633657    0.00000000
     atom    5 type  2   force =     1.38633657   -1.38633657    0.00000000
     atom    6 type  2   force =    -1.38633657    1.38633657    0.00000000
     The local contribution  to forces
     atom    1 type  1   force =     0.00000000    0.00000000    0.00000000
     atom    2 type  1   force =     0.00000000    0.00000000    0.00000000
     atom    3 type  2   force =    -1.36679638   -1.36679638   -0.00000000
     atom    4 type  2   force =     1.36679638    1.36679638   -0.00000000
     atom    5 type  2   force =    -1.36679638    1.36679638    0.00000000
     atom    6 type  2   force =     1.36679638   -1.36679638    0.00000000
     The core correction contribution to forces
     atom    1 type  1   force =     0.00000000    0.00000000    0.00000000
     atom    2 type  1   force =     0.00000000    0.00000000   -0.00000000
     atom    3 type  2   force =     0.00390302    0.00390302    0.00000000
     atom    4 type  2   force =    -0.00390302   -0.00390302    0.00000000
     atom    5 type  2   force =     0.00390302   -0.00390302   -0.00000000
     atom    6 type  2   force =    -0.00390302    0.00390302   -0.00000000
     The Hubbard contrib.    to forces
     atom    1 type  1   force =     0.00000000    0.00000000    0.00000000
     atom    2 type  1   force =     0.00000000    0.00000000    0.00000000
     atom    3 type  2   force =     0.00000000    0.00000000    0.00000000
     atom    4 type  2   force =     0.00000000    0.00000000    0.00000000
     atom    5 type  2   force =     0.00000000    0.00000000    0.00000000
     atom    6 type  2   force =     0.00000000    0.00000000    0.00000000
     The SCF correction term to forces
     atom    1 type  1   force =    -0.00000000   -0.00000000    0.00000000
     atom    2 type  1   force =     0.00000000   -0.00000000   -0.00000000
     atom    3 type  2   force =    -0.00018156   -0.00018156    0.00000000
     atom    4 type  2   force =     0.00018156    0.00018156    0.00000000
     atom    5 type  2   force =    -0.00018156    0.00018156    0.00000000
     atom    6 type  2   force =     0.00018156   -0.00018156    0.00000000

     Total force =     0.050913     Total SCF correction =     0.000514


     Computing stress (Cartesian axis) and pressure

     Message from routine stres:
     noncollinear stress + GGA not implemented

     Writing output data file SnI2.save/
 
     init_run     :     35.48s CPU     52.10s WALL (       1 calls)
     electrons    :    730.06s CPU   1068.07s WALL (       1 calls)
     forces       :      6.84s CPU      8.72s WALL (       1 calls)

     Called by init_run:
     wfcinit      :     32.26s CPU     47.59s WALL (       1 calls)
     wfcinit:atom :      0.13s CPU      0.16s WALL (      18 calls)
     wfcinit:wfcr :     31.48s CPU     46.45s WALL (      18 calls)
     potinit      :      0.86s CPU      1.26s WALL (       1 calls)
     hinit0       :      0.52s CPU      0.75s WALL (       1 calls)

     Called by electrons:
     c_bands      :    550.20s CPU    801.85s WALL (       7 calls)
     sum_band     :    161.74s CPU    240.99s WALL (       7 calls)
     v_of_rho     :      2.87s CPU      4.27s WALL (       8 calls)
     v_h          :      0.18s CPU      0.26s WALL (       8 calls)
     v_xc         :      2.80s CPU      4.15s WALL (       9 calls)
     newd         :     11.64s CPU     15.86s WALL (       8 calls)
     PAW_pot      :      2.21s CPU      3.05s WALL (       8 calls)
     mix_rho      :      1.15s CPU      1.67s WALL (       7 calls)

     Called by c_bands:
     init_us_2    :      1.85s CPU      2.50s WALL (     288 calls)
     cegterg      :    522.57s CPU    771.22s WALL (     126 calls)

     Called by sum_band:
     sum_band:bec :      1.84s CPU      2.37s WALL (     126 calls)
     addusdens    :     10.51s CPU     13.13s WALL (       7 calls)

     Called by *egterg:
     h_psi        :    435.39s CPU    664.12s WALL (     527 calls)
     s_psi        :      6.40s CPU      6.71s WALL (     527 calls)
     g_psi        :      0.54s CPU      0.57s WALL (     383 calls)
     cdiaghg      :     20.36s CPU     29.70s WALL (     509 calls)
     cegterg:over :     34.77s CPU     43.45s WALL (     383 calls)
     cegterg:upda :     26.11s CPU     33.31s WALL (     383 calls)
     cegterg:last :      5.24s CPU      6.37s WALL (     126 calls)
     cdiaghg:chol :      1.71s CPU      2.34s WALL (     509 calls)
     cdiaghg:inve :      0.77s CPU      1.17s WALL (     509 calls)
     cdiaghg:para :      5.28s CPU      7.50s WALL (    1018 calls)

     Called by h_psi:
     h_psi:pot    :    433.99s CPU    662.54s WALL (     527 calls)
     h_psi:calbec :      9.83s CPU     11.02s WALL (     527 calls)
     vloc_psi     :    417.29s CPU    644.33s WALL (     527 calls)
     add_vuspsi   :      6.86s CPU      7.19s WALL (     527 calls)

     General routines
     calbec       :     16.63s CPU     19.16s WALL (     725 calls)
     fft          :      4.60s CPU      6.85s WALL (     176 calls)
     ffts         :      1.41s CPU      2.53s WALL (      60 calls)
     fftw         :    495.47s CPU    793.46s WALL (   93144 calls)
     interpolate  :      1.67s CPU      2.44s WALL (      32 calls)
 
     Parallel routines
     fft_scatt_xy :     19.47s CPU     21.59s WALL (   93380 calls)
     fft_scatt_yz :    389.78s CPU    648.07s WALL (   93380 calls)

     PAW routines
     PAW_pot      :      2.21s CPU      3.05s WALL (       8 calls)
     PAW_symme    :      0.21s CPU      0.27s WALL (      15 calls)
 
     PWSCF        :  13m 1.11s CPU  19m 1.68s WALL

 
   This run was terminated on:  19: 7:30  23Jan2021            

=------------------------------------------------------------------------------=
   JOB DONE.
=------------------------------------------------------------------------------=
