
     Program PWSCF v.6.6 starts on 24Jan2021 at 21:51: 8 

     This program is part of the open-source Quantum ESPRESSO suite
     for quantum simulation of materials; please cite
         "P. Giannozzi et al., J. Phys.:Condens. Matter 21 395502 (2009);
         "P. Giannozzi et al., J. Phys.:Condens. Matter 29 465901 (2017);
          URL http://www.quantum-espresso.org", 
     in publications or presentations arising from this work. More details at
     http://www.quantum-espresso.org/quote

     Parallel version (MPI), running on    64 processors

     MPI processes distributed on     2 nodes
     R & G space division:  proc/nbgrp/npool/nimage =      64
     Fft bands division:     nmany     =       1
     Waiting for input...
     Reading input from standard input

     Current dimensions of program PWSCF are:
     Max number of different atomic species (ntypx) = 10
     Max number of k-points (npk) =  40000
     Max angular momentum in pseudopotentials (lmaxx) =  3
     file Cs.pbesol-spn-rrkjus_psl.1.0.0.UPF: wavefunction(s)  5S 6S renormalized
     file Sn.pbesol-dn-kjpaw_psl.1.0.0.UPF: wavefunction(s)  5S 5P 4D renormalized
     file I.pbesol-n-kjpaw_psl.1.0.0.UPF: wavefunction(s)  5S renormalized

     Subspace diagonalization in iterative solution of the eigenvalue problem:
     a serial algorithm will be used

 
     Parallelization info
     --------------------
     sticks:   dense  smooth     PW     G-vecs:    dense   smooth      PW
     Min         138      92     24                24702    13436    1876
     Max         139      93     26                24717    13446    1889
     Sum        8865    5903   1597              1581291   860245  120505
 

     Title: 
     CsSnI3                                                                     


     bravais-lattice index     =            8
     lattice parameter (alat)  =       9.1317  a.u.
     unit-cell volume          =    6370.5385 (a.u.)^3
     number of atoms/cell      =           20
     number of atomic types    =            3
     number of electrons       =       176.00
     number of Kohn-Sham states=           88
     kinetic-energy cutoff     =     100.0000  Ry
     charge density cutoff     =     600.0000  Ry
     convergence threshold     =      1.0E-06
     mixing beta               =       0.5000
     number of iterations used =            8  plain     mixing
     Exchange-correlation= SLA PW PSX PSC
                           (   1   4  10   8   0   0   0)

     celldm(1)=   9.131705  celldm(2)=   2.227728  celldm(3)=   3.755420
     celldm(4)=   0.000000  celldm(5)=   0.000000  celldm(6)=   0.000000

     crystal axes: (cart. coord. in units of alat)
               a(1) = (   1.000000   0.000000   0.000000 )  
               a(2) = (   0.000000   2.227728   0.000000 )  
               a(3) = (   0.000000   0.000000   3.755420 )  

     reciprocal axes: (cart. coord. in units 2 pi/alat)
               b(1) = (  1.000000  0.000000  0.000000 )  
               b(2) = (  0.000000  0.448888  0.000000 )  
               b(3) = (  0.000000  0.000000  0.266282 )  


     PseudoPot. # 1 for Cs read from file:
     /scratch/gtenti/degironcoli/pseudo/Cs.pbesol-spn-rrkjus_psl.1.0.0.UPF
     MD5 check sum: a505fbb08e6a224ea4404a33e275d1b5
     Pseudo is Ultrasoft + core correction, Zval =  9.0
     Generated using "atomic" code by A. Dal Corso v.6.4.1
     Using radial grid of 1251 points,  9 beta functions with: 
                l(1) =   0
                l(2) =   0
                l(3) =   0
                l(4) =   1
                l(5) =   1
                l(6) =   2
                l(7) =   2
                l(8) =   3
                l(9) =   3
     Q(r) pseudized with 0 coefficients 


     PseudoPot. # 2 for Sn read from file:
     /scratch/gtenti/degironcoli/pseudo/Sn.pbesol-dn-kjpaw_psl.1.0.0.UPF
     MD5 check sum: 3b64f90c238cf26ccb627d174952382c
     Pseudo is Projector augmented-wave + core cor, Zval = 14.0
     Generated using "atomic" code by A. Dal Corso v.6.3
     Shape of augmentation charge: PSQ
     Using radial grid of 1243 points,  6 beta functions with: 
                l(1) =   0
                l(2) =   0
                l(3) =   1
                l(4) =   1
                l(5) =   2
                l(6) =   2
     Q(r) pseudized with 0 coefficients 


     PseudoPot. # 3 for I  read from file:
     /scratch/gtenti/degironcoli/pseudo/I.pbesol-n-kjpaw_psl.1.0.0.UPF
     MD5 check sum: 6038403ff9b03366b27f71806436e734
     Pseudo is Projector augmented-wave + core cor, Zval =  7.0
     Generated using "atomic" code by A. Dal Corso v.6.3
     Shape of augmentation charge: PSQ
     Using radial grid of 1247 points,  6 beta functions with: 
                l(1) =   0
                l(2) =   0
                l(3) =   1
                l(4) =   1
                l(5) =   2
                l(6) =   2
     Q(r) pseudized with 0 coefficients 


     atomic species   valence    mass     pseudopotential
        Cs             9.00   132.90000     Cs( 1.00)
        Sn            14.00   118.70000     Sn( 1.00)
        I              7.00   126.90000     I ( 1.00)

      8 Sym. Ops., with inversion, found ( 6 have fractional translation)


                                    s                        frac. trans.

      isym =  1     identity                                     

 cryst.   s( 1) = (     1          0          0      )
                  (     0          1          0      )
                  (     0          0          1      )

 cart.    s( 1) = (  1.0000000  0.0000000  0.0000000 )
                  (  0.0000000  1.0000000  0.0000000 )
                  (  0.0000000  0.0000000  1.0000000 )


      isym =  2     180 deg rotation - cart. axis [0,0,1]        

 cryst.   s( 2) = (    -1          0          0      )    f =(  0.0000000 )
                  (     0         -1          0      )       (  0.5000000 )
                  (     0          0          1      )       (  0.5000000 )

 cart.    s( 2) = ( -1.0000000  0.0000000  0.0000000 )    f =(  0.0000000 )
                  (  0.0000000 -1.0000000  0.0000000 )       (  1.1138638 )
                  (  0.0000000  0.0000000  1.0000000 )       (  1.8777098 )


      isym =  3     180 deg rotation - cart. axis [0,1,0]        

 cryst.   s( 3) = (    -1          0          0      )    f =(  0.5000000 )
                  (     0          1          0      )       ( -0.5000000 )
                  (     0          0         -1      )       ( -0.5000000 )

 cart.    s( 3) = ( -1.0000000  0.0000000  0.0000000 )    f =(  0.5000000 )
                  (  0.0000000  1.0000000  0.0000000 )       ( -1.1138638 )
                  (  0.0000000  0.0000000 -1.0000000 )       ( -1.8777098 )


      isym =  4     180 deg rotation - cart. axis [1,0,0]        

 cryst.   s( 4) = (     1          0          0      )    f =( -0.5000000 )
                  (     0         -1          0      )       (  0.0000000 )
                  (     0          0         -1      )       (  0.0000000 )

 cart.    s( 4) = (  1.0000000  0.0000000  0.0000000 )    f =( -0.5000000 )
                  (  0.0000000 -1.0000000  0.0000000 )       (  0.0000000 )
                  (  0.0000000  0.0000000 -1.0000000 )       (  0.0000000 )


      isym =  5     inversion                                    

 cryst.   s( 5) = (    -1          0          0      )
                  (     0         -1          0      )
                  (     0          0         -1      )

 cart.    s( 5) = ( -1.0000000  0.0000000  0.0000000 )
                  (  0.0000000 -1.0000000  0.0000000 )
                  (  0.0000000  0.0000000 -1.0000000 )


      isym =  6     inv. 180 deg rotation - cart. axis [0,0,1]   

 cryst.   s( 6) = (     1          0          0      )    f =(  0.0000000 )
                  (     0          1          0      )       ( -0.5000000 )
                  (     0          0         -1      )       ( -0.5000000 )

 cart.    s( 6) = (  1.0000000  0.0000000  0.0000000 )    f =(  0.0000000 )
                  (  0.0000000  1.0000000  0.0000000 )       ( -1.1138638 )
                  (  0.0000000  0.0000000 -1.0000000 )       ( -1.8777098 )


      isym =  7     inv. 180 deg rotation - cart. axis [0,1,0]   

 cryst.   s( 7) = (     1          0          0      )    f =( -0.5000000 )
                  (     0         -1          0      )       (  0.5000000 )
                  (     0          0          1      )       (  0.5000000 )

 cart.    s( 7) = (  1.0000000  0.0000000  0.0000000 )    f =( -0.5000000 )
                  (  0.0000000 -1.0000000  0.0000000 )       (  1.1138638 )
                  (  0.0000000  0.0000000  1.0000000 )       (  1.8777098 )


      isym =  8     inv. 180 deg rotation - cart. axis [1,0,0]   

 cryst.   s( 8) = (    -1          0          0      )    f =(  0.5000000 )
                  (     0          1          0      )       (  0.0000000 )
                  (     0          0          1      )       (  0.0000000 )

 cart.    s( 8) = ( -1.0000000  0.0000000  0.0000000 )    f =(  0.5000000 )
                  (  0.0000000  1.0000000  0.0000000 )       (  0.0000000 )
                  (  0.0000000  0.0000000  1.0000000 )       (  0.0000000 )


     point group D_2h (mmm) 
     there are  8 classes
     the character table:

       E     C2    C2'   C2''  i     s_v   s_v'  s_v''
A_g    1.00  1.00  1.00  1.00  1.00  1.00  1.00  1.00
B_1g   1.00  1.00 -1.00 -1.00  1.00  1.00 -1.00 -1.00
B_2g   1.00 -1.00  1.00 -1.00  1.00 -1.00  1.00 -1.00
B_3g   1.00 -1.00 -1.00  1.00  1.00 -1.00 -1.00  1.00
A_u    1.00  1.00  1.00  1.00 -1.00 -1.00 -1.00 -1.00
B_1u   1.00  1.00 -1.00 -1.00 -1.00 -1.00  1.00  1.00
B_2u   1.00 -1.00  1.00 -1.00 -1.00  1.00 -1.00  1.00
B_3u   1.00 -1.00 -1.00  1.00 -1.00  1.00  1.00 -1.00

     the symmetry operations in each class and the name of the first element:

     E        1
          identity                                               
     C2       2
          180 deg rotation - cart. axis [0,0,1]                  
     C2'      4
          180 deg rotation - cart. axis [1,0,0]                  
     C2''     3
          180 deg rotation - cart. axis [0,1,0]                  
     i        5
          inversion                                              
     s_v      6
          inv. 180 deg rotation - cart. axis [0,0,1]             
     s_v'     8
          inv. 180 deg rotation - cart. axis [1,0,0]             
     s_v''    7
          inv. 180 deg rotation - cart. axis [0,1,0]             

   Cartesian axes

     site n.     atom                  positions (alat units)
         1           Cs  tau(   1) = (   0.2500000   0.1859640   2.5168147  )
         2           Cs  tau(   2) = (   0.7500000   2.0417636   1.2386050  )
         3           Cs  tau(   3) = (   0.2500000   1.2998278   3.1163149  )
         4           Cs  tau(   4) = (   0.7500000   0.9278998   0.6391048  )
         5           Sn  tau(   5) = (   0.2500000   0.7615710   1.6485466  )
         6           Sn  tau(   6) = (   0.7500000   1.4661567   2.1068731  )
         7           Sn  tau(   7) = (   0.2500000   1.8754348   0.2291632  )
         8           Sn  tau(   8) = (   0.7500000   0.3522928   3.5262565  )
         9           I   tau(   9) = (   0.7500000   0.0581437   0.4202578  )
        10           I   tau(  10) = (   0.2500000   2.1695839   3.3351619  )
        11           I   tau(  11) = (   0.7500000   1.1720075   1.4574521  )
        12           I   tau(  12) = (   0.2500000   1.0557201   2.2979676  )
        13           I   tau(  13) = (   0.7500000   0.6531118   2.9738192  )
        14           I   tau(  14) = (   0.2500000   1.5746158   0.7816005  )
        15           I   tau(  15) = (   0.7500000   1.7669756   2.6593103  )
        16           I   tau(  16) = (   0.2500000   0.4607520   1.0961094  )
        17           I   tau(  17) = (   0.7500000   0.3753632   1.8734812  )
        18           I   tau(  18) = (   0.2500000   1.8523644   1.8819384  )
        19           I   tau(  19) = (   0.7500000   1.4892270   0.0042286  )
        20           I   tau(  20) = (   0.2500000   0.7385006   3.7511911  )

   Crystallographic axes

     site n.     atom                  positions (cryst. coord.)
         1           Cs  tau(   1) = (  0.2500000  0.0834770  0.6701820  )
         2           Cs  tau(   2) = (  0.7500000  0.9165230  0.3298180  )
         3           Cs  tau(   3) = (  0.2500000  0.5834770  0.8298180  )
         4           Cs  tau(   4) = (  0.7500000  0.4165230  0.1701820  )
         5           Sn  tau(   5) = (  0.2500000  0.3418600  0.4389780  )
         6           Sn  tau(   6) = (  0.7500000  0.6581400  0.5610220  )
         7           Sn  tau(   7) = (  0.2500000  0.8418600  0.0610220  )
         8           Sn  tau(   8) = (  0.7500000  0.1581400  0.9389780  )
         9           I   tau(   9) = (  0.7500000  0.0261000  0.1119070  )
        10           I   tau(  10) = (  0.2500000  0.9739000  0.8880930  )
        11           I   tau(  11) = (  0.7500000  0.5261000  0.3880930  )
        12           I   tau(  12) = (  0.2500000  0.4739000  0.6119070  )
        13           I   tau(  13) = (  0.7500000  0.2931740  0.7918740  )
        14           I   tau(  14) = (  0.2500000  0.7068260  0.2081260  )
        15           I   tau(  15) = (  0.7500000  0.7931740  0.7081260  )
        16           I   tau(  16) = (  0.2500000  0.2068260  0.2918740  )
        17           I   tau(  17) = (  0.7500000  0.1684960  0.4988740  )
        18           I   tau(  18) = (  0.2500000  0.8315040  0.5011260  )
        19           I   tau(  19) = (  0.7500000  0.6684960  0.0011260  )
        20           I   tau(  20) = (  0.2500000  0.3315040  0.9988740  )

     number of k points=     8
                       cart. coord. in units 2pi/alat
        k(    1) = (   0.0000000   0.0000000   0.0000000), wk =   0.2500000
        k(    2) = (   0.0000000   0.0000000  -0.1331409), wk =   0.2500000
        k(    3) = (   0.0000000  -0.2244440   0.0000000), wk =   0.2500000
        k(    4) = (   0.0000000  -0.2244440  -0.1331409), wk =   0.2500000
        k(    5) = (  -0.5000000   0.0000000   0.0000000), wk =   0.2500000
        k(    6) = (  -0.5000000   0.0000000  -0.1331409), wk =   0.2500000
        k(    7) = (  -0.5000000  -0.2244440   0.0000000), wk =   0.2500000
        k(    8) = (  -0.5000000  -0.2244440  -0.1331409), wk =   0.2500000

                       cryst. coord.
        k(    1) = (   0.0000000   0.0000000   0.0000000), wk =   0.2500000
        k(    2) = (   0.0000000   0.0000000  -0.5000000), wk =   0.2500000
        k(    3) = (   0.0000000  -0.5000000   0.0000000), wk =   0.2500000
        k(    4) = (   0.0000000  -0.5000000  -0.5000000), wk =   0.2500000
        k(    5) = (  -0.5000000   0.0000000   0.0000000), wk =   0.2500000
        k(    6) = (  -0.5000000   0.0000000  -0.5000000), wk =   0.2500000
        k(    7) = (  -0.5000000  -0.5000000   0.0000000), wk =   0.2500000
        k(    8) = (  -0.5000000  -0.5000000  -0.5000000), wk =   0.2500000

     Dense  grid:  1581291 G-vectors     FFT dimensions: (  72, 160, 270)

     Smooth grid:   860245 G-vectors     FFT dimensions: (  60, 144, 240)

     Dynamical RAM for                 wfc:       2.26 MB

     Dynamical RAM for     wfc (w. buffer):      20.30 MB

     Dynamical RAM for           str. fact:       1.13 MB

     Dynamical RAM for           local pot:       0.00 MB

     Dynamical RAM for          nlocal pot:      10.77 MB

     Dynamical RAM for                qrad:      17.69 MB

     Dynamical RAM for          rho,v,vnew:       2.45 MB

     Dynamical RAM for               rhoin:       0.82 MB

     Dynamical RAM for            rho*nmix:       6.03 MB

     Dynamical RAM for           G-vectors:       1.52 MB

     Dynamical RAM for          h,s,v(r/c):       1.42 MB

     Dynamical RAM for          <psi|beta>:       0.56 MB

     Dynamical RAM for                 psi:       4.51 MB

     Dynamical RAM for                hpsi:       4.51 MB

     Dynamical RAM for                spsi:       4.51 MB

     Dynamical RAM for      wfcinit/wfcrot:       5.58 MB

     Dynamical RAM for           addusdens:     226.22 MB

     Dynamical RAM for          addusforce:     234.85 MB

     Dynamical RAM for         addusstress:     231.87 MB

     Estimated static dynamical RAM per process >      64.41 MB

     Estimated max dynamical RAM per process >     299.26 MB

     Estimated total dynamical RAM >      18.70 GB

     Initial potential from superposition of free atoms

     starting charge  175.84071, renormalised to  176.00000
     Starting wfcs are  104 randomized atomic wfcs
     Checking if some PAW data can be deallocated... 
       PAW data deallocated on   52 nodes for type:  2
       PAW data deallocated on   28 nodes for type:  3

     total cpu time spent up to now is       83.0 secs

     Self-consistent Calculation

     iteration #  1     ecut=   100.00 Ry     beta= 0.50
     Davidson diagonalization with overlap
     ethr =  1.00E-02,  avg # of iterations =  1.1

     Threshold (ethr) on eigenvalues was too large:
     Diagonalizing with lowered threshold

     Davidson diagonalization with overlap
     ethr =  2.92E-04,  avg # of iterations =  4.4

     total cpu time spent up to now is      246.2 secs

     total energy              =   -6438.59738360 Ry
     estimated scf accuracy    <       0.41382923 Ry

     iteration #  2     ecut=   100.00 Ry     beta= 0.50
     Davidson diagonalization with overlap
     ethr =  2.35E-04,  avg # of iterations =  4.0

     total cpu time spent up to now is      340.8 secs

     total energy              =   -6438.73756613 Ry
     estimated scf accuracy    <       0.11758764 Ry

     iteration #  3     ecut=   100.00 Ry     beta= 0.50
     Davidson diagonalization with overlap
     ethr =  6.68E-05,  avg # of iterations =  2.0

     total cpu time spent up to now is      424.0 secs

     total energy              =   -6438.75438417 Ry
     estimated scf accuracy    <       0.01172310 Ry

     iteration #  4     ecut=   100.00 Ry     beta= 0.50
     Davidson diagonalization with overlap
     ethr =  6.66E-06,  avg # of iterations =  7.4

     total cpu time spent up to now is      542.2 secs

     total energy              =   -6438.76190490 Ry
     estimated scf accuracy    <       0.01102613 Ry

     iteration #  5     ecut=   100.00 Ry     beta= 0.50
     Davidson diagonalization with overlap
     ethr =  6.26E-06,  avg # of iterations =  5.0

     total cpu time spent up to now is      633.1 secs

     total energy              =   -6438.76471064 Ry
     estimated scf accuracy    <       0.00044475 Ry

     iteration #  6     ecut=   100.00 Ry     beta= 0.50
     Davidson diagonalization with overlap
     ethr =  2.53E-07,  avg # of iterations =  8.1

     total cpu time spent up to now is      752.7 secs

     total energy              =   -6438.76478506 Ry
     estimated scf accuracy    <       0.00090883 Ry

     iteration #  7     ecut=   100.00 Ry     beta= 0.50
     Davidson diagonalization with overlap
     ethr =  2.53E-07,  avg # of iterations =  5.5

     total cpu time spent up to now is      849.0 secs

     total energy              =   -6438.76496651 Ry
     estimated scf accuracy    <       0.00001020 Ry

     iteration #  8     ecut=   100.00 Ry     beta= 0.50
     Davidson diagonalization with overlap
     ethr =  5.80E-09,  avg # of iterations =  6.4

     total cpu time spent up to now is      966.5 secs

     total energy              =   -6438.76497594 Ry
     estimated scf accuracy    <       0.00000739 Ry

     iteration #  9     ecut=   100.00 Ry     beta= 0.50
     Davidson diagonalization with overlap
     ethr =  4.20E-09,  avg # of iterations =  2.0

     total cpu time spent up to now is     1042.0 secs

     total energy              =   -6438.76497468 Ry
     estimated scf accuracy    <       0.00000385 Ry

     iteration # 10     ecut=   100.00 Ry     beta= 0.50
     Davidson diagonalization with overlap
     ethr =  2.19E-09,  avg # of iterations =  5.5

     total cpu time spent up to now is     1137.5 secs

     End of self-consistent calculation

          k = 0.0000 0.0000 0.0000 (107705 PWs)   bands (ev):

   -17.9099 -17.9099 -17.9096 -17.9096 -17.9026 -17.9026 -17.9023 -17.9023
   -17.8988 -17.8988 -17.8982 -17.8981 -17.8883 -17.8880 -17.8872 -17.8866
   -17.8854 -17.8854 -17.8850 -17.8846 -17.8792 -17.8792 -17.8778 -17.8778
    -8.9556  -8.9310  -8.7480  -8.6859  -8.5987  -8.5888  -8.5690  -8.5585
    -8.4300  -8.4066  -8.3889  -8.3460  -4.6943  -4.6936  -4.6921  -4.6841
    -4.6746  -4.6487  -4.6261  -4.6243  -4.6209  -4.6176  -4.6176  -4.6160
    -3.0447  -3.0200  -2.9838  -2.9029  -0.0247   0.1777   0.6126   0.7586
     0.7730   0.8518   0.9778   0.9869   1.0810   1.1535   1.1921   1.1970
     1.2069   1.4263   1.5065   1.6060   1.6549   1.6730   1.6946   1.7010
     1.7060   1.7203   1.8603   1.9448   1.9537   2.0602   2.0918   2.1030
     2.1165   2.1230   2.1699   2.2042   2.2709   2.3439   2.4936   2.7962

     occupation numbers 
     1.0000   1.0000   1.0000   1.0000   1.0000   1.0000   1.0000   1.0000
     1.0000   1.0000   1.0000   1.0000   1.0000   1.0000   1.0000   1.0000
     1.0000   1.0000   1.0000   1.0000   1.0000   1.0000   1.0000   1.0000
     1.0000   1.0000   1.0000   1.0000   1.0000   1.0000   1.0000   1.0000
     1.0000   1.0000   1.0000   1.0000   1.0000   1.0000   1.0000   1.0000
     1.0000   1.0000   1.0000   1.0000   1.0000   1.0000   1.0000   1.0000
     1.0000   1.0000   1.0000   1.0000   1.0000   1.0000   1.0000   1.0000
     1.0000   1.0000   1.0000   1.0000   1.0000   1.0000   1.0000   1.0000
     1.0000   1.0000   1.0000   1.0000   1.0000   1.0000   1.0000   1.0000
     1.0000   1.0000   1.0000   1.0000   1.0000   1.0000   1.0000   1.0000
     1.0000   1.0000   1.0000   1.0000   1.0000   1.0000   1.0000   1.0000

          k = 0.0000 0.0000-0.1331 (107690 PWs)   bands (ev):

   -17.9099 -17.9099 -17.9096 -17.9096 -17.9026 -17.9026 -17.9023 -17.9023
   -17.8988 -17.8988 -17.8982 -17.8982 -17.8882 -17.8882 -17.8869 -17.8869
   -17.8854 -17.8854 -17.8847 -17.8847 -17.8792 -17.8792 -17.8778 -17.8778
    -8.9446  -8.9446  -8.7174  -8.7174  -8.5938  -8.5938  -8.5623  -8.5623
    -8.4231  -8.4231  -8.3623  -8.3623  -4.7003  -4.7003  -4.6826  -4.6826
    -4.6617  -4.6617  -4.6253  -4.6253  -4.6184  -4.6184  -4.6167  -4.6167
    -3.0374  -3.0374  -2.9386  -2.9386   0.0654   0.0654   0.7038   0.7038
     0.7655   0.7655   1.0078   1.0078   1.1509   1.1509   1.1799   1.1799
     1.3934   1.3934   1.4538   1.4538   1.6686   1.6686   1.7012   1.7012
     1.7104   1.7104   1.8660   1.8660   2.0033   2.0033   2.1025   2.1025
     2.1074   2.1074   2.2424   2.2424   2.3225   2.3225   2.6351   2.6351

     occupation numbers 
     1.0000   1.0000   1.0000   1.0000   1.0000   1.0000   1.0000   1.0000
     1.0000   1.0000   1.0000   1.0000   1.0000   1.0000   1.0000   1.0000
     1.0000   1.0000   1.0000   1.0000   1.0000   1.0000   1.0000   1.0000
     1.0000   1.0000   1.0000   1.0000   1.0000   1.0000   1.0000   1.0000
     1.0000   1.0000   1.0000   1.0000   1.0000   1.0000   1.0000   1.0000
     1.0000   1.0000   1.0000   1.0000   1.0000   1.0000   1.0000   1.0000
     1.0000   1.0000   1.0000   1.0000   1.0000   1.0000   1.0000   1.0000
     1.0000   1.0000   1.0000   1.0000   1.0000   1.0000   1.0000   1.0000
     1.0000   1.0000   1.0000   1.0000   1.0000   1.0000   1.0000   1.0000
     1.0000   1.0000   1.0000   1.0000   1.0000   1.0000   1.0000   1.0000
     1.0000   1.0000   1.0000   1.0000   1.0000   1.0000   1.0000   1.0000

          k = 0.0000-0.2244 0.0000 (107584 PWs)   bands (ev):

   -17.9099 -17.9099 -17.9097 -17.9097 -17.9026 -17.9026 -17.9023 -17.9023
   -17.8989 -17.8989 -17.8981 -17.8981 -17.8881 -17.8881 -17.8869 -17.8869
   -17.8852 -17.8852 -17.8850 -17.8850 -17.8792 -17.8792 -17.8778 -17.8778
    -8.9214  -8.9214  -8.7609  -8.7609  -8.6403  -8.6403  -8.4968  -8.4968
    -8.4055  -8.4055  -8.3760  -8.3760  -4.7016  -4.7016  -4.6805  -4.6805
    -4.6553  -4.6553  -4.6372  -4.6372  -4.6219  -4.6219  -4.6201  -4.6201
    -3.0542  -3.0542  -2.9102  -2.9102   0.1055   0.1055   0.6780   0.6780
     0.8185   0.8185   1.0515   1.0515   1.0737   1.0737   1.1806   1.1806
     1.2858   1.2858   1.4242   1.4242   1.6254   1.6254   1.6566   1.6566
     1.8526   1.8526   1.8913   1.8913   1.9525   1.9525   2.1194   2.1194
     2.1484   2.1484   2.1991   2.1991   2.2626   2.2626   2.8120   2.8120

     occupation numbers 
     1.0000   1.0000   1.0000   1.0000   1.0000   1.0000   1.0000   1.0000
     1.0000   1.0000   1.0000   1.0000   1.0000   1.0000   1.0000   1.0000
     1.0000   1.0000   1.0000   1.0000   1.0000   1.0000   1.0000   1.0000
     1.0000   1.0000   1.0000   1.0000   1.0000   1.0000   1.0000   1.0000
     1.0000   1.0000   1.0000   1.0000   1.0000   1.0000   1.0000   1.0000
     1.0000   1.0000   1.0000   1.0000   1.0000   1.0000   1.0000   1.0000
     1.0000   1.0000   1.0000   1.0000   1.0000   1.0000   1.0000   1.0000
     1.0000   1.0000   1.0000   1.0000   1.0000   1.0000   1.0000   1.0000
     1.0000   1.0000   1.0000   1.0000   1.0000   1.0000   1.0000   1.0000
     1.0000   1.0000   1.0000   1.0000   1.0000   1.0000   1.0000   1.0000
     1.0000   1.0000   1.0000   1.0000   1.0000   1.0000   1.0000   1.0000

          k = 0.0000-0.2244-0.1331 (107472 PWs)   bands (ev):

   -17.9099 -17.9099 -17.9097 -17.9097 -17.9026 -17.9026 -17.9023 -17.9023
   -17.8989 -17.8989 -17.8981 -17.8981 -17.8881 -17.8881 -17.8868 -17.8868
   -17.8853 -17.8853 -17.8849 -17.8849 -17.8792 -17.8792 -17.8778 -17.8778
    -8.9215  -8.9215  -8.7611  -8.7611  -8.6382  -8.6382  -8.5024  -8.5024
    -8.3904  -8.3904  -8.3872  -8.3872  -4.6985  -4.6985  -4.6879  -4.6879
    -4.6502  -4.6502  -4.6380  -4.6380  -4.6219  -4.6219  -4.6201  -4.6201
    -3.0528  -3.0528  -2.9117  -2.9117   0.1110   0.1110   0.6686   0.6686
     0.8185   0.8185   1.0737   1.0737   1.0763   1.0763   1.1831   1.1831
     1.2221   1.2221   1.4360   1.4360   1.6268   1.6268   1.7007   1.7007
     1.8482   1.8482   1.8788   1.8788   1.9654   1.9654   2.1046   2.1046
     2.1732   2.1732   2.1773   2.1773   2.2769   2.2769   2.7943   2.7943

     occupation numbers 
     1.0000   1.0000   1.0000   1.0000   1.0000   1.0000   1.0000   1.0000
     1.0000   1.0000   1.0000   1.0000   1.0000   1.0000   1.0000   1.0000
     1.0000   1.0000   1.0000   1.0000   1.0000   1.0000   1.0000   1.0000
     1.0000   1.0000   1.0000   1.0000   1.0000   1.0000   1.0000   1.0000
     1.0000   1.0000   1.0000   1.0000   1.0000   1.0000   1.0000   1.0000
     1.0000   1.0000   1.0000   1.0000   1.0000   1.0000   1.0000   1.0000
     1.0000   1.0000   1.0000   1.0000   1.0000   1.0000   1.0000   1.0000
     1.0000   1.0000   1.0000   1.0000   1.0000   1.0000   1.0000   1.0000
     1.0000   1.0000   1.0000   1.0000   1.0000   1.0000   1.0000   1.0000
     1.0000   1.0000   1.0000   1.0000   1.0000   1.0000   1.0000   1.0000
     1.0000   1.0000   1.0000   1.0000   1.0000   1.0000   1.0000   1.0000

          k =-0.5000 0.0000 0.0000 (107498 PWs)   bands (ev):

   -17.9092 -17.9092 -17.9092 -17.9092 -17.9058 -17.9058 -17.9058 -17.9058
   -17.8984 -17.8984 -17.8984 -17.8984 -17.8838 -17.8838 -17.8838 -17.8838
   -17.8792 -17.8792 -17.8791 -17.8791 -17.8741 -17.8741 -17.8736 -17.8736
    -8.6361  -8.6361  -8.6339  -8.6339  -8.4589  -8.4589  -8.4503  -8.4503
    -8.4376  -8.4376  -8.4173  -8.4173  -4.8703  -4.8703  -4.8017  -4.8017
    -4.6865  -4.6865  -4.6774  -4.6774  -4.6631  -4.6631  -4.6337  -4.6337
    -3.3595  -3.3595  -3.3219  -3.3219  -0.0712  -0.0712  -0.0702  -0.0702
     0.4239   0.4239   0.4827   0.4827   0.7561   0.7561   0.7753   0.7753
     1.1082   1.1082   1.5086   1.5086   1.5521   1.5521   1.6602   1.6602
     1.6747   1.6747   1.7359   1.7359   1.7876   1.7876   1.8101   1.8101
     1.9433   1.9433   1.9837   1.9837   2.3943   2.3943   2.7830   2.7830

     occupation numbers 
     1.0000   1.0000   1.0000   1.0000   1.0000   1.0000   1.0000   1.0000
     1.0000   1.0000   1.0000   1.0000   1.0000   1.0000   1.0000   1.0000
     1.0000   1.0000   1.0000   1.0000   1.0000   1.0000   1.0000   1.0000
     1.0000   1.0000   1.0000   1.0000   1.0000   1.0000   1.0000   1.0000
     1.0000   1.0000   1.0000   1.0000   1.0000   1.0000   1.0000   1.0000
     1.0000   1.0000   1.0000   1.0000   1.0000   1.0000   1.0000   1.0000
     1.0000   1.0000   1.0000   1.0000   1.0000   1.0000   1.0000   1.0000
     1.0000   1.0000   1.0000   1.0000   1.0000   1.0000   1.0000   1.0000
     1.0000   1.0000   1.0000   1.0000   1.0000   1.0000   1.0000   1.0000
     1.0000   1.0000   1.0000   1.0000   1.0000   1.0000   1.0000   1.0000
     1.0000   1.0000   1.0000   1.0000   1.0000   1.0000   1.0000   1.0000

          k =-0.5000 0.0000-0.1331 (107420 PWs)   bands (ev):

   -17.9092 -17.9092 -17.9092 -17.9092 -17.9058 -17.9058 -17.9058 -17.9058
   -17.8984 -17.8984 -17.8984 -17.8984 -17.8838 -17.8838 -17.8838 -17.8838
   -17.8792 -17.8792 -17.8791 -17.8791 -17.8741 -17.8741 -17.8736 -17.8736
    -8.6367  -8.6367  -8.6333  -8.6333  -8.4583  -8.4583  -8.4512  -8.4512
    -8.4373  -8.4373  -8.4174  -8.4174  -4.8702  -4.8702  -4.8017  -4.8017
    -4.6868  -4.6868  -4.6774  -4.6774  -4.6628  -4.6628  -4.6338  -4.6338
    -3.3525  -3.3525  -3.3291  -3.3291  -0.0846  -0.0846  -0.0512  -0.0512
     0.4431   0.4431   0.4895   0.4895   0.7017   0.7017   0.7424   0.7424
     1.1990   1.1990   1.4772   1.4772   1.5636   1.5636   1.6770   1.6770
     1.6796   1.6796   1.7073   1.7073   1.7159   1.7159   1.8421   1.8421
     1.9372   1.9372   2.0151   2.0151   2.4561   2.4561   2.7219   2.7219

     occupation numbers 
     1.0000   1.0000   1.0000   1.0000   1.0000   1.0000   1.0000   1.0000
     1.0000   1.0000   1.0000   1.0000   1.0000   1.0000   1.0000   1.0000
     1.0000   1.0000   1.0000   1.0000   1.0000   1.0000   1.0000   1.0000
     1.0000   1.0000   1.0000   1.0000   1.0000   1.0000   1.0000   1.0000
     1.0000   1.0000   1.0000   1.0000   1.0000   1.0000   1.0000   1.0000
     1.0000   1.0000   1.0000   1.0000   1.0000   1.0000   1.0000   1.0000
     1.0000   1.0000   1.0000   1.0000   1.0000   1.0000   1.0000   1.0000
     1.0000   1.0000   1.0000   1.0000   1.0000   1.0000   1.0000   1.0000
     1.0000   1.0000   1.0000   1.0000   1.0000   1.0000   1.0000   1.0000
     1.0000   1.0000   1.0000   1.0000   1.0000   1.0000   1.0000   1.0000
     1.0000   1.0000   1.0000   1.0000   1.0000   1.0000   1.0000   1.0000

          k =-0.5000-0.2244 0.0000 (107412 PWs)   bands (ev):

   -17.9092 -17.9092 -17.9092 -17.9092 -17.9058 -17.9058 -17.9058 -17.9058
   -17.8984 -17.8984 -17.8984 -17.8984 -17.8838 -17.8838 -17.8838 -17.8838
   -17.8792 -17.8792 -17.8792 -17.8792 -17.8738 -17.8738 -17.8738 -17.8738
    -8.6350  -8.6350  -8.6350  -8.6350  -8.4557  -8.4557  -8.4557  -8.4557
    -8.4265  -8.4265  -8.4265  -8.4265  -4.8361  -4.8361  -4.8361  -4.8361
    -4.6796  -4.6796  -4.6796  -4.6796  -4.6506  -4.6506  -4.6506  -4.6506
    -3.3414  -3.3414  -3.3414  -3.3414   0.0757   0.0757   0.0757   0.0757
     0.2950   0.2950   0.2950   0.2950   0.7061   0.7061   0.7061   0.7061
     1.3262   1.3262   1.3262   1.3262   1.5128   1.5128   1.5128   1.5128
     1.6786   1.6786   1.6786   1.6786   1.8061   1.8061   1.8061   1.8061
     2.0368   2.0368   2.0368   2.0368   2.7472   2.7472   2.7472   2.7472

     occupation numbers 
     1.0000   1.0000   1.0000   1.0000   1.0000   1.0000   1.0000   1.0000
     1.0000   1.0000   1.0000   1.0000   1.0000   1.0000   1.0000   1.0000
     1.0000   1.0000   1.0000   1.0000   1.0000   1.0000   1.0000   1.0000
     1.0000   1.0000   1.0000   1.0000   1.0000   1.0000   1.0000   1.0000
     1.0000   1.0000   1.0000   1.0000   1.0000   1.0000   1.0000   1.0000
     1.0000   1.0000   1.0000   1.0000   1.0000   1.0000   1.0000   1.0000
     1.0000   1.0000   1.0000   1.0000   1.0000   1.0000   1.0000   1.0000
     1.0000   1.0000   1.0000   1.0000   1.0000   1.0000   1.0000   1.0000
     1.0000   1.0000   1.0000   1.0000   1.0000   1.0000   1.0000   1.0000
     1.0000   1.0000   1.0000   1.0000   1.0000   1.0000   1.0000   1.0000
     1.0000   1.0000   1.0000   1.0000   1.0000   1.0000   1.0000   1.0000

          k =-0.5000-0.2244-0.1331 (107464 PWs)   bands (ev):

   -17.9092 -17.9092 -17.9092 -17.9092 -17.9058 -17.9058 -17.9058 -17.9058
   -17.8984 -17.8984 -17.8984 -17.8984 -17.8838 -17.8838 -17.8838 -17.8838
   -17.8792 -17.8792 -17.8792 -17.8792 -17.8738 -17.8738 -17.8738 -17.8738
    -8.6350  -8.6350  -8.6350  -8.6350  -8.4556  -8.4556  -8.4556  -8.4556
    -8.4266  -8.4266  -8.4266  -8.4266  -4.8361  -4.8361  -4.8361  -4.8361
    -4.6796  -4.6796  -4.6796  -4.6796  -4.6507  -4.6507  -4.6507  -4.6507
    -3.3413  -3.3413  -3.3413  -3.3413   0.0692   0.0692   0.0692   0.0692
     0.2981   0.2981   0.2981   0.2981   0.7329   0.7329   0.7329   0.7329
     1.2385   1.2385   1.2385   1.2385   1.5871   1.5871   1.5871   1.5871
     1.6814   1.6814   1.6814   1.6814   1.8266   1.8266   1.8266   1.8266
     1.9960   1.9960   1.9960   1.9960   2.7568   2.7568   2.7568   2.7568

     occupation numbers 
     1.0000   1.0000   1.0000   1.0000   1.0000   1.0000   1.0000   1.0000
     1.0000   1.0000   1.0000   1.0000   1.0000   1.0000   1.0000   1.0000
     1.0000   1.0000   1.0000   1.0000   1.0000   1.0000   1.0000   1.0000
     1.0000   1.0000   1.0000   1.0000   1.0000   1.0000   1.0000   1.0000
     1.0000   1.0000   1.0000   1.0000   1.0000   1.0000   1.0000   1.0000
     1.0000   1.0000   1.0000   1.0000   1.0000   1.0000   1.0000   1.0000
     1.0000   1.0000   1.0000   1.0000   1.0000   1.0000   1.0000   1.0000
     1.0000   1.0000   1.0000   1.0000   1.0000   1.0000   1.0000   1.0000
     1.0000   1.0000   1.0000   1.0000   1.0000   1.0000   1.0000   1.0000
     1.0000   1.0000   1.0000   1.0000   1.0000   1.0000   1.0000   1.0000
     1.0000   1.0000   1.0000   1.0000   1.0000   1.0000   1.0000   1.0000

     highest occupied level (ev):     2.8120

!    total energy              =   -6438.76497582 Ry
     estimated scf accuracy    <       0.00000020 Ry

     The total energy is the sum of the following terms:
     one-electron contribution =    -468.65522310 Ry
     hartree contribution      =     316.30827850 Ry
     xc contribution           =    -462.52406897 Ry
     ewald contribution        =    -633.56960439 Ry
     one-center paw contrib.   =   -5190.32435786 Ry
      -> PAW hartree energy AE =       0.00000000 Ry
      -> PAW hartree energy PS =       0.00000000 Ry
      -> PAW xc energy AE      =       0.00000000 Ry
      -> PAW xc energy PS      =       0.00000000 Ry
      -> total E_H with PAW    =     316.30827850 Ry
      -> total E_XC with PAW   =    -462.52406897 Ry

     convergence has been achieved in  10 iterations

     Forces acting on atoms (cartesian axes, Ry/au):

     atom    1 type  1   force =     0.00000000   -0.00097422    0.00073115
     atom    2 type  1   force =     0.00000000    0.00097422   -0.00073115
     atom    3 type  1   force =     0.00000000   -0.00097422   -0.00073115
     atom    4 type  1   force =     0.00000000    0.00097422    0.00073115
     atom    5 type  2   force =     0.00000000   -0.00149569   -0.00125496
     atom    6 type  2   force =    -0.00000000    0.00149569    0.00125496
     atom    7 type  2   force =     0.00000000   -0.00149569    0.00125496
     atom    8 type  2   force =     0.00000000    0.00149569   -0.00125496
     atom    9 type  3   force =     0.00000000   -0.00693342   -0.00594267
     atom   10 type  3   force =     0.00000000    0.00693342    0.00594267
     atom   11 type  3   force =    -0.00000000   -0.00693342    0.00594267
     atom   12 type  3   force =     0.00000000    0.00693342   -0.00594267
     atom   13 type  3   force =     0.00000000   -0.00278774    0.00442095
     atom   14 type  3   force =     0.00000000    0.00278774   -0.00442095
     atom   15 type  3   force =     0.00000000   -0.00278774   -0.00442095
     atom   16 type  3   force =     0.00000000    0.00278774    0.00442095
     atom   17 type  3   force =     0.00000000    0.00670712   -0.00442876
     atom   18 type  3   force =     0.00000000   -0.00670712    0.00442876
     atom   19 type  3   force =     0.00000000    0.00670712    0.00442876
     atom   20 type  3   force =     0.00000000   -0.00670712   -0.00442876
     The non-local contrib.  to forces
     atom    1 type  1   force =     0.00000000    0.00224162   -0.00123066
     atom    2 type  1   force =     0.00000000   -0.00224162    0.00123066
     atom    3 type  1   force =     0.00000000    0.00224162    0.00123066
     atom    4 type  1   force =     0.00000000   -0.00224162   -0.00123066
     atom    5 type  2   force =     0.00000000   -0.08486411   -0.12688965
     atom    6 type  2   force =     0.00000000    0.08486411    0.12688965
     atom    7 type  2   force =     0.00000000   -0.08486411    0.12688965
     atom    8 type  2   force =     0.00000000    0.08486411   -0.12688965
     atom    9 type  3   force =     0.00000000   -0.04946946   -0.04876718
     atom   10 type  3   force =     0.00000000    0.04946946    0.04876718
     atom   11 type  3   force =     0.00000000   -0.04946946    0.04876718
     atom   12 type  3   force =     0.00000000    0.04946946   -0.04876718
     atom   13 type  3   force =     0.00000000   -0.03344298    0.05683018
     atom   14 type  3   force =     0.00000000    0.03344298   -0.05683018
     atom   15 type  3   force =     0.00000000   -0.03344298   -0.05683018
     atom   16 type  3   force =     0.00000000    0.03344298    0.05683018
     atom   17 type  3   force =    -0.00000000    0.05726109   -0.01809506
     atom   18 type  3   force =    -0.00000000   -0.05726109    0.01809506
     atom   19 type  3   force =     0.00000000    0.05726109    0.01809506
     atom   20 type  3   force =     0.00000000   -0.05726109   -0.01809506
     The ionic contribution  to forces
     atom    1 type  1   force =    -0.00000000    0.02273773    0.42856976
     atom    2 type  1   force =    -0.00000000   -0.02273773   -0.42856976
     atom    3 type  1   force =    -0.00000000    0.02273773   -0.42856976
     atom    4 type  1   force =     0.00000000   -0.02273773    0.42856976
     atom    5 type  2   force =    -0.00000000   -2.44382135   -1.60292983
     atom    6 type  2   force =     0.00000000    2.44382135    1.60292983
     atom    7 type  2   force =    -0.00000000   -2.44382135    1.60292983
     atom    8 type  2   force =     0.00000000    2.44382135   -1.60292983
     atom    9 type  3   force =    -0.00000000    3.00608891    5.13288893
     atom   10 type  3   force =     0.00000000   -3.00608891   -5.13288893
     atom   11 type  3   force =    -0.00000000    3.00608891   -5.13288893
     atom   12 type  3   force =    -0.00000000   -3.00608891    5.13288893
     atom   13 type  3   force =     0.00000000    2.02422849   -3.75281499
     atom   14 type  3   force =    -0.00000000   -2.02422849    3.75281499
     atom   15 type  3   force =    -0.00000000    2.02422849    3.75281499
     atom   16 type  3   force =    -0.00000000   -2.02422849   -3.75281499
     atom   17 type  3   force =    -0.00000000   -4.20564473    2.10270404
     atom   18 type  3   force =     0.00000000    4.20564473   -2.10270404
     atom   19 type  3   force =    -0.00000000   -4.20564473   -2.10270404
     atom   20 type  3   force =     0.00000000    4.20564473    2.10270404
     The local contribution  to forces
     atom    1 type  1   force =    -0.00000000   -0.02596737   -0.42669945
     atom    2 type  1   force =     0.00000000    0.02596737    0.42669945
     atom    3 type  1   force =    -0.00000000   -0.02596737    0.42669945
     atom    4 type  1   force =     0.00000000    0.02596737   -0.42669945
     atom    5 type  2   force =    -0.00000000    2.52715632    1.72865789
     atom    6 type  2   force =    -0.00000000   -2.52715632   -1.72865789
     atom    7 type  2   force =    -0.00000000    2.52715632   -1.72865789
     atom    8 type  2   force =    -0.00000000   -2.52715632    1.72865789
     atom    9 type  3   force =    -0.00000000   -2.96887513   -5.09567993
     atom   10 type  3   force =     0.00000000    2.96887513    5.09567993
     atom   11 type  3   force =    -0.00000000   -2.96887513    5.09567993
     atom   12 type  3   force =     0.00000000    2.96887513   -5.09567993
     atom   13 type  3   force =    -0.00000000   -1.99694455    3.70631959
     atom   14 type  3   force =     0.00000000    1.99694455   -3.70631959
     atom   15 type  3   force =    -0.00000000   -1.99694455   -3.70631959
     atom   16 type  3   force =     0.00000000    1.99694455    3.70631959
     atom   17 type  3   force =     0.00000000    4.16156003   -2.09123850
     atom   18 type  3   force =    -0.00000000   -4.16156003    2.09123850
     atom   19 type  3   force =    -0.00000000    4.16156003    2.09123850
     atom   20 type  3   force =     0.00000000   -4.16156003   -2.09123850
     The core correction contribution to forces
     atom    1 type  1   force =    -0.00000000   -0.00002166   -0.00003992
     atom    2 type  1   force =     0.00000000    0.00002166    0.00003992
     atom    3 type  1   force =    -0.00000000   -0.00002166    0.00003992
     atom    4 type  1   force =     0.00000000    0.00002166   -0.00003992
     atom    5 type  2   force =    -0.00000000    0.00013931   -0.00002372
     atom    6 type  2   force =    -0.00000000   -0.00013931    0.00002372
     atom    7 type  2   force =    -0.00000000    0.00013931    0.00002372
     atom    8 type  2   force =    -0.00000000   -0.00013931   -0.00002372
     atom    9 type  3   force =     0.00000000    0.00520004    0.00541297
     atom   10 type  3   force =    -0.00000000   -0.00520004   -0.00541297
     atom   11 type  3   force =     0.00000000    0.00520004   -0.00541297
     atom   12 type  3   force =     0.00000000   -0.00520004    0.00541297
     atom   13 type  3   force =     0.00000000    0.00331328   -0.00570377
     atom   14 type  3   force =    -0.00000000   -0.00331328    0.00570377
     atom   15 type  3   force =     0.00000000    0.00331328    0.00570377
     atom   16 type  3   force =    -0.00000000   -0.00331328   -0.00570377
     atom   17 type  3   force =     0.00000000   -0.00644600    0.00212168
     atom   18 type  3   force =    -0.00000000    0.00644600   -0.00212168
     atom   19 type  3   force =    -0.00000000   -0.00644600   -0.00212168
     atom   20 type  3   force =    -0.00000000    0.00644600    0.00212168
     The Hubbard contrib.    to forces
     atom    1 type  1   force =     0.00000000    0.00000000    0.00000000
     atom    2 type  1   force =     0.00000000    0.00000000    0.00000000
     atom    3 type  1   force =     0.00000000    0.00000000    0.00000000
     atom    4 type  1   force =     0.00000000    0.00000000    0.00000000
     atom    5 type  2   force =     0.00000000    0.00000000    0.00000000
     atom    6 type  2   force =     0.00000000    0.00000000    0.00000000
     atom    7 type  2   force =     0.00000000    0.00000000    0.00000000
     atom    8 type  2   force =     0.00000000    0.00000000    0.00000000
     atom    9 type  3   force =     0.00000000    0.00000000    0.00000000
     atom   10 type  3   force =     0.00000000    0.00000000    0.00000000
     atom   11 type  3   force =     0.00000000    0.00000000    0.00000000
     atom   12 type  3   force =     0.00000000    0.00000000    0.00000000
     atom   13 type  3   force =     0.00000000    0.00000000    0.00000000
     atom   14 type  3   force =     0.00000000    0.00000000    0.00000000
     atom   15 type  3   force =     0.00000000    0.00000000    0.00000000
     atom   16 type  3   force =     0.00000000    0.00000000    0.00000000
     atom   17 type  3   force =     0.00000000    0.00000000    0.00000000
     atom   18 type  3   force =     0.00000000    0.00000000    0.00000000
     atom   19 type  3   force =     0.00000000    0.00000000    0.00000000
     atom   20 type  3   force =     0.00000000    0.00000000    0.00000000
     The SCF correction term to forces
     atom    1 type  1   force =    -0.00000000    0.00003546    0.00013141
     atom    2 type  1   force =    -0.00000000   -0.00003546   -0.00013141
     atom    3 type  1   force =     0.00000000    0.00003546   -0.00013141
     atom    4 type  1   force =    -0.00000000   -0.00003546    0.00013141
     atom    5 type  2   force =    -0.00000000   -0.00010586   -0.00006966
     atom    6 type  2   force =     0.00000000    0.00010586    0.00006966
     atom    7 type  2   force =    -0.00000000   -0.00010586    0.00006966
     atom    8 type  2   force =     0.00000000    0.00010586   -0.00006966
     atom    9 type  3   force =     0.00000000    0.00012221    0.00020253
     atom   10 type  3   force =    -0.00000000   -0.00012221   -0.00020253
     atom   11 type  3   force =     0.00000000    0.00012221   -0.00020253
     atom   12 type  3   force =     0.00000000   -0.00012221    0.00020253
     atom   13 type  3   force =    -0.00000000    0.00005802   -0.00021007
     atom   14 type  3   force =    -0.00000000   -0.00005802    0.00021007
     atom   15 type  3   force =    -0.00000000    0.00005802    0.00021007
     atom   16 type  3   force =     0.00000000   -0.00005802   -0.00021007
     atom   17 type  3   force =    -0.00000000   -0.00002327    0.00007908
     atom   18 type  3   force =     0.00000000    0.00002327   -0.00007908
     atom   19 type  3   force =    -0.00000000   -0.00002327   -0.00007908
     atom   20 type  3   force =     0.00000000    0.00002327    0.00007908

     Total force =     0.026877     Total SCF correction =     0.000761


     Computing stress (Cartesian axis) and pressure

          total   stress  (Ry/bohr**3)                   (kbar)     P=      -12.73
  -0.00005988   0.00000000   0.00000000           -8.81        0.00        0.00
   0.00000000  -0.00010370   0.00000000            0.00      -15.25        0.00
   0.00000000   0.00000000  -0.00009604            0.00        0.00      -14.13

     kinetic stress (kbar)   5524.16      0.00      0.00
                                0.00   5524.39      0.00
                                0.00      0.00   5520.41

     local   stress (kbar)  -4567.19     -0.00     -0.00
                               -0.00  -1923.57      0.00
                               -0.00      0.00  -1031.15

     nonloc. stress (kbar)   1167.49      0.00      0.00
                                0.00   1162.83      0.00
                                0.00      0.00   1166.08

     hartree stress (kbar)   3403.52     -0.00      0.00
                               -0.00   2185.15      0.00
                                0.00      0.00   1715.36

     exc-cor stress (kbar)   5446.13      0.00      0.00
                                0.00   5446.01      0.00
                                0.00      0.00   5446.25

     corecor stress (kbar)  -7198.12      0.00     -0.00
                                0.00  -7197.90     -0.00
                               -0.00     -0.00  -7197.98

     ewald   stress (kbar)  -3784.80     -0.00     -0.00
                               -0.00  -5212.16      0.00
                               -0.00      0.00  -5633.09

     hubbard stress (kbar)      0.00      0.00      0.00
                                0.00      0.00      0.00
                                0.00      0.00      0.00

     DFT-D   stress (kbar)      0.00      0.00      0.00
                                0.00      0.00      0.00
                                0.00      0.00      0.00

     XDM     stress (kbar)      0.00      0.00      0.00
                                0.00      0.00      0.00
                                0.00      0.00      0.00

     dft-nl  stress (kbar)      0.00      0.00      0.00
                                0.00      0.00      0.00
                                0.00      0.00      0.00

     TS-vdW  stress (kbar)      0.00      0.00      0.00
                                0.00      0.00      0.00
                                0.00      0.00      0.00



     Writing output data file ./CsSnI3.save/
 
     init_run     :     45.88s CPU     48.78s WALL (       1 calls)
     electrons    :    986.69s CPU   1055.24s WALL (       1 calls)
     forces       :     25.94s CPU     26.96s WALL (       1 calls)
     stress       :    161.57s CPU    166.29s WALL (       1 calls)

     Called by init_run:
     wfcinit      :     23.35s CPU     24.51s WALL (       1 calls)
     wfcinit:atom :      0.19s CPU      0.19s WALL (       8 calls)
     wfcinit:wfcr :     22.11s CPU     23.22s WALL (       8 calls)
     potinit      :      4.53s CPU      4.68s WALL (       1 calls)
     hinit0       :      6.71s CPU      7.15s WALL (       1 calls)

     Called by electrons:
     c_bands      :    746.97s CPU    782.54s WALL (      11 calls)
     sum_band     :    172.90s CPU    197.08s WALL (      11 calls)
     v_of_rho     :      6.66s CPU      6.88s WALL (      11 calls)
     v_h          :      0.59s CPU      0.61s WALL (      11 calls)
     v_xc         :      7.19s CPU      7.41s WALL (      13 calls)
     newd         :     55.67s CPU     64.34s WALL (      11 calls)
     PAW_pot      :      7.87s CPU      7.96s WALL (      11 calls)
     mix_rho      :      1.68s CPU      1.78s WALL (      11 calls)

     Called by c_bands:
     init_us_2    :     13.20s CPU     13.84s WALL (     200 calls)
     cegterg      :    679.50s CPU    713.87s WALL (      88 calls)

     Called by sum_band:
     sum_band:wei :      0.00s CPU      0.00s WALL (      11 calls)
     sum_band:loo :     99.75s CPU    109.82s WALL (      11 calls)
     sum_band:buf :      1.09s CPU      1.18s WALL (      88 calls)
     sum_band:ini :      5.78s CPU      6.22s WALL (      88 calls)
     sum_band:cal :     16.60s CPU     17.06s WALL (      88 calls)
     sum_band:bec :      0.39s CPU      0.41s WALL (      88 calls)
     addusdens    :     68.87s CPU     82.89s WALL (      11 calls)
     addusd:skk   :      0.30s CPU      0.34s WALL (      33 calls)
     addusd:dgemm :     18.35s CPU     31.44s WALL (      33 calls)
     addusd:qvan2 :     48.20s CPU     48.77s WALL (      33 calls)

     Called by *egterg:
     cdiaghg      :     33.52s CPU     34.81s WALL (     491 calls)
     cegterg:over :     34.30s CPU     34.91s WALL (     411 calls)
     cegterg:upda :     19.34s CPU     19.73s WALL (     411 calls)
     cegterg:last :     36.88s CPU     37.45s WALL (     216 calls)
     h_psi        :    502.11s CPU    533.54s WALL (     507 calls)
     s_psi        :     57.45s CPU     58.26s WALL (     507 calls)
     g_psi        :      1.42s CPU      1.45s WALL (     411 calls)

     Called by h_psi:
     h_psi:calbec :     58.16s CPU     59.25s WALL (     507 calls)
     vloc_psi     :    383.65s CPU    412.76s WALL (     507 calls)
     add_vuspsi   :     57.21s CPU     58.17s WALL (     507 calls)

     General routines
     calbec       :     83.18s CPU     84.84s WALL (     635 calls)
     fft          :      7.21s CPU      7.61s WALL (     167 calls)
     ffts         :      0.44s CPU      0.45s WALL (      22 calls)
     fftw         :    403.00s CPU    434.55s WALL (   55278 calls)
     interpolate  :      0.73s CPU      0.75s WALL (      11 calls)
 
     Parallel routines
     fft_scatt_xy :     41.70s CPU     43.80s WALL (   55467 calls)
     fft_scatt_yz :    178.47s CPU    189.78s WALL (   55467 calls)

     PAW routines
     PAW_pot      :      7.87s CPU      7.96s WALL (      11 calls)
     PAW_symme    :      0.24s CPU      0.25s WALL (      22 calls)
 
     PWSCF        :  21m 0.99s CPU  22m31.73s WALL

 
   This run was terminated on:  22:13:40  24Jan2021            

=------------------------------------------------------------------------------=
   JOB DONE.
=------------------------------------------------------------------------------=
