
     Program PWSCF v.6.4.1 starts on 24Jan2021 at 18:53:27 

     This program is part of the open-source Quantum ESPRESSO suite
     for quantum simulation of materials; please cite
         "P. Giannozzi et al., J. Phys.:Condens. Matter 21 395502 (2009);
         "P. Giannozzi et al., J. Phys.:Condens. Matter 29 465901 (2017);
          URL http://www.quantum-espresso.org", 
     in publications or presentations arising from this work. More details at
     http://www.quantum-espresso.org/quote

     Parallel version (MPI & OpenMP), running on      48 processor cores
     Number of MPI processes:                24
     Threads/MPI process:                     2

     MPI processes distributed on     1 nodes
     R & G space division:  proc/nbgrp/npool/nimage =      24
     Waiting for input...
     Reading input from standard input

     Current dimensions of program PWSCF are:
     Max number of different atomic species (ntypx) = 10
     Max number of k-points (npk) =  40000
     Max angular momentum in pseudopotentials (lmaxx) =  3
               file Sn.rel-pbesol-dn-kjpaw_psl.1.0.0.UPF: wavefunction(s)  5S 5P 5P 4D 4D renormalized
               file I.rel-pbesol-n-kjpaw_psl.1.0.0.UPF: wavefunction(s)  5S renormalized

     Subspace diagonalization in iterative solution of the eigenvalue problem:
     one sub-group per band group will be used
     scalapack distributed-memory algorithm (size of sub-group:  3*  3 procs)

 
     Parallelization info
     --------------------
     sticks:   dense  smooth     PW     G-vecs:    dense   smooth      PW
     Min         222     148     40                12208     6652     943
     Max         223     149     41                12211     6655     945
     Sum        5345    3569    973               293027   159699   22647
 

     Title: 
     SnI2                                                                       


     bravais-lattice index     =            1
     lattice parameter (alat)  =      12.6355  a.u.
     unit-cell volume          =    2017.3401 (a.u.)^3
     number of atoms/cell      =            5
     number of atomic types    =            2
     number of electrons       =        42.00
     number of Kohn-Sham states=           42
     kinetic-energy cutoff     =      70.0000  Ry
     charge density cutoff     =     420.0000  Ry
     convergence threshold     =      1.0E-06
     mixing beta               =       0.3500
     number of iterations used =            8  plain     mixing
     Exchange-correlation      = SLA PW PSX PSC ( 1  4 10  8 0 0)
     Non magnetic calculation with spin-orbit


     celldm(1)=  12.635518  celldm(2)=   0.000000  celldm(3)=   0.000000
     celldm(4)=   0.000000  celldm(5)=   0.000000  celldm(6)=   0.000000

     crystal axes: (cart. coord. in units of alat)
               a(1) = (   1.000000   0.000000   0.000000 )  
               a(2) = (   0.000000   1.000000   0.000000 )  
               a(3) = (   0.000000   0.000000   1.000000 )  

     reciprocal axes: (cart. coord. in units 2 pi/alat)
               b(1) = (  1.000000  0.000000  0.000000 )  
               b(2) = (  0.000000  1.000000  0.000000 )  
               b(3) = (  0.000000  0.000000  1.000000 )  


     PseudoPot. # 1 for Sn read from file:
     /marconi_scratch/userexternal/cmalosso/degironcoli/pseudo/Sn.rel-pbesol-dn-kjpaw_psl.1.0.0.UPF
     MD5 check sum: e69eff64f15ae39ad43ef58bacbfdf88
     Pseudo is Projector augmented-wave + core cor, Zval = 14.0
     Generated using "atomic" code by A. Dal Corso v.6.3
     Shape of augmentation charge: PSQ
     Using radial grid of 1243 points, 10 beta functions with: 
                l(1) =   0
                l(2) =   0
                l(3) =   1
                l(4) =   1
                l(5) =   1
                l(6) =   1
                l(7) =   2
                l(8) =   2
                l(9) =   2
               l(10) =   2
     Q(r) pseudized with 0 coefficients 


     PseudoPot. # 2 for I  read from file:
     /marconi_scratch/userexternal/cmalosso/degironcoli/pseudo/I.rel-pbesol-n-kjpaw_psl.1.0.0.UPF
     MD5 check sum: 4478c427bd443f303eca1937a163b991
     Pseudo is Projector augmented-wave + core cor, Zval =  7.0
     Generated using "atomic" code by A. Dal Corso v.6.3
     Shape of augmentation charge: PSQ
     Using radial grid of 1247 points, 10 beta functions with: 
                l(1) =   0
                l(2) =   0
                l(3) =   1
                l(4) =   1
                l(5) =   1
                l(6) =   1
                l(7) =   2
                l(8) =   2
                l(9) =   2
               l(10) =   2
     Q(r) pseudized with 0 coefficients 


     atomic species   valence    mass     pseudopotential
        Sn            14.00   118.70000     Sn( 1.00)
        I              7.00   126.90000     I ( 1.00)

     24 Sym. Ops. (no inversion) found


                                    s                        frac. trans.

      isym =  1     identity                                     

 cryst.   s( 1) = (     1          0          0      )
                  (     0          1          0      )
                  (     0          0          1      )

 cart.    s( 1) = (  1.0000000  0.0000000  0.0000000 )
                  (  0.0000000  1.0000000  0.0000000 )
                  (  0.0000000  0.0000000  1.0000000 )


      isym =  2     180 deg rotation - cart. axis [0,0,1]        

 cryst.   s( 2) = (    -1          0          0      )
                  (     0         -1          0      )
                  (     0          0          1      )

 cart.    s( 2) = ( -1.0000000  0.0000000  0.0000000 )
                  (  0.0000000 -1.0000000  0.0000000 )
                  (  0.0000000  0.0000000  1.0000000 )


      isym =  3     180 deg rotation - cart. axis [0,1,0]        

 cryst.   s( 3) = (    -1          0          0      )
                  (     0          1          0      )
                  (     0          0         -1      )

 cart.    s( 3) = ( -1.0000000  0.0000000  0.0000000 )
                  (  0.0000000  1.0000000  0.0000000 )
                  (  0.0000000  0.0000000 -1.0000000 )


      isym =  4     180 deg rotation - cart. axis [1,0,0]        

 cryst.   s( 4) = (     1          0          0      )
                  (     0         -1          0      )
                  (     0          0         -1      )

 cart.    s( 4) = (  1.0000000  0.0000000  0.0000000 )
                  (  0.0000000 -1.0000000  0.0000000 )
                  (  0.0000000  0.0000000 -1.0000000 )


      isym =  5     120 deg rotation - cart. axis [-1,-1,-1]     

 cryst.   s( 5) = (     0          0          1      )
                  (     1          0          0      )
                  (     0          1          0      )

 cart.    s( 5) = (  0.0000000  1.0000000  0.0000000 )
                  (  0.0000000  0.0000000  1.0000000 )
                  (  1.0000000  0.0000000  0.0000000 )


      isym =  6     120 deg rotation - cart. axis [-1,1,1]       

 cryst.   s( 6) = (     0          0         -1      )
                  (    -1          0          0      )
                  (     0          1          0      )

 cart.    s( 6) = (  0.0000000 -1.0000000  0.0000000 )
                  (  0.0000000  0.0000000  1.0000000 )
                  ( -1.0000000  0.0000000  0.0000000 )


      isym =  7     120 deg rotation - cart. axis [1,1,-1]       

 cryst.   s( 7) = (     0          0         -1      )
                  (     1          0          0      )
                  (     0         -1          0      )

 cart.    s( 7) = (  0.0000000  1.0000000  0.0000000 )
                  (  0.0000000  0.0000000 -1.0000000 )
                  ( -1.0000000  0.0000000  0.0000000 )


      isym =  8     120 deg rotation - cart. axis [1,-1,1]       

 cryst.   s( 8) = (     0          0          1      )
                  (    -1          0          0      )
                  (     0         -1          0      )

 cart.    s( 8) = (  0.0000000 -1.0000000  0.0000000 )
                  (  0.0000000  0.0000000 -1.0000000 )
                  (  1.0000000  0.0000000  0.0000000 )


      isym =  9     120 deg rotation - cart. axis [1,1,1]        

 cryst.   s( 9) = (     0          1          0      )
                  (     0          0          1      )
                  (     1          0          0      )

 cart.    s( 9) = (  0.0000000  0.0000000  1.0000000 )
                  (  1.0000000  0.0000000  0.0000000 )
                  (  0.0000000  1.0000000  0.0000000 )


      isym = 10     120 deg rotation - cart. axis [-1,1,-1]      

 cryst.   s(10) = (     0         -1          0      )
                  (     0          0         -1      )
                  (     1          0          0      )

 cart.    s(10) = (  0.0000000  0.0000000  1.0000000 )
                  ( -1.0000000  0.0000000  0.0000000 )
                  (  0.0000000 -1.0000000  0.0000000 )


      isym = 11     120 deg rotation - cart. axis [1,-1,-1]      

 cryst.   s(11) = (     0         -1          0      )
                  (     0          0          1      )
                  (    -1          0          0      )

 cart.    s(11) = (  0.0000000  0.0000000 -1.0000000 )
                  ( -1.0000000  0.0000000  0.0000000 )
                  (  0.0000000  1.0000000  0.0000000 )


      isym = 12     120 deg rotation - cart. axis [-1,-1,1]      

 cryst.   s(12) = (     0          1          0      )
                  (     0          0         -1      )
                  (    -1          0          0      )

 cart.    s(12) = (  0.0000000  0.0000000 -1.0000000 )
                  (  1.0000000  0.0000000  0.0000000 )
                  (  0.0000000 -1.0000000  0.0000000 )


      isym = 13     inv. 180 deg rotation - cart. axis [1,1,0]   

 cryst.   s(13) = (     0         -1          0      )
                  (    -1          0          0      )
                  (     0          0          1      )

 cart.    s(13) = (  0.0000000 -1.0000000  0.0000000 )
                  ( -1.0000000  0.0000000  0.0000000 )
                  (  0.0000000  0.0000000  1.0000000 )


      isym = 14     inv. 180 deg rotation - cart. axis [1,-1,0]  

 cryst.   s(14) = (     0          1          0      )
                  (     1          0          0      )
                  (     0          0          1      )

 cart.    s(14) = (  0.0000000  1.0000000  0.0000000 )
                  (  1.0000000  0.0000000  0.0000000 )
                  (  0.0000000  0.0000000  1.0000000 )


      isym = 15     inv.  90 deg rotation - cart. axis [0,0,-1]  

 cryst.   s(15) = (     0          1          0      )
                  (    -1          0          0      )
                  (     0          0         -1      )

 cart.    s(15) = (  0.0000000 -1.0000000  0.0000000 )
                  (  1.0000000  0.0000000  0.0000000 )
                  (  0.0000000  0.0000000 -1.0000000 )


      isym = 16     inv.  90 deg rotation - cart. axis [0,0,1]   

 cryst.   s(16) = (     0         -1          0      )
                  (     1          0          0      )
                  (     0          0         -1      )

 cart.    s(16) = (  0.0000000  1.0000000  0.0000000 )
                  ( -1.0000000  0.0000000  0.0000000 )
                  (  0.0000000  0.0000000 -1.0000000 )


      isym = 17     inv. 180 deg rotation - cart. axis [1,0,1]   

 cryst.   s(17) = (     0          0         -1      )
                  (     0          1          0      )
                  (    -1          0          0      )

 cart.    s(17) = (  0.0000000  0.0000000 -1.0000000 )
                  (  0.0000000  1.0000000  0.0000000 )
                  ( -1.0000000  0.0000000  0.0000000 )


      isym = 18     inv. 180 deg rotation - cart. axis [-1,0,1]  

 cryst.   s(18) = (     0          0          1      )
                  (     0          1          0      )
                  (     1          0          0      )

 cart.    s(18) = (  0.0000000  0.0000000  1.0000000 )
                  (  0.0000000  1.0000000  0.0000000 )
                  (  1.0000000  0.0000000  0.0000000 )


      isym = 19     inv.  90 deg rotation - cart. axis [0,1,0]   

 cryst.   s(19) = (     0          0          1      )
                  (     0         -1          0      )
                  (    -1          0          0      )

 cart.    s(19) = (  0.0000000  0.0000000 -1.0000000 )
                  (  0.0000000 -1.0000000  0.0000000 )
                  (  1.0000000  0.0000000  0.0000000 )


      isym = 20     inv.  90 deg rotation - cart. axis [0,-1,0]  

 cryst.   s(20) = (     0          0         -1      )
                  (     0         -1          0      )
                  (     1          0          0      )

 cart.    s(20) = (  0.0000000  0.0000000  1.0000000 )
                  (  0.0000000 -1.0000000  0.0000000 )
                  ( -1.0000000  0.0000000  0.0000000 )


      isym = 21     inv. 180 deg rotation - cart. axis [0,1,1]   

 cryst.   s(21) = (     1          0          0      )
                  (     0          0         -1      )
                  (     0         -1          0      )

 cart.    s(21) = (  1.0000000  0.0000000  0.0000000 )
                  (  0.0000000  0.0000000 -1.0000000 )
                  (  0.0000000 -1.0000000  0.0000000 )


      isym = 22     inv. 180 deg rotation - cart. axis [0,1,-1]  

 cryst.   s(22) = (     1          0          0      )
                  (     0          0          1      )
                  (     0          1          0      )

 cart.    s(22) = (  1.0000000  0.0000000  0.0000000 )
                  (  0.0000000  0.0000000  1.0000000 )
                  (  0.0000000  1.0000000  0.0000000 )


      isym = 23     inv.  90 deg rotation - cart. axis [-1,0,0]  

 cryst.   s(23) = (    -1          0          0      )
                  (     0          0          1      )
                  (     0         -1          0      )

 cart.    s(23) = ( -1.0000000  0.0000000  0.0000000 )
                  (  0.0000000  0.0000000 -1.0000000 )
                  (  0.0000000  1.0000000  0.0000000 )


      isym = 24     inv.  90 deg rotation - cart. axis [1,0,0]   

 cryst.   s(24) = (    -1          0          0      )
                  (     0          0         -1      )
                  (     0          1          0      )

 cart.    s(24) = ( -1.0000000  0.0000000  0.0000000 )
                  (  0.0000000  0.0000000  1.0000000 )
                  (  0.0000000 -1.0000000  0.0000000 )


     double point group T_d (-43m) 
     there are  8 classes and  3 irreducible representations
     the character table:

       E     -E    8C3   -8C3   3C2  6S4   -6S4  6s_d 
                               -3C2              -6s_d
G_6    2.00 -2.00  1.00 -1.00  0.00  1.41 -1.41  0.00
G_7    2.00 -2.00  1.00 -1.00  0.00 -1.41  1.41  0.00
G_8    4.00 -4.00 -1.00  1.00  0.00  0.00  0.00  0.00

     the symmetry operations in each class and the name of the first element:

     E             1
          identity                                               
     -E           -1
          identity E                                             
     8C3           5    7    8    6   12    9   10   11
          120 deg rotation - cart. axis [-1,-1,-1]               
     -8C3         -5   -7   -8   -6  -12   -9  -10  -11
          120 deg rotation - cart. axis [-1,-1,-1] E             
      3C2 -3C2     2   -2    3   -3    4   -4
          180 deg rotation - cart. axis [0,0,1]                  
     6S4          15   16   20   19   23   24
          inv.  90 deg rotation - cart. axis [0,0,-1]            
     -6S4        -15  -16  -20  -19  -23  -24
          inv.  90 deg rotation - cart. axis [0,0,-1] E          
     6s_d -6s_d   13  -13  -14   14   17  -17  -18   18   21  -21   22  -22
          inv. 180 deg rotation - cart. axis [1,1,0]             

   Cartesian axes

     site n.     atom                  positions (alat units)
         1           Sn  tau(   1) = (   0.0000000   0.0000000   0.0000000  )
         2           I   tau(   2) = (   0.2339030   0.7660970   0.7660970  )
         3           I   tau(   3) = (   0.7660970   0.2339030   0.7660970  )
         4           I   tau(   4) = (   0.7660970   0.7660970   0.2339030  )
         5           I   tau(   5) = (   0.2339030   0.2339030   0.2339030  )

   Crystallographic axes

     site n.     atom                  positions (cryst. coord.)
         1           Sn  tau(   1) = (  0.0000000  0.0000000  0.0000000  )
         2           I   tau(   2) = (  0.2339030  0.7660970  0.7660970  )
         3           I   tau(   3) = (  0.7660970  0.2339030  0.7660970  )
         4           I   tau(   4) = (  0.7660970  0.7660970  0.2339030  )
         5           I   tau(   5) = (  0.2339030  0.2339030  0.2339030  )

     number of k points=    10
                       cart. coord. in units 2pi/alat
        k(    1) = (   0.0833333   0.0833333   0.0833333), wk =   0.0370370
        k(    2) = (   0.0833333   0.0833333   0.2500000), wk =   0.1111111
        k(    3) = (   0.0833333   0.0833333   0.4166667), wk =   0.1111111
        k(    4) = (   0.0833333   0.2500000   0.2500000), wk =   0.1111111
        k(    5) = (   0.0833333   0.2500000   0.4166667), wk =   0.2222222
        k(    6) = (   0.0833333   0.4166667   0.4166667), wk =   0.1111111
        k(    7) = (   0.2500000   0.2500000   0.2500000), wk =   0.0370370
        k(    8) = (   0.2500000   0.2500000   0.4166667), wk =   0.1111111
        k(    9) = (   0.2500000   0.4166667   0.4166667), wk =   0.1111111
        k(   10) = (   0.4166667   0.4166667   0.4166667), wk =   0.0370370

                       cryst. coord.
        k(    1) = (   0.0833333   0.0833333   0.0833333), wk =   0.0370370
        k(    2) = (   0.0833333   0.0833333   0.2500000), wk =   0.1111111
        k(    3) = (   0.0833333   0.0833333   0.4166667), wk =   0.1111111
        k(    4) = (   0.0833333   0.2500000   0.2500000), wk =   0.1111111
        k(    5) = (   0.0833333   0.2500000   0.4166667), wk =   0.2222222
        k(    6) = (   0.0833333   0.4166667   0.4166667), wk =   0.1111111
        k(    7) = (   0.2500000   0.2500000   0.2500000), wk =   0.0370370
        k(    8) = (   0.2500000   0.2500000   0.4166667), wk =   0.1111111
        k(    9) = (   0.2500000   0.4166667   0.4166667), wk =   0.1111111
        k(   10) = (   0.4166667   0.4166667   0.4166667), wk =   0.0370370

     Dense  grid:   293027 G-vectors     FFT dimensions: (  90,  90,  90)

     Smooth grid:   159699 G-vectors     FFT dimensions: (  72,  72,  72)

     Dynamical RAM for                 wfc:       1.07 MB

     Dynamical RAM for     wfc (w. buffer):      11.72 MB

     Dynamical RAM for           str. fact:       0.37 MB

     Dynamical RAM for           local pot:       0.00 MB

     Dynamical RAM for          nlocal pot:       2.16 MB

     Dynamical RAM for                qrad:      17.31 MB

     Dynamical RAM for          rho,v,vnew:       5.20 MB

     Dynamical RAM for               rhoin:       1.73 MB

     Dynamical RAM for            rho*nmix:      11.92 MB

     Dynamical RAM for           G-vectors:       0.75 MB

     Dynamical RAM for          h,s,v(r/c):       0.14 MB

     Dynamical RAM for          <psi|beta>:       0.22 MB

     Dynamical RAM for                 psi:       4.26 MB

     Dynamical RAM for                hpsi:       4.26 MB

     Dynamical RAM for                spsi:       4.26 MB

     Dynamical RAM for      wfcinit/wfcrot:       1.96 MB

     Dynamical RAM for           addusdens:     114.40 MB

     Dynamical RAM for          addusforce:     116.24 MB

     Dynamical RAM for         addusstress:     117.01 MB

     Estimated static dynamical RAM per process >      53.70 MB

     Estimated max dynamical RAM per process >     170.71 MB

     Estimated total dynamical RAM >       4.00 GB

     Initial potential from superposition of free atoms

     starting charge   41.99871, renormalised to   42.00000
     Starting wfcs are   50 randomized atomic wfcs
     Checking if some PAW data can be deallocated... 
       PAW data deallocated on   19 nodes for type:  1
       PAW data deallocated on    5 nodes for type:  2

     total cpu time spent up to now is       19.8 secs

     Self-consistent Calculation

     iteration #  1     ecut=    70.00 Ry     beta= 0.35
     Davidson diagonalization with overlap
     ethr =  1.00E-02,  avg # of iterations =  1.1

     Threshold (ethr) on eigenvalues was too large:
     Diagonalizing with lowered threshold

     Davidson diagonalization with overlap
     ethr =  3.84E-04,  avg # of iterations =  2.0

     total cpu time spent up to now is       60.2 secs

     total energy              =   -1933.72934829 Ry
     Harris-Foulkes estimate   =   -1933.78586851 Ry
     estimated scf accuracy    <       0.12701915 Ry

     iteration #  2     ecut=    70.00 Ry     beta= 0.35
     Davidson diagonalization with overlap
     ethr =  3.02E-04,  avg # of iterations =  2.1

     total cpu time spent up to now is       92.3 secs

     total energy              =   -1933.74520184 Ry
     Harris-Foulkes estimate   =   -1933.75171036 Ry
     estimated scf accuracy    <       0.02249534 Ry

     iteration #  3     ecut=    70.00 Ry     beta= 0.35
     Davidson diagonalization with overlap
     ethr =  5.36E-05,  avg # of iterations =  2.0

     total cpu time spent up to now is      120.2 secs

     total energy              =   -1933.74526610 Ry
     Harris-Foulkes estimate   =   -1933.74685344 Ry
     estimated scf accuracy    <       0.00535745 Ry

     iteration #  4     ecut=    70.00 Ry     beta= 0.35
     Davidson diagonalization with overlap
     ethr =  1.28E-05,  avg # of iterations =  2.8

     total cpu time spent up to now is      148.6 secs

     total energy              =   -1933.74561273 Ry
     Harris-Foulkes estimate   =   -1933.74593821 Ry
     estimated scf accuracy    <       0.00073984 Ry

     iteration #  5     ecut=    70.00 Ry     beta= 0.35
     Davidson diagonalization with overlap
     ethr =  1.76E-06,  avg # of iterations =  3.0

     total cpu time spent up to now is      174.3 secs

     total energy              =   -1933.74575354 Ry
     Harris-Foulkes estimate   =   -1933.74595053 Ry
     estimated scf accuracy    <       0.00047045 Ry

     iteration #  6     ecut=    70.00 Ry     beta= 0.35
     Davidson diagonalization with overlap
     ethr =  1.12E-06,  avg # of iterations =  2.0

     total cpu time spent up to now is      201.6 secs

     total energy              =   -1933.74583076 Ry
     Harris-Foulkes estimate   =   -1933.74583183 Ry
     estimated scf accuracy    <       0.00000689 Ry

     iteration #  7     ecut=    70.00 Ry     beta= 0.35
     Davidson diagonalization with overlap
     ethr =  1.64E-08,  avg # of iterations =  4.0

     total cpu time spent up to now is      240.0 secs

     total energy              =   -1933.74583472 Ry
     Harris-Foulkes estimate   =   -1933.74583568 Ry
     estimated scf accuracy    <       0.00000237 Ry

     iteration #  8     ecut=    70.00 Ry     beta= 0.35
     Davidson diagonalization with overlap
     ethr =  5.64E-09,  avg # of iterations =  2.0

     total cpu time spent up to now is      262.0 secs

     total energy              =   -1933.74583457 Ry
     Harris-Foulkes estimate   =   -1933.74583521 Ry
     estimated scf accuracy    <       0.00000126 Ry

     iteration #  9     ecut=    70.00 Ry     beta= 0.35
     Davidson diagonalization with overlap
     ethr =  3.00E-09,  avg # of iterations =  3.0

     total cpu time spent up to now is      289.0 secs

     End of self-consistent calculation

          k = 0.0833 0.0833 0.0833 ( 19930 PWs)   bands (ev):

   -21.8004 -21.8004 -21.8004 -21.8004 -20.7878 -20.7878 -20.7502 -20.7502
   -20.7502 -20.7502 -11.9219 -11.9219 -11.2123 -11.2123 -11.2043 -11.2043
   -11.2024 -11.2023  -6.3637  -6.3637  -2.6971  -2.6971  -2.6902  -2.6845
    -2.5075  -2.5075  -1.4177  -1.4177  -1.3835  -1.3496  -1.0409  -1.0409
    -0.9352  -0.9352  -0.4009  -0.3839  -0.3422  -0.3422  -0.0962  -0.0962
    -0.0173   0.0022

     occupation numbers 
     1.0000   1.0000   1.0000   1.0000   1.0000   1.0000   1.0000   1.0000
     1.0000   1.0000   1.0000   1.0000   1.0000   1.0000   1.0000   1.0000
     1.0000   1.0000   1.0000   1.0000   1.0000   1.0000   1.0000   1.0000
     1.0000   1.0000   1.0000   1.0000   1.0000   1.0000   1.0000   1.0000
     1.0000   1.0000   1.0000   1.0000   1.0000   1.0000   1.0000   1.0000
     1.0000   1.0000

          k = 0.0833 0.0833 0.2500 ( 19945 PWs)   bands (ev):

   -21.8004 -21.8004 -21.8004 -21.8004 -20.7878 -20.7878 -20.7503 -20.7503
   -20.7502 -20.7502 -11.8996 -11.8996 -11.2385 -11.2371 -11.2084 -11.2070
   -11.2024 -11.2022  -6.3417  -6.3411  -2.7559  -2.7326  -2.6926  -2.6896
    -2.5484  -2.5141  -1.4291  -1.4139  -1.3053  -1.2631  -1.0824  -1.0243
    -0.9510  -0.9065  -0.4735  -0.4492  -0.3475  -0.3293  -0.2309  -0.2123
    -0.0537  -0.0292

     occupation numbers 
     1.0000   1.0000   1.0000   1.0000   1.0000   1.0000   1.0000   1.0000
     1.0000   1.0000   1.0000   1.0000   1.0000   1.0000   1.0000   1.0000
     1.0000   1.0000   1.0000   1.0000   1.0000   1.0000   1.0000   1.0000
     1.0000   1.0000   1.0000   1.0000   1.0000   1.0000   1.0000   1.0000
     1.0000   1.0000   1.0000   1.0000   1.0000   1.0000   1.0000   1.0000
     1.0000   1.0000

          k = 0.0833 0.0833 0.4167 ( 19966 PWs)   bands (ev):

   -21.8004 -21.8004 -21.8004 -21.8004 -20.7878 -20.7878 -20.7503 -20.7503
   -20.7503 -20.7502 -11.8752 -11.8752 -11.2706 -11.2693 -11.2080 -11.2065
   -11.2017 -11.2014  -6.3194  -6.3182  -2.8128  -2.7726  -2.7001  -2.6831
    -2.5888  -2.5221  -1.4329  -1.4096  -1.1923  -1.1781  -1.0678  -1.0167
    -0.9897  -0.9163  -0.5498  -0.5274  -0.4554  -0.3580  -0.2456  -0.2107
    -0.1305  -0.1030

     occupation numbers 
     1.0000   1.0000   1.0000   1.0000   1.0000   1.0000   1.0000   1.0000
     1.0000   1.0000   1.0000   1.0000   1.0000   1.0000   1.0000   1.0000
     1.0000   1.0000   1.0000   1.0000   1.0000   1.0000   1.0000   1.0000
     1.0000   1.0000   1.0000   1.0000   1.0000   1.0000   1.0000   1.0000
     1.0000   1.0000   1.0000   1.0000   1.0000   1.0000   1.0000   1.0000
     1.0000   1.0000

          k = 0.0833 0.2500 0.2500 ( 19937 PWs)   bands (ev):

   -21.8004 -21.8004 -21.8004 -21.8004 -20.7878 -20.7878 -20.7502 -20.7502
   -20.7502 -20.7502 -11.8797 -11.8796 -11.2408 -11.2380 -11.2269 -11.2260
   -11.2078 -11.2056  -6.3297  -6.3286  -2.8040  -2.7647  -2.7172  -2.6995
    -2.5688  -2.5159  -1.5018  -1.4775  -1.2183  -1.1483  -1.0649  -1.0065
    -0.9099  -0.8708  -0.5312  -0.4875  -0.3956  -0.3564  -0.2581  -0.2400
    -0.0599  -0.0184

     occupation numbers 
     1.0000   1.0000   1.0000   1.0000   1.0000   1.0000   1.0000   1.0000
     1.0000   1.0000   1.0000   1.0000   1.0000   1.0000   1.0000   1.0000
     1.0000   1.0000   1.0000   1.0000   1.0000   1.0000   1.0000   1.0000
     1.0000   1.0000   1.0000   1.0000   1.0000   1.0000   1.0000   1.0000
     1.0000   1.0000   1.0000   1.0000   1.0000   1.0000   1.0000   1.0000
     1.0000   1.0000

          k = 0.0833 0.2500 0.4167 ( 19962 PWs)   bands (ev):

   -21.8004 -21.8004 -21.8004 -21.8004 -20.7878 -20.7878 -20.7503 -20.7503
   -20.7502 -20.7502 -11.8580 -11.8579 -11.2636 -11.2609 -11.2277 -11.2259
   -11.2110 -11.2089  -6.3176  -6.3159  -2.8551  -2.8075  -2.7268  -2.6993
    -2.5938  -2.5193  -1.5383  -1.5272  -1.1277  -1.0809  -1.0251  -1.0041
    -0.8506  -0.8367  -0.5754  -0.5615  -0.5041  -0.3929  -0.2232  -0.1852
    -0.1143  -0.0539

     occupation numbers 
     1.0000   1.0000   1.0000   1.0000   1.0000   1.0000   1.0000   1.0000
     1.0000   1.0000   1.0000   1.0000   1.0000   1.0000   1.0000   1.0000
     1.0000   1.0000   1.0000   1.0000   1.0000   1.0000   1.0000   1.0000
     1.0000   1.0000   1.0000   1.0000   1.0000   1.0000   1.0000   1.0000
     1.0000   1.0000   1.0000   1.0000   1.0000   1.0000   1.0000   1.0000
     1.0000   1.0000

          k = 0.0833 0.4167 0.4167 ( 19953 PWs)   bands (ev):

   -21.8004 -21.8004 -21.8004 -21.8004 -20.7878 -20.7878 -20.7503 -20.7502
   -20.7502 -20.7502 -11.8395 -11.8394 -11.2555 -11.2527 -11.2473 -11.2466
   -11.2205 -11.2182  -6.3153  -6.3142  -2.8886  -2.8654  -2.7333  -2.7163
    -2.5766  -2.5384  -1.6018  -1.6011  -1.0820  -1.0769  -0.9789  -0.9756
    -0.7321  -0.6947  -0.6011  -0.5859  -0.5235  -0.5141  -0.1890  -0.1516
    -0.0822  -0.0311

     occupation numbers 
     1.0000   1.0000   1.0000   1.0000   1.0000   1.0000   1.0000   1.0000
     1.0000   1.0000   1.0000   1.0000   1.0000   1.0000   1.0000   1.0000
     1.0000   1.0000   1.0000   1.0000   1.0000   1.0000   1.0000   1.0000
     1.0000   1.0000   1.0000   1.0000   1.0000   1.0000   1.0000   1.0000
     1.0000   1.0000   1.0000   1.0000   1.0000   1.0000   1.0000   1.0000
     1.0000   1.0000

          k = 0.2500 0.2500 0.2500 ( 19951 PWs)   bands (ev):

   -21.8004 -21.8004 -21.8004 -21.8004 -20.7878 -20.7878 -20.7502 -20.7502
   -20.7502 -20.7502 -11.8621 -11.8621 -11.2422 -11.2422 -11.2276 -11.2276
   -11.2232 -11.2230  -6.3275  -6.3275  -2.7956  -2.7956  -2.7561  -2.7501
    -2.5573  -2.5573  -1.5747  -1.5747  -1.0996  -1.0283  -0.9778  -0.9778
    -0.8664  -0.8664  -0.5513  -0.5198  -0.4312  -0.4312  -0.2023  -0.2023
    -0.0426   0.0014

     occupation numbers 
     1.0000   1.0000   1.0000   1.0000   1.0000   1.0000   1.0000   1.0000
     1.0000   1.0000   1.0000   1.0000   1.0000   1.0000   1.0000   1.0000
     1.0000   1.0000   1.0000   1.0000   1.0000   1.0000   1.0000   1.0000
     1.0000   1.0000   1.0000   1.0000   1.0000   1.0000   1.0000   1.0000
     1.0000   1.0000   1.0000   1.0000   1.0000   1.0000   1.0000   1.0000
     1.0000   1.0000

          k = 0.2500 0.2500 0.4167 ( 19931 PWs)   bands (ev):

   -21.8004 -21.8004 -21.8004 -21.8004 -20.7878 -20.7878 -20.7502 -20.7502
   -20.7502 -20.7502 -11.8432 -11.8432 -11.2593 -11.2557 -11.2351 -11.2311
   -11.2244 -11.2237  -6.3264  -6.3253  -2.8475  -2.8174  -2.7726  -2.7630
    -2.5966  -2.5506  -1.6279  -1.6231  -1.0188  -0.9452  -0.9384  -0.8992
    -0.8414  -0.8270  -0.5662  -0.5641  -0.5057  -0.4453  -0.1458  -0.1369
    -0.0718  -0.0169

     occupation numbers 
     1.0000   1.0000   1.0000   1.0000   1.0000   1.0000   1.0000   1.0000
     1.0000   1.0000   1.0000   1.0000   1.0000   1.0000   1.0000   1.0000
     1.0000   1.0000   1.0000   1.0000   1.0000   1.0000   1.0000   1.0000
     1.0000   1.0000   1.0000   1.0000   1.0000   1.0000   1.0000   1.0000
     1.0000   1.0000   1.0000   1.0000   1.0000   1.0000   1.0000   1.0000
     1.0000   1.0000

          k = 0.2500 0.4167 0.4167 ( 19984 PWs)   bands (ev):

   -21.8004 -21.8004 -21.8004 -21.8004 -20.7878 -20.7878 -20.7503 -20.7503
   -20.7503 -20.7503 -11.8276 -11.8276 -11.2546 -11.2522 -11.2463 -11.2457
   -11.2328 -11.2310  -6.3350  -6.3344  -2.8671  -2.8538  -2.7978  -2.7918
    -2.5971  -2.5799  -1.6803  -1.6751  -0.9436  -0.9222  -0.8736  -0.8536
    -0.7797  -0.7045  -0.5531  -0.5481  -0.5146  -0.5132  -0.0905  -0.0727
    -0.0372   0.0072

     occupation numbers 
     1.0000   1.0000   1.0000   1.0000   1.0000   1.0000   1.0000   1.0000
     1.0000   1.0000   1.0000   1.0000   1.0000   1.0000   1.0000   1.0000
     1.0000   1.0000   1.0000   1.0000   1.0000   1.0000   1.0000   1.0000
     1.0000   1.0000   1.0000   1.0000   1.0000   1.0000   1.0000   1.0000
     1.0000   1.0000   1.0000   1.0000   1.0000   1.0000   1.0000   1.0000
     1.0000   1.0000

          k = 0.4167 0.4167 0.4167 ( 19949 PWs)   bands (ev):

   -21.8004 -21.8004 -21.8004 -21.8004 -20.7878 -20.7878 -20.7503 -20.7502
   -20.7502 -20.7502 -11.8151 -11.8151 -11.2537 -11.2537 -11.2457 -11.2457
   -11.2435 -11.2434  -6.3542  -6.3542  -2.8594  -2.8594  -2.8535  -2.8524
    -2.6141  -2.6141  -1.7119  -1.7119  -0.8283  -0.8283  -0.8007  -0.7886
    -0.7059  -0.7059  -0.5299  -0.5119  -0.5119  -0.5091   0.0078   0.0078
     0.0110   0.0449

     occupation numbers 
     1.0000   1.0000   1.0000   1.0000   1.0000   1.0000   1.0000   1.0000
     1.0000   1.0000   1.0000   1.0000   1.0000   1.0000   1.0000   1.0000
     1.0000   1.0000   1.0000   1.0000   1.0000   1.0000   1.0000   1.0000
     1.0000   1.0000   1.0000   1.0000   1.0000   1.0000   1.0000   1.0000
     1.0000   1.0000   1.0000   1.0000   1.0000   1.0000   1.0000   1.0000
     1.0000   1.0000

     highest occupied level (ev):     0.0449

!    total energy              =   -1933.74583484 Ry
     Harris-Foulkes estimate   =   -1933.74583499 Ry
     estimated scf accuracy    <       0.00000018 Ry

     total all-electron energy =    -69281.863099 Ry

     The total energy is the sum of the following terms:

     one-electron contribution =    -155.34179363 Ry
     hartree contribution      =      94.82852561 Ry
     xc contribution           =    -110.25322140 Ry
     ewald contribution        =    -119.43299744 Ry
     one-center paw contrib.   =   -1643.54634798 Ry
      -> PAW hartree energy AE =     109.93193884 Ry
      -> PAW hartree energy PS =    -109.18208062 Ry
      -> PAW xc energy AE      =    -324.42062429 Ry
      -> PAW xc energy PS      =      46.78679522 Ry
      -> total E_H with PAW    =      95.57838383 Ry
      -> total E_XC with PAW   =    -387.88705047 Ry

     convergence has been achieved in   9 iterations

     Forces acting on atoms (cartesian axes, Ry/au):

     atom    1 type  1   force =     0.00000000    0.00000000    0.00000000
     atom    2 type  2   force =    -0.00379689    0.00379689    0.00379689
     atom    3 type  2   force =     0.00379689   -0.00379689    0.00379689
     atom    4 type  2   force =     0.00379689    0.00379689   -0.00379689
     atom    5 type  2   force =    -0.00379689   -0.00379689   -0.00379689
     The non-local contrib.  to forces
     atom    1 type  1   force =     0.00000000   -0.00000000    0.00000000
     atom    2 type  2   force =    -0.08594546    0.08594546    0.08594546
     atom    3 type  2   force =     0.08594546   -0.08594546    0.08594546
     atom    4 type  2   force =     0.08594546    0.08594546   -0.08594546
     atom    5 type  2   force =    -0.08594546   -0.08594546   -0.08594546
     The ionic contribution  to forces
     atom    1 type  1   force =     0.00000000    0.00000000   -0.00000000
     atom    2 type  2   force =     3.79412126   -3.79412126   -3.79412126
     atom    3 type  2   force =    -3.79412126    3.79412126   -3.79412126
     atom    4 type  2   force =    -3.79412126   -3.79412126    3.79412126
     atom    5 type  2   force =     3.79412126    3.79412126    3.79412126
     The local contribution  to forces
     atom    1 type  1   force =     0.00000000    0.00000000    0.00000000
     atom    2 type  2   force =    -3.71974795    3.71974795    3.71974795
     atom    3 type  2   force =     3.71974795   -3.71974795    3.71974795
     atom    4 type  2   force =     3.71974795    3.71974795   -3.71974795
     atom    5 type  2   force =    -3.71974795   -3.71974795   -3.71974795
     The core correction contribution to forces
     atom    1 type  1   force =     0.00000000    0.00000000    0.00000000
     atom    2 type  2   force =     0.00751416   -0.00751416   -0.00751416
     atom    3 type  2   force =    -0.00751416    0.00751416   -0.00751416
     atom    4 type  2   force =    -0.00751416   -0.00751416    0.00751416
     atom    5 type  2   force =     0.00751416    0.00751416    0.00751416
     The Hubbard contrib.    to forces
     atom    1 type  1   force =     0.00000000    0.00000000    0.00000000
     atom    2 type  2   force =     0.00000000    0.00000000    0.00000000
     atom    3 type  2   force =     0.00000000    0.00000000    0.00000000
     atom    4 type  2   force =     0.00000000    0.00000000    0.00000000
     atom    5 type  2   force =     0.00000000    0.00000000    0.00000000
     The SCF correction term to forces
     atom    1 type  1   force =    -0.00000000   -0.00000000   -0.00000000
     atom    2 type  2   force =     0.00026110   -0.00026110   -0.00026110
     atom    3 type  2   force =    -0.00026110    0.00026110   -0.00026110
     atom    4 type  2   force =    -0.00026110   -0.00026110    0.00026110
     atom    5 type  2   force =     0.00026110    0.00026110    0.00026110

     Total force =     0.013153     Total SCF correction =     0.000904


     Computing stress (Cartesian axis) and pressure

     Message from routine stres:
     noncollinear stress + GGA not implemented

     Writing output data file SnI2.save/
 
     init_run     :      9.38s CPU     14.72s WALL (       1 calls)
     electrons    :    168.63s CPU    269.31s WALL (       1 calls)
     forces       :      2.37s CPU      3.47s WALL (       1 calls)

     Called by init_run:
     wfcinit      :      6.84s CPU     10.87s WALL (       1 calls)
     wfcinit:atom :      0.01s CPU      0.01s WALL (      10 calls)
     wfcinit:wfcr :      6.76s CPU     10.76s WALL (      10 calls)
     potinit      :      1.20s CPU      2.06s WALL (       1 calls)
     hinit0       :      0.47s CPU      0.64s WALL (       1 calls)

     Called by electrons:
     c_bands      :    121.68s CPU    196.57s WALL (      10 calls)
     sum_band     :     35.45s CPU     56.17s WALL (      10 calls)
     v_of_rho     :      0.52s CPU      0.76s WALL (      10 calls)
     v_h          :      0.03s CPU      0.10s WALL (      10 calls)
     v_xc         :      0.61s CPU      0.88s WALL (      11 calls)
     newd         :      5.37s CPU      7.19s WALL (      10 calls)
     PAW_pot      :      3.51s CPU      4.83s WALL (      10 calls)
     mix_rho      :      1.36s CPU      2.45s WALL (      10 calls)

     Called by c_bands:
     init_us_2    :      0.47s CPU      0.71s WALL (     220 calls)
     cegterg      :    115.97s CPU    189.89s WALL (     100 calls)

     Called by sum_band:
     sum_band:bec :      1.14s CPU      1.47s WALL (     100 calls)
     addusdens    :      3.97s CPU      4.71s WALL (      10 calls)

     Called by *egterg:
     h_psi        :     77.48s CPU    134.01s WALL (     350 calls)
     s_psi        :      1.31s CPU      1.60s WALL (     350 calls)
     g_psi        :      0.10s CPU      0.11s WALL (     240 calls)
     cdiaghg      :      6.24s CPU      9.94s WALL (     330 calls)
     cegterg:over :     11.11s CPU     14.95s WALL (     240 calls)
     cegterg:upda :     13.02s CPU     19.75s WALL (     240 calls)
     cegterg:last :      2.82s CPU      3.94s WALL (     100 calls)
     cdiaghg:chol :      0.42s CPU      0.65s WALL (     330 calls)
     cdiaghg:inve :      0.26s CPU      0.41s WALL (     330 calls)
     cdiaghg:para :      1.54s CPU      2.45s WALL (     660 calls)

     Called by h_psi:
     h_psi:pot    :     76.95s CPU    133.44s WALL (     350 calls)
     h_psi:calbec :      1.70s CPU      2.26s WALL (     350 calls)
     vloc_psi     :     73.95s CPU    129.57s WALL (     350 calls)
     add_vuspsi   :      1.30s CPU      1.61s WALL (     350 calls)

     General routines
     calbec       :      2.95s CPU      4.06s WALL (     490 calls)
     fft          :      2.69s CPU      4.78s WALL (     221 calls)
     ffts         :      0.95s CPU      1.74s WALL (      80 calls)
     fftw         :     99.22s CPU    172.74s WALL (   54340 calls)
     interpolate  :      1.17s CPU      2.18s WALL (      40 calls)
 
     Parallel routines
     fft_scatt_xy :      2.39s CPU      2.90s WALL (   54641 calls)
     fft_scatt_yz :     89.15s CPU    162.01s WALL (   54641 calls)

     PAW routines
     PAW_pot      :      3.51s CPU      4.83s WALL (      10 calls)
     PAW_symme    :      0.16s CPU      0.24s WALL (      20 calls)
 
     PWSCF        :   3m 6.42s CPU   4m55.39s WALL

 
   This run was terminated on:  18:58:22  24Jan2021            

=------------------------------------------------------------------------------=
   JOB DONE.
=------------------------------------------------------------------------------=
