
     Program PWSCF v.6.7MaX starts on 31Jan2021 at 11:24: 9 

     This program is part of the open-source Quantum ESPRESSO suite
     for quantum simulation of materials; please cite
         "P. Giannozzi et al., J. Phys.:Condens. Matter 21 395502 (2009);
         "P. Giannozzi et al., J. Phys.:Condens. Matter 29 465901 (2017);
          URL http://www.quantum-espresso.org", 
     in publications or presentations arising from this work. More details at
     http://www.quantum-espresso.org/quote

     Parallel version (MPI & OpenMP), running on      96 processor cores
     Number of MPI processes:                48
     Threads/MPI process:                     2

     MPI processes distributed on     2 nodes
     R & G space division:  proc/nbgrp/npool/nimage =      48
     Waiting for input...
     Reading input from standard input

     Current dimensions of program PWSCF are:
     Max number of different atomic species (ntypx) = 10
     Max number of k-points (npk) =  40000
     Max angular momentum in pseudopotentials (lmaxx) =  3
     file Sn.rel-pbesol-dn-rrkjus_psl.1.0.0.UPF: wavefunction(s)  5S 4D 4D renormalized
     file I.rel-pbesol-n-rrkjus_psl.1.0.0.UPF: wavefunction(s)  5S renormalized

     Subspace diagonalization in iterative solution of the eigenvalue problem:
     a serial algorithm will be used


     Parallelization info
     --------------------
     sticks:   dense  smooth     PW     G-vecs:    dense   smooth      PW
     Min         120      96     25                 6900     4938     691
     Max         121      97     26                 6907     4943     698
     Sum        5761    4637   1245               331237   237129   33371


     Title: 
     SnI2                                                                       


     bravais-lattice index     =            1
     lattice parameter (alat)  =      14.4199  a.u.
     unit-cell volume          =    2998.4083 (a.u.)^3
     number of atoms/cell      =            6
     number of atomic types    =            2
     number of electrons       =        56.00
     number of Kohn-Sham states=           56
     kinetic-energy cutoff     =      70.0000  Ry
     charge density cutoff     =     350.0000  Ry
     scf convergence threshold =      1.0E-06
     mixing beta               =       0.3500
     number of iterations used =            8  plain     mixing
     Exchange-correlation= PBESOL
                           (   1   4  10   8   0   0   0)
     Non magnetic calculation with spin-orbit


     celldm(1)=  14.419944  celldm(2)=   0.000000  celldm(3)=   0.000000
     celldm(4)=   0.000000  celldm(5)=   0.000000  celldm(6)=   0.000000

     crystal axes: (cart. coord. in units of alat)
               a(1) = (   1.000000   0.000000   0.000000 )  
               a(2) = (   0.000000   1.000000   0.000000 )  
               a(3) = (   0.000000   0.000000   1.000000 )  

     reciprocal axes: (cart. coord. in units 2 pi/alat)
               b(1) = (  1.000000  0.000000  0.000000 )  
               b(2) = (  0.000000  1.000000  0.000000 )  
               b(3) = (  0.000000  0.000000  1.000000 )  


     PseudoPot. # 1 for Sn read from file:
     /scratch/cmalosso/degironcoli/pseudo/pseudo-usp/Sn.rel-pbesol-dn-rrkjus_psl.1.0.0.UPF
     MD5 check sum: c1cf6ea56b96a3656bdf0d1db379e093
     Pseudo is Ultrasoft + core correction, Zval = 14.0
     Generated using &quot;atomic&quot; code by A. Dal Corso  v.6.3
     Using radial grid of 1243 points, 10 beta functions with: 
                l(1) =   0
                l(2) =   0
                l(3) =   1
                l(4) =   1
                l(5) =   1
                l(6) =   1
                l(7) =   2
                l(8) =   2
                l(9) =   2
               l(10) =   2
     Q(r) pseudized with 0 coefficients 


     PseudoPot. # 2 for I  read from file:
     /scratch/cmalosso/degironcoli/pseudo/pseudo-usp/I.rel-pbesol-n-rrkjus_psl.1.0.0.UPF
     MD5 check sum: 0f96c6bfb1b448f280658f96eb466b08
     Pseudo is Ultrasoft + core correction, Zval =  7.0
     Generated using &quot;atomic&quot; code by A. Dal Corso  v.6.3
     Using radial grid of 1247 points, 10 beta functions with: 
                l(1) =   0
                l(2) =   0
                l(3) =   1
                l(4) =   1
                l(5) =   1
                l(6) =   1
                l(7) =   2
                l(8) =   2
                l(9) =   2
               l(10) =   2
     Q(r) pseudized with 0 coefficients 


     atomic species   valence    mass     pseudopotential
        Sn            14.00   118.70000     Sn( 1.00)
        I              7.00   126.90000     I ( 1.00)

     16 Sym. Ops., with inversion, found ( 8 have fractional translation)


                                    s                        frac. trans.

      isym =  1     identity                                     

 cryst.   s( 1) = (     1          0          0      )
                  (     0          1          0      )
                  (     0          0          1      )

 cart.    s( 1) = (  1.0000000  0.0000000  0.0000000 )
                  (  0.0000000  1.0000000  0.0000000 )
                  (  0.0000000  0.0000000  1.0000000 )


      isym =  2     180 deg rotation - cart. axis [0,0,1]        

 cryst.   s( 2) = (    -1          0          0      )
                  (     0         -1          0      )
                  (     0          0          1      )

 cart.    s( 2) = ( -1.0000000  0.0000000  0.0000000 )
                  (  0.0000000 -1.0000000  0.0000000 )
                  (  0.0000000  0.0000000  1.0000000 )


      isym =  3     180 deg rotation - cart. axis [0,1,0]        

 cryst.   s( 3) = (    -1          0          0      )    f =(  0.5000000 )
                  (     0          1          0      )       ( -0.5000000 )
                  (     0          0         -1      )       (  0.5000000 )

 cart.    s( 3) = ( -1.0000000  0.0000000  0.0000000 )    f =(  0.5000000 )
                  (  0.0000000  1.0000000  0.0000000 )       ( -0.5000000 )
                  (  0.0000000  0.0000000 -1.0000000 )       (  0.5000000 )


      isym =  4     180 deg rotation - cart. axis [1,0,0]        

 cryst.   s( 4) = (     1          0          0      )    f =( -0.5000000 )
                  (     0         -1          0      )       (  0.5000000 )
                  (     0          0         -1      )       (  0.5000000 )

 cart.    s( 4) = (  1.0000000  0.0000000  0.0000000 )    f =( -0.5000000 )
                  (  0.0000000 -1.0000000  0.0000000 )       (  0.5000000 )
                  (  0.0000000  0.0000000 -1.0000000 )       (  0.5000000 )


      isym =  5     180 deg rotation - cart. axis [1,1,0]        

 cryst.   s( 5) = (     0          1          0      )
                  (     1          0          0      )
                  (     0          0         -1      )

 cart.    s( 5) = (  0.0000000  1.0000000  0.0000000 )
                  (  1.0000000  0.0000000  0.0000000 )
                  (  0.0000000  0.0000000 -1.0000000 )


      isym =  6     180 deg rotation - cart. axis [1,-1,0]       

 cryst.   s( 6) = (     0         -1          0      )
                  (    -1          0          0      )
                  (     0          0         -1      )

 cart.    s( 6) = (  0.0000000 -1.0000000  0.0000000 )
                  ( -1.0000000  0.0000000  0.0000000 )
                  (  0.0000000  0.0000000 -1.0000000 )


      isym =  7      90 deg rotation - cart. axis [0,0,-1]       

 cryst.   s( 7) = (     0         -1          0      )    f =( -0.5000000 )
                  (     1          0          0      )       (  0.5000000 )
                  (     0          0          1      )       ( -0.5000000 )

 cart.    s( 7) = (  0.0000000  1.0000000  0.0000000 )    f =( -0.5000000 )
                  ( -1.0000000  0.0000000  0.0000000 )       (  0.5000000 )
                  (  0.0000000  0.0000000  1.0000000 )       ( -0.5000000 )


      isym =  8      90 deg rotation - cart. axis [0,0,1]        

 cryst.   s( 8) = (     0          1          0      )    f =(  0.5000000 )
                  (    -1          0          0      )       ( -0.5000000 )
                  (     0          0          1      )       ( -0.5000000 )

 cart.    s( 8) = (  0.0000000 -1.0000000  0.0000000 )    f =(  0.5000000 )
                  (  1.0000000  0.0000000  0.0000000 )       ( -0.5000000 )
                  (  0.0000000  0.0000000  1.0000000 )       ( -0.5000000 )


      isym =  9     inversion                                    

 cryst.   s( 9) = (    -1          0          0      )
                  (     0         -1          0      )
                  (     0          0         -1      )

 cart.    s( 9) = ( -1.0000000  0.0000000  0.0000000 )
                  (  0.0000000 -1.0000000  0.0000000 )
                  (  0.0000000  0.0000000 -1.0000000 )


      isym = 10     inv. 180 deg rotation - cart. axis [0,0,1]   

 cryst.   s(10) = (     1          0          0      )
                  (     0          1          0      )
                  (     0          0         -1      )

 cart.    s(10) = (  1.0000000  0.0000000  0.0000000 )
                  (  0.0000000  1.0000000  0.0000000 )
                  (  0.0000000  0.0000000 -1.0000000 )


      isym = 11     inv. 180 deg rotation - cart. axis [0,1,0]   

 cryst.   s(11) = (     1          0          0      )    f =( -0.5000000 )
                  (     0         -1          0      )       (  0.5000000 )
                  (     0          0          1      )       ( -0.5000000 )

 cart.    s(11) = (  1.0000000  0.0000000  0.0000000 )    f =( -0.5000000 )
                  (  0.0000000 -1.0000000  0.0000000 )       (  0.5000000 )
                  (  0.0000000  0.0000000  1.0000000 )       ( -0.5000000 )


      isym = 12     inv. 180 deg rotation - cart. axis [1,0,0]   

 cryst.   s(12) = (    -1          0          0      )    f =(  0.5000000 )
                  (     0          1          0      )       ( -0.5000000 )
                  (     0          0          1      )       ( -0.5000000 )

 cart.    s(12) = ( -1.0000000  0.0000000  0.0000000 )    f =(  0.5000000 )
                  (  0.0000000  1.0000000  0.0000000 )       ( -0.5000000 )
                  (  0.0000000  0.0000000  1.0000000 )       ( -0.5000000 )


      isym = 13     inv. 180 deg rotation - cart. axis [1,1,0]   

 cryst.   s(13) = (     0         -1          0      )
                  (    -1          0          0      )
                  (     0          0          1      )

 cart.    s(13) = (  0.0000000 -1.0000000  0.0000000 )
                  ( -1.0000000  0.0000000  0.0000000 )
                  (  0.0000000  0.0000000  1.0000000 )


      isym = 14     inv. 180 deg rotation - cart. axis [1,-1,0]  

 cryst.   s(14) = (     0          1          0      )
                  (     1          0          0      )
                  (     0          0          1      )

 cart.    s(14) = (  0.0000000  1.0000000  0.0000000 )
                  (  1.0000000  0.0000000  0.0000000 )
                  (  0.0000000  0.0000000  1.0000000 )


      isym = 15     inv.  90 deg rotation - cart. axis [0,0,-1]  

 cryst.   s(15) = (     0          1          0      )    f =(  0.5000000 )
                  (    -1          0          0      )       ( -0.5000000 )
                  (     0          0         -1      )       (  0.5000000 )

 cart.    s(15) = (  0.0000000 -1.0000000  0.0000000 )    f =(  0.5000000 )
                  (  1.0000000  0.0000000  0.0000000 )       ( -0.5000000 )
                  (  0.0000000  0.0000000 -1.0000000 )       (  0.5000000 )


      isym = 16     inv.  90 deg rotation - cart. axis [0,0,1]   

 cryst.   s(16) = (     0         -1          0      )    f =( -0.5000000 )
                  (     1          0          0      )       (  0.5000000 )
                  (     0          0         -1      )       (  0.5000000 )

 cart.    s(16) = (  0.0000000  1.0000000  0.0000000 )    f =( -0.5000000 )
                  ( -1.0000000  0.0000000  0.0000000 )       (  0.5000000 )
                  (  0.0000000  0.0000000 -1.0000000 )       (  0.5000000 )


     double point group D_4h(4/mmm)
     there are 14 classes and  4 irreducible representations
     the character table:

       E     -E    2C4   -2C4   C2    2C2' 2C2'' i     -i    2S4   -2S4   s_h 
                               -C2   -2C2' -2C2'                         -s_h 
G_6+   2.00 -2.00  1.41 -1.41  0.00  0.00  0.00  2.00 -2.00  1.41 -1.41  0.00
G_7+   2.00 -2.00 -1.41  1.41  0.00  0.00  0.00  2.00 -2.00 -1.41  1.41  0.00
G_6-   2.00 -2.00  1.41 -1.41  0.00  0.00  0.00 -2.00  2.00 -1.41  1.41  0.00
G_7-   2.00 -2.00 -1.41  1.41  0.00  0.00  0.00 -2.00  2.00  1.41 -1.41  0.00

        2s_v  2s_d
       -2s_v -2s_d
G_6+   0.00  0.00
G_7+   0.00  0.00
G_6-   0.00  0.00
G_7-   0.00  0.00

     the symmetry operations in each class and the name of the first element:

     E             1
          identity                                               
     -E           -1
          identity E                                             
     2C4           7    8
           90 deg rotation - cart. axis [0,0,-1]                 
     -2C4         -7   -8
           90 deg rotation - cart. axis [0,0,-1] E               
      C2  -C2      2   -2
          180 deg rotation - cart. axis [0,0,1]                  
      2C2'-2C2'    3   -3    4   -4
          180 deg rotation - cart. axis [0,1,0]                  
     2C2''-2C2'    5   -5   -6    6
          180 deg rotation - cart. axis [1,1,0]                  
     i             9
          inversion                                              
     -i           -9
          inversion E                                            
     2S4          15   16
          inv.  90 deg rotation - cart. axis [0,0,-1]            
     -2S4        -15  -16
          inv.  90 deg rotation - cart. axis [0,0,-1] E          
      s_h -s_h    10  -10
          inv. 180 deg rotation - cart. axis [0,0,1]             
      2s_v-2s_v   11  -11   12  -12
          inv. 180 deg rotation - cart. axis [0,1,0]             
      2s_d-2s_d   13  -13  -14   14
          inv. 180 deg rotation - cart. axis [1,1,0]             

   Cartesian axes

     site n.     atom                  positions (alat units)
         1           Sn  tau(   1) = (   0.0000000   0.0000000   0.0000000  )
         2           Sn  tau(   2) = (   0.5000000   0.5000000   0.5000000  )
         3           I   tau(   3) = (   0.2985210   0.2985210   0.0000000  )
         4           I   tau(   4) = (   0.7014790   0.7014790   0.0000000  )
         5           I   tau(   5) = (   0.7985210   0.2014790   0.5000000  )
         6           I   tau(   6) = (   0.2014790   0.7985210   0.5000000  )

   Crystallographic axes

     site n.     atom                  positions (cryst. coord.)
         1           Sn  tau(   1) = (  0.0000000  0.0000000  0.0000000  )
         2           Sn  tau(   2) = (  0.5000000  0.5000000  0.5000000  )
         3           I   tau(   3) = (  0.2985210  0.2985210  0.0000000  )
         4           I   tau(   4) = (  0.7014790  0.7014790  0.0000000  )
         5           I   tau(   5) = (  0.7985210  0.2014790  0.5000000  )
         6           I   tau(   6) = (  0.2014790  0.7985210  0.5000000  )

     number of k points=    75
                       cart. coord. in units 2pi/alat
        k(    1) = (   0.0500000   0.0500000   0.0500000), wk =   0.0080000
        k(    2) = (   0.0500000   0.0500000   0.1500000), wk =   0.0080000
        k(    3) = (   0.0500000   0.0500000   0.2500000), wk =   0.0080000
        k(    4) = (   0.0500000   0.0500000   0.3500000), wk =   0.0080000
        k(    5) = (   0.0500000   0.0500000   0.4500000), wk =   0.0080000
        k(    6) = (   0.0500000   0.1500000   0.1500000), wk =   0.0160000
        k(    7) = (   0.0500000   0.1500000   0.2500000), wk =   0.0160000
        k(    8) = (   0.0500000   0.1500000   0.3500000), wk =   0.0160000
        k(    9) = (   0.0500000   0.1500000   0.4500000), wk =   0.0160000
        k(   10) = (   0.0500000   0.2500000   0.2500000), wk =   0.0160000
        k(   11) = (   0.0500000   0.2500000   0.3500000), wk =   0.0160000
        k(   12) = (   0.0500000   0.2500000   0.4500000), wk =   0.0160000
        k(   13) = (   0.0500000   0.3500000   0.3500000), wk =   0.0160000
        k(   14) = (   0.0500000   0.3500000   0.4500000), wk =   0.0160000
        k(   15) = (   0.0500000   0.4500000   0.4500000), wk =   0.0160000
        k(   16) = (   0.1500000   0.1500000   0.1500000), wk =   0.0080000
        k(   17) = (   0.1500000   0.1500000   0.2500000), wk =   0.0080000
        k(   18) = (   0.1500000   0.1500000   0.3500000), wk =   0.0080000
        k(   19) = (   0.1500000   0.1500000   0.4500000), wk =   0.0080000
        k(   20) = (   0.1500000   0.2500000   0.2500000), wk =   0.0160000
        k(   21) = (   0.1500000   0.2500000   0.3500000), wk =   0.0160000
        k(   22) = (   0.1500000   0.2500000   0.4500000), wk =   0.0160000
        k(   23) = (   0.1500000   0.3500000   0.3500000), wk =   0.0160000
        k(   24) = (   0.1500000   0.3500000   0.4500000), wk =   0.0160000
        k(   25) = (   0.1500000   0.4500000   0.4500000), wk =   0.0160000
        k(   26) = (   0.2500000   0.2500000   0.2500000), wk =   0.0080000
        k(   27) = (   0.2500000   0.2500000   0.3500000), wk =   0.0080000
        k(   28) = (   0.2500000   0.2500000   0.4500000), wk =   0.0080000
        k(   29) = (   0.2500000   0.3500000   0.3500000), wk =   0.0160000
        k(   30) = (   0.2500000   0.3500000   0.4500000), wk =   0.0160000
        k(   31) = (   0.2500000   0.4500000   0.4500000), wk =   0.0160000
        k(   32) = (   0.3500000   0.3500000   0.3500000), wk =   0.0080000
        k(   33) = (   0.3500000   0.3500000   0.4500000), wk =   0.0080000
        k(   34) = (   0.3500000   0.4500000   0.4500000), wk =   0.0160000
        k(   35) = (   0.4500000   0.4500000   0.4500000), wk =   0.0080000
        k(   36) = (   0.0500000   0.1500000   0.0500000), wk =   0.0160000
        k(   37) = (   0.0500000   0.2500000   0.0500000), wk =   0.0160000
        k(   38) = (   0.0500000   0.3500000   0.0500000), wk =   0.0160000
        k(   39) = (   0.0500000   0.4500000   0.0500000), wk =   0.0160000
        k(   40) = (   0.1500000   0.1500000   0.0500000), wk =   0.0080000
        k(   41) = (   0.1500000   0.2500000   0.0500000), wk =   0.0160000
        k(   42) = (   0.2500000   0.0500000   0.1500000), wk =   0.0160000
        k(   43) = (   0.1500000   0.3500000   0.0500000), wk =   0.0160000
        k(   44) = (   0.3500000   0.0500000   0.1500000), wk =   0.0160000
        k(   45) = (   0.1500000   0.4500000   0.0500000), wk =   0.0160000
        k(   46) = (   0.4500000   0.0500000   0.1500000), wk =   0.0160000
        k(   47) = (   0.2500000   0.2500000   0.0500000), wk =   0.0080000
        k(   48) = (   0.2500000   0.3500000   0.0500000), wk =   0.0160000
        k(   49) = (   0.3500000   0.0500000   0.2500000), wk =   0.0160000
        k(   50) = (   0.2500000   0.4500000   0.0500000), wk =   0.0160000
        k(   51) = (   0.4500000   0.0500000   0.2500000), wk =   0.0160000
        k(   52) = (   0.3500000   0.3500000   0.0500000), wk =   0.0080000
        k(   53) = (   0.3500000   0.4500000   0.0500000), wk =   0.0160000
        k(   54) = (   0.4500000   0.0500000   0.3500000), wk =   0.0160000
        k(   55) = (   0.4500000   0.4500000   0.0500000), wk =   0.0080000
        k(   56) = (   0.1500000   0.2500000   0.1500000), wk =   0.0160000
        k(   57) = (   0.1500000   0.3500000   0.1500000), wk =   0.0160000
        k(   58) = (   0.1500000   0.4500000   0.1500000), wk =   0.0160000
        k(   59) = (   0.2500000   0.2500000   0.1500000), wk =   0.0080000
        k(   60) = (   0.2500000   0.3500000   0.1500000), wk =   0.0160000
        k(   61) = (   0.3500000   0.1500000   0.2500000), wk =   0.0160000
        k(   62) = (   0.2500000   0.4500000   0.1500000), wk =   0.0160000
        k(   63) = (   0.4500000   0.1500000   0.2500000), wk =   0.0160000
        k(   64) = (   0.3500000   0.3500000   0.1500000), wk =   0.0080000
        k(   65) = (   0.3500000   0.4500000   0.1500000), wk =   0.0160000
        k(   66) = (   0.4500000   0.1500000   0.3500000), wk =   0.0160000
        k(   67) = (   0.4500000   0.4500000   0.1500000), wk =   0.0080000
        k(   68) = (   0.2500000   0.3500000   0.2500000), wk =   0.0160000
        k(   69) = (   0.2500000   0.4500000   0.2500000), wk =   0.0160000
        k(   70) = (   0.3500000   0.3500000   0.2500000), wk =   0.0080000
        k(   71) = (   0.3500000   0.4500000   0.2500000), wk =   0.0160000
        k(   72) = (   0.4500000   0.2500000   0.3500000), wk =   0.0160000
        k(   73) = (   0.4500000   0.4500000   0.2500000), wk =   0.0080000
        k(   74) = (   0.3500000   0.4500000   0.3500000), wk =   0.0160000
        k(   75) = (   0.4500000   0.4500000   0.3500000), wk =   0.0080000

                       cryst. coord.
        k(    1) = (   0.0500000   0.0500000   0.0500000), wk =   0.0080000
        k(    2) = (   0.0500000   0.0500000   0.1500000), wk =   0.0080000
        k(    3) = (   0.0500000   0.0500000   0.2500000), wk =   0.0080000
        k(    4) = (   0.0500000   0.0500000   0.3500000), wk =   0.0080000
        k(    5) = (   0.0500000   0.0500000   0.4500000), wk =   0.0080000
        k(    6) = (   0.0500000   0.1500000   0.1500000), wk =   0.0160000
        k(    7) = (   0.0500000   0.1500000   0.2500000), wk =   0.0160000
        k(    8) = (   0.0500000   0.1500000   0.3500000), wk =   0.0160000
        k(    9) = (   0.0500000   0.1500000   0.4500000), wk =   0.0160000
        k(   10) = (   0.0500000   0.2500000   0.2500000), wk =   0.0160000
        k(   11) = (   0.0500000   0.2500000   0.3500000), wk =   0.0160000
        k(   12) = (   0.0500000   0.2500000   0.4500000), wk =   0.0160000
        k(   13) = (   0.0500000   0.3500000   0.3500000), wk =   0.0160000
        k(   14) = (   0.0500000   0.3500000   0.4500000), wk =   0.0160000
        k(   15) = (   0.0500000   0.4500000   0.4500000), wk =   0.0160000
        k(   16) = (   0.1500000   0.1500000   0.1500000), wk =   0.0080000
        k(   17) = (   0.1500000   0.1500000   0.2500000), wk =   0.0080000
        k(   18) = (   0.1500000   0.1500000   0.3500000), wk =   0.0080000
        k(   19) = (   0.1500000   0.1500000   0.4500000), wk =   0.0080000
        k(   20) = (   0.1500000   0.2500000   0.2500000), wk =   0.0160000
        k(   21) = (   0.1500000   0.2500000   0.3500000), wk =   0.0160000
        k(   22) = (   0.1500000   0.2500000   0.4500000), wk =   0.0160000
        k(   23) = (   0.1500000   0.3500000   0.3500000), wk =   0.0160000
        k(   24) = (   0.1500000   0.3500000   0.4500000), wk =   0.0160000
        k(   25) = (   0.1500000   0.4500000   0.4500000), wk =   0.0160000
        k(   26) = (   0.2500000   0.2500000   0.2500000), wk =   0.0080000
        k(   27) = (   0.2500000   0.2500000   0.3500000), wk =   0.0080000
        k(   28) = (   0.2500000   0.2500000   0.4500000), wk =   0.0080000
        k(   29) = (   0.2500000   0.3500000   0.3500000), wk =   0.0160000
        k(   30) = (   0.2500000   0.3500000   0.4500000), wk =   0.0160000
        k(   31) = (   0.2500000   0.4500000   0.4500000), wk =   0.0160000
        k(   32) = (   0.3500000   0.3500000   0.3500000), wk =   0.0080000
        k(   33) = (   0.3500000   0.3500000   0.4500000), wk =   0.0080000
        k(   34) = (   0.3500000   0.4500000   0.4500000), wk =   0.0160000
        k(   35) = (   0.4500000   0.4500000   0.4500000), wk =   0.0080000
        k(   36) = (   0.0500000   0.1500000   0.0500000), wk =   0.0160000
        k(   37) = (   0.0500000   0.2500000   0.0500000), wk =   0.0160000
        k(   38) = (   0.0500000   0.3500000   0.0500000), wk =   0.0160000
        k(   39) = (   0.0500000   0.4500000   0.0500000), wk =   0.0160000
        k(   40) = (   0.1500000   0.1500000   0.0500000), wk =   0.0080000
        k(   41) = (   0.1500000   0.2500000   0.0500000), wk =   0.0160000
        k(   42) = (   0.2500000   0.0500000   0.1500000), wk =   0.0160000
        k(   43) = (   0.1500000   0.3500000   0.0500000), wk =   0.0160000
        k(   44) = (   0.3500000   0.0500000   0.1500000), wk =   0.0160000
        k(   45) = (   0.1500000   0.4500000   0.0500000), wk =   0.0160000
        k(   46) = (   0.4500000   0.0500000   0.1500000), wk =   0.0160000
        k(   47) = (   0.2500000   0.2500000   0.0500000), wk =   0.0080000
        k(   48) = (   0.2500000   0.3500000   0.0500000), wk =   0.0160000
        k(   49) = (   0.3500000   0.0500000   0.2500000), wk =   0.0160000
        k(   50) = (   0.2500000   0.4500000   0.0500000), wk =   0.0160000
        k(   51) = (   0.4500000   0.0500000   0.2500000), wk =   0.0160000
        k(   52) = (   0.3500000   0.3500000   0.0500000), wk =   0.0080000
        k(   53) = (   0.3500000   0.4500000   0.0500000), wk =   0.0160000
        k(   54) = (   0.4500000   0.0500000   0.3500000), wk =   0.0160000
        k(   55) = (   0.4500000   0.4500000   0.0500000), wk =   0.0080000
        k(   56) = (   0.1500000   0.2500000   0.1500000), wk =   0.0160000
        k(   57) = (   0.1500000   0.3500000   0.1500000), wk =   0.0160000
        k(   58) = (   0.1500000   0.4500000   0.1500000), wk =   0.0160000
        k(   59) = (   0.2500000   0.2500000   0.1500000), wk =   0.0080000
        k(   60) = (   0.2500000   0.3500000   0.1500000), wk =   0.0160000
        k(   61) = (   0.3500000   0.1500000   0.2500000), wk =   0.0160000
        k(   62) = (   0.2500000   0.4500000   0.1500000), wk =   0.0160000
        k(   63) = (   0.4500000   0.1500000   0.2500000), wk =   0.0160000
        k(   64) = (   0.3500000   0.3500000   0.1500000), wk =   0.0080000
        k(   65) = (   0.3500000   0.4500000   0.1500000), wk =   0.0160000
        k(   66) = (   0.4500000   0.1500000   0.3500000), wk =   0.0160000
        k(   67) = (   0.4500000   0.4500000   0.1500000), wk =   0.0080000
        k(   68) = (   0.2500000   0.3500000   0.2500000), wk =   0.0160000
        k(   69) = (   0.2500000   0.4500000   0.2500000), wk =   0.0160000
        k(   70) = (   0.3500000   0.3500000   0.2500000), wk =   0.0080000
        k(   71) = (   0.3500000   0.4500000   0.2500000), wk =   0.0160000
        k(   72) = (   0.4500000   0.2500000   0.3500000), wk =   0.0160000
        k(   73) = (   0.4500000   0.4500000   0.2500000), wk =   0.0080000
        k(   74) = (   0.3500000   0.4500000   0.3500000), wk =   0.0160000
        k(   75) = (   0.4500000   0.4500000   0.3500000), wk =   0.0080000

     Dense  grid:   331237 G-vectors     FFT dimensions: (  90,  90,  90)

     Smooth grid:   237129 G-vectors     FFT dimensions: (  80,  80,  80)

     Dynamical RAM for                 wfc:       1.05 MB

     Dynamical RAM for     wfc (w. buffer):      80.14 MB

     Dynamical RAM for           str. fact:       0.21 MB

     Dynamical RAM for           local pot:       0.00 MB

     Dynamical RAM for          nlocal pot:       1.92 MB

     Dynamical RAM for                qrad:       7.86 MB

     Dynamical RAM for          rho,v,vnew:       2.75 MB

     Dynamical RAM for               rhoin:       0.92 MB

     Dynamical RAM for            rho*nmix:       6.74 MB

     Dynamical RAM for           G-vectors:       0.43 MB

     Dynamical RAM for          h,s,v(r/c):       0.57 MB

     Dynamical RAM for          <psi|beta>:       0.35 MB

     Dynamical RAM for                 psi:       2.11 MB

     Dynamical RAM for                hpsi:       2.11 MB

     Dynamical RAM for                spsi:       2.11 MB

     Dynamical RAM for      wfcinit/wfcrot:       2.03 MB

     Dynamical RAM for           addusdens:      64.66 MB

     Dynamical RAM for          addusforce:      65.40 MB

     Dynamical RAM for         addusstress:      66.14 MB

     Estimated static dynamical RAM per process >     102.27 MB

     Estimated max dynamical RAM per process >     168.41 MB

     Estimated total dynamical RAM >       7.89 GB

     Initial potential from superposition of free atoms

     starting charge   55.99772, renormalised to   56.00000
     Starting wfcs are   68 randomized atomic wfcs

     total cpu time spent up to now is       16.8 secs

     Self-consistent Calculation

     iteration #  1     ecut=    70.00 Ry     beta= 0.35
     Davidson diagonalization with overlap
     ethr =  1.00E-02,  avg # of iterations =  1.0

     total cpu time spent up to now is       48.1 secs

     total energy              =    -458.29945539 Ry
     estimated scf accuracy    <       0.58813067 Ry

     iteration #  2     ecut=    70.00 Ry     beta= 0.35
     Davidson diagonalization with overlap
     ethr =  1.05E-03,  avg # of iterations =  3.0

     total cpu time spent up to now is       88.7 secs

     total energy              =    -458.37633016 Ry
     estimated scf accuracy    <       0.06226674 Ry

     iteration #  3     ecut=    70.00 Ry     beta= 0.35
     Davidson diagonalization with overlap
     ethr =  1.11E-04,  avg # of iterations =  5.5

     total cpu time spent up to now is      141.6 secs

     total energy              =    -458.38991576 Ry
     estimated scf accuracy    <       0.04743106 Ry

     iteration #  4     ecut=    70.00 Ry     beta= 0.35
     Davidson diagonalization with overlap
     ethr =  8.47E-05,  avg # of iterations =  5.3

     total cpu time spent up to now is      192.4 secs

     total energy              =    -458.40002154 Ry
     estimated scf accuracy    <       0.03421966 Ry

     iteration #  5     ecut=    70.00 Ry     beta= 0.35
     Davidson diagonalization with overlap
     ethr =  6.11E-05,  avg # of iterations =  4.9

     total cpu time spent up to now is      235.1 secs

     total energy              =    -458.40715722 Ry
     estimated scf accuracy    <       0.00096812 Ry

     iteration #  6     ecut=    70.00 Ry     beta= 0.35
     Davidson diagonalization with overlap
     ethr =  1.73E-06,  avg # of iterations = 10.0

     total cpu time spent up to now is      304.0 secs

     total energy              =    -458.40522971 Ry
     estimated scf accuracy    <       0.00920079 Ry

     iteration #  7     ecut=    70.00 Ry     beta= 0.35
     Davidson diagonalization with overlap
     ethr =  1.73E-06,  avg # of iterations =  6.9

     total cpu time spent up to now is      361.2 secs

     total energy              =    -458.40744526 Ry
     estimated scf accuracy    <       0.00051144 Ry

     iteration #  8     ecut=    70.00 Ry     beta= 0.35
     Davidson diagonalization with overlap
     ethr =  9.13E-07,  avg # of iterations =  2.5

     total cpu time spent up to now is      399.4 secs

     total energy              =    -458.40748712 Ry
     estimated scf accuracy    <       0.00005259 Ry

     iteration #  9     ecut=    70.00 Ry     beta= 0.35
     Davidson diagonalization with overlap
     ethr =  9.39E-08,  avg # of iterations =  6.9

     total cpu time spent up to now is      452.4 secs

     total energy              =    -458.40752010 Ry
     estimated scf accuracy    <       0.00000774 Ry

     iteration # 10     ecut=    70.00 Ry     beta= 0.35
     Davidson diagonalization with overlap
     ethr =  1.38E-08,  avg # of iterations =  3.3

     total cpu time spent up to now is      489.2 secs

     total energy              =    -458.40751894 Ry
     estimated scf accuracy    <       0.00000420 Ry

     iteration # 11     ecut=    70.00 Ry     beta= 0.35
     Davidson diagonalization with overlap
     ethr =  7.50E-09,  avg # of iterations =  4.8

     total cpu time spent up to now is      531.6 secs

     End of self-consistent calculation

          k = 0.0500 0.0500 0.0500 ( 29603 PWs)   bands (ev):

   -23.2596 -23.2596 -23.2596 -23.2596 -23.1345 -23.1345 -23.1345 -23.1345
   -22.2394 -22.2394 -22.2394 -22.2394 -22.1302 -22.1302 -22.1302 -22.1302
   -22.0793 -22.0793 -22.0792 -22.0792 -11.6254 -11.6254 -11.5305 -11.5305
   -11.4780 -11.4780 -11.4764 -11.4764  -7.0814  -7.0814  -6.8682  -6.8682
    -2.6614  -2.6614  -2.4979  -2.4979  -2.1319  -2.1319  -2.0486  -2.0486
    -1.9085  -1.9085  -1.5250  -1.5250  -1.2364  -1.2364  -1.1169  -1.1169
    -1.0965  -1.0965  -1.0321  -1.0321  -0.9264  -0.9264  -0.8946  -0.8946

     occupation numbers 
     1.0000   1.0000   1.0000   1.0000   1.0000   1.0000   1.0000   1.0000
     1.0000   1.0000   1.0000   1.0000   1.0000   1.0000   1.0000   1.0000
     1.0000   1.0000   1.0000   1.0000   1.0000   1.0000   1.0000   1.0000
     1.0000   1.0000   1.0000   1.0000   1.0000   1.0000   1.0000   1.0000
     1.0000   1.0000   1.0000   1.0000   1.0000   1.0000   1.0000   1.0000
     1.0000   1.0000   1.0000   1.0000   1.0000   1.0000   1.0000   1.0000
     1.0000   1.0000   1.0000   1.0000   1.0000   1.0000   1.0000   1.0000

          k = 0.0500 0.0500 0.1500 ( 29636 PWs)   bands (ev):

   -23.2597 -23.2597 -23.2596 -23.2596 -23.1345 -23.1345 -23.1345 -23.1345
   -22.2394 -22.2394 -22.2394 -22.2394 -22.1303 -22.1303 -22.1302 -22.1302
   -22.0793 -22.0793 -22.0792 -22.0792 -11.6207 -11.6207 -11.5350 -11.5350
   -11.4780 -11.4780 -11.4763 -11.4763  -7.0737  -7.0737  -6.8817  -6.8817
    -2.6494  -2.6494  -2.5001  -2.5001  -2.1282  -2.1282  -2.0465  -2.0465
    -1.8944  -1.8944  -1.5300  -1.5300  -1.2393  -1.2393  -1.1348  -1.1348
    -1.1115  -1.1115  -1.0447  -1.0447  -0.9270  -0.9270  -0.9049  -0.9049

     occupation numbers 
     1.0000   1.0000   1.0000   1.0000   1.0000   1.0000   1.0000   1.0000
     1.0000   1.0000   1.0000   1.0000   1.0000   1.0000   1.0000   1.0000
     1.0000   1.0000   1.0000   1.0000   1.0000   1.0000   1.0000   1.0000
     1.0000   1.0000   1.0000   1.0000   1.0000   1.0000   1.0000   1.0000
     1.0000   1.0000   1.0000   1.0000   1.0000   1.0000   1.0000   1.0000
     1.0000   1.0000   1.0000   1.0000   1.0000   1.0000   1.0000   1.0000
     1.0000   1.0000   1.0000   1.0000   1.0000   1.0000   1.0000   1.0000

          k = 0.0500 0.0500 0.2500 ( 29649 PWs)   bands (ev):

   -23.2597 -23.2597 -23.2596 -23.2596 -23.1345 -23.1345 -23.1345 -23.1345
   -22.2394 -22.2394 -22.2394 -22.2394 -22.1303 -22.1303 -22.1302 -22.1302
   -22.0793 -22.0793 -22.0792 -22.0792 -11.6117 -11.6117 -11.5437 -11.5437
   -11.4779 -11.4779 -11.4762 -11.4762  -7.0585  -7.0585  -6.9063  -6.9063
    -2.6288  -2.6288  -2.5048  -2.5048  -2.1252  -2.1252  -2.0435  -2.0435
    -1.8622  -1.8622  -1.5489  -1.5489  -1.2398  -1.2398  -1.1610  -1.1610
    -1.1293  -1.1293  -1.0642  -1.0642  -0.9420  -0.9420  -0.9152  -0.9152

     occupation numbers 
     1.0000   1.0000   1.0000   1.0000   1.0000   1.0000   1.0000   1.0000
     1.0000   1.0000   1.0000   1.0000   1.0000   1.0000   1.0000   1.0000
     1.0000   1.0000   1.0000   1.0000   1.0000   1.0000   1.0000   1.0000
     1.0000   1.0000   1.0000   1.0000   1.0000   1.0000   1.0000   1.0000
     1.0000   1.0000   1.0000   1.0000   1.0000   1.0000   1.0000   1.0000
     1.0000   1.0000   1.0000   1.0000   1.0000   1.0000   1.0000   1.0000
     1.0000   1.0000   1.0000   1.0000   1.0000   1.0000   1.0000   1.0000

          k = 0.0500 0.0500 0.3500 ( 29659 PWs)   bands (ev):

   -23.2597 -23.2597 -23.2597 -23.2597 -23.1345 -23.1345 -23.1345 -23.1345
   -22.2394 -22.2394 -22.2394 -22.2394 -22.1303 -22.1303 -22.1302 -22.1302
   -22.0793 -22.0793 -22.0792 -22.0792 -11.5994 -11.5994 -11.5557 -11.5557
   -11.4778 -11.4778 -11.4761 -11.4761  -7.0358  -7.0358  -6.9382  -6.9382
    -2.6058  -2.6058  -2.5117  -2.5117  -2.1249  -2.1249  -2.0417  -2.0417
    -1.8113  -1.8113  -1.5888  -1.5888  -1.2330  -1.2330  -1.1797  -1.1797
    -1.1457  -1.1457  -1.0823  -1.0823  -0.9637  -0.9637  -0.9290  -0.9290

     occupation numbers 
     1.0000   1.0000   1.0000   1.0000   1.0000   1.0000   1.0000   1.0000
     1.0000   1.0000   1.0000   1.0000   1.0000   1.0000   1.0000   1.0000
     1.0000   1.0000   1.0000   1.0000   1.0000   1.0000   1.0000   1.0000
     1.0000   1.0000   1.0000   1.0000   1.0000   1.0000   1.0000   1.0000
     1.0000   1.0000   1.0000   1.0000   1.0000   1.0000   1.0000   1.0000
     1.0000   1.0000   1.0000   1.0000   1.0000   1.0000   1.0000   1.0000
     1.0000   1.0000   1.0000   1.0000   1.0000   1.0000   1.0000   1.0000

          k = 0.0500 0.0500 0.4500 ( 29652 PWs)   bands (ev):

   -23.2597 -23.2597 -23.2597 -23.2597 -23.1345 -23.1345 -23.1345 -23.1345
   -22.2394 -22.2394 -22.2394 -22.2394 -22.1303 -22.1303 -22.1302 -22.1302
   -22.0793 -22.0793 -22.0793 -22.0793 -11.5850 -11.5850 -11.5699 -11.5699
   -11.4777 -11.4777 -11.4760 -11.4760  -7.0067  -7.0067  -6.9730  -6.9730
    -2.5891  -2.5891  -2.5184  -2.5184  -2.1257  -2.1257  -2.0415  -2.0415
    -1.7545  -1.7545  -1.6399  -1.6399  -1.2220  -1.2220  -1.1905  -1.1905
    -1.1555  -1.1555  -1.0926  -1.0926  -0.9777  -0.9777  -0.9424  -0.9424

     occupation numbers 
     1.0000   1.0000   1.0000   1.0000   1.0000   1.0000   1.0000   1.0000
     1.0000   1.0000   1.0000   1.0000   1.0000   1.0000   1.0000   1.0000
     1.0000   1.0000   1.0000   1.0000   1.0000   1.0000   1.0000   1.0000
     1.0000   1.0000   1.0000   1.0000   1.0000   1.0000   1.0000   1.0000
     1.0000   1.0000   1.0000   1.0000   1.0000   1.0000   1.0000   1.0000
     1.0000   1.0000   1.0000   1.0000   1.0000   1.0000   1.0000   1.0000
     1.0000   1.0000   1.0000   1.0000   1.0000   1.0000   1.0000   1.0000

          k = 0.0500 0.1500 0.1500 ( 29620 PWs)   bands (ev):

   -23.2597 -23.2597 -23.2596 -23.2596 -23.1345 -23.1345 -23.1345 -23.1345
   -22.2394 -22.2394 -22.2394 -22.2394 -22.1302 -22.1302 -22.1302 -22.1302
   -22.0793 -22.0793 -22.0792 -22.0792 -11.6145 -11.6145 -11.5335 -11.5335
   -11.4842 -11.4842 -11.4784 -11.4784  -7.0626  -7.0626  -6.8891  -6.8891
    -2.7113  -2.7113  -2.5725  -2.5725  -2.1468  -2.1468  -1.9910  -1.9910
    -1.8538  -1.8538  -1.5416  -1.5416  -1.2238  -1.2238  -1.1513  -1.1513
    -1.0954  -1.0954  -0.9873  -0.9873  -0.9226  -0.9226  -0.8657  -0.8657

     occupation numbers 
     1.0000   1.0000   1.0000   1.0000   1.0000   1.0000   1.0000   1.0000
     1.0000   1.0000   1.0000   1.0000   1.0000   1.0000   1.0000   1.0000
     1.0000   1.0000   1.0000   1.0000   1.0000   1.0000   1.0000   1.0000
     1.0000   1.0000   1.0000   1.0000   1.0000   1.0000   1.0000   1.0000
     1.0000   1.0000   1.0000   1.0000   1.0000   1.0000   1.0000   1.0000
     1.0000   1.0000   1.0000   1.0000   1.0000   1.0000   1.0000   1.0000
     1.0000   1.0000   1.0000   1.0000   1.0000   1.0000   1.0000   1.0000

          k = 0.0500 0.1500 0.2500 ( 29662 PWs)   bands (ev):

   -23.2597 -23.2597 -23.2596 -23.2596 -23.1345 -23.1345 -23.1345 -23.1345
   -22.2394 -22.2394 -22.2394 -22.2394 -22.1303 -22.1303 -22.1302 -22.1302
   -22.0793 -22.0793 -22.0792 -22.0792 -11.6059 -11.6059 -11.5415 -11.5415
   -11.4840 -11.4840 -11.4785 -11.4785  -7.0492  -7.0492  -6.9117  -6.9117
    -2.7081  -2.7081  -2.5747  -2.5747  -2.1232  -2.1232  -1.9756  -1.9756
    -1.8451  -1.8451  -1.5599  -1.5599  -1.2244  -1.2244  -1.1696  -1.1696
    -1.1086  -1.1086  -1.0049  -1.0049  -0.9287  -0.9287  -0.8715  -0.8715

     occupation numbers 
     1.0000   1.0000   1.0000   1.0000   1.0000   1.0000   1.0000   1.0000
     1.0000   1.0000   1.0000   1.0000   1.0000   1.0000   1.0000   1.0000
     1.0000   1.0000   1.0000   1.0000   1.0000   1.0000   1.0000   1.0000
     1.0000   1.0000   1.0000   1.0000   1.0000   1.0000   1.0000   1.0000
     1.0000   1.0000   1.0000   1.0000   1.0000   1.0000   1.0000   1.0000
     1.0000   1.0000   1.0000   1.0000   1.0000   1.0000   1.0000   1.0000
     1.0000   1.0000   1.0000   1.0000   1.0000   1.0000   1.0000   1.0000

          k = 0.0500 0.1500 0.3500 ( 29657 PWs)   bands (ev):

   -23.2597 -23.2597 -23.2597 -23.2597 -23.1345 -23.1345 -23.1345 -23.1345
   -22.2394 -22.2394 -22.2394 -22.2394 -22.1303 -22.1303 -22.1302 -22.1302
   -22.0793 -22.0793 -22.0792 -22.0792 -11.5942 -11.5942 -11.5527 -11.5527
   -11.4838 -11.4838 -11.4787 -11.4787  -7.0291  -7.0291  -6.9408  -6.9408
    -2.7046  -2.7046  -2.5764  -2.5764  -2.1070  -2.1070  -1.9589  -1.9589
    -1.8239  -1.8239  -1.5847  -1.5847  -1.2284  -1.2284  -1.1828  -1.1828
    -1.1164  -1.1164  -1.0239  -1.0239  -0.9407  -0.9407  -0.8773  -0.8773

     occupation numbers 
     1.0000   1.0000   1.0000   1.0000   1.0000   1.0000   1.0000   1.0000
     1.0000   1.0000   1.0000   1.0000   1.0000   1.0000   1.0000   1.0000
     1.0000   1.0000   1.0000   1.0000   1.0000   1.0000   1.0000   1.0000
     1.0000   1.0000   1.0000   1.0000   1.0000   1.0000   1.0000   1.0000
     1.0000   1.0000   1.0000   1.0000   1.0000   1.0000   1.0000   1.0000
     1.0000   1.0000   1.0000   1.0000   1.0000   1.0000   1.0000   1.0000
     1.0000   1.0000   1.0000   1.0000   1.0000   1.0000   1.0000   1.0000

          k = 0.0500 0.1500 0.4500 ( 29659 PWs)   bands (ev):

   -23.2597 -23.2597 -23.2597 -23.2597 -23.1345 -23.1345 -23.1345 -23.1345
   -22.2394 -22.2394 -22.2394 -22.2394 -22.1303 -22.1303 -22.1303 -22.1303
   -22.0793 -22.0793 -22.0793 -22.0793 -11.5808 -11.5808 -11.5659 -11.5659
   -11.4836 -11.4836 -11.4788 -11.4788  -7.0033  -7.0033  -6.9723  -6.9723
    -2.7024  -2.7024  -2.5771  -2.5771  -2.1003  -2.1003  -1.9504  -1.9504
    -1.7989  -1.7989  -1.6061  -1.6061  -1.2349  -1.2349  -1.1856  -1.1856
    -1.1188  -1.1188  -1.0372  -1.0372  -0.9510  -0.9510  -0.8812  -0.8812

     occupation numbers 
     1.0000   1.0000   1.0000   1.0000   1.0000   1.0000   1.0000   1.0000
     1.0000   1.0000   1.0000   1.0000   1.0000   1.0000   1.0000   1.0000
     1.0000   1.0000   1.0000   1.0000   1.0000   1.0000   1.0000   1.0000
     1.0000   1.0000   1.0000   1.0000   1.0000   1.0000   1.0000   1.0000
     1.0000   1.0000   1.0000   1.0000   1.0000   1.0000   1.0000   1.0000
     1.0000   1.0000   1.0000   1.0000   1.0000   1.0000   1.0000   1.0000
     1.0000   1.0000   1.0000   1.0000   1.0000   1.0000   1.0000   1.0000

          k = 0.0500 0.2500 0.2500 ( 29670 PWs)   bands (ev):

   -23.2597 -23.2597 -23.2597 -23.2597 -23.1345 -23.1345 -23.1345 -23.1345
   -22.2394 -22.2394 -22.2394 -22.2394 -22.1303 -22.1303 -22.1303 -22.1303
   -22.0793 -22.0793 -22.0793 -22.0793 -11.5949 -11.5949 -11.5382 -11.5382
   -11.4939 -11.4939 -11.4837 -11.4837  -7.0320  -7.0320  -6.9225  -6.9225
    -2.7987  -2.7987  -2.6824  -2.6824  -2.0986  -2.0986  -1.9411  -1.9411
    -1.8066  -1.8066  -1.5738  -1.5738  -1.2452  -1.2452  -1.1768  -1.1768
    -1.0335  -1.0335  -0.9607  -0.9607  -0.8967  -0.8967  -0.7548  -0.7548

     occupation numbers 
     1.0000   1.0000   1.0000   1.0000   1.0000   1.0000   1.0000   1.0000
     1.0000   1.0000   1.0000   1.0000   1.0000   1.0000   1.0000   1.0000
     1.0000   1.0000   1.0000   1.0000   1.0000   1.0000   1.0000   1.0000
     1.0000   1.0000   1.0000   1.0000   1.0000   1.0000   1.0000   1.0000
     1.0000   1.0000   1.0000   1.0000   1.0000   1.0000   1.0000   1.0000
     1.0000   1.0000   1.0000   1.0000   1.0000   1.0000   1.0000   1.0000
     1.0000   1.0000   1.0000   1.0000   1.0000   1.0000   1.0000   1.0000

          k = 0.0500 0.2500 0.3500 ( 29671 PWs)   bands (ev):

   -23.2597 -23.2597 -23.2597 -23.2597 -23.1345 -23.1345 -23.1345 -23.1345
   -22.2394 -22.2394 -22.2394 -22.2394 -22.1303 -22.1303 -22.1303 -22.1303
   -22.0793 -22.0793 -22.0793 -22.0793 -11.5844 -11.5844 -11.5475 -11.5475
   -11.4933 -11.4933 -11.4847 -11.4847  -7.0169  -7.0169  -6.9465  -6.9465
    -2.8054  -2.8054  -2.6888  -2.6888  -2.0662  -2.0662  -1.9093  -1.9093
    -1.8204  -1.8204  -1.5826  -1.5826  -1.2499  -1.2499  -1.1748  -1.1748
    -1.0407  -1.0407  -0.9774  -0.9774  -0.8896  -0.8896  -0.7568  -0.7568

     occupation numbers 
     1.0000   1.0000   1.0000   1.0000   1.0000   1.0000   1.0000   1.0000
     1.0000   1.0000   1.0000   1.0000   1.0000   1.0000   1.0000   1.0000
     1.0000   1.0000   1.0000   1.0000   1.0000   1.0000   1.0000   1.0000
     1.0000   1.0000   1.0000   1.0000   1.0000   1.0000   1.0000   1.0000
     1.0000   1.0000   1.0000   1.0000   1.0000   1.0000   1.0000   1.0000
     1.0000   1.0000   1.0000   1.0000   1.0000   1.0000   1.0000   1.0000
     1.0000   1.0000   1.0000   1.0000   1.0000   1.0000   1.0000   1.0000

          k = 0.0500 0.2500 0.4500 ( 29642 PWs)   bands (ev):

   -23.2597 -23.2597 -23.2596 -23.2596 -23.1345 -23.1345 -23.1345 -23.1345
   -22.2394 -22.2394 -22.2394 -22.2394 -22.1303 -22.1303 -22.1302 -22.1302
   -22.0793 -22.0793 -22.0793 -22.0793 -11.5727 -11.5727 -11.5586 -11.5586
   -11.4927 -11.4927 -11.4855 -11.4855  -6.9971  -6.9971  -6.9717  -6.9717
    -2.8090  -2.8090  -2.6923  -2.6923  -2.0525  -2.0525  -1.8773  -1.8773
    -1.8369  -1.8369  -1.5850  -1.5850  -1.2502  -1.2502  -1.1725  -1.1725
    -1.0540  -1.0540  -0.9860  -0.9860  -0.8833  -0.8833  -0.7583  -0.7583

     occupation numbers 
     1.0000   1.0000   1.0000   1.0000   1.0000   1.0000   1.0000   1.0000
     1.0000   1.0000   1.0000   1.0000   1.0000   1.0000   1.0000   1.0000
     1.0000   1.0000   1.0000   1.0000   1.0000   1.0000   1.0000   1.0000
     1.0000   1.0000   1.0000   1.0000   1.0000   1.0000   1.0000   1.0000
     1.0000   1.0000   1.0000   1.0000   1.0000   1.0000   1.0000   1.0000
     1.0000   1.0000   1.0000   1.0000   1.0000   1.0000   1.0000   1.0000
     1.0000   1.0000   1.0000   1.0000   1.0000   1.0000   1.0000   1.0000

          k = 0.0500 0.3500 0.3500 ( 29683 PWs)   bands (ev):

   -23.2597 -23.2597 -23.2597 -23.2597 -23.1346 -23.1346 -23.1345 -23.1345
   -22.2394 -22.2394 -22.2394 -22.2394 -22.1303 -22.1303 -22.1303 -22.1303
   -22.0793 -22.0793 -22.0793 -22.0793 -11.5712 -11.5712 -11.5427 -11.5427
   -11.5036 -11.5036 -11.4930 -11.4930  -7.0012  -7.0012  -6.9555  -6.9555
    -2.8743  -2.8743  -2.7934  -2.7934  -2.0349  -2.0349  -1.9136  -1.9136
    -1.7909  -1.7909  -1.5851  -1.5851  -1.2525  -1.2525  -1.1894  -1.1894
    -0.9947  -0.9947  -0.9450  -0.9450  -0.7730  -0.7730  -0.6311  -0.6311

     occupation numbers 
     1.0000   1.0000   1.0000   1.0000   1.0000   1.0000   1.0000   1.0000
     1.0000   1.0000   1.0000   1.0000   1.0000   1.0000   1.0000   1.0000
     1.0000   1.0000   1.0000   1.0000   1.0000   1.0000   1.0000   1.0000
     1.0000   1.0000   1.0000   1.0000   1.0000   1.0000   1.0000   1.0000
     1.0000   1.0000   1.0000   1.0000   1.0000   1.0000   1.0000   1.0000
     1.0000   1.0000   1.0000   1.0000   1.0000   1.0000   1.0000   1.0000
     1.0000   1.0000   1.0000   1.0000   1.0000   1.0000   1.0000   1.0000

          k = 0.0500 0.3500 0.4500 ( 29673 PWs)   bands (ev):

   -23.2597 -23.2597 -23.2597 -23.2597 -23.1345 -23.1345 -23.1345 -23.1345
   -22.2394 -22.2394 -22.2394 -22.2394 -22.1303 -22.1303 -22.1303 -22.1303
   -22.0793 -22.0793 -22.0793 -22.0793 -11.5620 -11.5620 -11.5500 -11.5500
   -11.5030 -11.5030 -11.4950 -11.4950  -6.9898  -6.9898  -6.9723  -6.9723
    -2.8808  -2.8808  -2.7991  -2.7991  -2.0217  -2.0217  -1.8875  -1.8875
    -1.8070  -1.8070  -1.5836  -1.5836  -1.2463  -1.2463  -1.1806  -1.1806
    -0.9921  -0.9921  -0.9523  -0.9523  -0.7655  -0.7655  -0.6278  -0.6278

     occupation numbers 
     1.0000   1.0000   1.0000   1.0000   1.0000   1.0000   1.0000   1.0000
     1.0000   1.0000   1.0000   1.0000   1.0000   1.0000   1.0000   1.0000
     1.0000   1.0000   1.0000   1.0000   1.0000   1.0000   1.0000   1.0000
     1.0000   1.0000   1.0000   1.0000   1.0000   1.0000   1.0000   1.0000
     1.0000   1.0000   1.0000   1.0000   1.0000   1.0000   1.0000   1.0000
     1.0000   1.0000   1.0000   1.0000   1.0000   1.0000   1.0000   1.0000
     1.0000   1.0000   1.0000   1.0000   1.0000   1.0000   1.0000   1.0000

          k = 0.0500 0.4500 0.4500 ( 29684 PWs)   bands (ev):

   -23.2597 -23.2597 -23.2597 -23.2597 -23.1346 -23.1346 -23.1345 -23.1345
   -22.2394 -22.2394 -22.2394 -22.2394 -22.1303 -22.1303 -22.1303 -22.1303
   -22.0793 -22.0793 -22.0793 -22.0793 -11.5510 -11.5510 -11.5454 -11.5454
   -11.5091 -11.5091 -11.5048 -11.5048  -6.9833  -6.9833  -6.9745  -6.9745
    -2.9088  -2.9088  -2.8678  -2.8678  -2.0086  -2.0086  -1.9047  -1.9047
    -1.7814  -1.7814  -1.5892  -1.5892  -1.2341  -1.2341  -1.1932  -1.1932
    -0.9618  -0.9618  -0.9386  -0.9386  -0.6353  -0.6353  -0.5715  -0.5715

     occupation numbers 
     1.0000   1.0000   1.0000   1.0000   1.0000   1.0000   1.0000   1.0000
     1.0000   1.0000   1.0000   1.0000   1.0000   1.0000   1.0000   1.0000
     1.0000   1.0000   1.0000   1.0000   1.0000   1.0000   1.0000   1.0000
     1.0000   1.0000   1.0000   1.0000   1.0000   1.0000   1.0000   1.0000
     1.0000   1.0000   1.0000   1.0000   1.0000   1.0000   1.0000   1.0000
     1.0000   1.0000   1.0000   1.0000   1.0000   1.0000   1.0000   1.0000
     1.0000   1.0000   1.0000   1.0000   1.0000   1.0000   1.0000   1.0000

          k = 0.1500 0.1500 0.1500 ( 29641 PWs)   bands (ev):

   -23.2597 -23.2597 -23.2596 -23.2596 -23.1345 -23.1345 -23.1345 -23.1345
   -22.2394 -22.2394 -22.2394 -22.2394 -22.1303 -22.1303 -22.1302 -22.1302
   -22.0793 -22.0793 -22.0792 -22.0792 -11.6090 -11.6090 -11.5323 -11.5323
   -11.4909 -11.4909 -11.4784 -11.4784  -7.0537  -7.0537  -6.8967  -6.8967
    -2.7889  -2.7889  -2.5473  -2.5473  -2.1252  -2.1252  -1.9940  -1.9940
    -1.8545  -1.8545  -1.5537  -1.5537  -1.2283  -1.2283  -1.1742  -1.1742
    -1.1291  -1.1291  -0.9653  -0.9653  -0.9094  -0.9094  -0.7614  -0.7614

     occupation numbers 
     1.0000   1.0000   1.0000   1.0000   1.0000   1.0000   1.0000   1.0000
     1.0000   1.0000   1.0000   1.0000   1.0000   1.0000   1.0000   1.0000
     1.0000   1.0000   1.0000   1.0000   1.0000   1.0000   1.0000   1.0000
     1.0000   1.0000   1.0000   1.0000   1.0000   1.0000   1.0000   1.0000
     1.0000   1.0000   1.0000   1.0000   1.0000   1.0000   1.0000   1.0000
     1.0000   1.0000   1.0000   1.0000   1.0000   1.0000   1.0000   1.0000
     1.0000   1.0000   1.0000   1.0000   1.0000   1.0000   1.0000   1.0000

          k = 0.1500 0.1500 0.2500 ( 29658 PWs)   bands (ev):

   -23.2597 -23.2597 -23.2596 -23.2596 -23.1345 -23.1345 -23.1345 -23.1345
   -22.2394 -22.2394 -22.2394 -22.2394 -22.1303 -22.1303 -22.1302 -22.1302
   -22.0793 -22.0793 -22.0792 -22.0792 -11.6010 -11.6010 -11.5395 -11.5395
   -11.4913 -11.4913 -11.4783 -11.4783  -7.0421  -7.0421  -6.9174  -6.9174
    -2.7971  -2.7971  -2.5364  -2.5364  -2.1208  -2.1208  -1.9598  -1.9598
    -1.8523  -1.8523  -1.5702  -1.5702  -1.2336  -1.2336  -1.1864  -1.1864
    -1.1361  -1.1361  -0.9744  -0.9744  -0.9107  -0.9107  -0.7632  -0.7632

     occupation numbers 
     1.0000   1.0000   1.0000   1.0000   1.0000   1.0000   1.0000   1.0000
     1.0000   1.0000   1.0000   1.0000   1.0000   1.0000   1.0000   1.0000
     1.0000   1.0000   1.0000   1.0000   1.0000   1.0000   1.0000   1.0000
     1.0000   1.0000   1.0000   1.0000   1.0000   1.0000   1.0000   1.0000
     1.0000   1.0000   1.0000   1.0000   1.0000   1.0000   1.0000   1.0000
     1.0000   1.0000   1.0000   1.0000   1.0000   1.0000   1.0000   1.0000
     1.0000   1.0000   1.0000   1.0000   1.0000   1.0000   1.0000   1.0000

          k = 0.1500 0.1500 0.3500 ( 29661 PWs)   bands (ev):

   -23.2597 -23.2597 -23.2597 -23.2597 -23.1345 -23.1345 -23.1345 -23.1345
   -22.2394 -22.2394 -22.2394 -22.2394 -22.1303 -22.1303 -22.1303 -22.1303
   -22.0793 -22.0793 -22.0792 -22.0792 -11.5903 -11.5903 -11.5495 -11.5495
   -11.4915 -11.4915 -11.4782 -11.4782  -7.0246  -7.0246  -6.9439  -6.9439
    -2.8041  -2.8041  -2.5260  -2.5260  -2.1226  -2.1226  -1.9249  -1.9249
    -1.8426  -1.8426  -1.5853  -1.5853  -1.2502  -1.2502  -1.1941  -1.1941
    -1.1310  -1.1310  -0.9898  -0.9898  -0.9156  -0.9156  -0.7647  -0.7647

     occupation numbers 
     1.0000   1.0000   1.0000   1.0000   1.0000   1.0000   1.0000   1.0000
     1.0000   1.0000   1.0000   1.0000   1.0000   1.0000   1.0000   1.0000
     1.0000   1.0000   1.0000   1.0000   1.0000   1.0000   1.0000   1.0000
     1.0000   1.0000   1.0000   1.0000   1.0000   1.0000   1.0000   1.0000
     1.0000   1.0000   1.0000   1.0000   1.0000   1.0000   1.0000   1.0000
     1.0000   1.0000   1.0000   1.0000   1.0000   1.0000   1.0000   1.0000
     1.0000   1.0000   1.0000   1.0000   1.0000   1.0000   1.0000   1.0000

          k = 0.1500 0.1500 0.4500 ( 29653 PWs)   bands (ev):

   -23.2597 -23.2597 -23.2597 -23.2597 -23.1345 -23.1345 -23.1345 -23.1345
   -22.2394 -22.2394 -22.2394 -22.2394 -22.1303 -22.1303 -22.1303 -22.1303
   -22.0793 -22.0793 -22.0793 -22.0793 -11.5788 -11.5788 -11.5606 -11.5606
   -11.4916 -11.4916 -11.4781 -11.4781  -7.0025  -7.0025  -6.9717  -6.9717
    -2.8079  -2.8079  -2.5198  -2.5198  -2.1254  -2.1254  -1.9100  -1.9100
    -1.8265  -1.8265  -1.5939  -1.5939  -1.2641  -1.2641  -1.1962  -1.1962
    -1.1236  -1.1236  -1.0037  -1.0037  -0.9211  -0.9211  -0.7653  -0.7653

     occupation numbers 
     1.0000   1.0000   1.0000   1.0000   1.0000   1.0000   1.0000   1.0000
     1.0000   1.0000   1.0000   1.0000   1.0000   1.0000   1.0000   1.0000
     1.0000   1.0000   1.0000   1.0000   1.0000   1.0000   1.0000   1.0000
     1.0000   1.0000   1.0000   1.0000   1.0000   1.0000   1.0000   1.0000
     1.0000   1.0000   1.0000   1.0000   1.0000   1.0000   1.0000   1.0000
     1.0000   1.0000   1.0000   1.0000   1.0000   1.0000   1.0000   1.0000
     1.0000   1.0000   1.0000   1.0000   1.0000   1.0000   1.0000   1.0000

          k = 0.1500 0.2500 0.2500 ( 29657 PWs)   bands (ev):

   -23.2597 -23.2597 -23.2597 -23.2597 -23.1345 -23.1345 -23.1345 -23.1345
   -22.2394 -22.2394 -22.2394 -22.2394 -22.1303 -22.1303 -22.1302 -22.1302
   -22.0793 -22.0793 -22.0793 -22.0793 -11.5918 -11.5918 -11.5371 -11.5371
   -11.5001 -11.5001 -11.4814 -11.4814  -7.0286  -7.0286  -6.9287  -6.9287
    -2.8613  -2.8613  -2.5840  -2.5840  -2.1002  -2.1002  -1.9400  -1.9400
    -1.8381  -1.8381  -1.5851  -1.5851  -1.2646  -1.2646  -1.1983  -1.1983
    -1.0978  -1.0978  -0.9560  -0.9560  -0.8941  -0.8941  -0.6391  -0.6391

     occupation numbers 
     1.0000   1.0000   1.0000   1.0000   1.0000   1.0000   1.0000   1.0000
     1.0000   1.0000   1.0000   1.0000   1.0000   1.0000   1.0000   1.0000
     1.0000   1.0000   1.0000   1.0000   1.0000   1.0000   1.0000   1.0000
     1.0000   1.0000   1.0000   1.0000   1.0000   1.0000   1.0000   1.0000
     1.0000   1.0000   1.0000   1.0000   1.0000   1.0000   1.0000   1.0000
     1.0000   1.0000   1.0000   1.0000   1.0000   1.0000   1.0000   1.0000
     1.0000   1.0000   1.0000   1.0000   1.0000   1.0000   1.0000   1.0000

          k = 0.1500 0.2500 0.3500 ( 29639 PWs)   bands (ev):

   -23.2597 -23.2597 -23.2596 -23.2596 -23.1345 -23.1345 -23.1345 -23.1345
   -22.2394 -22.2394 -22.2394 -22.2394 -22.1303 -22.1303 -22.1302 -22.1302
   -22.0793 -22.0793 -22.0792 -22.0792 -11.5826 -11.5826 -11.5446 -11.5446
   -11.5009 -11.5009 -11.4816 -11.4816  -7.0158  -7.0158  -6.9504  -6.9504
    -2.8724  -2.8724  -2.5798  -2.5798  -2.0934  -2.0934  -1.9044  -1.9044
    -1.8446  -1.8446  -1.5870  -1.5870  -1.2735  -1.2735  -1.1925  -1.1925
    -1.1016  -1.1016  -0.9598  -0.9598  -0.8909  -0.8909  -0.6344  -0.6344

     occupation numbers 
     1.0000   1.0000   1.0000   1.0000   1.0000   1.0000   1.0000   1.0000
     1.0000   1.0000   1.0000   1.0000   1.0000   1.0000   1.0000   1.0000
     1.0000   1.0000   1.0000   1.0000   1.0000   1.0000   1.0000   1.0000
     1.0000   1.0000   1.0000   1.0000   1.0000   1.0000   1.0000   1.0000
     1.0000   1.0000   1.0000   1.0000   1.0000   1.0000   1.0000   1.0000
     1.0000   1.0000   1.0000   1.0000   1.0000   1.0000   1.0000   1.0000
     1.0000   1.0000   1.0000   1.0000   1.0000   1.0000   1.0000   1.0000

          k = 0.1500 0.2500 0.4500 ( 29656 PWs)   bands (ev):

   -23.2597 -23.2597 -23.2597 -23.2597 -23.1345 -23.1345 -23.1345 -23.1345
   -22.2394 -22.2394 -22.2394 -22.2394 -22.1303 -22.1303 -22.1302 -22.1302
   -22.0793 -22.0793 -22.0793 -22.0793 -11.5740 -11.5740 -11.5524 -11.5524
   -11.5012 -11.5012 -11.4816 -11.4816  -6.9998  -6.9998  -6.9719  -6.9719
    -2.8786  -2.8786  -2.5774  -2.5774  -2.0925  -2.0925  -1.8831  -1.8831
    -1.8476  -1.8476  -1.5820  -1.5820  -1.2790  -1.2790  -1.1889  -1.1889
    -1.1059  -1.1059  -0.9629  -0.9629  -0.8895  -0.8895  -0.6313  -0.6313

     occupation numbers 
     1.0000   1.0000   1.0000   1.0000   1.0000   1.0000   1.0000   1.0000
     1.0000   1.0000   1.0000   1.0000   1.0000   1.0000   1.0000   1.0000
     1.0000   1.0000   1.0000   1.0000   1.0000   1.0000   1.0000   1.0000
     1.0000   1.0000   1.0000   1.0000   1.0000   1.0000   1.0000   1.0000
     1.0000   1.0000   1.0000   1.0000   1.0000   1.0000   1.0000   1.0000
     1.0000   1.0000   1.0000   1.0000   1.0000   1.0000   1.0000   1.0000
     1.0000   1.0000   1.0000   1.0000   1.0000   1.0000   1.0000   1.0000

          k = 0.1500 0.3500 0.3500 ( 29654 PWs)   bands (ev):

   -23.2597 -23.2597 -23.2596 -23.2596 -23.1345 -23.1345 -23.1345 -23.1345
   -22.2394 -22.2394 -22.2394 -22.2394 -22.1303 -22.1303 -22.1302 -22.1302
   -22.0793 -22.0793 -22.0793 -22.0793 -11.5721 -11.5721 -11.5422 -11.5422
   -11.5073 -11.5073 -11.4882 -11.4882  -7.0035  -7.0035  -6.9605  -6.9605
    -2.8945  -2.8945  -2.6882  -2.6882  -2.0569  -2.0569  -1.9217  -1.9217
    -1.8076  -1.8076  -1.5890  -1.5890  -1.2744  -1.2744  -1.2093  -1.2093
    -1.0187  -1.0187  -0.9349  -0.9349  -0.8538  -0.8538  -0.5813  -0.5813

     occupation numbers 
     1.0000   1.0000   1.0000   1.0000   1.0000   1.0000   1.0000   1.0000
     1.0000   1.0000   1.0000   1.0000   1.0000   1.0000   1.0000   1.0000
     1.0000   1.0000   1.0000   1.0000   1.0000   1.0000   1.0000   1.0000
     1.0000   1.0000   1.0000   1.0000   1.0000   1.0000   1.0000   1.0000
     1.0000   1.0000   1.0000   1.0000   1.0000   1.0000   1.0000   1.0000
     1.0000   1.0000   1.0000   1.0000   1.0000   1.0000   1.0000   1.0000
     1.0000   1.0000   1.0000   1.0000   1.0000   1.0000   1.0000   1.0000

          k = 0.1500 0.3500 0.4500 ( 29659 PWs)   bands (ev):

   -23.2597 -23.2597 -23.2597 -23.2597 -23.1345 -23.1345 -23.1345 -23.1345
   -22.2394 -22.2394 -22.2394 -22.2394 -22.1303 -22.1303 -22.1303 -22.1303
   -22.0793 -22.0793 -22.0793 -22.0793 -11.5662 -11.5662 -11.5458 -11.5458
   -11.5085 -11.5085 -11.4888 -11.4888  -6.9949  -6.9949  -6.9746  -6.9746
    -2.9017  -2.9017  -2.6908  -2.6908  -2.0529  -2.0529  -1.9069  -1.9069
    -1.8131  -1.8131  -1.5799  -1.5799  -1.2679  -1.2679  -1.1978  -1.1978
    -1.0263  -1.0263  -0.9320  -0.9320  -0.8470  -0.8470  -0.5757  -0.5757

     occupation numbers 
     1.0000   1.0000   1.0000   1.0000   1.0000   1.0000   1.0000   1.0000
     1.0000   1.0000   1.0000   1.0000   1.0000   1.0000   1.0000   1.0000
     1.0000   1.0000   1.0000   1.0000   1.0000   1.0000   1.0000   1.0000
     1.0000   1.0000   1.0000   1.0000   1.0000   1.0000   1.0000   1.0000
     1.0000   1.0000   1.0000   1.0000   1.0000   1.0000   1.0000   1.0000
     1.0000   1.0000   1.0000   1.0000   1.0000   1.0000   1.0000   1.0000
     1.0000   1.0000   1.0000   1.0000   1.0000   1.0000   1.0000   1.0000

          k = 0.1500 0.4500 0.4500 ( 29675 PWs)   bands (ev):

   -23.2597 -23.2597 -23.2597 -23.2597 -23.1345 -23.1345 -23.1345 -23.1345
   -22.2394 -22.2394 -22.2394 -22.2394 -22.1303 -22.1303 -22.1303 -22.1303
   -22.0793 -22.0793 -22.0793 -22.0793 -11.5565 -11.5565 -11.5476 -11.5476
   -11.5070 -11.5070 -11.4983 -11.4983  -6.9887  -6.9887  -6.9794  -6.9794
    -2.8756  -2.8756  -2.7966  -2.7966  -2.0361  -2.0361  -1.9246  -1.9246
    -1.7858  -1.7858  -1.5831  -1.5831  -1.2508  -1.2508  -1.2110  -1.2110
    -0.9498  -0.9498  -0.9186  -0.9186  -0.7597  -0.7597  -0.6364  -0.6364

     occupation numbers 
     1.0000   1.0000   1.0000   1.0000   1.0000   1.0000   1.0000   1.0000
     1.0000   1.0000   1.0000   1.0000   1.0000   1.0000   1.0000   1.0000
     1.0000   1.0000   1.0000   1.0000   1.0000   1.0000   1.0000   1.0000
     1.0000   1.0000   1.0000   1.0000   1.0000   1.0000   1.0000   1.0000
     1.0000   1.0000   1.0000   1.0000   1.0000   1.0000   1.0000   1.0000
     1.0000   1.0000   1.0000   1.0000   1.0000   1.0000   1.0000   1.0000
     1.0000   1.0000   1.0000   1.0000   1.0000   1.0000   1.0000   1.0000

          k = 0.2500 0.2500 0.2500 ( 29677 PWs)   bands (ev):

   -23.2597 -23.2597 -23.2597 -23.2597 -23.1345 -23.1345 -23.1345 -23.1345
   -22.2394 -22.2394 -22.2394 -22.2394 -22.1303 -22.1303 -22.1302 -22.1302
   -22.0793 -22.0793 -22.0793 -22.0793 -11.5857 -11.5857 -11.5378 -11.5378
   -11.5048 -11.5048 -11.4817 -11.4817  -7.0212  -7.0212  -6.9406  -6.9406
    -2.8813  -2.8813  -2.5360  -2.5360  -2.0964  -2.0964  -1.9272  -1.9272
    -1.8730  -1.8730  -1.6039  -1.6039  -1.2959  -1.2959  -1.2284  -1.2284
    -1.1217  -1.1217  -0.9335  -0.9335  -0.8784  -0.8784  -0.5886  -0.5886

     occupation numbers 
     1.0000   1.0000   1.0000   1.0000   1.0000   1.0000   1.0000   1.0000
     1.0000   1.0000   1.0000   1.0000   1.0000   1.0000   1.0000   1.0000
     1.0000   1.0000   1.0000   1.0000   1.0000   1.0000   1.0000   1.0000
     1.0000   1.0000   1.0000   1.0000   1.0000   1.0000   1.0000   1.0000
     1.0000   1.0000   1.0000   1.0000   1.0000   1.0000   1.0000   1.0000
     1.0000   1.0000   1.0000   1.0000   1.0000   1.0000   1.0000   1.0000
     1.0000   1.0000   1.0000   1.0000   1.0000   1.0000   1.0000   1.0000

          k = 0.2500 0.2500 0.3500 ( 29635 PWs)   bands (ev):

   -23.2597 -23.2597 -23.2596 -23.2596 -23.1345 -23.1345 -23.1345 -23.1345
   -22.2394 -22.2394 -22.2394 -22.2394 -22.1302 -22.1302 -22.1302 -22.1302
   -22.0793 -22.0793 -22.0792 -22.0792 -11.5787 -11.5787 -11.5420 -11.5420
   -11.5070 -11.5070 -11.4816 -11.4816  -7.0126  -7.0126  -6.9584  -6.9584
    -2.8937  -2.8937  -2.5259  -2.5259  -2.1100  -2.1100  -1.8922  -1.8922
    -1.8796  -1.8796  -1.5945  -1.5945  -1.3037  -1.3037  -1.2138  -1.2138
    -1.1201  -1.1201  -0.9301  -0.9301  -0.8708  -0.8708  -0.5817  -0.5817

     occupation numbers 
     1.0000   1.0000   1.0000   1.0000   1.0000   1.0000   1.0000   1.0000
     1.0000   1.0000   1.0000   1.0000   1.0000   1.0000   1.0000   1.0000
     1.0000   1.0000   1.0000   1.0000   1.0000   1.0000   1.0000   1.0000
     1.0000   1.0000   1.0000   1.0000   1.0000   1.0000   1.0000   1.0000
     1.0000   1.0000   1.0000   1.0000   1.0000   1.0000   1.0000   1.0000
     1.0000   1.0000   1.0000   1.0000   1.0000   1.0000   1.0000   1.0000
     1.0000   1.0000   1.0000   1.0000   1.0000   1.0000   1.0000   1.0000

          k = 0.2500 0.2500 0.4500 ( 29649 PWs)   bands (ev):

   -23.2597 -23.2597 -23.2596 -23.2596 -23.1345 -23.1345 -23.1345 -23.1345
   -22.2394 -22.2394 -22.2394 -22.2394 -22.1303 -22.1303 -22.1302 -22.1302
   -22.0793 -22.0793 -22.0793 -22.0793 -11.5729 -11.5729 -11.5461 -11.5461
   -11.5082 -11.5082 -11.4815 -11.4815  -7.0020  -7.0020  -6.9746  -6.9746
    -2.9007  -2.9007  -2.5199  -2.5199  -2.1193  -2.1193  -1.8890  -1.8890
    -1.8699  -1.8699  -1.5790  -1.5790  -1.3098  -1.3098  -1.2042  -1.2042
    -1.1219  -1.1219  -0.9271  -0.9271  -0.8674  -0.8674  -0.5770  -0.5770

     occupation numbers 
     1.0000   1.0000   1.0000   1.0000   1.0000   1.0000   1.0000   1.0000
     1.0000   1.0000   1.0000   1.0000   1.0000   1.0000   1.0000   1.0000
     1.0000   1.0000   1.0000   1.0000   1.0000   1.0000   1.0000   1.0000
     1.0000   1.0000   1.0000   1.0000   1.0000   1.0000   1.0000   1.0000
     1.0000   1.0000   1.0000   1.0000   1.0000   1.0000   1.0000   1.0000
     1.0000   1.0000   1.0000   1.0000   1.0000   1.0000   1.0000   1.0000
     1.0000   1.0000   1.0000   1.0000   1.0000   1.0000   1.0000   1.0000

          k = 0.2500 0.3500 0.3500 ( 29641 PWs)   bands (ev):

   -23.2597 -23.2597 -23.2596 -23.2596 -23.1345 -23.1345 -23.1345 -23.1345
   -22.2394 -22.2394 -22.2394 -22.2394 -22.1303 -22.1303 -22.1302 -22.1302
   -22.0793 -22.0793 -22.0793 -22.0793 -11.5722 -11.5722 -11.5452 -11.5452
   -11.5062 -11.5062 -11.4851 -11.4851  -7.0060  -7.0060  -6.9697  -6.9697
    -2.8648  -2.8648  -2.5774  -2.5774  -2.0893  -2.0893  -1.9253  -1.9253
    -1.8485  -1.8485  -1.6006  -1.6006  -1.3106  -1.3106  -1.2370  -1.2370
    -1.0811  -1.0811  -0.9078  -0.9078  -0.8500  -0.8500  -0.6405  -0.6405

     occupation numbers 
     1.0000   1.0000   1.0000   1.0000   1.0000   1.0000   1.0000   1.0000
     1.0000   1.0000   1.0000   1.0000   1.0000   1.0000   1.0000   1.0000
     1.0000   1.0000   1.0000   1.0000   1.0000   1.0000   1.0000   1.0000
     1.0000   1.0000   1.0000   1.0000   1.0000   1.0000   1.0000   1.0000
     1.0000   1.0000   1.0000   1.0000   1.0000   1.0000   1.0000   1.0000
     1.0000   1.0000   1.0000   1.0000   1.0000   1.0000   1.0000   1.0000
     1.0000   1.0000   1.0000   1.0000   1.0000   1.0000   1.0000   1.0000

          k = 0.2500 0.3500 0.4500 ( 29665 PWs)   bands (ev):

   -23.2597 -23.2597 -23.2597 -23.2597 -23.1345 -23.1345 -23.1345 -23.1345
   -22.2394 -22.2394 -22.2394 -22.2394 -22.1303 -22.1303 -22.1303 -22.1303
   -22.0793 -22.0793 -22.0793 -22.0793 -11.5687 -11.5687 -11.5463 -11.5463
   -11.5080 -11.5080 -11.4851 -11.4851  -7.0010  -7.0010  -6.9804  -6.9804
    -2.8715  -2.8715  -2.5756  -2.5756  -2.0975  -2.0975  -1.9215  -1.9215
    -1.8481  -1.8481  -1.5813  -1.5813  -1.3057  -1.3057  -1.2200  -1.2200
    -1.0861  -1.0861  -0.8991  -0.8991  -0.8436  -0.8436  -0.6408  -0.6408

     occupation numbers 
     1.0000   1.0000   1.0000   1.0000   1.0000   1.0000   1.0000   1.0000
     1.0000   1.0000   1.0000   1.0000   1.0000   1.0000   1.0000   1.0000
     1.0000   1.0000   1.0000   1.0000   1.0000   1.0000   1.0000   1.0000
     1.0000   1.0000   1.0000   1.0000   1.0000   1.0000   1.0000   1.0000
     1.0000   1.0000   1.0000   1.0000   1.0000   1.0000   1.0000   1.0000
     1.0000   1.0000   1.0000   1.0000   1.0000   1.0000   1.0000   1.0000
     1.0000   1.0000   1.0000   1.0000   1.0000   1.0000   1.0000   1.0000

          k = 0.2500 0.4500 0.4500 ( 29662 PWs)   bands (ev):

   -23.2597 -23.2597 -23.2597 -23.2597 -23.1345 -23.1345 -23.1345 -23.1345
   -22.2394 -22.2394 -22.2394 -22.2394 -22.1303 -22.1303 -22.1302 -22.1302
   -22.0793 -22.0793 -22.0793 -22.0793 -11.5617 -11.5617 -11.5533 -11.5533
   -11.5008 -11.5008 -11.4921 -11.4921  -6.9966  -6.9966  -6.9878  -6.9878
    -2.7967  -2.7967  -2.6867  -2.6867  -2.0770  -2.0770  -1.9464  -1.9464
    -1.8130  -1.8130  -1.5869  -1.5869  -1.2824  -1.2824  -1.2348  -1.2348
    -0.9962  -0.9962  -0.9046  -0.9046  -0.8242  -0.8242  -0.7617  -0.7617

     occupation numbers 
     1.0000   1.0000   1.0000   1.0000   1.0000   1.0000   1.0000   1.0000
     1.0000   1.0000   1.0000   1.0000   1.0000   1.0000   1.0000   1.0000
     1.0000   1.0000   1.0000   1.0000   1.0000   1.0000   1.0000   1.0000
     1.0000   1.0000   1.0000   1.0000   1.0000   1.0000   1.0000   1.0000
     1.0000   1.0000   1.0000   1.0000   1.0000   1.0000   1.0000   1.0000
     1.0000   1.0000   1.0000   1.0000   1.0000   1.0000   1.0000   1.0000
     1.0000   1.0000   1.0000   1.0000   1.0000   1.0000   1.0000   1.0000

          k = 0.3500 0.3500 0.3500 ( 29650 PWs)   bands (ev):

   -23.2597 -23.2597 -23.2597 -23.2597 -23.1345 -23.1345 -23.1345 -23.1345
   -22.2394 -22.2394 -22.2394 -22.2394 -22.1303 -22.1303 -22.1303 -22.1303
   -22.0793 -22.0793 -22.0793 -22.0793 -11.5703 -11.5703 -11.5519 -11.5519
   -11.5005 -11.5005 -11.4849 -11.4849  -7.0060  -7.0060  -6.9814  -6.9814
    -2.7889  -2.7889  -2.5255  -2.5255  -2.1052  -2.1052  -1.9235  -1.9235
    -1.8895  -1.8895  -1.6213  -1.6213  -1.3360  -1.3360  -1.2659  -1.2659
    -1.0999  -1.0999  -0.8988  -0.8988  -0.8319  -0.8319  -0.7576  -0.7576

     occupation numbers 
     1.0000   1.0000   1.0000   1.0000   1.0000   1.0000   1.0000   1.0000
     1.0000   1.0000   1.0000   1.0000   1.0000   1.0000   1.0000   1.0000
     1.0000   1.0000   1.0000   1.0000   1.0000   1.0000   1.0000   1.0000
     1.0000   1.0000   1.0000   1.0000   1.0000   1.0000   1.0000   1.0000
     1.0000   1.0000   1.0000   1.0000   1.0000   1.0000   1.0000   1.0000
     1.0000   1.0000   1.0000   1.0000   1.0000   1.0000   1.0000   1.0000
     1.0000   1.0000   1.0000   1.0000   1.0000   1.0000   1.0000   1.0000

          k = 0.3500 0.3500 0.4500 ( 29643 PWs)   bands (ev):

   -23.2597 -23.2597 -23.2596 -23.2596 -23.1345 -23.1345 -23.1345 -23.1345
   -22.2394 -22.2394 -22.2394 -22.2394 -22.1303 -22.1303 -22.1302 -22.1302
   -22.0793 -22.0793 -22.0793 -22.0793 -11.5683 -11.5683 -11.5522 -11.5522
   -11.5017 -11.5017 -11.4848 -11.4848  -7.0045  -7.0045  -6.9888  -6.9888
    -2.7943  -2.7943  -2.5210  -2.5210  -2.1209  -2.1209  -1.9288  -1.9288
    -1.8872  -1.8872  -1.5989  -1.5989  -1.3275  -1.3275  -1.2408  -1.2408
    -1.1021  -1.1021  -0.8872  -0.8872  -0.8247  -0.8247  -0.7650  -0.7650

     occupation numbers 
     1.0000   1.0000   1.0000   1.0000   1.0000   1.0000   1.0000   1.0000
     1.0000   1.0000   1.0000   1.0000   1.0000   1.0000   1.0000   1.0000
     1.0000   1.0000   1.0000   1.0000   1.0000   1.0000   1.0000   1.0000
     1.0000   1.0000   1.0000   1.0000   1.0000   1.0000   1.0000   1.0000
     1.0000   1.0000   1.0000   1.0000   1.0000   1.0000   1.0000   1.0000
     1.0000   1.0000   1.0000   1.0000   1.0000   1.0000   1.0000   1.0000
     1.0000   1.0000   1.0000   1.0000   1.0000   1.0000   1.0000   1.0000

          k = 0.3500 0.4500 0.4500 ( 29652 PWs)   bands (ev):

   -23.2597 -23.2597 -23.2597 -23.2597 -23.1345 -23.1345 -23.1345 -23.1345
   -22.2394 -22.2394 -22.2394 -22.2394 -22.1303 -22.1303 -22.1303 -22.1303
   -22.0793 -22.0793 -22.0793 -22.0793 -11.5650 -11.5650 -11.5593 -11.5593
   -11.4940 -11.4940 -11.4880 -11.4880  -7.0036  -7.0036  -6.9971  -6.9971
    -2.6852  -2.6852  -2.5744  -2.5744  -2.1111  -2.1111  -1.9670  -1.9670
    -1.8567  -1.8567  -1.6279  -1.6279  -1.3173  -1.3173  -1.2610  -1.2610
    -1.0698  -1.0698  -0.9791  -0.9791  -0.8174  -0.8174  -0.7978  -0.7978

     occupation numbers 
     1.0000   1.0000   1.0000   1.0000   1.0000   1.0000   1.0000   1.0000
     1.0000   1.0000   1.0000   1.0000   1.0000   1.0000   1.0000   1.0000
     1.0000   1.0000   1.0000   1.0000   1.0000   1.0000   1.0000   1.0000
     1.0000   1.0000   1.0000   1.0000   1.0000   1.0000   1.0000   1.0000
     1.0000   1.0000   1.0000   1.0000   1.0000   1.0000   1.0000   1.0000
     1.0000   1.0000   1.0000   1.0000   1.0000   1.0000   1.0000   1.0000
     1.0000   1.0000   1.0000   1.0000   1.0000   1.0000   1.0000   1.0000

          k = 0.4500 0.4500 0.4500 ( 29638 PWs)   bands (ev):

   -23.2597 -23.2597 -23.2596 -23.2596 -23.1345 -23.1345 -23.1345 -23.1345
   -22.2394 -22.2394 -22.2394 -22.2394 -22.1303 -22.1303 -22.1302 -22.1302
   -22.0793 -22.0793 -22.0793 -22.0793 -11.5657 -11.5657 -11.5637 -11.5637
   -11.4891 -11.4891 -11.4869 -11.4869  -7.0066  -7.0066  -7.0040  -7.0040
    -2.5741  -2.5741  -2.5224  -2.5224  -2.1123  -2.1123  -2.0227  -2.0227
    -1.8432  -1.8432  -1.7107  -1.7107  -1.3250  -1.3250  -1.2910  -1.2910
    -1.0932  -1.0932  -1.0650  -1.0650  -0.7994  -0.7994  -0.7903  -0.7903

     occupation numbers 
     1.0000   1.0000   1.0000   1.0000   1.0000   1.0000   1.0000   1.0000
     1.0000   1.0000   1.0000   1.0000   1.0000   1.0000   1.0000   1.0000
     1.0000   1.0000   1.0000   1.0000   1.0000   1.0000   1.0000   1.0000
     1.0000   1.0000   1.0000   1.0000   1.0000   1.0000   1.0000   1.0000
     1.0000   1.0000   1.0000   1.0000   1.0000   1.0000   1.0000   1.0000
     1.0000   1.0000   1.0000   1.0000   1.0000   1.0000   1.0000   1.0000
     1.0000   1.0000   1.0000   1.0000   1.0000   1.0000   1.0000   1.0000

          k = 0.0500 0.1500 0.0500 ( 29636 PWs)   bands (ev):

   -23.2597 -23.2597 -23.2596 -23.2596 -23.1345 -23.1345 -23.1345 -23.1345
   -22.2394 -22.2394 -22.2394 -22.2394 -22.1303 -22.1303 -22.1302 -22.1302
   -22.0793 -22.0793 -22.0792 -22.0792 -11.6190 -11.6190 -11.5293 -11.5293
   -11.4842 -11.4842 -11.4783 -11.4783  -7.0693  -7.0693  -6.8767  -6.8767
    -2.7132  -2.7132  -2.5708  -2.5708  -2.1648  -2.1648  -1.9985  -1.9985
    -1.8561  -1.8561  -1.5325  -1.5325  -1.2225  -1.2225  -1.1416  -1.1416
    -1.0835  -1.0835  -0.9757  -0.9757  -0.9217  -0.9217  -0.8620  -0.8620

     occupation numbers 
     1.0000   1.0000   1.0000   1.0000   1.0000   1.0000   1.0000   1.0000
     1.0000   1.0000   1.0000   1.0000   1.0000   1.0000   1.0000   1.0000
     1.0000   1.0000   1.0000   1.0000   1.0000   1.0000   1.0000   1.0000
     1.0000   1.0000   1.0000   1.0000   1.0000   1.0000   1.0000   1.0000
     1.0000   1.0000   1.0000   1.0000   1.0000   1.0000   1.0000   1.0000
     1.0000   1.0000   1.0000   1.0000   1.0000   1.0000   1.0000   1.0000
     1.0000   1.0000   1.0000   1.0000   1.0000   1.0000   1.0000   1.0000

          k = 0.0500 0.2500 0.0500 ( 29649 PWs)   bands (ev):

   -23.2597 -23.2597 -23.2596 -23.2596 -23.1345 -23.1345 -23.1345 -23.1345
   -22.2394 -22.2394 -22.2394 -22.2394 -22.1303 -22.1303 -22.1302 -22.1302
   -22.0793 -22.0793 -22.0792 -22.0792 -11.6066 -11.6066 -11.5288 -11.5288
   -11.4939 -11.4939 -11.4823 -11.4823  -7.0467  -7.0467  -6.8935  -6.8935
    -2.7853  -2.7853  -2.6700  -2.6700  -2.1717  -2.1717  -1.9709  -1.9709
    -1.7922  -1.7922  -1.5499  -1.5499  -1.2368  -1.2368  -1.1792  -1.1792
    -1.0221  -1.0221  -0.9503  -0.9503  -0.8948  -0.8948  -0.7515  -0.7515

     occupation numbers 
     1.0000   1.0000   1.0000   1.0000   1.0000   1.0000   1.0000   1.0000
     1.0000   1.0000   1.0000   1.0000   1.0000   1.0000   1.0000   1.0000
     1.0000   1.0000   1.0000   1.0000   1.0000   1.0000   1.0000   1.0000
     1.0000   1.0000   1.0000   1.0000   1.0000   1.0000   1.0000   1.0000
     1.0000   1.0000   1.0000   1.0000   1.0000   1.0000   1.0000   1.0000
     1.0000   1.0000   1.0000   1.0000   1.0000   1.0000   1.0000   1.0000
     1.0000   1.0000   1.0000   1.0000   1.0000   1.0000   1.0000   1.0000

          k = 0.0500 0.3500 0.0500 ( 29659 PWs)   bands (ev):

   -23.2597 -23.2597 -23.2597 -23.2597 -23.1345 -23.1345 -23.1345 -23.1345
   -22.2394 -22.2394 -22.2394 -22.2394 -22.1303 -22.1303 -22.1302 -22.1302
   -22.0793 -22.0793 -22.0792 -22.0792 -11.5897 -11.5897 -11.5344 -11.5344
   -11.5006 -11.5006 -11.4878 -11.4878  -7.0164  -7.0164  -6.9179  -6.9179
    -2.8402  -2.8402  -2.7642  -2.7642  -2.1428  -2.1428  -1.9892  -1.9892
    -1.7308  -1.7308  -1.5799  -1.5799  -1.2550  -1.2550  -1.2174  -1.2174
    -1.0018  -1.0018  -0.9506  -0.9506  -0.7770  -0.7770  -0.6390  -0.6390

     occupation numbers 
     1.0000   1.0000   1.0000   1.0000   1.0000   1.0000   1.0000   1.0000
     1.0000   1.0000   1.0000   1.0000   1.0000   1.0000   1.0000   1.0000
     1.0000   1.0000   1.0000   1.0000   1.0000   1.0000   1.0000   1.0000
     1.0000   1.0000   1.0000   1.0000   1.0000   1.0000   1.0000   1.0000
     1.0000   1.0000   1.0000   1.0000   1.0000   1.0000   1.0000   1.0000
     1.0000   1.0000   1.0000   1.0000   1.0000   1.0000   1.0000   1.0000
     1.0000   1.0000   1.0000   1.0000   1.0000   1.0000   1.0000   1.0000

          k = 0.0500 0.4500 0.0500 ( 29652 PWs)   bands (ev):

   -23.2597 -23.2597 -23.2597 -23.2597 -23.1345 -23.1345 -23.1345 -23.1345
   -22.2394 -22.2394 -22.2394 -22.2394 -22.1303 -22.1303 -22.1302 -22.1302
   -22.0793 -22.0793 -22.0793 -22.0793 -11.5698 -11.5698 -11.5499 -11.5499
   -11.4993 -11.4993 -11.4939 -11.4939  -6.9824  -6.9824  -6.9483  -6.9483
    -2.8577  -2.8577  -2.8305  -2.8305  -2.0927  -2.0927  -2.0352  -2.0352
    -1.6792  -1.6792  -1.6187  -1.6187  -1.2594  -1.2594  -1.2457  -1.2457
    -0.9942  -0.9942  -0.9621  -0.9621  -0.6516  -0.6516  -0.5967  -0.5967

     occupation numbers 
     1.0000   1.0000   1.0000   1.0000   1.0000   1.0000   1.0000   1.0000
     1.0000   1.0000   1.0000   1.0000   1.0000   1.0000   1.0000   1.0000
     1.0000   1.0000   1.0000   1.0000   1.0000   1.0000   1.0000   1.0000
     1.0000   1.0000   1.0000   1.0000   1.0000   1.0000   1.0000   1.0000
     1.0000   1.0000   1.0000   1.0000   1.0000   1.0000   1.0000   1.0000
     1.0000   1.0000   1.0000   1.0000   1.0000   1.0000   1.0000   1.0000
     1.0000   1.0000   1.0000   1.0000   1.0000   1.0000   1.0000   1.0000

          k = 0.1500 0.1500 0.0500 ( 29620 PWs)   bands (ev):

   -23.2596 -23.2596 -23.2596 -23.2596 -23.1345 -23.1345 -23.1345 -23.1345
   -22.2394 -22.2394 -22.2394 -22.2394 -22.1303 -22.1303 -22.1302 -22.1302
   -22.0793 -22.0793 -22.0792 -22.0792 -11.6133 -11.6133 -11.5287 -11.5287
   -11.4906 -11.4906 -11.4785 -11.4785  -7.0595  -7.0595  -6.8853  -6.8853
    -2.7831  -2.7831  -2.5543  -2.5543  -2.1331  -2.1331  -2.0103  -2.0103
    -1.8551  -1.8551  -1.5428  -1.5428  -1.2284  -1.2284  -1.1705  -1.1705
    -1.1144  -1.1144  -0.9618  -0.9618  -0.9105  -0.9105  -0.7603  -0.7603

     occupation numbers 
     1.0000   1.0000   1.0000   1.0000   1.0000   1.0000   1.0000   1.0000
     1.0000   1.0000   1.0000   1.0000   1.0000   1.0000   1.0000   1.0000
     1.0000   1.0000   1.0000   1.0000   1.0000   1.0000   1.0000   1.0000
     1.0000   1.0000   1.0000   1.0000   1.0000   1.0000   1.0000   1.0000
     1.0000   1.0000   1.0000   1.0000   1.0000   1.0000   1.0000   1.0000
     1.0000   1.0000   1.0000   1.0000   1.0000   1.0000   1.0000   1.0000
     1.0000   1.0000   1.0000   1.0000   1.0000   1.0000   1.0000   1.0000

          k = 0.1500 0.2500 0.0500 ( 29662 PWs)   bands (ev):

   -23.2597 -23.2597 -23.2597 -23.2597 -23.1345 -23.1345 -23.1345 -23.1345
   -22.2394 -22.2394 -22.2394 -22.2394 -22.1303 -22.1303 -22.1302 -22.1302
   -22.0793 -22.0793 -22.0792 -22.0792 -11.6025 -11.6025 -11.5296 -11.5296
   -11.4982 -11.4982 -11.4813 -11.4813  -7.0408  -7.0408  -6.9020  -6.9020
    -2.8396  -2.8396  -2.5918  -2.5918  -2.1329  -2.1329  -1.9829  -1.9829
    -1.8307  -1.8307  -1.5616  -1.5616  -1.2595  -1.2595  -1.2090  -1.2090
    -1.0824  -1.0824  -0.9518  -0.9518  -0.9050  -0.9050  -0.6462  -0.6462

     occupation numbers 
     1.0000   1.0000   1.0000   1.0000   1.0000   1.0000   1.0000   1.0000
     1.0000   1.0000   1.0000   1.0000   1.0000   1.0000   1.0000   1.0000
     1.0000   1.0000   1.0000   1.0000   1.0000   1.0000   1.0000   1.0000
     1.0000   1.0000   1.0000   1.0000   1.0000   1.0000   1.0000   1.0000
     1.0000   1.0000   1.0000   1.0000   1.0000   1.0000   1.0000   1.0000
     1.0000   1.0000   1.0000   1.0000   1.0000   1.0000   1.0000   1.0000
     1.0000   1.0000   1.0000   1.0000   1.0000   1.0000   1.0000   1.0000

          k = 0.2500 0.0500 0.1500 ( 29662 PWs)   bands (ev):

   -23.2597 -23.2597 -23.2596 -23.2596 -23.1345 -23.1345 -23.1345 -23.1345
   -22.2394 -22.2394 -22.2394 -22.2394 -22.1303 -22.1303 -22.1302 -22.1302
   -22.0793 -22.0793 -22.0792 -22.0792 -11.6026 -11.6026 -11.5319 -11.5319
   -11.4940 -11.4940 -11.4828 -11.4828  -7.0419  -7.0419  -6.9038  -6.9038
    -2.7908  -2.7908  -2.6752  -2.6752  -2.1415  -2.1415  -1.9614  -1.9614
    -1.7970  -1.7970  -1.5603  -1.5603  -1.2396  -1.2396  -1.1779  -1.1779
    -1.0289  -1.0289  -0.9506  -0.9506  -0.8976  -0.8976  -0.7529  -0.7529

     occupation numbers 
     1.0000   1.0000   1.0000   1.0000   1.0000   1.0000   1.0000   1.0000
     1.0000   1.0000   1.0000   1.0000   1.0000   1.0000   1.0000   1.0000
     1.0000   1.0000   1.0000   1.0000   1.0000   1.0000   1.0000   1.0000
     1.0000   1.0000   1.0000   1.0000   1.0000   1.0000   1.0000   1.0000
     1.0000   1.0000   1.0000   1.0000   1.0000   1.0000   1.0000   1.0000
     1.0000   1.0000   1.0000   1.0000   1.0000   1.0000   1.0000   1.0000
     1.0000   1.0000   1.0000   1.0000   1.0000   1.0000   1.0000   1.0000

          k = 0.1500 0.3500 0.0500 ( 29657 PWs)   bands (ev):

[...]
    -2.5780  -2.5780  -2.5379  -2.5379  -2.0217  -2.0217  -1.9675  -1.9675
    -1.8440  -1.8440  -1.7631  -1.7631  -1.4098  -1.4098  -1.4035  -1.4035
    -1.1123  -1.1123  -1.0726  -1.0726  -0.8279  -0.8279  -0.8205  -0.8205

     occupation numbers 
     1.0000   1.0000   1.0000   1.0000   1.0000   1.0000   1.0000   1.0000
     1.0000   1.0000   1.0000   1.0000   1.0000   1.0000   1.0000   1.0000
     1.0000   1.0000   1.0000   1.0000   1.0000   1.0000   1.0000   1.0000
     1.0000   1.0000   1.0000   1.0000   1.0000   1.0000   1.0000   1.0000
     1.0000   1.0000   1.0000   1.0000   1.0000   1.0000   1.0000   1.0000
     1.0000   1.0000   1.0000   1.0000   1.0000   1.0000   1.0000   1.0000
     1.0000   1.0000   1.0000   1.0000   1.0000   1.0000   1.0000   1.0000

          k = 0.2500 0.3500 0.2500 ( 29635 PWs)   bands (ev):

   -23.2597 -23.2597 -23.2596 -23.2596 -23.1345 -23.1345 -23.1345 -23.1345
   -22.2394 -22.2394 -22.2394 -22.2394 -22.1303 -22.1303 -22.1302 -22.1302
   -22.0793 -22.0793 -22.0793 -22.0793 -11.5770 -11.5770 -11.5441 -11.5441
   -11.5035 -11.5035 -11.4850 -11.4850  -7.0096  -7.0096  -6.9569  -6.9569
    -2.8528  -2.8528  -2.5806  -2.5806  -2.0786  -2.0786  -1.9453  -1.9453
    -1.8406  -1.8406  -1.6201  -1.6201  -1.3178  -1.3178  -1.2616  -1.2616
    -1.0808  -1.0808  -0.9173  -0.9173  -0.8611  -0.8611  -0.6405  -0.6405

     occupation numbers 
     1.0000   1.0000   1.0000   1.0000   1.0000   1.0000   1.0000   1.0000
     1.0000   1.0000   1.0000   1.0000   1.0000   1.0000   1.0000   1.0000
     1.0000   1.0000   1.0000   1.0000   1.0000   1.0000   1.0000   1.0000
     1.0000   1.0000   1.0000   1.0000   1.0000   1.0000   1.0000   1.0000
     1.0000   1.0000   1.0000   1.0000   1.0000   1.0000   1.0000   1.0000
     1.0000   1.0000   1.0000   1.0000   1.0000   1.0000   1.0000   1.0000
     1.0000   1.0000   1.0000   1.0000   1.0000   1.0000   1.0000   1.0000

          k = 0.2500 0.4500 0.2500 ( 29649 PWs)   bands (ev):

   -23.2597 -23.2597 -23.2597 -23.2597 -23.1345 -23.1345 -23.1345 -23.1345
   -22.2394 -22.2394 -22.2394 -22.2394 -22.1303 -22.1303 -22.1303 -22.1303
   -22.0793 -22.0793 -22.0793 -22.0793 -11.5663 -11.5663 -11.5547 -11.5547
   -11.4976 -11.4976 -11.4907 -11.4907  -6.9940  -6.9940  -6.9754  -6.9754
    -2.7813  -2.7813  -2.6791  -2.6791  -2.0622  -2.0622  -1.9677  -1.9677
    -1.7958  -1.7958  -1.6264  -1.6264  -1.3166  -1.3166  -1.2937  -1.2937
    -1.0001  -1.0001  -0.9197  -0.9197  -0.8338  -0.8338  -0.7526  -0.7526

     occupation numbers 
     1.0000   1.0000   1.0000   1.0000   1.0000   1.0000   1.0000   1.0000
     1.0000   1.0000   1.0000   1.0000   1.0000   1.0000   1.0000   1.0000
     1.0000   1.0000   1.0000   1.0000   1.0000   1.0000   1.0000   1.0000
     1.0000   1.0000   1.0000   1.0000   1.0000   1.0000   1.0000   1.0000
     1.0000   1.0000   1.0000   1.0000   1.0000   1.0000   1.0000   1.0000
     1.0000   1.0000   1.0000   1.0000   1.0000   1.0000   1.0000   1.0000
     1.0000   1.0000   1.0000   1.0000   1.0000   1.0000   1.0000   1.0000

          k = 0.3500 0.3500 0.2500 ( 29641 PWs)   bands (ev):

   -23.2597 -23.2597 -23.2596 -23.2596 -23.1345 -23.1345 -23.1345 -23.1345
   -22.2394 -22.2394 -22.2394 -22.2394 -22.1303 -22.1303 -22.1303 -22.1303
   -22.0793 -22.0793 -22.0793 -22.0793 -11.5732 -11.5732 -11.5518 -11.5518
   -11.4986 -11.4986 -11.4850 -11.4850  -7.0062  -7.0062  -6.9716  -6.9716
    -2.7793  -2.7793  -2.5331  -2.5331  -2.0797  -2.0797  -1.9348  -1.9348
    -1.8790  -1.8790  -1.6479  -1.6479  -1.3490  -1.3490  -1.3011  -1.3011
    -1.1048  -1.1048  -0.9127  -0.9127  -0.8450  -0.8450  -0.7487  -0.7487

     occupation numbers 
     1.0000   1.0000   1.0000   1.0000   1.0000   1.0000   1.0000   1.0000
     1.0000   1.0000   1.0000   1.0000   1.0000   1.0000   1.0000   1.0000
     1.0000   1.0000   1.0000   1.0000   1.0000   1.0000   1.0000   1.0000
     1.0000   1.0000   1.0000   1.0000   1.0000   1.0000   1.0000   1.0000
     1.0000   1.0000   1.0000   1.0000   1.0000   1.0000   1.0000   1.0000
     1.0000   1.0000   1.0000   1.0000   1.0000   1.0000   1.0000   1.0000
     1.0000   1.0000   1.0000   1.0000   1.0000   1.0000   1.0000   1.0000

          k = 0.3500 0.4500 0.2500 ( 29665 PWs)   bands (ev):

   -23.2597 -23.2597 -23.2597 -23.2597 -23.1345 -23.1345 -23.1345 -23.1345
   -22.2394 -22.2394 -22.2394 -22.2394 -22.1303 -22.1303 -22.1303 -22.1303
   -22.0793 -22.0793 -22.0793 -22.0793 -11.5674 -11.5674 -11.5600 -11.5600
   -11.4927 -11.4927 -11.4878 -11.4878  -6.9985  -6.9985  -6.9863  -6.9863
    -2.6773  -2.6773  -2.5774  -2.5774  -2.0711  -2.0711  -1.9628  -1.9628
    -1.8433  -1.8433  -1.6726  -1.6726  -1.3578  -1.3578  -1.3378  -1.3378
    -1.0707  -1.0707  -0.9780  -0.9780  -0.8314  -0.8314  -0.8088  -0.8088

     occupation numbers 
     1.0000   1.0000   1.0000   1.0000   1.0000   1.0000   1.0000   1.0000
     1.0000   1.0000   1.0000   1.0000   1.0000   1.0000   1.0000   1.0000
     1.0000   1.0000   1.0000   1.0000   1.0000   1.0000   1.0000   1.0000
     1.0000   1.0000   1.0000   1.0000   1.0000   1.0000   1.0000   1.0000
     1.0000   1.0000   1.0000   1.0000   1.0000   1.0000   1.0000   1.0000
     1.0000   1.0000   1.0000   1.0000   1.0000   1.0000   1.0000   1.0000
     1.0000   1.0000   1.0000   1.0000   1.0000   1.0000   1.0000   1.0000

          k = 0.4500 0.2500 0.3500 ( 29665 PWs)   bands (ev):

   -23.2597 -23.2597 -23.2597 -23.2597 -23.1345 -23.1345 -23.1345 -23.1345
   -22.2394 -22.2394 -22.2394 -22.2394 -22.1303 -22.1303 -22.1303 -22.1303
   -22.0793 -22.0793 -22.0793 -22.0793 -11.5636 -11.5636 -11.5538 -11.5538
   -11.4995 -11.4995 -11.4915 -11.4915  -6.9961  -6.9961  -6.9826  -6.9826
    -2.7911  -2.7911  -2.6840  -2.6840  -2.0703  -2.0703  -1.9487  -1.9487
    -1.8127  -1.8127  -1.6027  -1.6027  -1.2957  -1.2957  -1.2603  -1.2603
    -0.9946  -0.9946  -0.9116  -0.9116  -0.8281  -0.8281  -0.7579  -0.7579

     occupation numbers 
     1.0000   1.0000   1.0000   1.0000   1.0000   1.0000   1.0000   1.0000
     1.0000   1.0000   1.0000   1.0000   1.0000   1.0000   1.0000   1.0000
     1.0000   1.0000   1.0000   1.0000   1.0000   1.0000   1.0000   1.0000
     1.0000   1.0000   1.0000   1.0000   1.0000   1.0000   1.0000   1.0000
     1.0000   1.0000   1.0000   1.0000   1.0000   1.0000   1.0000   1.0000
     1.0000   1.0000   1.0000   1.0000   1.0000   1.0000   1.0000   1.0000
     1.0000   1.0000   1.0000   1.0000   1.0000   1.0000   1.0000   1.0000

          k = 0.4500 0.4500 0.2500 ( 29662 PWs)   bands (ev):

   -23.2597 -23.2597 -23.2597 -23.2597 -23.1345 -23.1345 -23.1345 -23.1345
   -22.2394 -22.2394 -22.2394 -22.2394 -22.1303 -22.1303 -22.1303 -22.1303
   -22.0793 -22.0793 -22.0793 -22.0793 -11.5668 -11.5668 -11.5643 -11.5643
   -11.4889 -11.4889 -11.4871 -11.4871  -6.9993  -6.9993  -6.9949  -6.9949
    -2.5765  -2.5765  -2.5317  -2.5317  -2.0590  -2.0590  -1.9858  -1.9858
    -1.8470  -1.8470  -1.7414  -1.7414  -1.3802  -1.3802  -1.3722  -1.3722
    -1.0970  -1.0970  -1.0600  -1.0600  -0.8188  -0.8188  -0.8108  -0.8108

     occupation numbers 
     1.0000   1.0000   1.0000   1.0000   1.0000   1.0000   1.0000   1.0000
     1.0000   1.0000   1.0000   1.0000   1.0000   1.0000   1.0000   1.0000
     1.0000   1.0000   1.0000   1.0000   1.0000   1.0000   1.0000   1.0000
     1.0000   1.0000   1.0000   1.0000   1.0000   1.0000   1.0000   1.0000
     1.0000   1.0000   1.0000   1.0000   1.0000   1.0000   1.0000   1.0000
     1.0000   1.0000   1.0000   1.0000   1.0000   1.0000   1.0000   1.0000
     1.0000   1.0000   1.0000   1.0000   1.0000   1.0000   1.0000   1.0000

          k = 0.3500 0.4500 0.3500 ( 29643 PWs)   bands (ev):

   -23.2597 -23.2597 -23.2597 -23.2597 -23.1345 -23.1345 -23.1345 -23.1345
   -22.2394 -22.2394 -22.2394 -22.2394 -22.1303 -22.1303 -22.1303 -22.1303
   -22.0793 -22.0793 -22.0793 -22.0793 -11.5660 -11.5660 -11.5595 -11.5595
   -11.4935 -11.4935 -11.4879 -11.4879  -7.0019  -7.0019  -6.9927  -6.9927
    -2.6824  -2.6824  -2.5755  -2.5755  -2.0959  -2.0959  -1.9604  -1.9604
    -1.8568  -1.8568  -1.6454  -1.6454  -1.3336  -1.3336  -1.2945  -1.2945
    -1.0666  -1.0666  -0.9762  -0.9762  -0.8230  -0.8230  -0.8029  -0.8029

     occupation numbers 
     1.0000   1.0000   1.0000   1.0000   1.0000   1.0000   1.0000   1.0000
     1.0000   1.0000   1.0000   1.0000   1.0000   1.0000   1.0000   1.0000
     1.0000   1.0000   1.0000   1.0000   1.0000   1.0000   1.0000   1.0000
     1.0000   1.0000   1.0000   1.0000   1.0000   1.0000   1.0000   1.0000
     1.0000   1.0000   1.0000   1.0000   1.0000   1.0000   1.0000   1.0000
     1.0000   1.0000   1.0000   1.0000   1.0000   1.0000   1.0000   1.0000
     1.0000   1.0000   1.0000   1.0000   1.0000   1.0000   1.0000   1.0000

          k = 0.4500 0.4500 0.3500 ( 29652 PWs)   bands (ev):

   -23.2597 -23.2597 -23.2597 -23.2597 -23.1345 -23.1345 -23.1345 -23.1345
   -22.2394 -22.2394 -22.2394 -22.2394 -22.1303 -22.1303 -22.1303 -22.1303
   -22.0793 -22.0793 -22.0793 -22.0793 -11.5662 -11.5662 -11.5639 -11.5639
   -11.4890 -11.4890 -11.4870 -11.4870  -7.0039  -7.0039  -7.0005  -7.0005
    -2.5750  -2.5750  -2.5258  -2.5258  -2.0927  -2.0927  -2.0081  -2.0081
    -1.8456  -1.8456  -1.7216  -1.7216  -1.3487  -1.3487  -1.3264  -1.3264
    -1.0906  -1.0906  -1.0592  -1.0592  -0.8076  -0.8076  -0.7987  -0.7987

     occupation numbers 
     1.0000   1.0000   1.0000   1.0000   1.0000   1.0000   1.0000   1.0000
     1.0000   1.0000   1.0000   1.0000   1.0000   1.0000   1.0000   1.0000
     1.0000   1.0000   1.0000   1.0000   1.0000   1.0000   1.0000   1.0000
     1.0000   1.0000   1.0000   1.0000   1.0000   1.0000   1.0000   1.0000
     1.0000   1.0000   1.0000   1.0000   1.0000   1.0000   1.0000   1.0000
     1.0000   1.0000   1.0000   1.0000   1.0000   1.0000   1.0000   1.0000
     1.0000   1.0000   1.0000   1.0000   1.0000   1.0000   1.0000   1.0000

     highest occupied level (ev):    -0.5715

!    total energy              =    -458.40751983 Ry
     estimated scf accuracy    <       0.00000009 Ry

     The total energy is the sum of the following terms:
     one-electron contribution =    -256.48511806 Ry
     hartree contribution      =     145.40948469 Ry
     xc contribution           =    -157.08012612 Ry
     ewald contribution        =    -190.25176033 Ry

     convergence has been achieved in  11 iterations

     Forces acting on atoms (cartesian axes, Ry/au):

     atom    1 type  1   force =     0.00000000    0.00000000    0.00000000
     atom    2 type  1   force =     0.00000000    0.00000000    0.00000000
     atom    3 type  2   force =    -0.01801356   -0.01801356   -0.00000000
     atom    4 type  2   force =     0.01801356    0.01801356    0.00000000
     atom    5 type  2   force =    -0.01801356    0.01801356    0.00000000
     atom    6 type  2   force =     0.01801356   -0.01801356   -0.00000000
     The non-local contrib.  to forces
     atom    1 type  1   force =     0.00000000    0.00000000    0.00000000
     atom    2 type  1   force =     0.00000000    0.00000000    0.00000000
     atom    3 type  2   force =    -0.04135607   -0.04135607    0.00000000
     atom    4 type  2   force =     0.04135607    0.04135607    0.00000000
     atom    5 type  2   force =    -0.04135607    0.04135607    0.00000000
     atom    6 type  2   force =     0.04135607   -0.04135607    0.00000000
     The ionic contribution  to forces
     atom    1 type  1   force =    -0.00000000   -0.00000000    0.00000000
     atom    2 type  1   force =    -0.00000000   -0.00000000    0.00000000
     atom    3 type  2   force =     1.38633658    1.38633658    0.00000000
     atom    4 type  2   force =    -1.38633658   -1.38633658   -0.00000000
     atom    5 type  2   force =     1.38633658   -1.38633658    0.00000000
     atom    6 type  2   force =    -1.38633658    1.38633658    0.00000000
     The local contribution  to forces
     atom    1 type  1   force =    -0.00000000   -0.00000000   -0.00000000
     atom    2 type  1   force =     0.00000000    0.00000000    0.00000000
     atom    3 type  2   force =    -1.36686044   -1.36686044   -0.00000000
     atom    4 type  2   force =     1.36686044    1.36686044   -0.00000000
     atom    5 type  2   force =    -1.36686044    1.36686044    0.00000000
     atom    6 type  2   force =     1.36686044   -1.36686044    0.00000000
     The core correction contribution to forces
     atom    1 type  1   force =     0.00000000    0.00000000    0.00000000
     atom    2 type  1   force =     0.00000000    0.00000000    0.00000000
     atom    3 type  2   force =     0.00391202    0.00391202   -0.00000000
     atom    4 type  2   force =    -0.00391202   -0.00391202    0.00000000
     atom    5 type  2   force =     0.00391202   -0.00391202    0.00000000
     atom    6 type  2   force =    -0.00391202    0.00391202    0.00000000
     The Hubbard contrib.    to forces
     atom    1 type  1   force =     0.00000000    0.00000000    0.00000000
     atom    2 type  1   force =     0.00000000    0.00000000    0.00000000
     atom    3 type  2   force =     0.00000000    0.00000000    0.00000000
     atom    4 type  2   force =     0.00000000    0.00000000    0.00000000
     atom    5 type  2   force =     0.00000000    0.00000000    0.00000000
     atom    6 type  2   force =     0.00000000    0.00000000    0.00000000
     The SCF correction term to forces
     atom    1 type  1   force =    -0.00000000    0.00000000    0.00000000
     atom    2 type  1   force =    -0.00000000   -0.00000000   -0.00000000
     atom    3 type  2   force =    -0.00004564   -0.00004564    0.00000000
     atom    4 type  2   force =     0.00004564    0.00004564   -0.00000000
     atom    5 type  2   force =    -0.00004564    0.00004564   -0.00000000
     atom    6 type  2   force =     0.00004564   -0.00004564   -0.00000000

     Total force =     0.050950     Total SCF correction =     0.000129


     Computing stress (Cartesian axis) and pressure

          total   stress  (Ry/bohr**3)                   (kbar)     P=      -27.70
  -0.00019065   0.00000000   0.00000000          -28.05        0.00        0.00
   0.00000000  -0.00019065   0.00000000            0.00      -28.05        0.00
   0.00000000   0.00000000  -0.00018370            0.00        0.00      -27.02

     kinetic stress (kbar)   4478.05      0.00      0.00
                                0.00   4478.05      0.00
                                0.00      0.00   4472.84

     local   stress (kbar)  -2714.55      0.00      0.00
                                0.00  -2714.55     -0.00
                                0.00     -0.00  -2198.92

     nonloc. stress (kbar)     69.12      0.00      0.00
                                0.00     69.12      0.00
                                0.00      0.00     53.90

     hartree stress (kbar)   2422.33     -0.00      0.00
                               -0.00   2422.33     -0.00
                                0.00     -0.00   2289.29

     exc-cor stress (kbar)   3792.41      0.00     -0.00
                                0.00   3792.41      0.00
                               -0.00      0.00   3791.41

     corecor stress (kbar)  -5084.42     -0.00      0.00
                               -0.00  -5084.42     -0.00
                                0.00      0.00  -5083.57

     ewald   stress (kbar)  -2990.99      0.00     -0.00
                                0.00  -2990.99     -0.00
                               -0.00     -0.00  -3351.97

     hubbard stress (kbar)      0.00      0.00      0.00
                                0.00      0.00      0.00
                                0.00      0.00      0.00

     DFT-D   stress (kbar)      0.00      0.00      0.00
                                0.00      0.00      0.00
                                0.00      0.00      0.00

     XDM     stress (kbar)      0.00      0.00      0.00
                                0.00      0.00      0.00
                                0.00      0.00      0.00

     dft-nl  stress (kbar)      0.00      0.00      0.00
                                0.00      0.00      0.00
                                0.00      0.00      0.00

     TS-vdW  stress (kbar)      0.00      0.00      0.00
                                0.00      0.00      0.00
                                0.00      0.00      0.00



     Writing output data file ./SnI2.save/

     init_run     :     26.73s CPU     15.09s WALL (       1 calls)
     electrons    :    958.11s CPU    515.15s WALL (       1 calls)
     forces       :     12.52s CPU      9.54s WALL (       1 calls)
     stress       :     42.02s CPU     23.36s WALL (       1 calls)

     Called by init_run:
     wfcinit      :     25.11s CPU     13.79s WALL (       1 calls)
     wfcinit:atom :      0.22s CPU      0.11s WALL (      75 calls)
     wfcinit:wfcr :     23.86s CPU     12.83s WALL (      75 calls)
     potinit      :      0.28s CPU      0.25s WALL (       1 calls)
     hinit0       :      0.53s CPU      0.44s WALL (       1 calls)

     Called by electrons:
     c_bands      :    807.31s CPU    433.11s WALL (      11 calls)
     sum_band     :    141.53s CPU     75.43s WALL (      11 calls)
     v_of_rho     :      0.84s CPU      0.50s WALL (      12 calls)
     v_h          :      0.09s CPU      0.05s WALL (      12 calls)
     v_xc         :      0.83s CPU      0.49s WALL (      14 calls)
     newd         :      7.50s CPU      5.07s WALL (      12 calls)
     mix_rho      :      0.70s CPU      0.47s WALL (      11 calls)

     Called by c_bands:
     init_us_2    :      5.12s CPU      2.66s WALL (    1875 calls)
     cegterg      :    774.04s CPU    410.81s WALL (     825 calls)

     Called by sum_band:
     sum_band:wei :      0.00s CPU      0.00s WALL (      11 calls)
     sum_band:loo :    135.15s CPU     70.54s WALL (      11 calls)
     sum_band:buf :      0.68s CPU      0.55s WALL (     825 calls)
     sum_band:ini :      1.81s CPU      0.94s WALL (     825 calls)
     sum_band:cal :     10.27s CPU      5.19s WALL (     825 calls)
     sum_band:bec :     25.06s CPU     12.75s WALL (     825 calls)
     addusdens    :      5.83s CPU      4.49s WALL (      11 calls)
     addusd:skk   :      0.01s CPU      0.00s WALL (      22 calls)
     addusd:dgemm :      2.07s CPU      2.57s WALL (      22 calls)
     addusd:qvan2 :      3.63s CPU      1.84s WALL (      22 calls)

     Called by *egterg:
     cdiaghg      :     34.48s CPU     18.46s WALL (    4879 calls)
     cegterg:over :     37.19s CPU     20.50s WALL (    4054 calls)
     cegterg:upda :     14.43s CPU      7.31s WALL (    4054 calls)
     cegterg:last :     24.17s CPU     12.23s WALL (    2119 calls)
     h_psi        :    611.39s CPU    321.53s WALL (    4954 calls)
     s_psi        :     45.54s CPU     25.85s WALL (    4954 calls)
     g_psi        :      1.72s CPU      0.87s WALL (    4054 calls)

     Called by h_psi:
     h_psi:calbec :     35.39s CPU     18.05s WALL (    4954 calls)
     vloc_psi     :    534.87s CPU    280.77s WALL (    4954 calls)
     add_vuspsi   :     39.16s CPU     21.72s WALL (    4954 calls)

     General routines
     calbec       :     55.19s CPU     30.49s WALL (    6154 calls)
     fft          :      1.63s CPU      1.02s WALL (     281 calls)
     ffts         :      0.46s CPU      0.28s WALL (      92 calls)
     fftw         :    570.77s CPU    300.45s WALL (  676728 calls)
     interpolate  :      0.44s CPU      0.26s WALL (      48 calls)

     Parallel routines
     fft_scatt_xy :     31.08s CPU     15.87s WALL (  677101 calls)
     fft_scatt_yz :    399.20s CPU    212.73s WALL (  677101 calls)

     PWSCF        :  17m29.38s CPU  11m12.91s WALL


   This run was terminated on:  11:35:22  31Jan2021            

=------------------------------------------------------------------------------=
   JOB DONE.
=------------------------------------------------------------------------------=
