
     Program PWSCF v.6.0 (svn rev. 13079) starts on 18Jan2021 at 17:27:40 

     This program is part of the open-source Quantum ESPRESSO suite
     for quantum simulation of materials; please cite
         "P. Giannozzi et al., J. Phys.:Condens. Matter 21 395502 (2009);
          URL http://www.quantum-espresso.org", 
     in publications or presentations arising from this work. More details at
     http://www.quantum-espresso.org/quote

     Parallel version (MPI & OpenMP), running on      80 processor cores
     Number of MPI processes:                40
     Threads/MPI process:                     2
     R & G space division:  proc/nbgrp/npool/nimage =      40
     Waiting for input...
     Reading input from standard input

     Current dimensions of program PWSCF are:
     Max number of different atomic species (ntypx) = 10
     Max number of k-points (npk) =  40000
     Max angular momentum in pseudopotentials (lmaxx) =  3

     Atomic positions and unit cell read from directory:
     ./CsSnI3.save/

               file Cs.rel-pbesol-spn-kjpaw_psl.1.0.0.UPF: wavefunction(s)  5S 6S renormalized
               file Sn.rel-pbesol-dn-kjpaw_psl.1.0.0.UPF: wavefunction(s)  5S 5P 5P 4D 4D renormalized
               file I.rel-pbesol-n-kjpaw_psl.1.0.0.UPF: wavefunction(s)  5S renormalized

     Subspace diagonalization in iterative solution of the eigenvalue problem:
     a serial algorithm will be used


     Parallelization info
     --------------------
     sticks:   dense  smooth     PW     G-vecs:    dense   smooth      PW
     Min         133      88     23                18373     9994    1345
     Max         134      89     24                18380    10007    1352
     Sum        5329    3545    933               735059   400005   53931



     bravais-lattice index     =            8
     lattice parameter (alat)  =       9.1317  a.u.
     unit-cell volume          =    6370.5385 (a.u.)^3
     number of atoms/cell      =           20
     number of atomic types    =            3
     number of electrons       =       176.00
     number of Kohn-Sham states=          176
     kinetic-energy cutoff     =      60.0000  Ry
     charge density cutoff     =     360.0000  Ry
     convergence threshold     =      1.0E-06
     mixing beta               =       0.3000
     number of iterations used =            8  plain     mixing
     Exchange-correlation      =  SLA  PW   PSX  PSC ( 1  4 10  8 0 0)
     Non magnetic calculation with spin-orbit


     celldm(1)=   9.131705  celldm(2)=   2.227728  celldm(3)=   3.755420
     celldm(4)=   0.000000  celldm(5)=   0.000000  celldm(6)=   0.000000

     crystal axes: (cart. coord. in units of alat)
               a(1) = (   1.000000   0.000000   0.000000 )  
               a(2) = (   0.000000   2.227728   0.000000 )  
               a(3) = (   0.000000   0.000000   3.755420 )  

     reciprocal axes: (cart. coord. in units 2 pi/alat)
               b(1) = (  1.000000  0.000000  0.000000 )  
               b(2) = (  0.000000  0.448888  0.000000 )  
               b(3) = (  0.000000  0.000000  0.266282 )  


     PseudoPot. # 1 for Cs read from file:
     /scratch/cmalosso/degironcoli/pseudo/Cs.rel-pbesol-spn-kjpaw_psl.1.0.0.UPF
     MD5 check sum: 2adfb289dd462649b099d7edbec69378
     Pseudo is Projector augmented-wave + core cor, Zval =  9.0
     Generated using "atomic" code by A. Dal Corso  v.6.4.1
     Shape of augmentation charge: PSQ
     Using radial grid of 1251 points, 15 beta functions with: 
                l(1) =   0
                l(2) =   0
                l(3) =   0
                l(4) =   1
                l(5) =   1
                l(6) =   1
                l(7) =   1
                l(8) =   2
                l(9) =   2
               l(10) =   2
               l(11) =   2
               l(12) =   3
               l(13) =   3
               l(14) =   3
               l(15) =   3
     Q(r) pseudized with 0 coefficients 


     PseudoPot. # 2 for Sn read from file:
     /scratch/cmalosso/degironcoli/pseudo/Sn.rel-pbesol-dn-kjpaw_psl.1.0.0.UPF
     MD5 check sum: e69eff64f15ae39ad43ef58bacbfdf88
     Pseudo is Projector augmented-wave + core cor, Zval = 14.0
     Generated using "atomic" code by A. Dal Corso  v.6.3
     Shape of augmentation charge: PSQ
     Using radial grid of 1243 points, 10 beta functions with: 
                l(1) =   0
                l(2) =   0
                l(3) =   1
                l(4) =   1
                l(5) =   1
                l(6) =   1
                l(7) =   2
                l(8) =   2
                l(9) =   2
               l(10) =   2
     Q(r) pseudized with 0 coefficients 


     PseudoPot. # 3 for  I read from file:
     /scratch/cmalosso/degironcoli/pseudo/I.rel-pbesol-n-kjpaw_psl.1.0.0.UPF
     MD5 check sum: 4478c427bd443f303eca1937a163b991
     Pseudo is Projector augmented-wave + core cor, Zval =  7.0
     Generated using "atomic" code by A. Dal Corso  v.6.3
     Shape of augmentation charge: PSQ
     Using radial grid of 1247 points, 10 beta functions with: 
                l(1) =   0
                l(2) =   0
                l(3) =   1
                l(4) =   1
                l(5) =   1
                l(6) =   1
                l(7) =   2
                l(8) =   2
                l(9) =   2
               l(10) =   2
     Q(r) pseudized with 0 coefficients 


     atomic species   valence    mass     pseudopotential
        Cs             9.00   132.90000     Cs( 1.00)
        Sn            14.00   118.70000     Sn( 1.00)
        I              7.00   126.90000      I( 1.00)

      4 Sym. Ops., with inversion, found ( 2 have fractional translation)
          (note:  4 additional sym.ops. were found but ignored
           their fractional translations are incommensurate with FFT grid)

                                    s                        frac. trans.

      isym =  1     identity                                     

 cryst.   s( 1) = (     1          0          0      )
                  (     0          1          0      )
                  (     0          0          1      )

 cart.    s( 1) = (  1.0000000  0.0000000  0.0000000 )
                  (  0.0000000  1.0000000  0.0000000 )
                  (  0.0000000  0.0000000  1.0000000 )


      isym =  2     180 deg rotation - cart. axis [1,0,0]        

 cryst.   s( 2) = (     1          0          0      )    f =(  0.5000000 )
                  (     0         -1          0      )       (  0.0000000 )
                  (     0          0         -1      )       (  0.0000000 )

 cart.    s( 2) = (  1.0000000  0.0000000  0.0000000 )    f =(  0.5000000 )
                  (  0.0000000 -1.0000000  0.0000000 )       (  0.0000000 )
                  (  0.0000000  0.0000000 -1.0000000 )       (  0.0000000 )


      isym =  3     inversion                                    

 cryst.   s( 3) = (    -1          0          0      )
                  (     0         -1          0      )
                  (     0          0         -1      )

 cart.    s( 3) = ( -1.0000000  0.0000000  0.0000000 )
                  (  0.0000000 -1.0000000  0.0000000 )
                  (  0.0000000  0.0000000 -1.0000000 )


      isym =  4     inv. 180 deg rotation - cart. axis [1,0,0]   

 cryst.   s( 4) = (    -1          0          0      )    f =(  0.5000000 )
                  (     0          1          0      )       (  0.0000000 )
                  (     0          0          1      )       (  0.0000000 )

 cart.    s( 4) = ( -1.0000000  0.0000000  0.0000000 )    f =(  0.5000000 )
                  (  0.0000000  1.0000000  0.0000000 )       (  0.0000000 )
                  (  0.0000000  0.0000000  1.0000000 )       (  0.0000000 )


     double point group C_2h (2/m) 
     there are  8 classes and  4 irreducible representations
     the character table:

       E     -E    C2    -C2   i     -i    s_h   -s_h 
                                                      
G_3+   1.00 -1.00  0.00  0.00  1.00 -1.00  0.00  0.00
G_4+   1.00 -1.00  0.00  0.00  1.00 -1.00  0.00  0.00
G_3-   1.00 -1.00  0.00  0.00 -1.00  1.00  0.00  0.00
G_4-   1.00 -1.00  0.00  0.00 -1.00  1.00  0.00  0.00

     imaginary part

       E     -E    C2    -C2   i     -i    s_h   -s_h 
                                                      
G_3+   0.00  0.00  1.00 -1.00  0.00  0.00  1.00 -1.00
G_4+   0.00  0.00 -1.00  1.00  0.00  0.00 -1.00  1.00
G_3-   0.00  0.00  1.00 -1.00  0.00  0.00 -1.00  1.00
G_4-   0.00  0.00 -1.00  1.00  0.00  0.00  1.00 -1.00

     the symmetry operations in each class and the name of the first element:

     E             1
          identity                                               
     -E           -1
          identity E                                             
     C2            2
          180 deg rotation - cart. axis [1,0,0]                  
     -C2          -2
          180 deg rotation - cart. axis [1,0,0] E                
     i             3
          inversion                                              
     -i           -3
          inversion E                                            
     s_h           4
          inv. 180 deg rotation - cart. axis [1,0,0]             
     -s_h         -4
          inv. 180 deg rotation - cart. axis [1,0,0] E           

   Cartesian axes

     site n.     atom                  positions (alat units)
         1           Cs  tau(   1) = (   0.2500000   0.1859640   2.5168147  )
         2           Cs  tau(   2) = (   0.7500000   2.0417636   1.2386050  )
         3           Cs  tau(   3) = (   0.2500000   1.2998278   3.1163149  )
         4           Cs  tau(   4) = (   0.7500000   0.9278998   0.6391048  )
         5           Sn  tau(   5) = (   0.2500000   0.7615710   1.6485466  )
         6           Sn  tau(   6) = (   0.7500000   1.4661567   2.1068731  )
         7           Sn  tau(   7) = (   0.2500000   1.8754348   0.2291632  )
         8           Sn  tau(   8) = (   0.7500000   0.3522928   3.5262565  )
         9           I   tau(   9) = (   0.7500000   0.0581437   0.4202578  )
        10           I   tau(  10) = (   0.2500000   2.1695839   3.3351619  )
        11           I   tau(  11) = (   0.7500000   1.1720075   1.4574521  )
        12           I   tau(  12) = (   0.2500000   1.0557201   2.2979676  )
        13           I   tau(  13) = (   0.7500000   0.6531118   2.9738192  )
        14           I   tau(  14) = (   0.2500000   1.5746158   0.7816005  )
        15           I   tau(  15) = (   0.7500000   1.7669756   2.6593103  )
        16           I   tau(  16) = (   0.2500000   0.4607520   1.0961094  )
        17           I   tau(  17) = (   0.7500000   0.3753632   1.8734812  )
        18           I   tau(  18) = (   0.2500000   1.8523644   1.8819384  )
        19           I   tau(  19) = (   0.7500000   1.4892270   0.0042286  )
        20           I   tau(  20) = (   0.2500000   0.7385006   3.7511911  )

   Crystallographic axes

     site n.     atom                  positions (cryst. coord.)
         1           Cs  tau(   1) = (  0.2500000  0.0834770  0.6701820  )
         2           Cs  tau(   2) = (  0.7500000  0.9165230  0.3298180  )
         3           Cs  tau(   3) = (  0.2500000  0.5834770  0.8298180  )
         4           Cs  tau(   4) = (  0.7500000  0.4165230  0.1701820  )
         5           Sn  tau(   5) = (  0.2500000  0.3418600  0.4389780  )
         6           Sn  tau(   6) = (  0.7500000  0.6581400  0.5610220  )
         7           Sn  tau(   7) = (  0.2500000  0.8418600  0.0610220  )
         8           Sn  tau(   8) = (  0.7500000  0.1581400  0.9389780  )
         9           I   tau(   9) = (  0.7500000  0.0261000  0.1119070  )
        10           I   tau(  10) = (  0.2500000  0.9739000  0.8880930  )
        11           I   tau(  11) = (  0.7500000  0.5261000  0.3880930  )
        12           I   tau(  12) = (  0.2500000  0.4739000  0.6119070  )
        13           I   tau(  13) = (  0.7500000  0.2931740  0.7918740  )
        14           I   tau(  14) = (  0.2500000  0.7068260  0.2081260  )
        15           I   tau(  15) = (  0.7500000  0.7931740  0.7081260  )
        16           I   tau(  16) = (  0.2500000  0.2068260  0.2918740  )
        17           I   tau(  17) = (  0.7500000  0.1684960  0.4988740  )
        18           I   tau(  18) = (  0.2500000  0.8315040  0.5011260  )
        19           I   tau(  19) = (  0.7500000  0.6684960  0.0011260  )
        20           I   tau(  20) = (  0.2500000  0.3315040  0.9988740  )

     number of k points=     2
                       cart. coord. in units 2pi/alat
        k(    1) = (   0.2500000   0.1122220   0.0665705), wk =   0.5000000
        k(    2) = (  -0.2500000   0.1122220  -0.0665705), wk =   0.5000000

                       cryst. coord.
        k(    1) = (   0.2500000   0.2500000   0.2500000), wk =   0.5000000
        k(    2) = (  -0.2500000   0.2500000  -0.2500000), wk =   0.5000000

     Dense  grid:   735059 G-vectors     FFT dimensions: (  60, 125, 216)

     Smooth grid:   400005 G-vectors     FFT dimensions: (  45, 108, 180)

     Estimated max dynamical RAM per process >     141.29Mb

     Estimated total allocated dynamical RAM >    5651.45Mb

     The initial density is read from file :
     ./CsSnI3.save/charge-density.dat


     negative rho (up, down):  6.125E+03 0.000E+00
     Starting wfc from file
     Checking if some PAW data can be deallocated... 
       node    0, deallocated PAW data for type:  2
       node    0, deallocated PAW data for type:  3
       node    1, deallocated PAW data for type:  2
       node    1, deallocated PAW data for type:  3
       node    2, deallocated PAW data for type:  2
       node    2, deallocated PAW data for type:  3
       node    3, deallocated PAW data for type:  2
       node    3, deallocated PAW data for type:  3
       node    4, deallocated PAW data for type:  2
       node    4, deallocated PAW data for type:  3
       node    5, deallocated PAW data for type:  2
       node    5, deallocated PAW data for type:  3
       node    6, deallocated PAW data for type:  2
       node    6, deallocated PAW data for type:  3
       node    7, deallocated PAW data for type:  2
       node    7, deallocated PAW data for type:  3
       node    8, deallocated PAW data for type:  1
       node    8, deallocated PAW data for type:  3
       node    9, deallocated PAW data for type:  1
       node    9, deallocated PAW data for type:  3
       node   10, deallocated PAW data for type:  1
       node   10, deallocated PAW data for type:  3
       node   11, deallocated PAW data for type:  1
       node   11, deallocated PAW data for type:  3
       node   12, deallocated PAW data for type:  1
       node   12, deallocated PAW data for type:  3
       node   13, deallocated PAW data for type:  1
       node   13, deallocated PAW data for type:  3
       node   14, deallocated PAW data for type:  1
       node   14, deallocated PAW data for type:  3
       node   15, deallocated PAW data for type:  1
       node   15, deallocated PAW data for type:  3
       node   16, deallocated PAW data for type:  1
       node   16, deallocated PAW data for type:  2
       node   17, deallocated PAW data for type:  1
       node   17, deallocated PAW data for type:  2
       node   18, deallocated PAW data for type:  1
       node   18, deallocated PAW data for type:  2
       node   19, deallocated PAW data for type:  1
       node   19, deallocated PAW data for type:  2
       node   20, deallocated PAW data for type:  1
       node   20, deallocated PAW data for type:  2
       node   21, deallocated PAW data for type:  1
       node   21, deallocated PAW data for type:  2
       node   22, deallocated PAW data for type:  1
       node   22, deallocated PAW data for type:  2
       node   23, deallocated PAW data for type:  1
       node   23, deallocated PAW data for type:  2
       node   24, deallocated PAW data for type:  1
       node   24, deallocated PAW data for type:  2
       node   25, deallocated PAW data for type:  1
       node   25, deallocated PAW data for type:  2
       node   26, deallocated PAW data for type:  1
       node   26, deallocated PAW data for type:  2
       node   27, deallocated PAW data for type:  1
       node   27, deallocated PAW data for type:  2
       node   28, deallocated PAW data for type:  1
       node   28, deallocated PAW data for type:  2
       node   29, deallocated PAW data for type:  1
       node   29, deallocated PAW data for type:  2
       node   30, deallocated PAW data for type:  1
       node   30, deallocated PAW data for type:  2
       node   31, deallocated PAW data for type:  1
       node   31, deallocated PAW data for type:  2
       node   32, deallocated PAW data for type:  1
       node   32, deallocated PAW data for type:  2
       node   33, deallocated PAW data for type:  1
       node   33, deallocated PAW data for type:  2
       node   34, deallocated PAW data for type:  1
       node   34, deallocated PAW data for type:  2
       node   35, deallocated PAW data for type:  1
       node   35, deallocated PAW data for type:  2
       node   36, deallocated PAW data for type:  1
       node   36, deallocated PAW data for type:  2
       node   37, deallocated PAW data for type:  1
       node   37, deallocated PAW data for type:  2
       node   38, deallocated PAW data for type:  1
       node   38, deallocated PAW data for type:  2
       node   39, deallocated PAW data for type:  1
       node   39, deallocated PAW data for type:  2

     total cpu time spent up to now is       20.6 secs

     per-process dynamical memory:   193.0 Mb

     Self-consistent Calculation

     iteration #  1     ecut=    60.00 Ry     beta=0.30
     Davidson diagonalization with overlap
     ethr =  1.00E-05,  avg # of iterations =  5.0

     Threshold (ethr) on eigenvalues was too large:
     Diagonalizing with lowered threshold

     Davidson diagonalization with overlap
     ethr =  1.68E-08,  avg # of iterations =  7.0

     negative rho (up, down):  6.125E+03 0.000E+00

     total cpu time spent up to now is       56.4 secs

     total energy              = -102217.15852660 Ry
     Harris-Foulkes estimate   = -102217.15851586 Ry
     estimated scf accuracy    <       0.00002944 Ry

     iteration #  2     ecut=    60.00 Ry     beta=0.30
     Davidson diagonalization with overlap
     ethr =  1.67E-08,  avg # of iterations = 16.0

     negative rho (up, down):  6.125E+03 0.000E+00

     total cpu time spent up to now is       86.2 secs

     total energy              = -102217.13080976 Ry
     Harris-Foulkes estimate   = -102217.13084061 Ry
     estimated scf accuracy    <       0.00009788 Ry

     iteration #  3     ecut=    60.00 Ry     beta=0.30
     Davidson diagonalization with overlap
     ethr =  1.67E-08,  avg # of iterations =  3.0

     negative rho (up, down):  6.125E+03 0.000E+00

     total cpu time spent up to now is      102.0 secs

     total energy              = -102217.13080812 Ry
     Harris-Foulkes estimate   = -102217.13081106 Ry
     estimated scf accuracy    <       0.00000166 Ry

     iteration #  4     ecut=    60.00 Ry     beta=0.30
     Davidson diagonalization with overlap
     ethr =  9.41E-10,  avg # of iterations =  5.0

     negative rho (up, down):  6.125E+03 0.000E+00

     total cpu time spent up to now is      119.1 secs

     End of self-consistent calculation

          k = 0.2500 0.1122 0.0666 ( 49977 PWs)   bands (ev):

  ************************************************************************
  ************************************************************************
  ************************************************************************
  ************************************************************************
  ************************************************************************
  ************************************************************************
  ************************************************************************
  ************************************************************************
  ************************************************************************
  ************************************************************************
  ************************************************************************
  ************************************************************************
  ************************************************************************
  ************************************************************************
  ************************************************************************
  ************************************************************************
  ************************************************************************
  ************************************************************************
  ************************************************************************
  ************************************************************************
  -638.5012-638.5012-637.2392-637.2392-631.2048-631.2048-630.2576-630.2576
  -588.2619-588.2619-586.9103-586.9103-581.1290-581.1290-580.3513-580.3513

     occupation numbers 
     1.0000   1.0000   1.0000   1.0000   1.0000   1.0000   1.0000   1.0000
     1.0000   1.0000   1.0000   1.0000   1.0000   1.0000   1.0000   1.0000
     1.0000   1.0000   1.0000   1.0000   1.0000   1.0000   1.0000   1.0000
     1.0000   1.0000   1.0000   1.0000   1.0000   1.0000   1.0000   1.0000
     1.0000   1.0000   1.0000   1.0000   1.0000   1.0000   1.0000   1.0000
     1.0000   1.0000   1.0000   1.0000   1.0000   1.0000   1.0000   1.0000
     1.0000   1.0000   1.0000   1.0000   1.0000   1.0000   1.0000   1.0000
     1.0000   1.0000   1.0000   1.0000   1.0000   1.0000   1.0000   1.0000
     1.0000   1.0000   1.0000   1.0000   1.0000   1.0000   1.0000   1.0000
     1.0000   1.0000   1.0000   1.0000   1.0000   1.0000   1.0000   1.0000
     1.0000   1.0000   1.0000   1.0000   1.0000   1.0000   1.0000   1.0000
     1.0000   1.0000   1.0000   1.0000   1.0000   1.0000   1.0000   1.0000
     1.0000   1.0000   1.0000   1.0000   1.0000   1.0000   1.0000   1.0000
     1.0000   1.0000   1.0000   1.0000   1.0000   1.0000   1.0000   1.0000
     1.0000   1.0000   1.0000   1.0000   1.0000   1.0000   1.0000   1.0000
     1.0000   1.0000   1.0000   1.0000   1.0000   1.0000   1.0000   1.0000
     1.0000   1.0000   1.0000   1.0000   1.0000   1.0000   1.0000   1.0000
     1.0000   1.0000   1.0000   1.0000   1.0000   1.0000   1.0000   1.0000
     1.0000   1.0000   1.0000   1.0000   1.0000   1.0000   1.0000   1.0000
     1.0000   1.0000   1.0000   1.0000   1.0000   1.0000   1.0000   1.0000
     1.0000   1.0000   1.0000   1.0000   1.0000   1.0000   1.0000   1.0000
     1.0000   1.0000   1.0000   1.0000   1.0000   1.0000   1.0000   1.0000

          k =-0.2500 0.1122-0.0666 ( 49977 PWs)   bands (ev):

  ************************************************************************
  ************************************************************************
  ************************************************************************
  ************************************************************************
  ************************************************************************
  ************************************************************************
  ************************************************************************
  ************************************************************************
  ************************************************************************
  ************************************************************************
  ************************************************************************
  ************************************************************************
  ************************************************************************
  ************************************************************************
  ************************************************************************
  ************************************************************************
  ************************************************************************
  ************************************************************************
  ************************************************************************
  ************************************************************************
  -638.8731-638.8731-636.9834-636.9834-630.4899-630.4899-629.8897-629.8897
  -588.3435-588.3435-586.8914-586.8914-580.9659-580.9659-580.0543-580.0543

     occupation numbers 
     1.0000   1.0000   1.0000   1.0000   1.0000   1.0000   1.0000   1.0000
     1.0000   1.0000   1.0000   1.0000   1.0000   1.0000   1.0000   1.0000
     1.0000   1.0000   1.0000   1.0000   1.0000   1.0000   1.0000   1.0000
     1.0000   1.0000   1.0000   1.0000   1.0000   1.0000   1.0000   1.0000
     1.0000   1.0000   1.0000   1.0000   1.0000   1.0000   1.0000   1.0000
     1.0000   1.0000   1.0000   1.0000   1.0000   1.0000   1.0000   1.0000
     1.0000   1.0000   1.0000   1.0000   1.0000   1.0000   1.0000   1.0000
     1.0000   1.0000   1.0000   1.0000   1.0000   1.0000   1.0000   1.0000
     1.0000   1.0000   1.0000   1.0000   1.0000   1.0000   1.0000   1.0000
     1.0000   1.0000   1.0000   1.0000   1.0000   1.0000   1.0000   1.0000
     1.0000   1.0000   1.0000   1.0000   1.0000   1.0000   1.0000   1.0000
     1.0000   1.0000   1.0000   1.0000   1.0000   1.0000   1.0000   1.0000
     1.0000   1.0000   1.0000   1.0000   1.0000   1.0000   1.0000   1.0000
     1.0000   1.0000   1.0000   1.0000   1.0000   1.0000   1.0000   1.0000
     1.0000   1.0000   1.0000   1.0000   1.0000   1.0000   1.0000   1.0000
     1.0000   1.0000   1.0000   1.0000   1.0000   1.0000   1.0000   1.0000
     1.0000   1.0000   1.0000   1.0000   1.0000   1.0000   1.0000   1.0000
     1.0000   1.0000   1.0000   1.0000   1.0000   1.0000   1.0000   1.0000
     1.0000   1.0000   1.0000   1.0000   1.0000   1.0000   1.0000   1.0000
     1.0000   1.0000   1.0000   1.0000   1.0000   1.0000   1.0000   1.0000
     1.0000   1.0000   1.0000   1.0000   1.0000   1.0000   1.0000   1.0000
     1.0000   1.0000   1.0000   1.0000   1.0000   1.0000   1.0000   1.0000

     highest occupied level (ev):  -580.0543

!    total energy              = -102217.13080377 Ry
     Harris-Foulkes estimate   = -102217.13080836 Ry
     estimated scf accuracy    <       0.00000081 Ry

     total all-electron energy =   -376831.231343 Ry

     The total energy is the sum of the following terms:

     one-electron contribution =    5146.33774053 Ry
     hartree contribution      = 8073330.20840151 Ry
     xc contribution           =   -6130.71007797 Ry
     ewald contribution        =    -633.56960162 Ry
     one-center paw contrib.   =-8173929.39726621 Ry

     convergence has been achieved in   4 iterations

     negative rho (up, down):  6.125E+03 0.000E+00

     Forces acting on atoms (Ry/au):

     atom    1 type  1   force =     0.00000000  -80.39205292   21.52279904
     atom    2 type  1   force =     0.00000000   80.39205292  -21.52279904
     atom    3 type  1   force =     0.00000000  416.52173505 -273.35900743
     atom    4 type  1   force =     0.00000000 -416.52173505  273.35900743
     atom    5 type  2   force =     0.00000000  -13.50160555   -9.39516402
     atom    6 type  2   force =     0.00000000   13.50160555    9.39516402
     atom    7 type  2   force =     0.00000000  -10.50155533    7.71768285
     atom    8 type  2   force =     0.00000000   10.50155533   -7.71768285
     atom    9 type  3   force =     0.00000000    6.89387628   16.39948431
     atom   10 type  3   force =     0.00000000   -6.89387628  -16.39948431
     atom   11 type  3   force =     0.00000000    4.85756533  -15.19277369
     atom   12 type  3   force =     0.00000000   -4.85756533   15.19277369
     atom   13 type  3   force =     0.00000000    4.70583765   -9.51245122
     atom   14 type  3   force =     0.00000000   -4.70583765    9.51245122
     atom   15 type  3   force =     0.00000000    5.43241265    9.11273285
     atom   16 type  3   force =     0.00000000   -5.43241265   -9.11273285
     atom   17 type  3   force =     0.00000000  -13.70064816    4.75773096
     atom   18 type  3   force =     0.00000000   13.70064816   -4.75773096
     atom   19 type  3   force =     0.00000000  -11.83819490   -6.60417834
     atom   20 type  3   force =     0.00000000   11.83819490    6.60417834
     The non-local contrib.  to forces
     atom    1 type  1   force =     0.00000000-2643.06020521  526.35196718
     atom    2 type  1   force =     0.00000000 2643.06020521 -526.35196718
     atom    3 type  1   force =     0.00000000 1931.52027770-2401.04490250
     atom    4 type  1   force =     0.00000000-1931.52027770 2401.04490250
     atom    5 type  2   force =     0.00000000   -0.00000913   -0.00087176
     atom    6 type  2   force =     0.00000000    0.00000913    0.00087176
     atom    7 type  2   force =     0.00000000    0.00003538    0.00017477
     atom    8 type  2   force =     0.00000000   -0.00003538   -0.00017477
     atom    9 type  3   force =     0.00000000   -0.00016360   -0.00022439
     atom   10 type  3   force =     0.00000000    0.00016360    0.00022439
     atom   11 type  3   force =     0.00000000    0.00038210    0.00025649
     atom   12 type  3   force =     0.00000000   -0.00038210   -0.00025649
     atom   13 type  3   force =     0.00000000    0.00022903    0.00007828
     atom   14 type  3   force =     0.00000000   -0.00022903   -0.00007828
     atom   15 type  3   force =     0.00000000    0.00005970    0.00000144
     atom   16 type  3   force =     0.00000000   -0.00005970   -0.00000144
     atom   17 type  3   force =     0.00000000    0.00019842    0.00049519
     atom   18 type  3   force =     0.00000000   -0.00019842   -0.00049519
     atom   19 type  3   force =     0.00000000   -0.00037790    0.00013658
     atom   20 type  3   force =     0.00000000    0.00037790   -0.00013658
     The ionic contribution  to forces
     atom    1 type  1   force =     0.00000000    0.02273773    0.42856976
     atom    2 type  1   force =     0.00000000   -0.02273773   -0.42856976
     atom    3 type  1   force =    -0.00000000    0.02273773   -0.42856976
     atom    4 type  1   force =    -0.00000000   -0.02273773    0.42856976
     atom    5 type  2   force =    -0.00000000   -2.44382133   -1.60292982
     atom    6 type  2   force =    -0.00000000    2.44382133    1.60292982
     atom    7 type  2   force =    -0.00000000   -2.44382133    1.60292982
     atom    8 type  2   force =     0.00000000    2.44382133   -1.60292982
     atom    9 type  3   force =    -0.00000000    3.00608889    5.13288889
     atom   10 type  3   force =    -0.00000000   -3.00608889   -5.13288889
     atom   11 type  3   force =     0.00000000    3.00608889   -5.13288889
     atom   12 type  3   force =    -0.00000000   -3.00608889    5.13288889
     atom   13 type  3   force =     0.00000000    2.02422847   -3.75281495
     atom   14 type  3   force =     0.00000000   -2.02422847    3.75281495
     atom   15 type  3   force =    -0.00000000    2.02422847    3.75281495
     atom   16 type  3   force =     0.00000000   -2.02422847   -3.75281495
     atom   17 type  3   force =    -0.00000000   -4.20564469    2.10270402
     atom   18 type  3   force =     0.00000000    4.20564469   -2.10270402
     atom   19 type  3   force =    -0.00000000   -4.20564469   -2.10270402
     atom   20 type  3   force =     0.00000000    4.20564469    2.10270402
     The local contribution  to forces
     atom    1 type  1   force =     0.00000000 2561.54484627 -504.65520756
     atom    2 type  1   force =    -0.00000000-2561.54484627  504.65520756
     atom    3 type  1   force =    -0.00000000-1514.10852290 2126.88562070
     atom    4 type  1   force =     0.00000000 1514.10852290-2126.88562070
     atom    5 type  2   force =    -0.00000000  -11.05705636   -7.79101066
     atom    6 type  2   force =    -0.00000000   11.05705636    7.79101066
     atom    7 type  2   force =    -0.00000000   -8.05700801    6.11434026
     atom    8 type  2   force =     0.00000000    8.05700801   -6.11434026
     atom    9 type  3   force =     0.00000000    3.88710336   11.26345322
     atom   10 type  3   force =     0.00000000   -3.88710336  -11.26345322
     atom   11 type  3   force =     0.00000000    1.85084554  -10.05715090
     atom   12 type  3   force =    -0.00000000   -1.85084554   10.05715090
     atom   13 type  3   force =    -0.00000000    2.68057773   -5.75895350
     atom   14 type  3   force =     0.00000000   -2.68057773    5.75895350
     atom   15 type  3   force =    -0.00000000    3.40746307    5.35830230
     atom   16 type  3   force =    -0.00000000   -3.40746307   -5.35830230
     atom   17 type  3   force =    -0.00000000   -9.49365600    2.65399591
     atom   18 type  3   force =    -0.00000000    9.49365600   -2.65399591
     atom   19 type  3   force =     0.00000000   -7.62894083   -4.50008390
     atom   20 type  3   force =     0.00000000    7.62894083    4.50008390
     The core correction contribution to forces
     atom    1 type  1   force =     0.00000000    1.10058706   -0.60266489
     atom    2 type  1   force =     0.00000000   -1.10058706    0.60266489
     atom    3 type  1   force =    -0.00000000   -0.91284845    1.22879540
     atom    4 type  1   force =    -0.00000000    0.91284845   -1.22879540
     atom    5 type  2   force =    -0.00000000   -0.00071847   -0.00035177
     atom    6 type  2   force =    -0.00000000    0.00071847    0.00035177
     atom    7 type  2   force =     0.00000000   -0.00076122    0.00023763
     atom    8 type  2   force =     0.00000000    0.00076122   -0.00023763
     atom    9 type  3   force =    -0.00000000    0.00084784    0.00336656
     atom   10 type  3   force =    -0.00000000   -0.00084784   -0.00336656
     atom   11 type  3   force =     0.00000000    0.00024903   -0.00299047
     atom   12 type  3   force =     0.00000000   -0.00024903    0.00299047
     atom   13 type  3   force =    -0.00000000    0.00080188   -0.00076112
     atom   14 type  3   force =    -0.00000000   -0.00080188    0.00076112
     atom   15 type  3   force =    -0.00000000    0.00066124    0.00161480
     atom   16 type  3   force =    -0.00000000   -0.00066124   -0.00161480
     atom   17 type  3   force =     0.00000000   -0.00154563    0.00053588
     atom   18 type  3   force =     0.00000000    0.00154563   -0.00053588
     atom   19 type  3   force =    -0.00000000   -0.00323144   -0.00152725
     atom   20 type  3   force =     0.00000000    0.00323144    0.00152725
     The Hubbard contrib.    to forces
     atom    1 type  1   force =     0.00000000    0.00000000    0.00000000
     atom    2 type  1   force =     0.00000000    0.00000000    0.00000000
     atom    3 type  1   force =     0.00000000    0.00000000    0.00000000
     atom    4 type  1   force =     0.00000000    0.00000000    0.00000000
     atom    5 type  2   force =     0.00000000    0.00000000    0.00000000
     atom    6 type  2   force =     0.00000000    0.00000000    0.00000000
     atom    7 type  2   force =     0.00000000    0.00000000    0.00000000
     atom    8 type  2   force =     0.00000000    0.00000000    0.00000000
     atom    9 type  3   force =     0.00000000    0.00000000    0.00000000
     atom   10 type  3   force =     0.00000000    0.00000000    0.00000000
     atom   11 type  3   force =     0.00000000    0.00000000    0.00000000
     atom   12 type  3   force =     0.00000000    0.00000000    0.00000000
     atom   13 type  3   force =     0.00000000    0.00000000    0.00000000
     atom   14 type  3   force =     0.00000000    0.00000000    0.00000000
     atom   15 type  3   force =     0.00000000    0.00000000    0.00000000
     atom   16 type  3   force =     0.00000000    0.00000000    0.00000000
     atom   17 type  3   force =     0.00000000    0.00000000    0.00000000
     atom   18 type  3   force =     0.00000000    0.00000000    0.00000000
     atom   19 type  3   force =     0.00000000    0.00000000    0.00000000
     atom   20 type  3   force =     0.00000000    0.00000000    0.00000000
     The SCF correction term to forces
     atom    1 type  1   force =     0.00000000   -0.00001878    0.00013454
     atom    2 type  1   force =     0.00000000    0.00001878   -0.00013454
     atom    3 type  1   force =     0.00000000    0.00009097    0.00004872
     atom    4 type  1   force =    -0.00000000   -0.00009097   -0.00004872
     atom    5 type  2   force =     0.00000000   -0.00000026   -0.00000000
     atom    6 type  2   force =    -0.00000000    0.00000026    0.00000000
     atom    7 type  2   force =    -0.00000000   -0.00000015    0.00000037
     atom    8 type  2   force =     0.00000000    0.00000015   -0.00000037
     atom    9 type  3   force =    -0.00000000   -0.00000021    0.00000002
     atom   10 type  3   force =    -0.00000000    0.00000021   -0.00000002
     atom   11 type  3   force =     0.00000000   -0.00000024    0.00000008
     atom   12 type  3   force =    -0.00000000    0.00000024   -0.00000008
     atom   13 type  3   force =     0.00000000    0.00000055    0.00000008
     atom   14 type  3   force =     0.00000000   -0.00000055   -0.00000008
     atom   15 type  3   force =    -0.00000000    0.00000017   -0.00000063
     atom   16 type  3   force =     0.00000000   -0.00000017    0.00000063
     atom   17 type  3   force =     0.00000000   -0.00000026   -0.00000004
     atom   18 type  3   force =     0.00000000    0.00000026    0.00000004
     atom   19 type  3   force =    -0.00000000   -0.00000005    0.00000026
     atom   20 type  3   force =    -0.00000000    0.00000005   -0.00000026

     Total force =   716.620115     Total SCF correction =     0.000241


     entering subroutine stress ...

     Message from routine stres:
     noncollinear stress + GGA not implemented

     Writing output data file CsSnI3.save

     init_run     :     12.39s CPU     15.70s WALL (       1 calls)
     electrons    :    153.52s CPU     98.76s WALL (       1 calls)
     forces       :     20.12s CPU     17.04s WALL (       1 calls)

     Called by init_run:
     wfcinit      :      0.97s CPU      6.49s WALL (       1 calls)
     potinit      :      1.50s CPU      1.47s WALL (       1 calls)

     Called by electrons:
     c_bands      :     92.68s CPU     55.25s WALL (       5 calls)
     sum_band     :     33.31s CPU     22.86s WALL (       5 calls)
     v_of_rho     :      0.75s CPU      0.55s WALL (       5 calls)
     v_h          :      0.07s CPU      0.04s WALL (       5 calls)
     v_xc         :      0.82s CPU      0.61s WALL (       6 calls)
     newd         :     26.87s CPU     19.20s WALL (       5 calls)
     PAW_pot      :      5.22s CPU      4.58s WALL (       5 calls)
     mix_rho      :      0.52s CPU      0.39s WALL (       5 calls)

     Called by c_bands:
     init_us_2    :      0.30s CPU      0.24s WALL (      22 calls)
     cegterg      :     90.54s CPU     52.87s WALL (      10 calls)

     Called by sum_band:
     sum_band:bec :      1.29s CPU      0.81s WALL (      10 calls)
     addusdens    :     20.26s CPU     15.60s WALL (       5 calls)

     Called by *egterg:
     h_psi        :     51.58s CPU     28.02s WALL (      82 calls)
     s_psi        :      8.66s CPU      5.77s WALL (      82 calls)
     g_psi        :      0.18s CPU      0.11s WALL (      72 calls)
     cdiaghg      :     11.51s CPU      6.95s WALL (      78 calls)
     cegterg:over :      8.20s CPU      5.16s WALL (      72 calls)
     cegterg:upda :      4.59s CPU      2.47s WALL (      72 calls)
     cegterg:last :      2.41s CPU      1.26s WALL (      12 calls)

     Called by h_psi:
     h_psi:pot    :     51.17s CPU     27.68s WALL (      82 calls)
     h_psi:calbec :      8.49s CPU      4.77s WALL (      82 calls)
     vloc_psi     :     34.61s CPU     18.08s WALL (      82 calls)
     add_vuspsi   :      8.06s CPU      4.83s WALL (      82 calls)

     General routines
     calbec       :     12.93s CPU      7.54s WALL (     100 calls)
     fft          :      3.65s CPU      3.24s WALL (     156 calls)
     ffts         :      0.28s CPU      0.18s WALL (      40 calls)
     fftw         :     34.87s CPU     18.25s WALL (   27220 calls)
     interpolate  :      0.66s CPU      0.44s WALL (      40 calls)

     Parallel routines
     fft_scatter  :     26.80s CPU     15.44s WALL (   27416 calls)

     PAW routines
     PAW_pot      :      5.22s CPU      4.58s WALL (       5 calls)
     PAW_symme    :      0.26s CPU      0.26s WALL (       9 calls)

     PWSCF        :  3m11.66s CPU     2m19.23s WALL


   This run was terminated on:  17:29:59  18Jan2021            

=------------------------------------------------------------------------------=
   JOB DONE.
=------------------------------------------------------------------------------=
