
     Program PWSCF v.6.7MaX starts on 15Jan2021 at 12:20:55 

     This program is part of the open-source Quantum ESPRESSO suite
     for quantum simulation of materials; please cite
         "P. Giannozzi et al., J. Phys.:Condens. Matter 21 395502 (2009);
         "P. Giannozzi et al., J. Phys.:Condens. Matter 29 465901 (2017);
          URL http://www.quantum-espresso.org", 
     in publications or presentations arising from this work. More details at
     http://www.quantum-espresso.org/quote

     Parallel version (MPI), running on    32 processors

     MPI processes distributed on     1 nodes
     R & G space division:  proc/nbgrp/npool/nimage =      32
     Waiting for input...
     Reading input from standard input

     Current dimensions of program PWSCF are:
     Max number of different atomic species (ntypx) = 10
     Max number of k-points (npk) =  40000
     Max angular momentum in pseudopotentials (lmaxx) =  3
     file Sn.pbe-dn-kjpaw_psl.1.0.0.UPF: wavefunction(s)  5S 5P 4D renormalized
     file I.pbe-n-kjpaw_psl.1.0.0.UPF: wavefunction(s)  5S renormalized

     Subspace diagonalization in iterative solution of the eigenvalue problem:
     a serial algorithm will be used

     Message from routine setup:
     using ibrav=0 with symmetry is DISCOURAGED, use correct ibrav instead

     Parallelization info
     --------------------
     sticks:   dense  smooth     PW     G-vecs:    dense   smooth      PW
     Min         206     206     56                 7783     7783    1114
     Max         208     208     57                 7784     7784    1116
     Sum        6613    6613   1801               249077   249077   35701


     Title: 
     SnI2tetr                                                                   


     bravais-lattice index     =            0
     lattice parameter (alat)  =      14.4199  a.u.
     unit-cell volume          =    1845.1511 (a.u.)^3
     number of atoms/cell      =            6
     number of atomic types    =            2
     number of electrons       =        56.00
     number of Kohn-Sham states=           29
     kinetic-energy cutoff     =     100.0000  Ry
     charge density cutoff     =     400.0000  Ry
     scf convergence threshold =      1.0E-06
     mixing beta               =       0.7000
     number of iterations used =            8  plain     mixing
     Exchange-correlation= SLA  PW   PBX  PBC
                           (   1   4   3   4   0   0   0)

     celldm(1)=  14.419944  celldm(2)=   0.000000  celldm(3)=   0.000000
     celldm(4)=   0.000000  celldm(5)=   0.000000  celldm(6)=   0.000000

     crystal axes: (cart. coord. in units of alat)
               a(1) = (   1.000000   0.000000   0.000000 )  
               a(2) = (   0.000000   1.000000   0.000000 )  
               a(3) = (   0.000000   0.000000   0.615377 )  

     reciprocal axes: (cart. coord. in units 2 pi/alat)
               b(1) = (  1.000000  0.000000  0.000000 )  
               b(2) = (  0.000000  1.000000  0.000000 )  
               b(3) = (  0.000000  0.000000  1.625020 )  


     PseudoPot. # 1 for Sn read from file:
     ../../../pseudo/Sn.pbe-dn-kjpaw_psl.1.0.0.UPF
     MD5 check sum: 67f11dec737d427557dc41ea34975807
     Pseudo is Projector augmented-wave + core cor, Zval = 14.0
     Generated using &quot;atomic&quot; code by A. Dal Corso  v.6.3
     Shape of augmentation charge: PSQ
     Using radial grid of 1243 points,  6 beta functions with: 
                l(1) =   0
                l(2) =   0
                l(3) =   1
                l(4) =   1
                l(5) =   2
                l(6) =   2
     Q(r) pseudized with 0 coefficients 


     PseudoPot. # 2 for I  read from file:
     ../../../pseudo/I.pbe-n-kjpaw_psl.1.0.0.UPF
     MD5 check sum: cd3d296c3308a581e1559a0c8a554cb5
     Pseudo is Projector augmented-wave + core cor, Zval =  7.0
     Generated using &quot;atomic&quot; code by A. Dal Corso  v.6.3
     Shape of augmentation charge: PSQ
     Using radial grid of 1247 points,  6 beta functions with: 
                l(1) =   0
                l(2) =   0
                l(3) =   1
                l(4) =   1
                l(5) =   2
                l(6) =   2
     Q(r) pseudized with 0 coefficients 


     atomic species   valence    mass     pseudopotential
        Sn            14.00   118.70000     Sn( 1.00)
        I              7.00   126.90000     I ( 1.00)

     16 Sym. Ops., with inversion, found ( 8 have fractional translation)


                                    s                        frac. trans.

      isym =  1     identity                                     

 cryst.   s( 1) = (     1          0          0      )
                  (     0          1          0      )
                  (     0          0          1      )

 cart.    s( 1) = (  1.0000000  0.0000000  0.0000000 )
                  (  0.0000000  1.0000000  0.0000000 )
                  (  0.0000000  0.0000000  1.0000000 )


      isym =  2     180 deg rotation - cart. axis [0,0,1]        

 cryst.   s( 2) = (    -1          0          0      )
                  (     0         -1          0      )
                  (     0          0          1      )

 cart.    s( 2) = ( -1.0000000  0.0000000  0.0000000 )
                  (  0.0000000 -1.0000000  0.0000000 )
                  (  0.0000000  0.0000000  1.0000000 )


      isym =  3     180 deg rotation - cart. axis [0,1,0]        

 cryst.   s( 3) = (    -1          0          0      )    f =(  0.5000000 )
                  (     0          1          0      )       ( -0.5000000 )
                  (     0          0         -1      )       (  0.5000000 )

 cart.    s( 3) = ( -1.0000000  0.0000000  0.0000000 )    f =(  0.5000000 )
                  (  0.0000000  1.0000000  0.0000000 )       ( -0.5000000 )
                  (  0.0000000  0.0000000 -1.0000000 )       (  0.3076884 )


      isym =  4     180 deg rotation - cart. axis [1,0,0]        

 cryst.   s( 4) = (     1          0          0      )    f =( -0.5000000 )
                  (     0         -1          0      )       (  0.5000000 )
                  (     0          0         -1      )       (  0.5000000 )

 cart.    s( 4) = (  1.0000000  0.0000000  0.0000000 )    f =( -0.5000000 )
                  (  0.0000000 -1.0000000  0.0000000 )       (  0.5000000 )
                  (  0.0000000  0.0000000 -1.0000000 )       (  0.3076884 )


      isym =  5     180 deg rotation - cart. axis [1,1,0]        

 cryst.   s( 5) = (     0          1          0      )
                  (     1          0          0      )
                  (     0          0         -1      )

 cart.    s( 5) = (  0.0000000  1.0000000  0.0000000 )
                  (  1.0000000  0.0000000  0.0000000 )
                  (  0.0000000  0.0000000 -1.0000000 )


      isym =  6     180 deg rotation - cart. axis [1,-1,0]       

 cryst.   s( 6) = (     0         -1          0      )
                  (    -1          0          0      )
                  (     0          0         -1      )

 cart.    s( 6) = (  0.0000000 -1.0000000  0.0000000 )
                  ( -1.0000000  0.0000000  0.0000000 )
                  (  0.0000000  0.0000000 -1.0000000 )


      isym =  7      90 deg rotation - cart. axis [0,0,-1]       

 cryst.   s( 7) = (     0         -1          0      )    f =( -0.5000000 )
                  (     1          0          0      )       (  0.5000000 )
                  (     0          0          1      )       ( -0.5000000 )

 cart.    s( 7) = (  0.0000000  1.0000000  0.0000000 )    f =( -0.5000000 )
                  ( -1.0000000  0.0000000  0.0000000 )       (  0.5000000 )
                  (  0.0000000  0.0000000  1.0000000 )       ( -0.3076884 )


      isym =  8      90 deg rotation - cart. axis [0,0,1]        

 cryst.   s( 8) = (     0          1          0      )    f =(  0.5000000 )
                  (    -1          0          0      )       ( -0.5000000 )
                  (     0          0          1      )       ( -0.5000000 )

 cart.    s( 8) = (  0.0000000 -1.0000000  0.0000000 )    f =(  0.5000000 )
                  (  1.0000000  0.0000000  0.0000000 )       ( -0.5000000 )
                  (  0.0000000  0.0000000  1.0000000 )       ( -0.3076884 )


      isym =  9     inversion                                    

 cryst.   s( 9) = (    -1          0          0      )
                  (     0         -1          0      )
                  (     0          0         -1      )

 cart.    s( 9) = ( -1.0000000  0.0000000  0.0000000 )
                  (  0.0000000 -1.0000000  0.0000000 )
                  (  0.0000000  0.0000000 -1.0000000 )


      isym = 10     inv. 180 deg rotation - cart. axis [0,0,1]   

 cryst.   s(10) = (     1          0          0      )
                  (     0          1          0      )
                  (     0          0         -1      )

 cart.    s(10) = (  1.0000000  0.0000000  0.0000000 )
                  (  0.0000000  1.0000000  0.0000000 )
                  (  0.0000000  0.0000000 -1.0000000 )


      isym = 11     inv. 180 deg rotation - cart. axis [0,1,0]   

 cryst.   s(11) = (     1          0          0      )    f =( -0.5000000 )
                  (     0         -1          0      )       (  0.5000000 )
                  (     0          0          1      )       ( -0.5000000 )

 cart.    s(11) = (  1.0000000  0.0000000  0.0000000 )    f =( -0.5000000 )
                  (  0.0000000 -1.0000000  0.0000000 )       (  0.5000000 )
                  (  0.0000000  0.0000000  1.0000000 )       ( -0.3076884 )


      isym = 12     inv. 180 deg rotation - cart. axis [1,0,0]   

 cryst.   s(12) = (    -1          0          0      )    f =(  0.5000000 )
                  (     0          1          0      )       ( -0.5000000 )
                  (     0          0          1      )       ( -0.5000000 )

 cart.    s(12) = ( -1.0000000  0.0000000  0.0000000 )    f =(  0.5000000 )
                  (  0.0000000  1.0000000  0.0000000 )       ( -0.5000000 )
                  (  0.0000000  0.0000000  1.0000000 )       ( -0.3076884 )


      isym = 13     inv. 180 deg rotation - cart. axis [1,1,0]   

 cryst.   s(13) = (     0         -1          0      )
                  (    -1          0          0      )
                  (     0          0          1      )

 cart.    s(13) = (  0.0000000 -1.0000000  0.0000000 )
                  ( -1.0000000  0.0000000  0.0000000 )
                  (  0.0000000  0.0000000  1.0000000 )


      isym = 14     inv. 180 deg rotation - cart. axis [1,-1,0]  

 cryst.   s(14) = (     0          1          0      )
                  (     1          0          0      )
                  (     0          0          1      )

 cart.    s(14) = (  0.0000000  1.0000000  0.0000000 )
                  (  1.0000000  0.0000000  0.0000000 )
                  (  0.0000000  0.0000000  1.0000000 )


      isym = 15     inv.  90 deg rotation - cart. axis [0,0,-1]  

 cryst.   s(15) = (     0          1          0      )    f =(  0.5000000 )
                  (    -1          0          0      )       ( -0.5000000 )
                  (     0          0         -1      )       (  0.5000000 )

 cart.    s(15) = (  0.0000000 -1.0000000  0.0000000 )    f =(  0.5000000 )
                  (  1.0000000  0.0000000  0.0000000 )       ( -0.5000000 )
                  (  0.0000000  0.0000000 -1.0000000 )       (  0.3076884 )


      isym = 16     inv.  90 deg rotation - cart. axis [0,0,1]   

 cryst.   s(16) = (     0         -1          0      )    f =( -0.5000000 )
                  (     1          0          0      )       (  0.5000000 )
                  (     0          0         -1      )       (  0.5000000 )

 cart.    s(16) = (  0.0000000  1.0000000  0.0000000 )    f =( -0.5000000 )
                  ( -1.0000000  0.0000000  0.0000000 )       (  0.5000000 )
                  (  0.0000000  0.0000000 -1.0000000 )       (  0.3076884 )


   Cartesian axes

     site n.     atom                  positions (alat units)
         1           Sn  tau(   1) = (   0.0000000   0.0000000   0.0000000  )
         2           Sn  tau(   2) = (   0.5000000   0.5000000   0.3076884  )
         3           I   tau(   3) = (   0.2985210   0.2985210   0.0000000  )
         4           I   tau(   4) = (   0.7014790   0.7014790   0.0000000  )
         5           I   tau(   5) = (   0.7985210   0.2014790   0.3076884  )
         6           I   tau(   6) = (   0.2014790   0.7985210   0.3076884  )

   Crystallographic axes

     site n.     atom                  positions (cryst. coord.)
         1           Sn  tau(   1) = (  0.0000000  0.0000000  0.0000000  )
         2           Sn  tau(   2) = (  0.5000000  0.5000000  0.5000000  )
         3           I   tau(   3) = (  0.2985210  0.2985210  0.0000000  )
         4           I   tau(   4) = (  0.7014790  0.7014790  0.0000000  )
         5           I   tau(   5) = (  0.7985210  0.2014790  0.5000000  )
         6           I   tau(   6) = (  0.2014790  0.7985210  0.5000000  )

     number of k points=     6
                       cart. coord. in units 2pi/alat
        k(    1) = (   0.0000000   0.0000000   0.0000000), wk =   0.2500000
        k(    2) = (   0.0000000   0.0000000  -0.8125102), wk =   0.2500000
        k(    3) = (   0.0000000  -0.5000000   0.0000000), wk =   0.5000000
        k(    4) = (   0.0000000  -0.5000000  -0.8125102), wk =   0.5000000
        k(    5) = (  -0.5000000  -0.5000000   0.0000000), wk =   0.2500000
        k(    6) = (  -0.5000000  -0.5000000  -0.8125102), wk =   0.2500000

                       cryst. coord.
        k(    1) = (   0.0000000   0.0000000   0.0000000), wk =   0.2500000
        k(    2) = (   0.0000000   0.0000000  -0.5000000), wk =   0.2500000
        k(    3) = (   0.0000000  -0.5000000   0.0000000), wk =   0.5000000
        k(    4) = (   0.0000000  -0.5000000  -0.5000000), wk =   0.5000000
        k(    5) = (  -0.5000000  -0.5000000   0.0000000), wk =   0.2500000
        k(    6) = (  -0.5000000  -0.5000000  -0.5000000), wk =   0.2500000

     Dense  grid:   249077 G-vectors     FFT dimensions: (  96,  96,  60)

     Dynamical RAM for                 wfc:       0.43 MB

     Dynamical RAM for     wfc (w. buffer):       3.01 MB

     Dynamical RAM for           str. fact:       0.24 MB

     Dynamical RAM for           local pot:       0.00 MB

     Dynamical RAM for          nlocal pot:       1.60 MB

     Dynamical RAM for                qrad:       3.21 MB

     Dynamical RAM for          rho,v,vnew:       0.78 MB

     Dynamical RAM for               rhoin:       0.26 MB

     Dynamical RAM for            rho*nmix:       1.90 MB

     Dynamical RAM for           G-vectors:       0.50 MB

     Dynamical RAM for          h,s,v(r/c):       0.15 MB

     Dynamical RAM for          <psi|beta>:       0.05 MB

     Dynamical RAM for                 psi:       0.86 MB

     Dynamical RAM for                hpsi:       0.86 MB

     Dynamical RAM for                spsi:       0.86 MB

     Dynamical RAM for      wfcinit/wfcrot:       1.04 MB

     Dynamical RAM for           addusdens:      22.57 MB

     Dynamical RAM for          addusforce:      23.35 MB

     Dynamical RAM for         addusstress:      23.87 MB

     Estimated static dynamical RAM per process >      12.57 MB

     Estimated max dynamical RAM per process >      36.44 MB

     Estimated total dynamical RAM >       1.14 GB

     Initial potential from superposition of free atoms

     starting charge   55.99693, renormalised to   56.00000
     Starting wfcs are   34 randomized atomic wfcs
     Checking if some PAW data can be deallocated... 
       PAW data deallocated on   20 nodes for type:  1
       PAW data deallocated on   12 nodes for type:  2

     total cpu time spent up to now is        3.4 secs

     Self-consistent Calculation

     iteration #  1     ecut=   100.00 Ry     beta= 0.70
     Davidson diagonalization with overlap
     ethr =  1.00E-02,  avg # of iterations =  2.0

     Threshold (ethr) on eigenvalues was too large:
     Diagonalizing with lowered threshold

     Davidson diagonalization with overlap
     ethr =  2.57E-04,  avg # of iterations =  2.3

     total cpu time spent up to now is        8.8 secs

     total energy              =   -2399.92862385 Ry
     estimated scf accuracy    <       0.12930393 Ry

     iteration #  2     ecut=   100.00 Ry     beta= 0.70
     Davidson diagonalization with overlap
     ethr =  2.31E-04,  avg # of iterations =  3.8

     total cpu time spent up to now is       12.2 secs

     total energy              =   -2399.97019180 Ry
     estimated scf accuracy    <       0.05252351 Ry

     iteration #  3     ecut=   100.00 Ry     beta= 0.70
     Davidson diagonalization with overlap
     ethr =  9.38E-05,  avg # of iterations =  2.5

     total cpu time spent up to now is       15.3 secs

     total energy              =   -2399.97990714 Ry
     estimated scf accuracy    <       0.00083560 Ry

     iteration #  4     ecut=   100.00 Ry     beta= 0.70
     Davidson diagonalization with overlap
     ethr =  1.49E-06,  avg # of iterations =  6.0

     total cpu time spent up to now is       19.8 secs

     total energy              =   -2399.98059649 Ry
     estimated scf accuracy    <       0.00056021 Ry

     iteration #  5     ecut=   100.00 Ry     beta= 0.70
     Davidson diagonalization with overlap
     ethr =  1.00E-06,  avg # of iterations =  2.2

     total cpu time spent up to now is       22.8 secs

     total energy              =   -2399.98065860 Ry
     estimated scf accuracy    <       0.00002751 Ry

     iteration #  6     ecut=   100.00 Ry     beta= 0.70
     Davidson diagonalization with overlap
     ethr =  4.91E-08,  avg # of iterations =  4.8

     total cpu time spent up to now is       26.7 secs

     total energy              =   -2399.98067669 Ry
     estimated scf accuracy    <       0.00001046 Ry

     iteration #  7     ecut=   100.00 Ry     beta= 0.70
     Davidson diagonalization with overlap
     ethr =  1.87E-08,  avg # of iterations =  2.0

     total cpu time spent up to now is       29.6 secs

     End of self-consistent calculation

          k = 0.0000 0.0000 0.0000 ( 31109 PWs)   bands (ev):

   -18.3923 -18.3893 -18.3823 -18.3820 -18.3714 -18.3714 -18.3677 -18.3676
   -18.3671 -18.3671  -9.3192  -8.8060  -8.8060  -8.6868  -4.1432  -2.2928
    -0.1043  -0.1043   0.4395   0.7564   1.2612   1.3640   1.6186   1.6186
     2.0266   2.0266   2.4036   2.8720   4.5267

     occupation numbers 
     1.0000   1.0000   1.0000   1.0000   1.0000   1.0000   1.0000   1.0000
     1.0000   1.0000   1.0000   1.0000   1.0000   1.0000   1.0000   1.0000
     1.0000   1.0000   1.0000   1.0000   1.0000   1.0000   1.0000   1.0000
     1.0000   1.0000   1.0000   1.0000   0.0000

          k = 0.0000 0.0000-0.8125 ( 31172 PWs)   bands (ev):

   -18.3894 -18.3894 -18.3820 -18.3820 -18.3724 -18.3724 -18.3717 -18.3717
   -18.3633 -18.3633  -8.8560  -8.8560  -8.6827  -8.6827  -3.6893  -3.6893
    -0.0409  -0.0409  -0.0147  -0.0147   0.5291   0.5291   1.5860   1.5860
     1.6394   1.6394   2.3744   2.3744   6.0962

     occupation numbers 
     1.0000   1.0000   1.0000   1.0000   1.0000   1.0000   1.0000   1.0000
     1.0000   1.0000   1.0000   1.0000   1.0000   1.0000   1.0000   1.0000
     1.0000   1.0000   1.0000   1.0000   1.0000   1.0000   1.0000   1.0000
     1.0000   1.0000   1.0000   1.0000   0.0000

          k = 0.0000-0.5000 0.0000 ( 31126 PWs)   bands (ev):

   -18.3908 -18.3908 -18.3822 -18.3822 -18.3714 -18.3714 -18.3676 -18.3676
   -18.3671 -18.3671  -9.1063  -9.1063  -8.7195  -8.7195  -3.3992  -3.3992
     0.3843   0.3843   0.7839   0.7839   1.0836   1.0836   1.7079   1.7079
     1.8471   1.8471   2.1968   2.1968   5.2179

     occupation numbers 
     1.0000   1.0000   1.0000   1.0000   1.0000   1.0000   1.0000   1.0000
     1.0000   1.0000   1.0000   1.0000   1.0000   1.0000   1.0000   1.0000
     1.0000   1.0000   1.0000   1.0000   1.0000   1.0000   1.0000   1.0000
     1.0000   1.0000   1.0000   1.0000   0.0000

          k = 0.0000-0.5000-0.8125 ( 31144 PWs)   bands (ev):

   -18.3895 -18.3895 -18.3820 -18.3820 -18.3724 -18.3724 -18.3716 -18.3716
   -18.3633 -18.3633  -8.8345  -8.8345  -8.7048  -8.7048  -3.6708  -3.6708
    -0.6411  -0.6411   0.0277   0.0277   1.1877   1.1877   1.7076   1.7076
     1.8295   1.8295   2.6200   2.6200   4.2985

     occupation numbers 
     1.0000   1.0000   1.0000   1.0000   1.0000   1.0000   1.0000   1.0000
     1.0000   1.0000   1.0000   1.0000   1.0000   1.0000   1.0000   1.0000
     1.0000   1.0000   1.0000   1.0000   1.0000   1.0000   1.0000   1.0000
     1.0000   1.0000   1.0000   1.0000   0.0000

          k =-0.5000-0.5000 0.0000 ( 31152 PWs)   bands (ev):

   -18.3908 -18.3908 -18.3822 -18.3822 -18.3714 -18.3714 -18.3677 -18.3677
   -18.3671 -18.3671  -9.0230  -9.0230  -8.8190  -8.8190  -3.3063  -3.3063
     0.0744   0.0744   0.8522   0.8522   1.3629   1.3629   1.5939   1.5939
     1.7085   1.7085   2.2039   2.2039   5.1752

     occupation numbers 
     1.0000   1.0000   1.0000   1.0000   1.0000   1.0000   1.0000   1.0000
     1.0000   1.0000   1.0000   1.0000   1.0000   1.0000   1.0000   1.0000
     1.0000   1.0000   1.0000   1.0000   1.0000   1.0000   1.0000   1.0000
     1.0000   1.0000   1.0000   1.0000   0.0000

          k =-0.5000-0.5000-0.8125 ( 31104 PWs)   bands (ev):

   -18.3894 -18.3894 -18.3820 -18.3820 -18.3724 -18.3724 -18.3717 -18.3717
   -18.3633 -18.3633  -8.8416  -8.8416  -8.6933  -8.6933  -3.7531  -3.7531
    -0.2305  -0.2305   0.2770   0.2770   0.5574   0.5574   1.8428   1.8428
     1.8596   1.8596   2.0282   2.0282   5.9933

     occupation numbers 
     1.0000   1.0000   1.0000   1.0000   1.0000   1.0000   1.0000   1.0000
     1.0000   1.0000   1.0000   1.0000   1.0000   1.0000   1.0000   1.0000
     1.0000   1.0000   1.0000   1.0000   1.0000   1.0000   1.0000   1.0000
     1.0000   1.0000   1.0000   1.0000   0.0000

     highest occupied, lowest unoccupied level (ev):     2.8720    4.2985

!    total energy              =   -2399.98067710 Ry

     total all-electron energy =    -81641.226025 Ry
     estimated scf accuracy    <       0.00000089 Ry

     The total energy is the sum of the following terms:
     one-electron contribution =    -203.72339509 Ry
     hartree contribution      =     130.11352286 Ry
     xc contribution           =    -159.03544890 Ry
     ewald contribution        =    -219.54274838 Ry
     one-center paw contrib.   =   -1947.79260759 Ry
      -> PAW hartree energy AE =     108.31093961 Ry
      -> PAW hartree energy PS =    -107.54429193 Ry
      -> PAW xc energy AE      =    -328.95902184 Ry
      -> PAW xc energy PS      =      47.25701753 Ry
      -> total E_H with PAW    =     130.88017054 Ry
      -> total E_XC with PAW   =    -440.73745321 Ry

     convergence has been achieved in   7 iterations

     Forces acting on atoms (cartesian axes, Ry/au):

     atom    1 type  1   force =     0.00000000    0.00000000    0.00000000
     atom    2 type  1   force =     0.00000000    0.00000000    0.00000000
     atom    3 type  2   force =     0.00286967    0.00286967   -0.00000000
     atom    4 type  2   force =    -0.00286967   -0.00286967   -0.00000000
     atom    5 type  2   force =     0.00286967   -0.00286967    0.00000000
     atom    6 type  2   force =    -0.00286967    0.00286967    0.00000000
     The non-local contrib.  to forces
     atom    1 type  1   force =     0.00000000    0.00000000    0.00000000
     atom    2 type  1   force =     0.00000000    0.00000000   -0.00000000
     atom    3 type  2   force =     0.01540260    0.01540260   -0.00000000
     atom    4 type  2   force =    -0.01540260   -0.01540260    0.00000000
     atom    5 type  2   force =     0.01540260   -0.01540260    0.00000000
     atom    6 type  2   force =    -0.01540260    0.01540260    0.00000000
     The ionic contribution  to forces
     atom    1 type  1   force =    -0.00000000   -0.00000000    0.00000000
     atom    2 type  1   force =    -0.00000000   -0.00000000   -0.00000000
     atom    3 type  2   force =    -0.90990984   -0.90990984   -0.00000000
     atom    4 type  2   force =     0.90990984    0.90990984   -0.00000000
     atom    5 type  2   force =    -0.90990984    0.90990984   -0.00000000
     atom    6 type  2   force =     0.90990984   -0.90990984   -0.00000000
     The local contribution  to forces
     atom    1 type  1   force =     0.00000000    0.00000000    0.00000000
     atom    2 type  1   force =     0.00000000    0.00000000    0.00000000
     atom    3 type  2   force =     0.89945547    0.89945547   -0.00000000
     atom    4 type  2   force =    -0.89945547   -0.89945547    0.00000000
     atom    5 type  2   force =     0.89945547   -0.89945547    0.00000000
     atom    6 type  2   force =    -0.89945547    0.89945547    0.00000000
     The core correction contribution to forces
     atom    1 type  1   force =     0.00000000    0.00000000    0.00000000
     atom    2 type  1   force =     0.00000000    0.00000000    0.00000000
     atom    3 type  2   force =    -0.00197782   -0.00197782    0.00000000
     atom    4 type  2   force =     0.00197782    0.00197782    0.00000000
     atom    5 type  2   force =    -0.00197782    0.00197782    0.00000000
     atom    6 type  2   force =     0.00197782   -0.00197782    0.00000000
     The Hubbard contrib.    to forces
     atom    1 type  1   force =     0.00000000    0.00000000    0.00000000
     atom    2 type  1   force =     0.00000000    0.00000000    0.00000000
     atom    3 type  2   force =     0.00000000    0.00000000    0.00000000
     atom    4 type  2   force =     0.00000000    0.00000000    0.00000000
     atom    5 type  2   force =     0.00000000    0.00000000    0.00000000
     atom    6 type  2   force =     0.00000000    0.00000000    0.00000000
     The SCF correction term to forces
     atom    1 type  1   force =    -0.00000000   -0.00000000    0.00000000
     atom    2 type  1   force =     0.00000000   -0.00000000   -0.00000000
     atom    3 type  2   force =    -0.00010074   -0.00010074   -0.00000000
     atom    4 type  2   force =     0.00010074    0.00010074   -0.00000000
     atom    5 type  2   force =    -0.00010074    0.00010074   -0.00000000
     atom    6 type  2   force =     0.00010074   -0.00010074   -0.00000000

     Total force =     0.008117     Total SCF correction =     0.000285


     Computing stress (Cartesian axis) and pressure

          total   stress  (Ry/bohr**3)                   (kbar)     P=        1.88
  -0.00000741   0.00000000   0.00000000           -1.09        0.00        0.00
   0.00000000  -0.00000741   0.00000000            0.00       -1.09        0.00
   0.00000000   0.00000000   0.00005318            0.00        0.00        7.82

     kinetic stress (kbar)   7312.41      0.00      0.00
                                0.00   7312.41      0.00
                                0.00      0.00   7300.34

     local   stress (kbar)  -1439.75      0.00      0.00
                                0.00  -1439.75      0.00
                                0.00      0.00  -5858.21

     nonloc. stress (kbar)    117.12      0.00      0.00
                                0.00    117.12      0.00
                                0.00      0.00    120.71

     hartree stress (kbar)   2826.17     -0.00     -0.00
                               -0.00   2826.17     -0.00
                               -0.00     -0.00   4720.98

     exc-cor stress (kbar)   6160.87      0.00     -0.00
                                0.00   6160.87      0.00
                               -0.00      0.00   6162.07

     corecor stress (kbar)  -8297.15     -0.00      0.00
                               -0.00  -8297.15     -0.00
                                0.00     -0.00  -8296.52

     ewald   stress (kbar)  -6680.77      0.00     -0.00
                                0.00  -6680.77     -0.00
                               -0.00     -0.00  -4141.56

     hubbard stress (kbar)      0.00      0.00      0.00
                                0.00      0.00      0.00
                                0.00      0.00      0.00

     DFT-D   stress (kbar)      0.00      0.00      0.00
                                0.00      0.00      0.00
                                0.00      0.00      0.00

     XDM     stress (kbar)      0.00      0.00      0.00
                                0.00      0.00      0.00
                                0.00      0.00      0.00

     dft-nl  stress (kbar)      0.00      0.00      0.00
                                0.00      0.00      0.00
                                0.00      0.00      0.00

     TS-vdW  stress (kbar)      0.00      0.00      0.00
                                0.00      0.00      0.00
                                0.00      0.00      0.00



     Writing output data file ./out/SnI2tetr.save/

     init_run     :      2.51s CPU      2.61s WALL (       1 calls)
     electrons    :     25.99s CPU     26.28s WALL (       1 calls)
     forces       :      1.53s CPU      1.54s WALL (       1 calls)
     stress       :      3.29s CPU      3.30s WALL (       1 calls)

     Called by init_run:
     wfcinit      :      1.02s CPU      1.03s WALL (       1 calls)
     wfcinit:atom :      0.01s CPU      0.01s WALL (       6 calls)
     wfcinit:wfcr :      0.96s CPU      0.97s WALL (       6 calls)
     potinit      :      0.45s CPU      0.48s WALL (       1 calls)
     hinit0       :      0.63s CPU      0.63s WALL (       1 calls)

     Called by electrons:
     c_bands      :     19.45s CPU     19.63s WALL (       8 calls)
     sum_band     :      3.88s CPU      3.91s WALL (       8 calls)
     v_of_rho     :      0.32s CPU      0.33s WALL (       8 calls)
     v_h          :      0.02s CPU      0.02s WALL (       8 calls)
     v_xc         :      0.37s CPU      0.38s WALL (      10 calls)
     newd         :      1.44s CPU      1.48s WALL (       8 calls)
     PAW_pot      :      1.09s CPU      1.12s WALL (       8 calls)
     mix_rho      :      0.06s CPU      0.06s WALL (       8 calls)

     Called by c_bands:
     init_us_2    :      0.31s CPU      0.32s WALL (     114 calls)
     cegterg      :     18.87s CPU     19.00s WALL (      48 calls)

     Called by sum_band:
     sum_band:wei :      0.00s CPU      0.00s WALL (       8 calls)
     sum_band:loo :      2.56s CPU      2.58s WALL (       8 calls)
     sum_band:buf :      0.03s CPU      0.03s WALL (      48 calls)
     sum_band:ini :      0.14s CPU      0.14s WALL (      48 calls)
     sum_band:cal :      1.02s CPU      1.02s WALL (      48 calls)
     sum_band:bec :      0.01s CPU      0.01s WALL (      48 calls)
     addusdens    :      1.19s CPU      1.21s WALL (       8 calls)
     addusd:skk   :      0.01s CPU      0.01s WALL (      16 calls)
     addusd:dgemm :      0.48s CPU      0.49s WALL (      16 calls)
     addusd:qvan2 :      0.62s CPU      0.62s WALL (      16 calls)

     Called by *egterg:
     cdiaghg      :      0.37s CPU      0.37s WALL (     196 calls)
     cegterg:over :      1.21s CPU      1.21s WALL (     154 calls)
     cegterg:upda :      0.51s CPU      0.52s WALL (     154 calls)
     cegterg:last :      1.33s CPU      1.33s WALL (     110 calls)
     h_psi        :     13.14s CPU     13.25s WALL (     208 calls)
     s_psi        :      2.56s CPU      2.57s WALL (     208 calls)
     g_psi        :      0.03s CPU      0.03s WALL (     154 calls)

     Called by h_psi:
     h_psi:calbec :      3.02s CPU      3.03s WALL (     208 calls)
     vloc_psi     :      7.39s CPU      7.48s WALL (     208 calls)
     add_vuspsi   :      2.67s CPU      2.68s WALL (     208 calls)

     General routines
     calbec       :      4.62s CPU      4.64s WALL (     286 calls)
     fft          :      0.23s CPU      0.23s WALL (     114 calls)
     ffts         :      0.01s CPU      0.01s WALL (       8 calls)
     fftw         :      8.17s CPU      8.27s WALL (    9376 calls)

     Parallel routines
     fft_scatt_xy :      0.69s CPU      0.70s WALL (    9498 calls)
     fft_scatt_yz :      1.94s CPU      1.96s WALL (    9498 calls)

     PAW routines
     PAW_pot      :      1.09s CPU      1.12s WALL (       8 calls)
     PAW_symme    :      0.02s CPU      0.02s WALL (      16 calls)

     PWSCF        :     34.30s CPU     35.12s WALL


   This run was terminated on:  12:21:30  15Jan2021            

=------------------------------------------------------------------------------=
   JOB DONE.
=------------------------------------------------------------------------------=
