
     Program PWSCF v.6.4.1 starts on 23Jan2021 at 18:49: 5 

     This program is part of the open-source Quantum ESPRESSO suite
     for quantum simulation of materials; please cite
         "P. Giannozzi et al., J. Phys.:Condens. Matter 21 395502 (2009);
         "P. Giannozzi et al., J. Phys.:Condens. Matter 29 465901 (2017);
          URL http://www.quantum-espresso.org", 
     in publications or presentations arising from this work. More details at
     http://www.quantum-espresso.org/quote

     Parallel version (MPI & OpenMP), running on      48 processor cores
     Number of MPI processes:                24
     Threads/MPI process:                     2

     MPI processes distributed on     1 nodes
     R & G space division:  proc/nbgrp/npool/nimage =      24
     Waiting for input...
     Reading input from standard input

     Current dimensions of program PWSCF are:
     Max number of different atomic species (ntypx) = 10
     Max number of k-points (npk) =  40000
     Max angular momentum in pseudopotentials (lmaxx) =  3
               file Sn.rel-pbesol-dn-kjpaw_psl.1.0.0.UPF: wavefunction(s)  5S 5P 5P 4D 4D renormalized
               file I.rel-pbesol-n-kjpaw_psl.1.0.0.UPF: wavefunction(s)  5S renormalized

     Subspace diagonalization in iterative solution of the eigenvalue problem:
     one sub-group per band group will be used
     scalapack distributed-memory algorithm (size of sub-group:  3*  3 procs)

 
     Parallelization info
     --------------------
     sticks:   dense  smooth     PW     G-vecs:    dense   smooth      PW
     Min         454     303     80                35784    19471    2664
     Max         455     304     81                35787    19474    2667
     Sum       10909    7289   1933               858849   467329   63989
 

     Title: 
     SnI2                                                                       


     bravais-lattice index     =            1
     lattice parameter (alat)  =      14.4199  a.u.
     unit-cell volume          =    2998.4083 (a.u.)^3
     number of atoms/cell      =            6
     number of atomic types    =            2
     number of electrons       =        56.00
     number of Kohn-Sham states=           56
     kinetic-energy cutoff     =     110.0000  Ry
     charge density cutoff     =     660.0000  Ry
     convergence threshold     =      1.0E-06
     mixing beta               =       0.3500
     number of iterations used =            8  plain     mixing
     Exchange-correlation      = SLA PW PSX PSC ( 1  4 10  8 0 0)
     Non magnetic calculation with spin-orbit


     celldm(1)=  14.419945  celldm(2)=   0.000000  celldm(3)=   0.000000
     celldm(4)=   0.000000  celldm(5)=   0.000000  celldm(6)=   0.000000

     crystal axes: (cart. coord. in units of alat)
               a(1) = (   1.000000   0.000000   0.000000 )  
               a(2) = (   0.000000   1.000000   0.000000 )  
               a(3) = (   0.000000   0.000000   1.000000 )  

     reciprocal axes: (cart. coord. in units 2 pi/alat)
               b(1) = (  1.000000  0.000000  0.000000 )  
               b(2) = (  0.000000  1.000000  0.000000 )  
               b(3) = (  0.000000  0.000000  1.000000 )  


     PseudoPot. # 1 for Sn read from file:
     /marconi_scratch/userexternal/cmalosso/degironcoli/pseudo/Sn.rel-pbesol-dn-kjpaw_psl.1.0.0.UPF
     MD5 check sum: e69eff64f15ae39ad43ef58bacbfdf88
     Pseudo is Projector augmented-wave + core cor, Zval = 14.0
     Generated using "atomic" code by A. Dal Corso v.6.3
     Shape of augmentation charge: PSQ
     Using radial grid of 1243 points, 10 beta functions with: 
                l(1) =   0
                l(2) =   0
                l(3) =   1
                l(4) =   1
                l(5) =   1
                l(6) =   1
                l(7) =   2
                l(8) =   2
                l(9) =   2
               l(10) =   2
     Q(r) pseudized with 0 coefficients 


     PseudoPot. # 2 for I  read from file:
     /marconi_scratch/userexternal/cmalosso/degironcoli/pseudo/I.rel-pbesol-n-kjpaw_psl.1.0.0.UPF
     MD5 check sum: 4478c427bd443f303eca1937a163b991
     Pseudo is Projector augmented-wave + core cor, Zval =  7.0
     Generated using "atomic" code by A. Dal Corso v.6.3
     Shape of augmentation charge: PSQ
     Using radial grid of 1247 points, 10 beta functions with: 
                l(1) =   0
                l(2) =   0
                l(3) =   1
                l(4) =   1
                l(5) =   1
                l(6) =   1
                l(7) =   2
                l(8) =   2
                l(9) =   2
               l(10) =   2
     Q(r) pseudized with 0 coefficients 


     atomic species   valence    mass     pseudopotential
        Sn            14.00   118.70000     Sn( 1.00)
        I              7.00   126.90000     I ( 1.00)

     16 Sym. Ops., with inversion, found ( 8 have fractional translation)


                                    s                        frac. trans.

      isym =  1     identity                                     

 cryst.   s( 1) = (     1          0          0      )
                  (     0          1          0      )
                  (     0          0          1      )

 cart.    s( 1) = (  1.0000000  0.0000000  0.0000000 )
                  (  0.0000000  1.0000000  0.0000000 )
                  (  0.0000000  0.0000000  1.0000000 )


      isym =  2     180 deg rotation - cart. axis [0,0,1]        

 cryst.   s( 2) = (    -1          0          0      )
                  (     0         -1          0      )
                  (     0          0          1      )

 cart.    s( 2) = ( -1.0000000  0.0000000  0.0000000 )
                  (  0.0000000 -1.0000000  0.0000000 )
                  (  0.0000000  0.0000000  1.0000000 )


      isym =  3     180 deg rotation - cart. axis [0,1,0]        

 cryst.   s( 3) = (    -1          0          0      )    f =(  0.5000000 )
                  (     0          1          0      )       ( -0.5000000 )
                  (     0          0         -1      )       (  0.5000000 )

 cart.    s( 3) = ( -1.0000000  0.0000000  0.0000000 )    f =(  0.5000000 )
                  (  0.0000000  1.0000000  0.0000000 )       ( -0.5000000 )
                  (  0.0000000  0.0000000 -1.0000000 )       (  0.5000000 )


      isym =  4     180 deg rotation - cart. axis [1,0,0]        

 cryst.   s( 4) = (     1          0          0      )    f =( -0.5000000 )
                  (     0         -1          0      )       (  0.5000000 )
                  (     0          0         -1      )       (  0.5000000 )

 cart.    s( 4) = (  1.0000000  0.0000000  0.0000000 )    f =( -0.5000000 )
                  (  0.0000000 -1.0000000  0.0000000 )       (  0.5000000 )
                  (  0.0000000  0.0000000 -1.0000000 )       (  0.5000000 )


      isym =  5     180 deg rotation - cart. axis [1,1,0]        

 cryst.   s( 5) = (     0          1          0      )
                  (     1          0          0      )
                  (     0          0         -1      )

 cart.    s( 5) = (  0.0000000  1.0000000  0.0000000 )
                  (  1.0000000  0.0000000  0.0000000 )
                  (  0.0000000  0.0000000 -1.0000000 )


      isym =  6     180 deg rotation - cart. axis [1,-1,0]       

 cryst.   s( 6) = (     0         -1          0      )
                  (    -1          0          0      )
                  (     0          0         -1      )

 cart.    s( 6) = (  0.0000000 -1.0000000  0.0000000 )
                  ( -1.0000000  0.0000000  0.0000000 )
                  (  0.0000000  0.0000000 -1.0000000 )


      isym =  7      90 deg rotation - cart. axis [0,0,-1]       

 cryst.   s( 7) = (     0         -1          0      )    f =( -0.5000000 )
                  (     1          0          0      )       (  0.5000000 )
                  (     0          0          1      )       ( -0.5000000 )

 cart.    s( 7) = (  0.0000000  1.0000000  0.0000000 )    f =( -0.5000000 )
                  ( -1.0000000  0.0000000  0.0000000 )       (  0.5000000 )
                  (  0.0000000  0.0000000  1.0000000 )       ( -0.5000000 )


      isym =  8      90 deg rotation - cart. axis [0,0,1]        

 cryst.   s( 8) = (     0          1          0      )    f =(  0.5000000 )
                  (    -1          0          0      )       ( -0.5000000 )
                  (     0          0          1      )       ( -0.5000000 )

 cart.    s( 8) = (  0.0000000 -1.0000000  0.0000000 )    f =(  0.5000000 )
                  (  1.0000000  0.0000000  0.0000000 )       ( -0.5000000 )
                  (  0.0000000  0.0000000  1.0000000 )       ( -0.5000000 )


      isym =  9     inversion                                    

 cryst.   s( 9) = (    -1          0          0      )
                  (     0         -1          0      )
                  (     0          0         -1      )

 cart.    s( 9) = ( -1.0000000  0.0000000  0.0000000 )
                  (  0.0000000 -1.0000000  0.0000000 )
                  (  0.0000000  0.0000000 -1.0000000 )


      isym = 10     inv. 180 deg rotation - cart. axis [0,0,1]   

 cryst.   s(10) = (     1          0          0      )
                  (     0          1          0      )
                  (     0          0         -1      )

 cart.    s(10) = (  1.0000000  0.0000000  0.0000000 )
                  (  0.0000000  1.0000000  0.0000000 )
                  (  0.0000000  0.0000000 -1.0000000 )


      isym = 11     inv. 180 deg rotation - cart. axis [0,1,0]   

 cryst.   s(11) = (     1          0          0      )    f =( -0.5000000 )
                  (     0         -1          0      )       (  0.5000000 )
                  (     0          0          1      )       ( -0.5000000 )

 cart.    s(11) = (  1.0000000  0.0000000  0.0000000 )    f =( -0.5000000 )
                  (  0.0000000 -1.0000000  0.0000000 )       (  0.5000000 )
                  (  0.0000000  0.0000000  1.0000000 )       ( -0.5000000 )


      isym = 12     inv. 180 deg rotation - cart. axis [1,0,0]   

 cryst.   s(12) = (    -1          0          0      )    f =(  0.5000000 )
                  (     0          1          0      )       ( -0.5000000 )
                  (     0          0          1      )       ( -0.5000000 )

 cart.    s(12) = ( -1.0000000  0.0000000  0.0000000 )    f =(  0.5000000 )
                  (  0.0000000  1.0000000  0.0000000 )       ( -0.5000000 )
                  (  0.0000000  0.0000000  1.0000000 )       ( -0.5000000 )


      isym = 13     inv. 180 deg rotation - cart. axis [1,1,0]   

 cryst.   s(13) = (     0         -1          0      )
                  (    -1          0          0      )
                  (     0          0          1      )

 cart.    s(13) = (  0.0000000 -1.0000000  0.0000000 )
                  ( -1.0000000  0.0000000  0.0000000 )
                  (  0.0000000  0.0000000  1.0000000 )


      isym = 14     inv. 180 deg rotation - cart. axis [1,-1,0]  

 cryst.   s(14) = (     0          1          0      )
                  (     1          0          0      )
                  (     0          0          1      )

 cart.    s(14) = (  0.0000000  1.0000000  0.0000000 )
                  (  1.0000000  0.0000000  0.0000000 )
                  (  0.0000000  0.0000000  1.0000000 )


      isym = 15     inv.  90 deg rotation - cart. axis [0,0,-1]  

 cryst.   s(15) = (     0          1          0      )    f =(  0.5000000 )
                  (    -1          0          0      )       ( -0.5000000 )
                  (     0          0         -1      )       (  0.5000000 )

 cart.    s(15) = (  0.0000000 -1.0000000  0.0000000 )    f =(  0.5000000 )
                  (  1.0000000  0.0000000  0.0000000 )       ( -0.5000000 )
                  (  0.0000000  0.0000000 -1.0000000 )       (  0.5000000 )


      isym = 16     inv.  90 deg rotation - cart. axis [0,0,1]   

 cryst.   s(16) = (     0         -1          0      )    f =( -0.5000000 )
                  (     1          0          0      )       (  0.5000000 )
                  (     0          0         -1      )       (  0.5000000 )

 cart.    s(16) = (  0.0000000  1.0000000  0.0000000 )    f =( -0.5000000 )
                  ( -1.0000000  0.0000000  0.0000000 )       (  0.5000000 )
                  (  0.0000000  0.0000000 -1.0000000 )       (  0.5000000 )


     double point group D_4h(4/mmm)
     there are 14 classes and  4 irreducible representations
     the character table:

       E     -E    2C4   -2C4   C2    2C2' 2C2'' i     -i    2S4   -2S4   s_h 
                               -C2   -2C2' -2C2'                         -s_h 
G_6+   2.00 -2.00  1.41 -1.41  0.00  0.00  0.00  2.00 -2.00  1.41 -1.41  0.00
G_7+   2.00 -2.00 -1.41  1.41  0.00  0.00  0.00  2.00 -2.00 -1.41  1.41  0.00
G_6-   2.00 -2.00  1.41 -1.41  0.00  0.00  0.00 -2.00  2.00 -1.41  1.41  0.00
G_7-   2.00 -2.00 -1.41  1.41  0.00  0.00  0.00 -2.00  2.00  1.41 -1.41  0.00

        2s_v  2s_d
       -2s_v -2s_d
G_6+   0.00  0.00
G_7+   0.00  0.00
G_6-   0.00  0.00
G_7-   0.00  0.00

     the symmetry operations in each class and the name of the first element:

     E             1
          identity                                               
     -E           -1
          identity E                                             
     2C4           7    8
           90 deg rotation - cart. axis [0,0,-1]                 
     -2C4         -7   -8
           90 deg rotation - cart. axis [0,0,-1] E               
      C2  -C2      2   -2
          180 deg rotation - cart. axis [0,0,1]                  
      2C2'-2C2'    3   -3    4   -4
          180 deg rotation - cart. axis [0,1,0]                  
     2C2''-2C2'    5   -5   -6    6
          180 deg rotation - cart. axis [1,1,0]                  
     i             9
          inversion                                              
     -i           -9
          inversion E                                            
     2S4          15   16
          inv.  90 deg rotation - cart. axis [0,0,-1]            
     -2S4        -15  -16
          inv.  90 deg rotation - cart. axis [0,0,-1] E          
      s_h -s_h    10  -10
          inv. 180 deg rotation - cart. axis [0,0,1]             
      2s_v-2s_v   11  -11   12  -12
          inv. 180 deg rotation - cart. axis [0,1,0]             
      2s_d-2s_d   13  -13  -14   14
          inv. 180 deg rotation - cart. axis [1,1,0]             

   Cartesian axes

     site n.     atom                  positions (alat units)
         1           Sn  tau(   1) = (   0.0000000   0.0000000   0.0000000  )
         2           Sn  tau(   2) = (   0.5000000   0.5000000   0.5000000  )
         3           I   tau(   3) = (   0.2985210   0.2985210   0.0000000  )
         4           I   tau(   4) = (   0.7014790   0.7014790   0.0000000  )
         5           I   tau(   5) = (   0.7985210   0.2014790   0.5000000  )
         6           I   tau(   6) = (   0.2014790   0.7985210   0.5000000  )

   Crystallographic axes

     site n.     atom                  positions (cryst. coord.)
         1           Sn  tau(   1) = (  0.0000000  0.0000000  0.0000000  )
         2           Sn  tau(   2) = (  0.5000000  0.5000000  0.5000000  )
         3           I   tau(   3) = (  0.2985210  0.2985210  0.0000000  )
         4           I   tau(   4) = (  0.7014790  0.7014790  0.0000000  )
         5           I   tau(   5) = (  0.7985210  0.2014790  0.5000000  )
         6           I   tau(   6) = (  0.2014790  0.7985210  0.5000000  )

     number of k points=    18
                       cart. coord. in units 2pi/alat
        k(    1) = (   0.0833333   0.0833333   0.0833333), wk =   0.0370370
        k(    2) = (   0.0833333   0.0833333   0.2500000), wk =   0.0370370
        k(    3) = (   0.0833333   0.0833333   0.4166667), wk =   0.0370370
        k(    4) = (   0.0833333   0.2500000   0.2500000), wk =   0.0740741
        k(    5) = (   0.0833333   0.2500000   0.4166667), wk =   0.0740741
        k(    6) = (   0.0833333   0.4166667   0.4166667), wk =   0.0740741
        k(    7) = (   0.2500000   0.2500000   0.2500000), wk =   0.0370370
        k(    8) = (   0.2500000   0.2500000   0.4166667), wk =   0.0370370
        k(    9) = (   0.2500000   0.4166667   0.4166667), wk =   0.0740741
        k(   10) = (   0.4166667   0.4166667   0.4166667), wk =   0.0370370
        k(   11) = (   0.0833333   0.2500000   0.0833333), wk =   0.0740741
        k(   12) = (   0.0833333   0.4166667   0.0833333), wk =   0.0740741
        k(   13) = (   0.2500000   0.2500000   0.0833333), wk =   0.0370370
        k(   14) = (   0.2500000   0.4166667   0.0833333), wk =   0.0740741
        k(   15) = (   0.4166667   0.0833333   0.2500000), wk =   0.0740741
        k(   16) = (   0.4166667   0.4166667   0.0833333), wk =   0.0370370
        k(   17) = (   0.2500000   0.4166667   0.2500000), wk =   0.0740741
        k(   18) = (   0.4166667   0.4166667   0.2500000), wk =   0.0370370

                       cryst. coord.
        k(    1) = (   0.0833333   0.0833333   0.0833333), wk =   0.0370370
        k(    2) = (   0.0833333   0.0833333   0.2500000), wk =   0.0370370
        k(    3) = (   0.0833333   0.0833333   0.4166667), wk =   0.0370370
        k(    4) = (   0.0833333   0.2500000   0.2500000), wk =   0.0740741
        k(    5) = (   0.0833333   0.2500000   0.4166667), wk =   0.0740741
        k(    6) = (   0.0833333   0.4166667   0.4166667), wk =   0.0740741
        k(    7) = (   0.2500000   0.2500000   0.2500000), wk =   0.0370370
        k(    8) = (   0.2500000   0.2500000   0.4166667), wk =   0.0370370
        k(    9) = (   0.2500000   0.4166667   0.4166667), wk =   0.0740741
        k(   10) = (   0.4166667   0.4166667   0.4166667), wk =   0.0370370
        k(   11) = (   0.0833333   0.2500000   0.0833333), wk =   0.0740741
        k(   12) = (   0.0833333   0.4166667   0.0833333), wk =   0.0740741
        k(   13) = (   0.2500000   0.2500000   0.0833333), wk =   0.0370370
        k(   14) = (   0.2500000   0.4166667   0.0833333), wk =   0.0740741
        k(   15) = (   0.4166667   0.0833333   0.2500000), wk =   0.0740741
        k(   16) = (   0.4166667   0.4166667   0.0833333), wk =   0.0370370
        k(   17) = (   0.2500000   0.4166667   0.2500000), wk =   0.0740741
        k(   18) = (   0.4166667   0.4166667   0.2500000), wk =   0.0370370

     Dense  grid:   858849 G-vectors     FFT dimensions: ( 120, 120, 120)

     Smooth grid:   467329 G-vectors     FFT dimensions: ( 100, 100, 100)

     Dynamical RAM for                 wfc:       4.16 MB

     Dynamical RAM for     wfc (w. buffer):      79.03 MB

     Dynamical RAM for           str. fact:       1.09 MB

     Dynamical RAM for           local pot:       0.00 MB

     Dynamical RAM for          nlocal pot:       7.58 MB

     Dynamical RAM for                qrad:      24.75 MB

     Dynamical RAM for          rho,v,vnew:      13.14 MB

     Dynamical RAM for               rhoin:       4.38 MB

     Dynamical RAM for            rho*nmix:      34.95 MB

     Dynamical RAM for           G-vectors:       2.20 MB

     Dynamical RAM for          h,s,v(r/c):       0.25 MB

     Dynamical RAM for          <psi|beta>:       0.35 MB

     Dynamical RAM for                 psi:      16.64 MB

     Dynamical RAM for                hpsi:      16.64 MB

     Dynamical RAM for                spsi:      16.64 MB

     Dynamical RAM for      wfcinit/wfcrot:       7.68 MB

     Dynamical RAM for           addusdens:     335.28 MB

     Dynamical RAM for          addusforce:     342.19 MB

     Dynamical RAM for         addusstress:     342.93 MB

     Estimated static dynamical RAM per process >     173.16 MB

     Estimated max dynamical RAM per process >     516.09 MB

     Estimated total dynamical RAM >      12.10 GB

     Initial potential from superposition of free atoms

     starting charge   55.99771, renormalised to   56.00000
     Starting wfcs are   68 randomized atomic wfcs
     Checking if some PAW data can be deallocated... 
       PAW data deallocated on   16 nodes for type:  1
       PAW data deallocated on    8 nodes for type:  2

     total cpu time spent up to now is       80.6 secs

     Self-consistent Calculation

     iteration #  1     ecut=   110.00 Ry     beta= 0.35
     Davidson diagonalization with overlap
     ethr =  1.00E-02,  avg # of iterations =  1.0

     total cpu time spent up to now is      256.2 secs

     total energy              =   -2370.83476944 Ry
     Harris-Foulkes estimate   =   -2371.11983966 Ry
     estimated scf accuracy    <       0.58929729 Ry

     iteration #  2     ecut=   110.00 Ry     beta= 0.35
     Davidson diagonalization with overlap
     ethr =  1.05E-03,  avg # of iterations =  3.1

     total cpu time spent up to now is      472.9 secs

     total energy              =   -2370.93845273 Ry
     Harris-Foulkes estimate   =   -2370.94938105 Ry
     estimated scf accuracy    <       0.04049944 Ry

     iteration #  3     ecut=   110.00 Ry     beta= 0.35
     Davidson diagonalization with overlap
     ethr =  7.23E-05,  avg # of iterations =  3.4

     total cpu time spent up to now is      667.3 secs

     total energy              =   -2370.94221611 Ry
     Harris-Foulkes estimate   =   -2370.94451478 Ry
     estimated scf accuracy    <       0.00908426 Ry

     iteration #  4     ecut=   110.00 Ry     beta= 0.35
     Davidson diagonalization with overlap
     ethr =  1.62E-05,  avg # of iterations =  3.1

     total cpu time spent up to now is      851.1 secs

     WARNING: integrated charge=    56.01341289, expected=    56.00000000

     total energy              =   -2370.94344269 Ry
     Harris-Foulkes estimate   =   -2370.94336048 Ry
     estimated scf accuracy    <       0.00057020 Ry

     iteration #  5     ecut=   110.00 Ry     beta= 0.35
     Davidson diagonalization with overlap
     ethr =  1.02E-06,  avg # of iterations =  5.1

     total cpu time spent up to now is     1062.8 secs

     WARNING: integrated charge=    56.00939730, expected=    56.00000000

     total energy              =   -2370.94360177 Ry
     Harris-Foulkes estimate   =   -2370.94362345 Ry
     estimated scf accuracy    <       0.00006234 Ry

     iteration #  6     ecut=   110.00 Ry     beta= 0.35
     Davidson diagonalization with overlap
     ethr =  1.11E-07,  avg # of iterations =  3.1

     total cpu time spent up to now is     1222.5 secs

     WARNING: integrated charge=    56.00121065, expected=    56.00000000

     total energy              =   -2370.94361482 Ry
     Harris-Foulkes estimate   =   -2370.94361118 Ry
     estimated scf accuracy    <       0.00000976 Ry

     iteration #  7     ecut=   110.00 Ry     beta= 0.35
     Davidson diagonalization with overlap
     ethr =  1.74E-08,  avg # of iterations =  4.3

     total cpu time spent up to now is     1418.6 secs

     WARNING: integrated charge=    56.00096835, expected=    56.00000000

     total energy              =   -2370.94361803 Ry
     Harris-Foulkes estimate   =   -2370.94361859 Ry
     estimated scf accuracy    <       0.00000218 Ry

     iteration #  8     ecut=   110.00 Ry     beta= 0.35
     Davidson diagonalization with overlap
     ethr =  3.90E-09,  avg # of iterations =  2.0

     total cpu time spent up to now is     1574.8 secs

     End of self-consistent calculation

          k = 0.0833 0.0833 0.0833 ( 58320 PWs)   bands (ev):

   -23.2737 -23.2737 -23.2737 -23.2737 -23.1414 -23.1414 -23.1414 -23.1414
   -22.2541 -22.2541 -22.2541 -22.2541 -22.1389 -22.1389 -22.1389 -22.1389
   -22.0852 -22.0852 -22.0851 -22.0851 -11.6257 -11.6257 -11.5352 -11.5352
   -11.4856 -11.4856 -11.4813 -11.4813  -7.0749  -7.0749  -6.8756  -6.8756
    -2.6895  -2.6895  -2.5278  -2.5278  -2.1417  -2.1417  -2.0307  -2.0307
    -1.8832  -1.8832  -1.5315  -1.5315  -1.2282  -1.2282  -1.1349  -1.1349
    -1.1100  -1.1100  -0.9977  -0.9977  -0.9260  -0.9260  -0.8855  -0.8855

     occupation numbers 
     1.0000   1.0000   1.0000   1.0000   1.0000   1.0000   1.0000   1.0000
     1.0000   1.0000   1.0000   1.0000   1.0000   1.0000   1.0000   1.0000
     1.0000   1.0000   1.0000   1.0000   1.0000   1.0000   1.0000   1.0000
     1.0000   1.0000   1.0000   1.0000   1.0000   1.0000   1.0000   1.0000
     1.0000   1.0000   1.0000   1.0000   1.0000   1.0000   1.0000   1.0000
     1.0000   1.0000   1.0000   1.0000   1.0000   1.0000   1.0000   1.0000
     1.0000   1.0000   1.0000   1.0000   1.0000   1.0000   1.0000   1.0000

          k = 0.0833 0.0833 0.2500 ( 58377 PWs)   bands (ev):

   -23.2737 -23.2737 -23.2737 -23.2737 -23.1414 -23.1414 -23.1414 -23.1414
   -22.2541 -22.2541 -22.2541 -22.2541 -22.1389 -22.1389 -22.1389 -22.1389
   -22.0852 -22.0852 -22.0851 -22.0851 -11.6133 -11.6133 -11.5469 -11.5469
   -11.4855 -11.4855 -11.4811 -11.4811  -7.0548  -7.0548  -6.9092  -6.9092
    -2.6768  -2.6768  -2.5251  -2.5251  -2.1304  -2.1304  -2.0091  -2.0091
    -1.8576  -1.8576  -1.5559  -1.5559  -1.2259  -1.2259  -1.1760  -1.1760
    -1.1334  -1.1334  -1.0256  -1.0256  -0.9363  -0.9363  -0.8989  -0.8989

     occupation numbers 
     1.0000   1.0000   1.0000   1.0000   1.0000   1.0000   1.0000   1.0000
     1.0000   1.0000   1.0000   1.0000   1.0000   1.0000   1.0000   1.0000
     1.0000   1.0000   1.0000   1.0000   1.0000   1.0000   1.0000   1.0000
     1.0000   1.0000   1.0000   1.0000   1.0000   1.0000   1.0000   1.0000
     1.0000   1.0000   1.0000   1.0000   1.0000   1.0000   1.0000   1.0000
     1.0000   1.0000   1.0000   1.0000   1.0000   1.0000   1.0000   1.0000
     1.0000   1.0000   1.0000   1.0000   1.0000   1.0000   1.0000   1.0000

          k = 0.0833 0.0833 0.4167 ( 58398 PWs)   bands (ev):

   -23.2737 -23.2737 -23.2737 -23.2737 -23.1414 -23.1414 -23.1414 -23.1414
   -22.2541 -22.2541 -22.2541 -22.2541 -22.1389 -22.1389 -22.1389 -22.1389
   -22.0852 -22.0852 -22.0852 -22.0852 -11.5922 -11.5922 -11.5676 -11.5676
   -11.4854 -11.4854 -11.4809 -11.4809  -7.0155  -7.0155  -6.9621  -6.9621
    -2.6646  -2.6646  -2.5211  -2.5211  -2.1292  -2.1292  -1.9917  -1.9917
    -1.7912  -1.7912  -1.6128  -1.6128  -1.2247  -1.2247  -1.2049  -1.2049
    -1.1371  -1.1371  -1.0604  -1.0604  -0.9633  -0.9633  -0.9130  -0.9130

     occupation numbers 
     1.0000   1.0000   1.0000   1.0000   1.0000   1.0000   1.0000   1.0000
     1.0000   1.0000   1.0000   1.0000   1.0000   1.0000   1.0000   1.0000
     1.0000   1.0000   1.0000   1.0000   1.0000   1.0000   1.0000   1.0000
     1.0000   1.0000   1.0000   1.0000   1.0000   1.0000   1.0000   1.0000
     1.0000   1.0000   1.0000   1.0000   1.0000   1.0000   1.0000   1.0000
     1.0000   1.0000   1.0000   1.0000   1.0000   1.0000   1.0000   1.0000
     1.0000   1.0000   1.0000   1.0000   1.0000   1.0000   1.0000   1.0000

          k = 0.0833 0.2500 0.2500 ( 58428 PWs)   bands (ev):

   -23.2737 -23.2737 -23.2737 -23.2737 -23.1414 -23.1414 -23.1414 -23.1414
   -22.2541 -22.2541 -22.2541 -22.2541 -22.1389 -22.1389 -22.1389 -22.1389
   -22.0852 -22.0852 -22.0852 -22.0852 -11.5984 -11.5984 -11.5422 -11.5422
   -11.5000 -11.5000 -11.4871 -11.4871  -7.0318  -7.0318  -6.9245  -6.9245
    -2.8240  -2.8240  -2.6499  -2.6499  -2.1003  -2.1003  -1.9429  -1.9429
    -1.8157  -1.8157  -1.5778  -1.5778  -1.2513  -1.2513  -1.1838  -1.1838
    -1.0542  -1.0542  -0.9657  -0.9657  -0.9008  -0.9008  -0.7169  -0.7169

     occupation numbers 
     1.0000   1.0000   1.0000   1.0000   1.0000   1.0000   1.0000   1.0000
     1.0000   1.0000   1.0000   1.0000   1.0000   1.0000   1.0000   1.0000
     1.0000   1.0000   1.0000   1.0000   1.0000   1.0000   1.0000   1.0000
     1.0000   1.0000   1.0000   1.0000   1.0000   1.0000   1.0000   1.0000
     1.0000   1.0000   1.0000   1.0000   1.0000   1.0000   1.0000   1.0000
     1.0000   1.0000   1.0000   1.0000   1.0000   1.0000   1.0000   1.0000
     1.0000   1.0000   1.0000   1.0000   1.0000   1.0000   1.0000   1.0000

          k = 0.0833 0.2500 0.4167 ( 58419 PWs)   bands (ev):

   -23.2737 -23.2737 -23.2737 -23.2737 -23.1414 -23.1414 -23.1414 -23.1414
   -22.2541 -22.2541 -22.2541 -22.2541 -22.1389 -22.1389 -22.1389 -22.1389
   -22.0852 -22.0852 -22.0852 -22.0852 -11.5809 -11.5809 -11.5579 -11.5579
   -11.4999 -11.4999 -11.4881 -11.4881  -7.0050  -7.0050  -6.9643  -6.9643
    -2.8365  -2.8365  -2.6539  -2.6539  -2.0666  -2.0666  -1.8885  -1.8885
    -1.8361  -1.8361  -1.5858  -1.5858  -1.2583  -1.2583  -1.1796  -1.1796
    -1.0695  -1.0695  -0.9817  -0.9817  -0.8941  -0.8941  -0.7161  -0.7161

     occupation numbers 
     1.0000   1.0000   1.0000   1.0000   1.0000   1.0000   1.0000   1.0000
     1.0000   1.0000   1.0000   1.0000   1.0000   1.0000   1.0000   1.0000
     1.0000   1.0000   1.0000   1.0000   1.0000   1.0000   1.0000   1.0000
     1.0000   1.0000   1.0000   1.0000   1.0000   1.0000   1.0000   1.0000
     1.0000   1.0000   1.0000   1.0000   1.0000   1.0000   1.0000   1.0000
     1.0000   1.0000   1.0000   1.0000   1.0000   1.0000   1.0000   1.0000
     1.0000   1.0000   1.0000   1.0000   1.0000   1.0000   1.0000   1.0000

          k = 0.0833 0.4167 0.4167 ( 58453 PWs)   bands (ev):

   -23.2737 -23.2737 -23.2737 -23.2737 -23.1414 -23.1414 -23.1414 -23.1414
   -22.2541 -22.2541 -22.2541 -22.2541 -22.1389 -22.1389 -22.1389 -22.1389
   -22.0852 -22.0852 -22.0852 -22.0852 -11.5621 -11.5621 -11.5489 -11.5489
   -11.5130 -11.5130 -11.5033 -11.5033  -6.9887  -6.9887  -6.9722  -6.9722
    -2.9037  -2.9037  -2.8269  -2.8269  -2.0214  -2.0214  -1.9113  -1.9113
    -1.7874  -1.7874  -1.5878  -1.5878  -1.2457  -1.2457  -1.1993  -1.1993
    -0.9703  -0.9703  -0.9369  -0.9369  -0.7200  -0.7200  -0.5771  -0.5771

     occupation numbers 
     1.0000   1.0000   1.0000   1.0000   1.0000   1.0000   1.0000   1.0000
     1.0000   1.0000   1.0000   1.0000   1.0000   1.0000   1.0000   1.0000
     1.0000   1.0000   1.0000   1.0000   1.0000   1.0000   1.0000   1.0000
     1.0000   1.0000   1.0000   1.0000   1.0000   1.0000   1.0000   1.0000
     1.0000   1.0000   1.0000   1.0000   1.0000   1.0000   1.0000   1.0000
     1.0000   1.0000   1.0000   1.0000   1.0000   1.0000   1.0000   1.0000
     1.0000   1.0000   1.0000   1.0000   1.0000   1.0000   1.0000   1.0000

          k = 0.2500 0.2500 0.2500 ( 58381 PWs)   bands (ev):

   -23.2737 -23.2737 -23.2737 -23.2737 -23.1414 -23.1414 -23.1414 -23.1414
   -22.2541 -22.2541 -22.2541 -22.2541 -22.1389 -22.1389 -22.1389 -22.1389
   -22.0852 -22.0852 -22.0852 -22.0852 -11.5899 -11.5899 -11.5421 -11.5421
   -11.5091 -11.5091 -11.4861 -11.4861  -7.0217  -7.0217  -6.9412  -6.9412
    -2.8823  -2.8823  -2.5371  -2.5371  -2.0977  -2.0977  -1.9286  -1.9286
    -1.8744  -1.8744  -1.6054  -1.6054  -1.2975  -1.2975  -1.2300  -1.2300
    -1.1233  -1.1233  -0.9352  -0.9352  -0.8802  -0.8802  -0.5903  -0.5903

     occupation numbers 
     1.0000   1.0000   1.0000   1.0000   1.0000   1.0000   1.0000   1.0000
     1.0000   1.0000   1.0000   1.0000   1.0000   1.0000   1.0000   1.0000
     1.0000   1.0000   1.0000   1.0000   1.0000   1.0000   1.0000   1.0000
     1.0000   1.0000   1.0000   1.0000   1.0000   1.0000   1.0000   1.0000
     1.0000   1.0000   1.0000   1.0000   1.0000   1.0000   1.0000   1.0000
     1.0000   1.0000   1.0000   1.0000   1.0000   1.0000   1.0000   1.0000
     1.0000   1.0000   1.0000   1.0000   1.0000   1.0000   1.0000   1.0000

          k = 0.2500 0.2500 0.4167 ( 58442 PWs)   bands (ev):

   -23.2737 -23.2737 -23.2737 -23.2737 -23.1414 -23.1414 -23.1414 -23.1414
   -22.2541 -22.2541 -22.2541 -22.2541 -22.1389 -22.1389 -22.1389 -22.1389
   -22.0852 -22.0852 -22.0852 -22.0852 -11.5786 -11.5786 -11.5493 -11.5493
   -11.5122 -11.5122 -11.4859 -11.4859  -7.0059  -7.0059  -6.9704  -6.9704
    -2.9001  -2.9001  -2.5225  -2.5225  -2.1185  -2.1185  -1.8891  -1.8891
    -1.8753  -1.8753  -1.5848  -1.5848  -1.3099  -1.3099  -1.2083  -1.2083
    -1.1228  -1.1228  -0.9296  -0.9296  -0.8699  -0.8699  -0.5798  -0.5798

     occupation numbers 
     1.0000   1.0000   1.0000   1.0000   1.0000   1.0000   1.0000   1.0000
     1.0000   1.0000   1.0000   1.0000   1.0000   1.0000   1.0000   1.0000
     1.0000   1.0000   1.0000   1.0000   1.0000   1.0000   1.0000   1.0000
     1.0000   1.0000   1.0000   1.0000   1.0000   1.0000   1.0000   1.0000
     1.0000   1.0000   1.0000   1.0000   1.0000   1.0000   1.0000   1.0000
     1.0000   1.0000   1.0000   1.0000   1.0000   1.0000   1.0000   1.0000
     1.0000   1.0000   1.0000   1.0000   1.0000   1.0000   1.0000   1.0000

          k = 0.2500 0.4167 0.4167 ( 58427 PWs)   bands (ev):

   -23.2737 -23.2737 -23.2737 -23.2737 -23.1414 -23.1414 -23.1414 -23.1414
   -22.2541 -22.2541 -22.2541 -22.2541 -22.1389 -22.1389 -22.1389 -22.1389
   -22.0852 -22.0852 -22.0852 -22.0852 -11.5691 -11.5691 -11.5548 -11.5548
   -11.5075 -11.5075 -11.4937 -11.4937  -6.9994  -6.9994  -6.9840  -6.9840
    -2.8256  -2.8256  -2.6490  -2.6490  -2.0813  -2.0813  -1.9418  -1.9418
    -1.8245  -1.8245  -1.5908  -1.5908  -1.2943  -1.2943  -1.2377  -1.2377
    -1.0313  -1.0313  -0.9000  -0.9000  -0.8338  -0.8338  -0.7238  -0.7238

     occupation numbers 
     1.0000   1.0000   1.0000   1.0000   1.0000   1.0000   1.0000   1.0000
     1.0000   1.0000   1.0000   1.0000   1.0000   1.0000   1.0000   1.0000
     1.0000   1.0000   1.0000   1.0000   1.0000   1.0000   1.0000   1.0000
     1.0000   1.0000   1.0000   1.0000   1.0000   1.0000   1.0000   1.0000
     1.0000   1.0000   1.0000   1.0000   1.0000   1.0000   1.0000   1.0000
     1.0000   1.0000   1.0000   1.0000   1.0000   1.0000   1.0000   1.0000
     1.0000   1.0000   1.0000   1.0000   1.0000   1.0000   1.0000   1.0000

          k = 0.4167 0.4167 0.4167 ( 58402 PWs)   bands (ev):

   -23.2737 -23.2737 -23.2737 -23.2737 -23.1414 -23.1414 -23.1414 -23.1414
   -22.2541 -22.2541 -22.2541 -22.2541 -22.1389 -22.1389 -22.1389 -22.1389
   -22.0852 -22.0852 -22.0852 -22.0852 -11.5707 -11.5707 -11.5651 -11.5651
   -11.4965 -11.4965 -11.4908 -11.4908  -7.0062  -7.0062  -6.9995  -6.9995
    -2.6463  -2.6463  -2.5240  -2.5240  -2.1171  -2.1171  -1.9836  -1.9836
    -1.8689  -1.8689  -1.6658  -1.6658  -1.3344  -1.3344  -1.2830  -1.2830
    -1.0954  -1.0954  -1.0131  -1.0131  -0.8123  -0.8123  -0.7975  -0.7975

     occupation numbers 
     1.0000   1.0000   1.0000   1.0000   1.0000   1.0000   1.0000   1.0000
     1.0000   1.0000   1.0000   1.0000   1.0000   1.0000   1.0000   1.0000
     1.0000   1.0000   1.0000   1.0000   1.0000   1.0000   1.0000   1.0000
     1.0000   1.0000   1.0000   1.0000   1.0000   1.0000   1.0000   1.0000
     1.0000   1.0000   1.0000   1.0000   1.0000   1.0000   1.0000   1.0000
     1.0000   1.0000   1.0000   1.0000   1.0000   1.0000   1.0000   1.0000
     1.0000   1.0000   1.0000   1.0000   1.0000   1.0000   1.0000   1.0000

          k = 0.0833 0.2500 0.0833 ( 58377 PWs)   bands (ev):

   -23.2737 -23.2737 -23.2737 -23.2737 -23.1414 -23.1414 -23.1414 -23.1414
   -22.2541 -22.2541 -22.2541 -22.2541 -22.1389 -22.1389 -22.1389 -22.1389
   -22.0852 -22.0852 -22.0851 -22.0851 -11.6090 -11.6090 -11.5338 -11.5338
   -11.4995 -11.4995 -11.4863 -11.4863  -7.0448  -7.0448  -6.8983  -6.8983
    -2.8084  -2.8084  -2.6450  -2.6450  -2.1574  -2.1574  -1.9732  -1.9732
    -1.8041  -1.8041  -1.5567  -1.5567  -1.2444  -1.2444  -1.1878  -1.1878
    -1.0405  -1.0405  -0.9579  -0.9579  -0.9034  -0.9034  -0.7168  -0.7168

     occupation numbers 
     1.0000   1.0000   1.0000   1.0000   1.0000   1.0000   1.0000   1.0000
     1.0000   1.0000   1.0000   1.0000   1.0000   1.0000   1.0000   1.0000
     1.0000   1.0000   1.0000   1.0000   1.0000   1.0000   1.0000   1.0000
     1.0000   1.0000   1.0000   1.0000   1.0000   1.0000   1.0000   1.0000
     1.0000   1.0000   1.0000   1.0000   1.0000   1.0000   1.0000   1.0000
     1.0000   1.0000   1.0000   1.0000   1.0000   1.0000   1.0000   1.0000
     1.0000   1.0000   1.0000   1.0000   1.0000   1.0000   1.0000   1.0000

          k = 0.0833 0.4167 0.0833 ( 58398 PWs)   bands (ev):

   -23.2737 -23.2737 -23.2737 -23.2737 -23.1414 -23.1414 -23.1414 -23.1414
   -22.2541 -22.2541 -22.2541 -22.2541 -22.1389 -22.1389 -22.1389 -22.1389
   -22.0852 -22.0852 -22.0852 -22.0852 -11.5801 -11.5801 -11.5487 -11.5487
   -11.5049 -11.5049 -11.4960 -11.4960  -6.9949  -6.9949  -6.9410  -6.9410
    -2.8611  -2.8611  -2.7943  -2.7943  -2.1022  -2.1022  -2.0145  -2.0145
    -1.7075  -1.7075  -1.6076  -1.6076  -1.2704  -1.2704  -1.2461  -1.2461
    -0.9988  -0.9988  -0.9502  -0.9502  -0.7260  -0.7260  -0.5980  -0.5980

     occupation numbers 
     1.0000   1.0000   1.0000   1.0000   1.0000   1.0000   1.0000   1.0000
     1.0000   1.0000   1.0000   1.0000   1.0000   1.0000   1.0000   1.0000
     1.0000   1.0000   1.0000   1.0000   1.0000   1.0000   1.0000   1.0000
     1.0000   1.0000   1.0000   1.0000   1.0000   1.0000   1.0000   1.0000
     1.0000   1.0000   1.0000   1.0000   1.0000   1.0000   1.0000   1.0000
     1.0000   1.0000   1.0000   1.0000   1.0000   1.0000   1.0000   1.0000
     1.0000   1.0000   1.0000   1.0000   1.0000   1.0000   1.0000   1.0000

          k = 0.2500 0.2500 0.0833 ( 58428 PWs)   bands (ev):

   -23.2737 -23.2737 -23.2737 -23.2737 -23.1414 -23.1414 -23.1414 -23.1414
   -22.2541 -22.2541 -22.2541 -22.2541 -22.1389 -22.1389 -22.1389 -22.1389
   -22.0852 -22.0852 -22.0852 -22.0852 -11.5980 -11.5980 -11.5385 -11.5385
   -11.5057 -11.5057 -11.4862 -11.4862  -7.0290  -7.0290  -6.9205  -6.9205
    -2.8607  -2.8607  -2.5533  -2.5533  -2.0869  -2.0869  -1.9818  -1.9818
    -1.8707  -1.8707  -1.5884  -1.5884  -1.2968  -1.2968  -1.2512  -1.2512
    -1.1233  -1.1233  -0.9346  -0.9346  -0.8996  -0.8996  -0.5995  -0.5995

     occupation numbers 
     1.0000   1.0000   1.0000   1.0000   1.0000   1.0000   1.0000   1.0000
     1.0000   1.0000   1.0000   1.0000   1.0000   1.0000   1.0000   1.0000
     1.0000   1.0000   1.0000   1.0000   1.0000   1.0000   1.0000   1.0000
     1.0000   1.0000   1.0000   1.0000   1.0000   1.0000   1.0000   1.0000
     1.0000   1.0000   1.0000   1.0000   1.0000   1.0000   1.0000   1.0000
     1.0000   1.0000   1.0000   1.0000   1.0000   1.0000   1.0000   1.0000
     1.0000   1.0000   1.0000   1.0000   1.0000   1.0000   1.0000   1.0000

          k = 0.2500 0.4167 0.0833 ( 58419 PWs)   bands (ev):

   -23.2737 -23.2737 -23.2737 -23.2737 -23.1414 -23.1414 -23.1414 -23.1414
   -22.2541 -22.2541 -22.2541 -22.2541 -22.1389 -22.1389 -22.1389 -22.1389
   -22.0852 -22.0852 -22.0852 -22.0852 -11.5786 -11.5786 -11.5561 -11.5561
   -11.5011 -11.5011 -11.4922 -11.4922  -6.9981  -6.9981  -6.9580  -6.9580
    -2.7915  -2.7915  -2.6411  -2.6411  -2.0668  -2.0668  -2.0087  -2.0087
    -1.7686  -1.7686  -1.6422  -1.6422  -1.3511  -1.3511  -1.3233  -1.3233
    -1.0355  -1.0355  -0.9340  -0.9340  -0.8596  -0.8596  -0.7099  -0.7099

     occupation numbers 
     1.0000   1.0000   1.0000   1.0000   1.0000   1.0000   1.0000   1.0000
     1.0000   1.0000   1.0000   1.0000   1.0000   1.0000   1.0000   1.0000
     1.0000   1.0000   1.0000   1.0000   1.0000   1.0000   1.0000   1.0000
     1.0000   1.0000   1.0000   1.0000   1.0000   1.0000   1.0000   1.0000
     1.0000   1.0000   1.0000   1.0000   1.0000   1.0000   1.0000   1.0000
     1.0000   1.0000   1.0000   1.0000   1.0000   1.0000   1.0000   1.0000
     1.0000   1.0000   1.0000   1.0000   1.0000   1.0000   1.0000   1.0000

          k = 0.4167 0.0833 0.2500 ( 58419 PWs)   bands (ev):

   -23.2737 -23.2737 -23.2737 -23.2737 -23.1414 -23.1414 -23.1414 -23.1414
   -22.2541 -22.2541 -22.2541 -22.2541 -22.1389 -22.1389 -22.1389 -22.1389
   -22.0852 -22.0852 -22.0852 -22.0852 -11.5729 -11.5729 -11.5473 -11.5473
   -11.5092 -11.5092 -11.4992 -11.4992  -6.9941  -6.9941  -6.9543  -6.9543
    -2.8845  -2.8845  -2.8117  -2.8117  -2.0501  -2.0501  -1.9619  -1.9619
    -1.7574  -1.7574  -1.5948  -1.5948  -1.2612  -1.2612  -1.2267  -1.2267
    -1.0003  -1.0003  -0.9287  -0.9287  -0.7268  -0.7268  -0.5905  -0.5905

     occupation numbers 
     1.0000   1.0000   1.0000   1.0000   1.0000   1.0000   1.0000   1.0000
     1.0000   1.0000   1.0000   1.0000   1.0000   1.0000   1.0000   1.0000
     1.0000   1.0000   1.0000   1.0000   1.0000   1.0000   1.0000   1.0000
     1.0000   1.0000   1.0000   1.0000   1.0000   1.0000   1.0000   1.0000
     1.0000   1.0000   1.0000   1.0000   1.0000   1.0000   1.0000   1.0000
     1.0000   1.0000   1.0000   1.0000   1.0000   1.0000   1.0000   1.0000
     1.0000   1.0000   1.0000   1.0000   1.0000   1.0000   1.0000   1.0000

          k = 0.4167 0.4167 0.0833 ( 58453 PWs)   bands (ev):

   -23.2737 -23.2737 -23.2737 -23.2737 -23.1414 -23.1414 -23.1414 -23.1414
   -22.2541 -22.2541 -22.2541 -22.2541 -22.1389 -22.1389 -22.1389 -22.1389
   -22.0852 -22.0852 -22.0852 -22.0852 -11.5741 -11.5741 -11.5660 -11.5660
   -11.4950 -11.4950 -11.4912 -11.4912  -6.9956  -6.9956  -6.9806  -6.9806
    -2.6365  -2.6365  -2.5430  -2.5430  -2.0245  -2.0245  -1.9623  -1.9623
    -1.8505  -1.8505  -1.7244  -1.7244  -1.4120  -1.4120  -1.4024  -1.4024
    -1.1233  -1.1233  -1.0288  -1.0288  -0.8422  -0.8422  -0.8181  -0.8181

     occupation numbers 
     1.0000   1.0000   1.0000   1.0000   1.0000   1.0000   1.0000   1.0000
     1.0000   1.0000   1.0000   1.0000   1.0000   1.0000   1.0000   1.0000
     1.0000   1.0000   1.0000   1.0000   1.0000   1.0000   1.0000   1.0000
     1.0000   1.0000   1.0000   1.0000   1.0000   1.0000   1.0000   1.0000
     1.0000   1.0000   1.0000   1.0000   1.0000   1.0000   1.0000   1.0000
     1.0000   1.0000   1.0000   1.0000   1.0000   1.0000   1.0000   1.0000
     1.0000   1.0000   1.0000   1.0000   1.0000   1.0000   1.0000   1.0000

          k = 0.2500 0.4167 0.2500 ( 58442 PWs)   bands (ev):

   -23.2737 -23.2737 -23.2737 -23.2737 -23.1414 -23.1414 -23.1414 -23.1414
   -22.2541 -22.2541 -22.2541 -22.2541 -22.1389 -22.1389 -22.1389 -22.1389
   -22.0852 -22.0852 -22.0852 -22.0852 -11.5743 -11.5743 -11.5552 -11.5552
   -11.5042 -11.5042 -11.4929 -11.4929  -7.0001  -7.0001  -6.9697  -6.9697
    -2.8102  -2.8102  -2.6452  -2.6452  -2.0678  -2.0678  -1.9635  -1.9635
    -1.8085  -1.8085  -1.6268  -1.6268  -1.3213  -1.3213  -1.2853  -1.2853
    -1.0293  -1.0293  -0.9178  -0.9178  -0.8476  -0.8476  -0.7154  -0.7154

     occupation numbers 
     1.0000   1.0000   1.0000   1.0000   1.0000   1.0000   1.0000   1.0000
     1.0000   1.0000   1.0000   1.0000   1.0000   1.0000   1.0000   1.0000
     1.0000   1.0000   1.0000   1.0000   1.0000   1.0000   1.0000   1.0000
     1.0000   1.0000   1.0000   1.0000   1.0000   1.0000   1.0000   1.0000
     1.0000   1.0000   1.0000   1.0000   1.0000   1.0000   1.0000   1.0000
     1.0000   1.0000   1.0000   1.0000   1.0000   1.0000   1.0000   1.0000
     1.0000   1.0000   1.0000   1.0000   1.0000   1.0000   1.0000   1.0000

          k = 0.4167 0.4167 0.2500 ( 58427 PWs)   bands (ev):

   -23.2737 -23.2737 -23.2737 -23.2737 -23.1414 -23.1414 -23.1414 -23.1414
   -22.2541 -22.2541 -22.2541 -22.2541 -22.1389 -22.1389 -22.1389 -22.1389
   -22.0852 -22.0852 -22.0852 -22.0852 -11.5725 -11.5725 -11.5655 -11.5655
   -11.4957 -11.4957 -11.4910 -11.4910  -7.0013  -7.0013  -6.9897  -6.9897
    -2.6419  -2.6419  -2.5331  -2.5331  -2.0713  -2.0713  -1.9641  -1.9641
    -1.8653  -1.8653  -1.7021  -1.7021  -1.3743  -1.3743  -1.3545  -1.3545
    -1.1003  -1.1003  -1.0105  -1.0105  -0.8280  -0.8280  -0.8113  -0.8113

     occupation numbers 
     1.0000   1.0000   1.0000   1.0000   1.0000   1.0000   1.0000   1.0000
     1.0000   1.0000   1.0000   1.0000   1.0000   1.0000   1.0000   1.0000
     1.0000   1.0000   1.0000   1.0000   1.0000   1.0000   1.0000   1.0000
     1.0000   1.0000   1.0000   1.0000   1.0000   1.0000   1.0000   1.0000
     1.0000   1.0000   1.0000   1.0000   1.0000   1.0000   1.0000   1.0000
     1.0000   1.0000   1.0000   1.0000   1.0000   1.0000   1.0000   1.0000
     1.0000   1.0000   1.0000   1.0000   1.0000   1.0000   1.0000   1.0000

     highest occupied level (ev):    -0.5771

!    total energy              =   -2370.94361799 Ry
     Harris-Foulkes estimate   =   -2370.94361826 Ry
     estimated scf accuracy    <       0.00000058 Ry

     total all-electron energy =    -81634.465824 Ry

     The total energy is the sum of the following terms:

     one-electron contribution =    -248.68154342 Ry
     hartree contribution      =     145.43048849 Ry
     xc contribution           =    -157.08932982 Ry
     ewald contribution        =    -190.25175950 Ry
     one-center paw contrib.   =   -1920.35147374 Ry
      -> PAW hartree energy AE =     107.22992270 Ry
      -> PAW hartree energy PS =    -106.44533945 Ry
      -> PAW xc energy AE      =    -324.23315518 Ry
      -> PAW xc energy PS      =      46.59332982 Ry
      -> total E_H with PAW    =     146.21507174 Ry
      -> total E_XC with PAW   =    -434.72915518 Ry

     convergence has been achieved in   8 iterations

     Forces acting on atoms (cartesian axes, Ry/au):

     atom    1 type  1   force =     0.00000000    0.00000000    0.00000000
     atom    2 type  1   force =     0.00000000    0.00000000   -0.00000000
     atom    3 type  2   force =    -0.01800819   -0.01800819   -0.00000000
     atom    4 type  2   force =     0.01800819    0.01800819   -0.00000000
     atom    5 type  2   force =    -0.01800819    0.01800819   -0.00000000
     atom    6 type  2   force =     0.01800819   -0.01800819   -0.00000000
     The non-local contrib.  to forces
     atom    1 type  1   force =     0.00000000    0.00000000    0.00000000
     atom    2 type  1   force =     0.00000000    0.00000000    0.00000000
     atom    3 type  2   force =    -0.04123893   -0.04123893    0.00000000
     atom    4 type  2   force =     0.04123893    0.04123893    0.00000000
     atom    5 type  2   force =    -0.04123893    0.04123893    0.00000000
     atom    6 type  2   force =     0.04123893   -0.04123893    0.00000000
     The ionic contribution  to forces
     atom    1 type  1   force =    -0.00000000   -0.00000000   -0.00000000
     atom    2 type  1   force =     0.00000000    0.00000000    0.00000000
     atom    3 type  2   force =     1.38633657    1.38633657    0.00000000
     atom    4 type  2   force =    -1.38633657   -1.38633657    0.00000000
     atom    5 type  2   force =     1.38633657   -1.38633657    0.00000000
     atom    6 type  2   force =    -1.38633657    1.38633657    0.00000000
     The local contribution  to forces
     atom    1 type  1   force =     0.00000000    0.00000000    0.00000000
     atom    2 type  1   force =     0.00000000    0.00000000    0.00000000
     atom    3 type  2   force =    -1.36693035   -1.36693035    0.00000000
     atom    4 type  2   force =     1.36693035    1.36693035   -0.00000000
     atom    5 type  2   force =    -1.36693035    1.36693035    0.00000000
     atom    6 type  2   force =     1.36693035   -1.36693035    0.00000000
     The core correction contribution to forces
     atom    1 type  1   force =     0.00000000    0.00000000    0.00000000
     atom    2 type  1   force =     0.00000000    0.00000000    0.00000000
     atom    3 type  2   force =     0.00389293    0.00389293   -0.00000000
     atom    4 type  2   force =    -0.00389293   -0.00389293   -0.00000000
     atom    5 type  2   force =     0.00389293   -0.00389293    0.00000000
     atom    6 type  2   force =    -0.00389293    0.00389293   -0.00000000
     The Hubbard contrib.    to forces
     atom    1 type  1   force =     0.00000000    0.00000000    0.00000000
     atom    2 type  1   force =     0.00000000    0.00000000    0.00000000
     atom    3 type  2   force =     0.00000000    0.00000000    0.00000000
     atom    4 type  2   force =     0.00000000    0.00000000    0.00000000
     atom    5 type  2   force =     0.00000000    0.00000000    0.00000000
     atom    6 type  2   force =     0.00000000    0.00000000    0.00000000
     The SCF correction term to forces
     atom    1 type  1   force =     0.00000000    0.00000000    0.00000000
     atom    2 type  1   force =     0.00000000    0.00000000   -0.00000000
     atom    3 type  2   force =    -0.00006841   -0.00006841    0.00000000
     atom    4 type  2   force =     0.00006841    0.00006841    0.00000000
     atom    5 type  2   force =    -0.00006841    0.00006841    0.00000000
     atom    6 type  2   force =     0.00006841   -0.00006841    0.00000000

     Total force =     0.050935     Total SCF correction =     0.000194


     Computing stress (Cartesian axis) and pressure

     Message from routine stres:
     noncollinear stress + GGA not implemented

     Writing output data file SnI2.save/
 
     init_run     :     43.64s CPU     74.51s WALL (       1 calls)
     electrons    :    903.95s CPU   1494.49s WALL (       1 calls)
     forces       :      6.19s CPU      8.60s WALL (       1 calls)

     Called by init_run:
     wfcinit      :     40.03s CPU     68.92s WALL (       1 calls)
     wfcinit:atom :      0.11s CPU      0.12s WALL (      18 calls)
     wfcinit:wfcr :     39.41s CPU     68.01s WALL (      18 calls)
     potinit      :      1.35s CPU      2.40s WALL (       1 calls)
     hinit0       :      0.62s CPU      0.95s WALL (       1 calls)

     Called by electrons:
     c_bands      :    700.10s CPU   1154.18s WALL (       8 calls)
     sum_band     :    183.99s CPU    310.71s WALL (       8 calls)
     v_of_rho     :      2.56s CPU      4.08s WALL (       9 calls)
     v_h          :      0.33s CPU      0.44s WALL (       9 calls)
     v_xc         :      2.39s CPU      3.90s WALL (      10 calls)
     newd         :     11.05s CPU     15.05s WALL (       9 calls)
     PAW_pot      :      2.15s CPU      3.23s WALL (       9 calls)
     mix_rho      :      2.49s CPU      4.22s WALL (       8 calls)

     Called by c_bands:
     init_us_2    :      1.74s CPU      2.29s WALL (     324 calls)
     cegterg      :    675.49s CPU   1127.37s WALL (     144 calls)

     Called by sum_band:
     sum_band:bec :      1.99s CPU      2.59s WALL (     144 calls)
     addusdens    :      9.68s CPU     12.03s WALL (       8 calls)

     Called by *egterg:
     h_psi        :    558.66s CPU    957.60s WALL (     614 calls)
     s_psi        :      6.24s CPU      6.86s WALL (     614 calls)
     g_psi        :      0.69s CPU      0.72s WALL (     452 calls)
     cdiaghg      :     22.84s CPU     37.19s WALL (     596 calls)
     cegterg:over :     44.47s CPU     65.88s WALL (     452 calls)
     cegterg:upda :     37.16s CPU     56.68s WALL (     452 calls)
     cegterg:last :      7.88s CPU     11.27s WALL (     145 calls)
     cdiaghg:chol :      2.18s CPU      3.37s WALL (     596 calls)
     cdiaghg:inve :      1.17s CPU      2.21s WALL (     596 calls)
     cdiaghg:para :      6.43s CPU     11.16s WALL (    1192 calls)

     Called by h_psi:
     h_psi:pot    :    557.27s CPU    956.07s WALL (     614 calls)
     h_psi:calbec :      9.73s CPU     12.10s WALL (     614 calls)
     vloc_psi     :    541.03s CPU    936.85s WALL (     614 calls)
     add_vuspsi   :      6.51s CPU      7.11s WALL (     614 calls)

     General routines
     calbec       :     16.08s CPU     20.88s WALL (     830 calls)
     fft          :      6.83s CPU     11.37s WALL (     198 calls)
     ffts         :      2.01s CPU      3.65s WALL (      68 calls)
     fftw         :    673.19s CPU   1188.90s WALL (  106672 calls)
     interpolate  :      3.12s CPU      5.13s WALL (      36 calls)
 
     Parallel routines
     fft_scatt_xy :     20.02s CPU     22.72s WALL (  106938 calls)
     fft_scatt_yz :    566.25s CPU   1061.15s WALL (  106938 calls)

     PAW routines
     PAW_pot      :      2.15s CPU      3.23s WALL (       9 calls)
     PAW_symme    :      0.17s CPU      0.32s WALL (      17 calls)
 
     PWSCF        :  16m 1.80s CPU  26m30.37s WALL

 
   This run was terminated on:  19:15:36  23Jan2021            

=------------------------------------------------------------------------------=
   JOB DONE.
=------------------------------------------------------------------------------=
