
     Program PWSCF v.6.6 starts on 14Jan2021 at 15:47:53 

     This program is part of the open-source Quantum ESPRESSO suite
     for quantum simulation of materials; please cite
         "P. Giannozzi et al., J. Phys.:Condens. Matter 21 395502 (2009);
         "P. Giannozzi et al., J. Phys.:Condens. Matter 29 465901 (2017);
          URL http://www.quantum-espresso.org", 
     in publications or presentations arising from this work. More details at
     http://www.quantum-espresso.org/quote

     Parallel version (MPI), running on    64 processors

     MPI processes distributed on     2 nodes
     R & G space division:  proc/nbgrp/npool/nimage =      64
     Fft bands division:     nmany     =       1
     Waiting for input...
     Reading input from standard input

     Current dimensions of program PWSCF are:
     Max number of different atomic species (ntypx) = 10
     Max number of k-points (npk) =  40000
     Max angular momentum in pseudopotentials (lmaxx) =  3
     file Cs.pbe-spn-kjpaw_psl.1.0.0.UPF: wavefunction(s)  5S 6S renormalized
     file Sn.pbe-dn-kjpaw_psl.1.0.0.UPF: wavefunction(s)  5S 5P 4D renormalized
     file I.pbe-n-kjpaw_psl.1.0.0.UPF: wavefunction(s)  5S renormalized

     Subspace diagonalization in iterative solution of the eigenvalue problem:
     a serial algorithm will be used

 
     Parallelization info
     --------------------
     sticks:   dense  smooth     PW     G-vecs:    dense   smooth      PW
     Min          97      64     17                14461     7868    1087
     Max          98      65     18                14477     7883    1100
     Sum        6211    4145   1109               925941   504115   69907
 

     Title: 
     CsSnI3                                                                     


     bravais-lattice index     =            8
     lattice parameter (alat)  =       9.1317  a.u.
     unit-cell volume          =    6370.5385 (a.u.)^3
     number of atoms/cell      =           20
     number of atomic types    =            3
     number of electrons       =       176.00
     number of Kohn-Sham states=           88
     kinetic-energy cutoff     =      70.0000  Ry
     charge density cutoff     =     420.0000  Ry
     convergence threshold     =      1.0E-06
     mixing beta               =       0.5000
     number of iterations used =            8  plain     mixing
     Exchange-correlation= SLA PW PBX PBC
                           (   1   4   3   4   0   0   0)

     celldm(1)=   9.131705  celldm(2)=   2.227728  celldm(3)=   3.755420
     celldm(4)=   0.000000  celldm(5)=   0.000000  celldm(6)=   0.000000

     crystal axes: (cart. coord. in units of alat)
               a(1) = (   1.000000   0.000000   0.000000 )  
               a(2) = (   0.000000   2.227728   0.000000 )  
               a(3) = (   0.000000   0.000000   3.755420 )  

     reciprocal axes: (cart. coord. in units 2 pi/alat)
               b(1) = (  1.000000  0.000000  0.000000 )  
               b(2) = (  0.000000  0.448888  0.000000 )  
               b(3) = (  0.000000  0.000000  0.266282 )  


     PseudoPot. # 1 for Cs read from file:
     /scratch/gtenti/degironcoli/pseudo/Cs.pbe-spn-kjpaw_psl.1.0.0.UPF
     MD5 check sum: b82c75cc2e1f4ff73b6412cffeb9c584
     Pseudo is Projector augmented-wave + core cor, Zval =  9.0
     Generated using "atomic" code by A. Dal Corso v.6.4.1
     Shape of augmentation charge: PSQ
     Using radial grid of 1251 points,  9 beta functions with: 
                l(1) =   0
                l(2) =   0
                l(3) =   0
                l(4) =   1
                l(5) =   1
                l(6) =   2
                l(7) =   2
                l(8) =   3
                l(9) =   3
     Q(r) pseudized with 0 coefficients 


     PseudoPot. # 2 for Sn read from file:
     /scratch/gtenti/degironcoli/pseudo/Sn.pbe-dn-kjpaw_psl.1.0.0.UPF
     MD5 check sum: 67f11dec737d427557dc41ea34975807
     Pseudo is Projector augmented-wave + core cor, Zval = 14.0
     Generated using "atomic" code by A. Dal Corso v.6.3
     Shape of augmentation charge: PSQ
     Using radial grid of 1243 points,  6 beta functions with: 
                l(1) =   0
                l(2) =   0
                l(3) =   1
                l(4) =   1
                l(5) =   2
                l(6) =   2
     Q(r) pseudized with 0 coefficients 


     PseudoPot. # 3 for I  read from file:
     /scratch/gtenti/degironcoli/pseudo/I.pbe-n-kjpaw_psl.1.0.0.UPF
     MD5 check sum: cd3d296c3308a581e1559a0c8a554cb5
     Pseudo is Projector augmented-wave + core cor, Zval =  7.0
     Generated using "atomic" code by A. Dal Corso v.6.3
     Shape of augmentation charge: PSQ
     Using radial grid of 1247 points,  6 beta functions with: 
                l(1) =   0
                l(2) =   0
                l(3) =   1
                l(4) =   1
                l(5) =   2
                l(6) =   2
     Q(r) pseudized with 0 coefficients 


     atomic species   valence    mass     pseudopotential
        Cs             9.00   132.90000     Cs( 1.00)
        Sn            14.00   118.70000     Sn( 1.00)
        I              7.00   126.90000     I ( 1.00)

      8 Sym. Ops., with inversion, found ( 6 have fractional translation)


                                    s                        frac. trans.

      isym =  1     identity                                     

 cryst.   s( 1) = (     1          0          0      )
                  (     0          1          0      )
                  (     0          0          1      )

 cart.    s( 1) = (  1.0000000  0.0000000  0.0000000 )
                  (  0.0000000  1.0000000  0.0000000 )
                  (  0.0000000  0.0000000  1.0000000 )


      isym =  2     180 deg rotation - cart. axis [0,0,1]        

 cryst.   s( 2) = (    -1          0          0      )    f =(  0.0000000 )
                  (     0         -1          0      )       (  0.5000000 )
                  (     0          0          1      )       (  0.5000000 )

 cart.    s( 2) = ( -1.0000000  0.0000000  0.0000000 )    f =(  0.0000000 )
                  (  0.0000000 -1.0000000  0.0000000 )       (  1.1138638 )
                  (  0.0000000  0.0000000  1.0000000 )       (  1.8777098 )


      isym =  3     180 deg rotation - cart. axis [0,1,0]        

 cryst.   s( 3) = (    -1          0          0      )    f =(  0.5000000 )
                  (     0          1          0      )       ( -0.5000000 )
                  (     0          0         -1      )       ( -0.5000000 )

 cart.    s( 3) = ( -1.0000000  0.0000000  0.0000000 )    f =(  0.5000000 )
                  (  0.0000000  1.0000000  0.0000000 )       ( -1.1138638 )
                  (  0.0000000  0.0000000 -1.0000000 )       ( -1.8777098 )


      isym =  4     180 deg rotation - cart. axis [1,0,0]        

 cryst.   s( 4) = (     1          0          0      )    f =( -0.5000000 )
                  (     0         -1          0      )       (  0.0000000 )
                  (     0          0         -1      )       (  0.0000000 )

 cart.    s( 4) = (  1.0000000  0.0000000  0.0000000 )    f =( -0.5000000 )
                  (  0.0000000 -1.0000000  0.0000000 )       (  0.0000000 )
                  (  0.0000000  0.0000000 -1.0000000 )       (  0.0000000 )


      isym =  5     inversion                                    

 cryst.   s( 5) = (    -1          0          0      )
                  (     0         -1          0      )
                  (     0          0         -1      )

 cart.    s( 5) = ( -1.0000000  0.0000000  0.0000000 )
                  (  0.0000000 -1.0000000  0.0000000 )
                  (  0.0000000  0.0000000 -1.0000000 )


      isym =  6     inv. 180 deg rotation - cart. axis [0,0,1]   

 cryst.   s( 6) = (     1          0          0      )    f =(  0.0000000 )
                  (     0          1          0      )       ( -0.5000000 )
                  (     0          0         -1      )       ( -0.5000000 )

 cart.    s( 6) = (  1.0000000  0.0000000  0.0000000 )    f =(  0.0000000 )
                  (  0.0000000  1.0000000  0.0000000 )       ( -1.1138638 )
                  (  0.0000000  0.0000000 -1.0000000 )       ( -1.8777098 )


      isym =  7     inv. 180 deg rotation - cart. axis [0,1,0]   

 cryst.   s( 7) = (     1          0          0      )    f =( -0.5000000 )
                  (     0         -1          0      )       (  0.5000000 )
                  (     0          0          1      )       (  0.5000000 )

 cart.    s( 7) = (  1.0000000  0.0000000  0.0000000 )    f =( -0.5000000 )
                  (  0.0000000 -1.0000000  0.0000000 )       (  1.1138638 )
                  (  0.0000000  0.0000000  1.0000000 )       (  1.8777098 )


      isym =  8     inv. 180 deg rotation - cart. axis [1,0,0]   

 cryst.   s( 8) = (    -1          0          0      )    f =(  0.5000000 )
                  (     0          1          0      )       (  0.0000000 )
                  (     0          0          1      )       (  0.0000000 )

 cart.    s( 8) = ( -1.0000000  0.0000000  0.0000000 )    f =(  0.5000000 )
                  (  0.0000000  1.0000000  0.0000000 )       (  0.0000000 )
                  (  0.0000000  0.0000000  1.0000000 )       (  0.0000000 )


     point group D_2h (mmm) 
     there are  8 classes
     the character table:

       E     C2    C2'   C2''  i     s_v   s_v'  s_v''
A_g    1.00  1.00  1.00  1.00  1.00  1.00  1.00  1.00
B_1g   1.00  1.00 -1.00 -1.00  1.00  1.00 -1.00 -1.00
B_2g   1.00 -1.00  1.00 -1.00  1.00 -1.00  1.00 -1.00
B_3g   1.00 -1.00 -1.00  1.00  1.00 -1.00 -1.00  1.00
A_u    1.00  1.00  1.00  1.00 -1.00 -1.00 -1.00 -1.00
B_1u   1.00  1.00 -1.00 -1.00 -1.00 -1.00  1.00  1.00
B_2u   1.00 -1.00  1.00 -1.00 -1.00  1.00 -1.00  1.00
B_3u   1.00 -1.00 -1.00  1.00 -1.00  1.00  1.00 -1.00

     the symmetry operations in each class and the name of the first element:

     E        1
          identity                                               
     C2       2
          180 deg rotation - cart. axis [0,0,1]                  
     C2'      4
          180 deg rotation - cart. axis [1,0,0]                  
     C2''     3
          180 deg rotation - cart. axis [0,1,0]                  
     i        5
          inversion                                              
     s_v      6
          inv. 180 deg rotation - cart. axis [0,0,1]             
     s_v'     8
          inv. 180 deg rotation - cart. axis [1,0,0]             
     s_v''    7
          inv. 180 deg rotation - cart. axis [0,1,0]             

   Cartesian axes

     site n.     atom                  positions (alat units)
         1           Cs  tau(   1) = (   0.2500000   0.1859640   2.5168147  )
         2           Cs  tau(   2) = (   0.7500000   2.0417636   1.2386050  )
         3           Cs  tau(   3) = (   0.2500000   1.2998278   3.1163149  )
         4           Cs  tau(   4) = (   0.7500000   0.9278998   0.6391048  )
         5           Sn  tau(   5) = (   0.2500000   0.7615710   1.6485466  )
         6           Sn  tau(   6) = (   0.7500000   1.4661567   2.1068731  )
         7           Sn  tau(   7) = (   0.2500000   1.8754348   0.2291632  )
         8           Sn  tau(   8) = (   0.7500000   0.3522928   3.5262565  )
         9           I   tau(   9) = (   0.7500000   0.0581437   0.4202578  )
        10           I   tau(  10) = (   0.2500000   2.1695839   3.3351619  )
        11           I   tau(  11) = (   0.7500000   1.1720075   1.4574521  )
        12           I   tau(  12) = (   0.2500000   1.0557201   2.2979676  )
        13           I   tau(  13) = (   0.7500000   0.6531118   2.9738192  )
        14           I   tau(  14) = (   0.2500000   1.5746158   0.7816005  )
        15           I   tau(  15) = (   0.7500000   1.7669756   2.6593103  )
        16           I   tau(  16) = (   0.2500000   0.4607520   1.0961094  )
        17           I   tau(  17) = (   0.7500000   0.3753632   1.8734812  )
        18           I   tau(  18) = (   0.2500000   1.8523644   1.8819384  )
        19           I   tau(  19) = (   0.7500000   1.4892270   0.0042286  )
        20           I   tau(  20) = (   0.2500000   0.7385006   3.7511911  )

   Crystallographic axes

     site n.     atom                  positions (cryst. coord.)
         1           Cs  tau(   1) = (  0.2500000  0.0834770  0.6701820  )
         2           Cs  tau(   2) = (  0.7500000  0.9165230  0.3298180  )
         3           Cs  tau(   3) = (  0.2500000  0.5834770  0.8298180  )
         4           Cs  tau(   4) = (  0.7500000  0.4165230  0.1701820  )
         5           Sn  tau(   5) = (  0.2500000  0.3418600  0.4389780  )
         6           Sn  tau(   6) = (  0.7500000  0.6581400  0.5610220  )
         7           Sn  tau(   7) = (  0.2500000  0.8418600  0.0610220  )
         8           Sn  tau(   8) = (  0.7500000  0.1581400  0.9389780  )
         9           I   tau(   9) = (  0.7500000  0.0261000  0.1119070  )
        10           I   tau(  10) = (  0.2500000  0.9739000  0.8880930  )
        11           I   tau(  11) = (  0.7500000  0.5261000  0.3880930  )
        12           I   tau(  12) = (  0.2500000  0.4739000  0.6119070  )
        13           I   tau(  13) = (  0.7500000  0.2931740  0.7918740  )
        14           I   tau(  14) = (  0.2500000  0.7068260  0.2081260  )
        15           I   tau(  15) = (  0.7500000  0.7931740  0.7081260  )
        16           I   tau(  16) = (  0.2500000  0.2068260  0.2918740  )
        17           I   tau(  17) = (  0.7500000  0.1684960  0.4988740  )
        18           I   tau(  18) = (  0.2500000  0.8315040  0.5011260  )
        19           I   tau(  19) = (  0.7500000  0.6684960  0.0011260  )
        20           I   tau(  20) = (  0.2500000  0.3315040  0.9988740  )

     number of k points=     8
                       cart. coord. in units 2pi/alat
        k(    1) = (   0.1250000   0.0561110   0.0332852), wk =   0.2500000
        k(    2) = (   0.1250000   0.0561110   0.0998557), wk =   0.2500000
        k(    3) = (   0.1250000   0.1683330   0.0332852), wk =   0.2500000
        k(    4) = (   0.1250000   0.1683330   0.0998557), wk =   0.2500000
        k(    5) = (   0.3750000   0.0561110   0.0332852), wk =   0.2500000
        k(    6) = (   0.3750000   0.0561110   0.0998557), wk =   0.2500000
        k(    7) = (   0.3750000   0.1683330   0.0332852), wk =   0.2500000
        k(    8) = (   0.3750000   0.1683330   0.0998557), wk =   0.2500000

                       cryst. coord.
        k(    1) = (   0.1250000   0.1250000   0.1250000), wk =   0.2500000
        k(    2) = (   0.1250000   0.1250000   0.3750000), wk =   0.2500000
        k(    3) = (   0.1250000   0.3750000   0.1250000), wk =   0.2500000
        k(    4) = (   0.1250000   0.3750000   0.3750000), wk =   0.2500000
        k(    5) = (   0.3750000   0.1250000   0.1250000), wk =   0.2500000
        k(    6) = (   0.3750000   0.1250000   0.3750000), wk =   0.2500000
        k(    7) = (   0.3750000   0.3750000   0.1250000), wk =   0.2500000
        k(    8) = (   0.3750000   0.3750000   0.3750000), wk =   0.2500000

     Dense  grid:   925941 G-vectors     FFT dimensions: (  60, 144, 240)

     Smooth grid:   504115 G-vectors     FFT dimensions: (  50, 120, 192)

     Dynamical RAM for                 wfc:       1.32 MB

     Dynamical RAM for     wfc (w. buffer):      11.89 MB

     Dynamical RAM for           str. fact:       0.66 MB

     Dynamical RAM for           local pot:       0.00 MB

     Dynamical RAM for          nlocal pot:       6.31 MB

     Dynamical RAM for                qrad:      14.80 MB

     Dynamical RAM for          rho,v,vnew:       1.45 MB

     Dynamical RAM for               rhoin:       0.48 MB

     Dynamical RAM for            rho*nmix:       3.53 MB

     Dynamical RAM for           G-vectors:       0.89 MB

     Dynamical RAM for          h,s,v(r/c):       1.42 MB

     Dynamical RAM for          <psi|beta>:       0.56 MB

     Dynamical RAM for                 psi:       2.64 MB

     Dynamical RAM for                hpsi:       2.64 MB

     Dynamical RAM for                spsi:       2.64 MB

     Dynamical RAM for      wfcinit/wfcrot:       3.37 MB

     Dynamical RAM for           addusdens:     132.49 MB

     Dynamical RAM for          addusforce:     137.61 MB

     Dynamical RAM for         addusstress:     135.80 MB

     Estimated static dynamical RAM per process >      42.22 MB

     Estimated max dynamical RAM per process >     179.83 MB

     Estimated total dynamical RAM >      11.24 GB

     Initial potential from superposition of free atoms

     starting charge  175.83511, renormalised to  176.00000
     Starting wfcs are  104 randomized atomic wfcs
     Checking if some PAW data can be deallocated... 
       PAW data deallocated on   48 nodes for type:  1
       PAW data deallocated on   52 nodes for type:  2
       PAW data deallocated on   28 nodes for type:  3

     total cpu time spent up to now is       15.8 secs

     Self-consistent Calculation

     iteration #  1     ecut=    70.00 Ry     beta= 0.50
     Davidson diagonalization with overlap
     ethr =  1.00E-02,  avg # of iterations =  1.0

     Threshold (ethr) on eigenvalues was too large:
     Diagonalizing with lowered threshold

     Davidson diagonalization with overlap
     ethr =  3.14E-04,  avg # of iterations =  3.6

     total cpu time spent up to now is       36.3 secs

     total energy              =   -7979.49207867 Ry
     estimated scf accuracy    <       0.45142325 Ry

     iteration #  2     ecut=    70.00 Ry     beta= 0.50
     Davidson diagonalization with overlap
     ethr =  2.56E-04,  avg # of iterations =  4.1

     total cpu time spent up to now is       48.5 secs

     total energy              =   -7979.63680086 Ry
     estimated scf accuracy    <       0.11321616 Ry

     iteration #  3     ecut=    70.00 Ry     beta= 0.50
     Davidson diagonalization with overlap
     ethr =  6.43E-05,  avg # of iterations =  2.0

     total cpu time spent up to now is       58.9 secs

     total energy              =   -7979.65439051 Ry
     estimated scf accuracy    <       0.01144213 Ry

     iteration #  4     ecut=    70.00 Ry     beta= 0.50
     Davidson diagonalization with overlap
     ethr =  6.50E-06,  avg # of iterations =  7.4

     total cpu time spent up to now is       73.7 secs

     total energy              =   -7979.66189250 Ry
     estimated scf accuracy    <       0.01120724 Ry

     iteration #  5     ecut=    70.00 Ry     beta= 0.50
     Davidson diagonalization with overlap
     ethr =  6.37E-06,  avg # of iterations =  4.9

     total cpu time spent up to now is       85.2 secs

     total energy              =   -7979.66495753 Ry
     estimated scf accuracy    <       0.00075979 Ry

     iteration #  6     ecut=    70.00 Ry     beta= 0.50
     Davidson diagonalization with overlap
     ethr =  4.32E-07,  avg # of iterations =  5.1

     total cpu time spent up to now is       97.8 secs

     total energy              =   -7979.66505535 Ry
     estimated scf accuracy    <       0.00052870 Ry

     iteration #  7     ecut=    70.00 Ry     beta= 0.50
     Davidson diagonalization with overlap
     ethr =  3.00E-07,  avg # of iterations =  4.0

     total cpu time spent up to now is      108.8 secs

     total energy              =   -7979.66521760 Ry
     estimated scf accuracy    <       0.00004418 Ry

     iteration #  8     ecut=    70.00 Ry     beta= 0.50
     Davidson diagonalization with overlap
     ethr =  2.51E-08,  avg # of iterations =  5.6

     total cpu time spent up to now is      122.0 secs

     total energy              =   -7979.66519812 Ry
     estimated scf accuracy    <       0.00009070 Ry

     iteration #  9     ecut=    70.00 Ry     beta= 0.50
     Davidson diagonalization with overlap
     ethr =  2.51E-08,  avg # of iterations =  5.2

     total cpu time spent up to now is      134.7 secs

     total energy              =   -7979.66521797 Ry
     estimated scf accuracy    <       0.00000350 Ry

     iteration # 10     ecut=    70.00 Ry     beta= 0.50
     Davidson diagonalization with overlap
     ethr =  1.99E-09,  avg # of iterations =  4.1

     total cpu time spent up to now is      145.9 secs

     End of self-consistent calculation

          k = 0.1250 0.0561 0.0333 ( 62959 PWs)   bands (ev):

   -17.8670 -17.8670 -17.8668 -17.8668 -17.8644 -17.8644 -17.8641 -17.8641
   -17.8551 -17.8551 -17.8544 -17.8544 -17.8503 -17.8503 -17.8489 -17.8489
   -17.8440 -17.8440 -17.8427 -17.8427 -17.7808 -17.7806 -17.7800 -17.7798
    -8.7738  -8.7534  -8.5807  -8.5372  -8.4511  -8.4362  -8.4048  -8.3759
    -8.2753  -8.2633  -8.2418  -8.2125  -4.6110  -4.6087  -4.6041  -4.5985
    -4.5911  -4.5822  -4.5785  -4.5766  -4.5703  -4.5637  -4.5443  -4.5424
    -2.9349  -2.9210  -2.8479  -2.7955   0.1936   0.3499   0.6722   0.7169
     0.8029   0.8628   0.9294   0.9773   1.1481   1.1505   1.1795   1.2338
     1.3901   1.4652   1.4992   1.5533   1.6698   1.7442   1.7875   1.8257
     1.8995   1.9287   1.9880   1.9936   2.0617   2.0820   2.1212   2.1450
     2.1560   2.2258   2.3022   2.3246   2.6051   2.6786   2.7875   2.9962

     occupation numbers 
     1.0000   1.0000   1.0000   1.0000   1.0000   1.0000   1.0000   1.0000
     1.0000   1.0000   1.0000   1.0000   1.0000   1.0000   1.0000   1.0000
     1.0000   1.0000   1.0000   1.0000   1.0000   1.0000   1.0000   1.0000
     1.0000   1.0000   1.0000   1.0000   1.0000   1.0000   1.0000   1.0000
     1.0000   1.0000   1.0000   1.0000   1.0000   1.0000   1.0000   1.0000
     1.0000   1.0000   1.0000   1.0000   1.0000   1.0000   1.0000   1.0000
     1.0000   1.0000   1.0000   1.0000   1.0000   1.0000   1.0000   1.0000
     1.0000   1.0000   1.0000   1.0000   1.0000   1.0000   1.0000   1.0000
     1.0000   1.0000   1.0000   1.0000   1.0000   1.0000   1.0000   1.0000
     1.0000   1.0000   1.0000   1.0000   1.0000   1.0000   1.0000   1.0000
     1.0000   1.0000   1.0000   1.0000   1.0000   1.0000   1.0000   1.0000

          k = 0.1250 0.0561 0.0999 ( 62971 PWs)   bands (ev):

   -17.8670 -17.8670 -17.8668 -17.8668 -17.8644 -17.8644 -17.8641 -17.8641
   -17.8551 -17.8551 -17.8544 -17.8544 -17.8503 -17.8503 -17.8489 -17.8489
   -17.8440 -17.8440 -17.8428 -17.8427 -17.7808 -17.7807 -17.7799 -17.7799
    -8.7685  -8.7602  -8.5673  -8.5493  -8.4491  -8.4436  -8.3937  -8.3823
    -8.2733  -8.2687  -8.2307  -8.2193  -4.6122  -4.6110  -4.6015  -4.5964
    -4.5915  -4.5864  -4.5769  -4.5763  -4.5682  -4.5654  -4.5433  -4.5424
    -2.9320  -2.9265  -2.8312  -2.8098   0.2328   0.2961   0.7006   0.7265
     0.7877   0.8159   0.9772   1.0012   1.1452   1.1495   1.1746   1.1978
     1.4050   1.4316   1.5222   1.5815   1.6892   1.7485   1.7605   1.7940
     1.8811   1.9161   1.9721   1.9884   2.0877   2.0914   2.1266   2.1328
     2.1946   2.2319   2.3075   2.3195   2.6241   2.6534   2.8471   2.9334

     occupation numbers 
     1.0000   1.0000   1.0000   1.0000   1.0000   1.0000   1.0000   1.0000
     1.0000   1.0000   1.0000   1.0000   1.0000   1.0000   1.0000   1.0000
     1.0000   1.0000   1.0000   1.0000   1.0000   1.0000   1.0000   1.0000
     1.0000   1.0000   1.0000   1.0000   1.0000   1.0000   1.0000   1.0000
     1.0000   1.0000   1.0000   1.0000   1.0000   1.0000   1.0000   1.0000
     1.0000   1.0000   1.0000   1.0000   1.0000   1.0000   1.0000   1.0000
     1.0000   1.0000   1.0000   1.0000   1.0000   1.0000   1.0000   1.0000
     1.0000   1.0000   1.0000   1.0000   1.0000   1.0000   1.0000   1.0000
     1.0000   1.0000   1.0000   1.0000   1.0000   1.0000   1.0000   1.0000
     1.0000   1.0000   1.0000   1.0000   1.0000   1.0000   1.0000   1.0000
     1.0000   1.0000   1.0000   1.0000   1.0000   1.0000   1.0000   1.0000

          k = 0.1250 0.1683 0.0333 ( 62987 PWs)   bands (ev):

   -17.8670 -17.8670 -17.8668 -17.8668 -17.8644 -17.8644 -17.8641 -17.8641
   -17.8551 -17.8551 -17.8544 -17.8544 -17.8503 -17.8503 -17.8489 -17.8489
   -17.8440 -17.8440 -17.8428 -17.8427 -17.7806 -17.7804 -17.7802 -17.7800
    -8.7538  -8.7438  -8.5923  -8.5826  -8.4735  -8.4721  -8.3569  -8.3413
    -8.2624  -8.2548  -8.2449  -8.2245  -4.6140  -4.6128  -4.6005  -4.5976
    -4.5945  -4.5878  -4.5797  -4.5784  -4.5621  -4.5562  -4.5525  -4.5490
    -2.9362  -2.9292  -2.8197  -2.7989   0.2547   0.3171   0.5980   0.6408
     0.7746   0.8190   0.9516   0.9918   1.1258   1.1636   1.2827   1.3308
     1.4705   1.5199   1.5513   1.6189   1.6370   1.6826   1.7510   1.8248
     1.8696   1.8982   1.9779   1.9913   2.0215   2.0700   2.1666   2.1699
     2.1863   2.2241   2.2549   2.2785   2.5416   2.6064   2.8856   2.9450

     occupation numbers 
     1.0000   1.0000   1.0000   1.0000   1.0000   1.0000   1.0000   1.0000
     1.0000   1.0000   1.0000   1.0000   1.0000   1.0000   1.0000   1.0000
     1.0000   1.0000   1.0000   1.0000   1.0000   1.0000   1.0000   1.0000
     1.0000   1.0000   1.0000   1.0000   1.0000   1.0000   1.0000   1.0000
     1.0000   1.0000   1.0000   1.0000   1.0000   1.0000   1.0000   1.0000
     1.0000   1.0000   1.0000   1.0000   1.0000   1.0000   1.0000   1.0000
     1.0000   1.0000   1.0000   1.0000   1.0000   1.0000   1.0000   1.0000
     1.0000   1.0000   1.0000   1.0000   1.0000   1.0000   1.0000   1.0000
     1.0000   1.0000   1.0000   1.0000   1.0000   1.0000   1.0000   1.0000
     1.0000   1.0000   1.0000   1.0000   1.0000   1.0000   1.0000   1.0000
     1.0000   1.0000   1.0000   1.0000   1.0000   1.0000   1.0000   1.0000

          k = 0.1250 0.1683 0.0999 ( 63001 PWs)   bands (ev):

   -17.8670 -17.8670 -17.8668 -17.8668 -17.8644 -17.8644 -17.8641 -17.8641
   -17.8551 -17.8551 -17.8544 -17.8544 -17.8503 -17.8503 -17.8489 -17.8489
   -17.8440 -17.8440 -17.8427 -17.8427 -17.7805 -17.7805 -17.7801 -17.7801
    -8.7511  -8.7470  -8.5891  -8.5851  -8.4730  -8.4716  -8.3549  -8.3483
    -8.2588  -8.2528  -8.2407  -8.2307  -4.6129  -4.6115  -4.6046  -4.6021
    -4.5905  -4.5884  -4.5787  -4.5783  -4.5601  -4.5577  -4.5509  -4.5495
    -2.9338  -2.9308  -2.8141  -2.8055   0.2772   0.3040   0.5992   0.6183
     0.8020   0.8509   0.9201   0.9708   1.1143   1.1272   1.3010   1.3192
     1.5012   1.5467   1.5631   1.5935   1.6776   1.7000   1.7256   1.7734
     1.8831   1.9062   1.9787   1.9879   2.0485   2.0645   2.1703   2.1751
     2.1773   2.2023   2.2652   2.2743   2.5668   2.5943   2.8924   2.9178

     occupation numbers 
     1.0000   1.0000   1.0000   1.0000   1.0000   1.0000   1.0000   1.0000
     1.0000   1.0000   1.0000   1.0000   1.0000   1.0000   1.0000   1.0000
     1.0000   1.0000   1.0000   1.0000   1.0000   1.0000   1.0000   1.0000
     1.0000   1.0000   1.0000   1.0000   1.0000   1.0000   1.0000   1.0000
     1.0000   1.0000   1.0000   1.0000   1.0000   1.0000   1.0000   1.0000
     1.0000   1.0000   1.0000   1.0000   1.0000   1.0000   1.0000   1.0000
     1.0000   1.0000   1.0000   1.0000   1.0000   1.0000   1.0000   1.0000
     1.0000   1.0000   1.0000   1.0000   1.0000   1.0000   1.0000   1.0000
     1.0000   1.0000   1.0000   1.0000   1.0000   1.0000   1.0000   1.0000
     1.0000   1.0000   1.0000   1.0000   1.0000   1.0000   1.0000   1.0000
     1.0000   1.0000   1.0000   1.0000   1.0000   1.0000   1.0000   1.0000

          k = 0.3750 0.0561 0.0333 ( 63019 PWs)   bands (ev):

   -17.8669 -17.8669 -17.8668 -17.8668 -17.8659 -17.8659 -17.8659 -17.8659
   -17.8548 -17.8548 -17.8546 -17.8546 -17.8479 -17.8479 -17.8473 -17.8473
   -17.8441 -17.8441 -17.8436 -17.8435 -17.7727 -17.7726 -17.7721 -17.7720
    -8.5799  -8.5710  -8.4773  -8.4663  -8.3538  -8.3447  -8.3244  -8.3134
    -8.2807  -8.2752  -8.2639  -8.2554  -4.7544  -4.7517  -4.7025  -4.6988
    -4.6012  -4.5984  -4.5935  -4.5906  -4.5792  -4.5713  -4.5592  -4.5575
    -3.1757  -3.1514  -3.1016  -3.0840   0.1461   0.1612   0.2276   0.2331
     0.5313   0.5505   0.6349   0.6576   0.6688   0.7925   0.9923   1.0699
     1.2805   1.3767   1.5239   1.5906   1.6240   1.7015   1.7166   1.7811
     1.7892   1.8204   1.8444   1.8619   1.8969   1.9203   1.9715   1.9990
     2.0376   2.1396   2.1654   2.2112   2.5567   2.7867   2.8533   3.0074

     occupation numbers 
     1.0000   1.0000   1.0000   1.0000   1.0000   1.0000   1.0000   1.0000
     1.0000   1.0000   1.0000   1.0000   1.0000   1.0000   1.0000   1.0000
     1.0000   1.0000   1.0000   1.0000   1.0000   1.0000   1.0000   1.0000
     1.0000   1.0000   1.0000   1.0000   1.0000   1.0000   1.0000   1.0000
     1.0000   1.0000   1.0000   1.0000   1.0000   1.0000   1.0000   1.0000
     1.0000   1.0000   1.0000   1.0000   1.0000   1.0000   1.0000   1.0000
     1.0000   1.0000   1.0000   1.0000   1.0000   1.0000   1.0000   1.0000
     1.0000   1.0000   1.0000   1.0000   1.0000   1.0000   1.0000   1.0000
     1.0000   1.0000   1.0000   1.0000   1.0000   1.0000   1.0000   1.0000
     1.0000   1.0000   1.0000   1.0000   1.0000   1.0000   1.0000   1.0000
     1.0000   1.0000   1.0000   1.0000   1.0000   1.0000   1.0000   1.0000

          k = 0.3750 0.0561 0.0999 ( 63024 PWs)   bands (ev):

   -17.8669 -17.8669 -17.8668 -17.8668 -17.8659 -17.8659 -17.8659 -17.8659
   -17.8548 -17.8548 -17.8546 -17.8546 -17.8479 -17.8479 -17.8473 -17.8473
   -17.8441 -17.8441 -17.8435 -17.8435 -17.7726 -17.7726 -17.7720 -17.7720
    -8.5775  -8.5738  -8.4739  -8.4694  -8.3514  -8.3478  -8.3212  -8.3167
    -8.2791  -8.2768  -8.2611  -8.2576  -4.7536  -4.7525  -4.7013  -4.6998
    -4.6013  -4.6003  -4.5921  -4.5907  -4.5768  -4.5735  -4.5586  -4.5579
    -3.1691  -3.1591  -3.0960  -3.0888   0.1512   0.1568   0.2263   0.2305
     0.5531   0.5900   0.6282   0.6513   0.6684   0.7399   1.0017   1.0395
     1.3075   1.3453   1.5497   1.5717   1.6443   1.6807   1.7375   1.7862
     1.7883   1.8138   1.8706   1.8937   1.9008   1.9200   1.9434   1.9540
     2.0725   2.1192   2.1812   2.2028   2.6157   2.7070   2.9080   2.9674

     occupation numbers 
     1.0000   1.0000   1.0000   1.0000   1.0000   1.0000   1.0000   1.0000
     1.0000   1.0000   1.0000   1.0000   1.0000   1.0000   1.0000   1.0000
     1.0000   1.0000   1.0000   1.0000   1.0000   1.0000   1.0000   1.0000
     1.0000   1.0000   1.0000   1.0000   1.0000   1.0000   1.0000   1.0000
     1.0000   1.0000   1.0000   1.0000   1.0000   1.0000   1.0000   1.0000
     1.0000   1.0000   1.0000   1.0000   1.0000   1.0000   1.0000   1.0000
     1.0000   1.0000   1.0000   1.0000   1.0000   1.0000   1.0000   1.0000
     1.0000   1.0000   1.0000   1.0000   1.0000   1.0000   1.0000   1.0000
     1.0000   1.0000   1.0000   1.0000   1.0000   1.0000   1.0000   1.0000
     1.0000   1.0000   1.0000   1.0000   1.0000   1.0000   1.0000   1.0000
     1.0000   1.0000   1.0000   1.0000   1.0000   1.0000   1.0000   1.0000

          k = 0.3750 0.1683 0.0333 ( 63042 PWs)   bands (ev):

   -17.8670 -17.8669 -17.8668 -17.8668 -17.8659 -17.8659 -17.8659 -17.8659
   -17.8548 -17.8548 -17.8546 -17.8546 -17.8479 -17.8479 -17.8473 -17.8473
   -17.8441 -17.8441 -17.8435 -17.8435 -17.7725 -17.7724 -17.7722 -17.7721
    -8.5701  -8.5660  -8.4827  -8.4789  -8.3700  -8.3662  -8.3021  -8.2981
    -8.2737  -8.2697  -8.2673  -8.2610  -4.7411  -4.7358  -4.7195  -4.7138
    -4.5990  -4.5966  -4.5948  -4.5927  -4.5740  -4.5670  -4.5656  -4.5611
    -3.1559  -3.1452  -3.1078  -3.1011   0.1911   0.2016   0.3018   0.3055
     0.4918   0.5074   0.5561   0.5735   0.6523   0.6881   1.0277   1.0558
     1.3802   1.4026   1.4581   1.5619   1.6253   1.6647   1.7438   1.7454
     1.7937   1.8067   1.8253   1.8602   1.9100   1.9231   1.9683   2.0235
     2.0654   2.1092   2.1558   2.1877   2.7038   2.8703   2.9203   2.9433

     occupation numbers 
     1.0000   1.0000   1.0000   1.0000   1.0000   1.0000   1.0000   1.0000
     1.0000   1.0000   1.0000   1.0000   1.0000   1.0000   1.0000   1.0000
     1.0000   1.0000   1.0000   1.0000   1.0000   1.0000   1.0000   1.0000
     1.0000   1.0000   1.0000   1.0000   1.0000   1.0000   1.0000   1.0000
     1.0000   1.0000   1.0000   1.0000   1.0000   1.0000   1.0000   1.0000
     1.0000   1.0000   1.0000   1.0000   1.0000   1.0000   1.0000   1.0000
     1.0000   1.0000   1.0000   1.0000   1.0000   1.0000   1.0000   1.0000
     1.0000   1.0000   1.0000   1.0000   1.0000   1.0000   1.0000   1.0000
     1.0000   1.0000   1.0000   1.0000   1.0000   1.0000   1.0000   1.0000
     1.0000   1.0000   1.0000   1.0000   1.0000   1.0000   1.0000   1.0000
     1.0000   1.0000   1.0000   1.0000   1.0000   1.0000   1.0000   1.0000

          k = 0.3750 0.1683 0.0999 ( 63038 PWs)   bands (ev):

   -17.8670 -17.8670 -17.8668 -17.8668 -17.8659 -17.8659 -17.8659 -17.8659
   -17.8548 -17.8548 -17.8546 -17.8546 -17.8479 -17.8479 -17.8473 -17.8473
   -17.8441 -17.8441 -17.8435 -17.8435 -17.7725 -17.7724 -17.7722 -17.7722
    -8.5689  -8.5672  -8.4816  -8.4800  -8.3688  -8.3672  -8.3012  -8.2995
    -8.2726  -8.2709  -8.2652  -8.2626  -4.7395  -4.7373  -4.7178  -4.7154
    -4.5990  -4.5983  -4.5937  -4.5929  -4.5718  -4.5690  -4.5640  -4.5622
    -3.1529  -3.1485  -3.1057  -3.1030   0.1953   0.2000   0.2973   0.2992
     0.4934   0.5029   0.5601   0.5674   0.6826   0.6991   1.0198   1.0328
     1.3522   1.3628   1.5204   1.5412   1.6589   1.6824   1.7330   1.7608
     1.7789   1.8142   1.8245   1.8370   1.9189   1.9294   1.9698   2.0066
     2.0642   2.0943   2.1730   2.1873   2.7533   2.8244   2.9254   2.9383

     occupation numbers 
     1.0000   1.0000   1.0000   1.0000   1.0000   1.0000   1.0000   1.0000
     1.0000   1.0000   1.0000   1.0000   1.0000   1.0000   1.0000   1.0000
     1.0000   1.0000   1.0000   1.0000   1.0000   1.0000   1.0000   1.0000
     1.0000   1.0000   1.0000   1.0000   1.0000   1.0000   1.0000   1.0000
     1.0000   1.0000   1.0000   1.0000   1.0000   1.0000   1.0000   1.0000
     1.0000   1.0000   1.0000   1.0000   1.0000   1.0000   1.0000   1.0000
     1.0000   1.0000   1.0000   1.0000   1.0000   1.0000   1.0000   1.0000
     1.0000   1.0000   1.0000   1.0000   1.0000   1.0000   1.0000   1.0000
     1.0000   1.0000   1.0000   1.0000   1.0000   1.0000   1.0000   1.0000
     1.0000   1.0000   1.0000   1.0000   1.0000   1.0000   1.0000   1.0000
     1.0000   1.0000   1.0000   1.0000   1.0000   1.0000   1.0000   1.0000

     highest occupied level (ev):     3.0074

!    total energy              =   -7979.66521865 Ry

     total all-electron energy =   -282510.819931 Ry
     estimated scf accuracy    <       0.00000047 Ry

     The total energy is the sum of the following terms:
     one-electron contribution =    -463.68878750 Ry
     hartree contribution      =     316.62159347 Ry
     xc contribution           =    -465.89484502 Ry
     ewald contribution        =    -633.56960439 Ry
     one-center paw contrib.   =   -6733.13357522 Ry
      -> PAW hartree energy AE =      25.63392868 Ry
      -> PAW hartree energy PS =     -25.52436210 Ry
      -> PAW xc energy AE      =    -383.53031304 Ry
      -> PAW xc energy PS      =      20.51495667 Ry
      -> total E_H with PAW    =     316.73116005 Ry
      -> total E_XC with PAW   =    -828.91020138 Ry

     convergence has been achieved in  10 iterations

     Forces acting on atoms (cartesian axes, Ry/au):

     atom    1 type  1   force =     0.00000000   -0.00059095    0.00038185
     atom    2 type  1   force =     0.00000000    0.00059095   -0.00038185
     atom    3 type  1   force =     0.00000000   -0.00059095   -0.00038185
     atom    4 type  1   force =     0.00000000    0.00059095    0.00038185
     atom    5 type  2   force =    -0.00000000   -0.00097994    0.00007486
     atom    6 type  2   force =     0.00000000    0.00097994   -0.00007486
     atom    7 type  2   force =     0.00000000   -0.00097994   -0.00007486
     atom    8 type  2   force =     0.00000000    0.00097994    0.00007486
     atom    9 type  3   force =     0.00000000   -0.00017127   -0.00032775
     atom   10 type  3   force =     0.00000000    0.00017127    0.00032775
     atom   11 type  3   force =     0.00000000   -0.00017127    0.00032775
     atom   12 type  3   force =     0.00000000    0.00017127   -0.00032775
     atom   13 type  3   force =     0.00000000   -0.00024557   -0.00038542
     atom   14 type  3   force =    -0.00000000    0.00024557    0.00038542
     atom   15 type  3   force =     0.00000000   -0.00024557    0.00038542
     atom   16 type  3   force =     0.00000000    0.00024557   -0.00038542
     atom   17 type  3   force =     0.00000000   -0.00011108    0.00019748
     atom   18 type  3   force =     0.00000000    0.00011108   -0.00019748
     atom   19 type  3   force =     0.00000000   -0.00011108   -0.00019748
     atom   20 type  3   force =     0.00000000    0.00011108    0.00019748
     The non-local contrib.  to forces
     atom    1 type  1   force =     0.00000000    0.00227792   -0.00232228
     atom    2 type  1   force =     0.00000000   -0.00227792    0.00232228
     atom    3 type  1   force =     0.00000000    0.00227792    0.00232228
     atom    4 type  1   force =     0.00000000   -0.00227792   -0.00232228
     atom    5 type  2   force =     0.00000000   -0.08728263   -0.13209003
     atom    6 type  2   force =     0.00000000    0.08728263    0.13209003
     atom    7 type  2   force =     0.00000000   -0.08728263    0.13209003
     atom    8 type  2   force =     0.00000000    0.08728263   -0.13209003
     atom    9 type  3   force =     0.00000000   -0.04770657   -0.04695270
     atom   10 type  3   force =     0.00000000    0.04770657    0.04695270
     atom   11 type  3   force =     0.00000000   -0.04770657    0.04695270
     atom   12 type  3   force =     0.00000000    0.04770657   -0.04695270
     atom   13 type  3   force =     0.00000000   -0.03292029    0.05578915
     atom   14 type  3   force =     0.00000000    0.03292029   -0.05578915
     atom   15 type  3   force =    -0.00000000   -0.03292029   -0.05578915
     atom   16 type  3   force =     0.00000000    0.03292029    0.05578915
     atom   17 type  3   force =     0.00000000    0.05480497   -0.01625213
     atom   18 type  3   force =     0.00000000   -0.05480497    0.01625213
     atom   19 type  3   force =     0.00000000    0.05480497    0.01625213
     atom   20 type  3   force =     0.00000000   -0.05480497   -0.01625213
     The ionic contribution  to forces
     atom    1 type  1   force =    -0.00000000    0.02273773    0.42856976
     atom    2 type  1   force =    -0.00000000   -0.02273773   -0.42856976
     atom    3 type  1   force =    -0.00000000    0.02273773   -0.42856976
     atom    4 type  1   force =     0.00000000   -0.02273773    0.42856976
     atom    5 type  2   force =    -0.00000000   -2.44382135   -1.60292983
     atom    6 type  2   force =     0.00000000    2.44382135    1.60292983
     atom    7 type  2   force =    -0.00000000   -2.44382135    1.60292983
     atom    8 type  2   force =     0.00000000    2.44382135   -1.60292983
     atom    9 type  3   force =    -0.00000000    3.00608891    5.13288893
     atom   10 type  3   force =     0.00000000   -3.00608891   -5.13288893
     atom   11 type  3   force =    -0.00000000    3.00608891   -5.13288893
     atom   12 type  3   force =    -0.00000000   -3.00608891    5.13288893
     atom   13 type  3   force =     0.00000000    2.02422849   -3.75281499
     atom   14 type  3   force =     0.00000000   -2.02422849    3.75281499
     atom   15 type  3   force =    -0.00000000    2.02422849    3.75281499
     atom   16 type  3   force =     0.00000000   -2.02422849   -3.75281499
     atom   17 type  3   force =     0.00000000   -4.20564473    2.10270404
     atom   18 type  3   force =    -0.00000000    4.20564473   -2.10270404
     atom   19 type  3   force =     0.00000000   -4.20564473   -2.10270404
     atom   20 type  3   force =    -0.00000000    4.20564473    2.10270404
     The local contribution  to forces
     atom    1 type  1   force =    -0.00000000   -0.02538394   -0.42613644
     atom    2 type  1   force =     0.00000000    0.02538394    0.42613644
     atom    3 type  1   force =     0.00000000   -0.02538394    0.42613644
     atom    4 type  1   force =    -0.00000000    0.02538394   -0.42613644
     atom    5 type  2   force =    -0.00000000    2.53042061    1.73537074
     atom    6 type  2   force =    -0.00000000   -2.53042061   -1.73537074
     atom    7 type  2   force =    -0.00000000    2.53042061   -1.73537074
     atom    8 type  2   force =    -0.00000000   -2.53042061    1.73537074
     atom    9 type  3   force =    -0.00000000   -2.96498042   -5.09301813
     atom   10 type  3   force =     0.00000000    2.96498042    5.09301813
     atom   11 type  3   force =    -0.00000000   -2.96498042    5.09301813
     atom   12 type  3   force =     0.00000000    2.96498042   -5.09301813
     atom   13 type  3   force =    -0.00000000   -1.99595367    3.70418567
     atom   14 type  3   force =     0.00000000    1.99595367   -3.70418567
     atom   15 type  3   force =    -0.00000000   -1.99595367   -3.70418567
     atom   16 type  3   force =     0.00000000    1.99595367    3.70418567
     atom   17 type  3   force =    -0.00000000    4.15837754   -2.08870219
     atom   18 type  3   force =     0.00000000   -4.15837754    2.08870219
     atom   19 type  3   force =    -0.00000000    4.15837754    2.08870219
     atom   20 type  3   force =     0.00000000   -4.15837754   -2.08870219
     The core correction contribution to forces
     atom    1 type  1   force =     0.00000000   -0.00017266    0.00017860
     atom    2 type  1   force =     0.00000000    0.00017266   -0.00017860
     atom    3 type  1   force =    -0.00000000   -0.00017266   -0.00017860
     atom    4 type  1   force =     0.00000000    0.00017266    0.00017860
     atom    5 type  2   force =     0.00000000    0.00017053    0.00008731
     atom    6 type  2   force =    -0.00000000   -0.00017053   -0.00008731
     atom    7 type  2   force =     0.00000000    0.00017053   -0.00008731
     atom    8 type  2   force =    -0.00000000   -0.00017053    0.00008731
     atom    9 type  3   force =    -0.00000000    0.00633891    0.00646386
     atom   10 type  3   force =    -0.00000000   -0.00633891   -0.00646386
     atom   11 type  3   force =    -0.00000000    0.00633891   -0.00646386
     atom   12 type  3   force =     0.00000000   -0.00633891    0.00646386
     atom   13 type  3   force =    -0.00000000    0.00434874   -0.00744748
     atom   14 type  3   force =     0.00000000   -0.00434874    0.00744748
     atom   15 type  3   force =    -0.00000000    0.00434874    0.00744748
     atom   16 type  3   force =     0.00000000   -0.00434874   -0.00744748
     atom   17 type  3   force =     0.00000000   -0.00751613    0.00243767
     atom   18 type  3   force =    -0.00000000    0.00751613   -0.00243767
     atom   19 type  3   force =    -0.00000000   -0.00751613   -0.00243767
     atom   20 type  3   force =    -0.00000000    0.00751613    0.00243767
     The Hubbard contrib.    to forces
     atom    1 type  1   force =     0.00000000    0.00000000    0.00000000
     atom    2 type  1   force =     0.00000000    0.00000000    0.00000000
     atom    3 type  1   force =     0.00000000    0.00000000    0.00000000
     atom    4 type  1   force =     0.00000000    0.00000000    0.00000000
     atom    5 type  2   force =     0.00000000    0.00000000    0.00000000
     atom    6 type  2   force =     0.00000000    0.00000000    0.00000000
     atom    7 type  2   force =     0.00000000    0.00000000    0.00000000
     atom    8 type  2   force =     0.00000000    0.00000000    0.00000000
     atom    9 type  3   force =     0.00000000    0.00000000    0.00000000
     atom   10 type  3   force =     0.00000000    0.00000000    0.00000000
     atom   11 type  3   force =     0.00000000    0.00000000    0.00000000
     atom   12 type  3   force =     0.00000000    0.00000000    0.00000000
     atom   13 type  3   force =     0.00000000    0.00000000    0.00000000
     atom   14 type  3   force =     0.00000000    0.00000000    0.00000000
     atom   15 type  3   force =     0.00000000    0.00000000    0.00000000
     atom   16 type  3   force =     0.00000000    0.00000000    0.00000000
     atom   17 type  3   force =     0.00000000    0.00000000    0.00000000
     atom   18 type  3   force =     0.00000000    0.00000000    0.00000000
     atom   19 type  3   force =     0.00000000    0.00000000    0.00000000
     atom   20 type  3   force =     0.00000000    0.00000000    0.00000000
     The SCF correction term to forces
     atom    1 type  1   force =    -0.00000000   -0.00005001    0.00009220
     atom    2 type  1   force =     0.00000000    0.00005001   -0.00009220
     atom    3 type  1   force =    -0.00000000   -0.00005001   -0.00009220
     atom    4 type  1   force =    -0.00000000    0.00005001    0.00009220
     atom    5 type  2   force =     0.00000000   -0.00046709   -0.00036332
     atom    6 type  2   force =    -0.00000000    0.00046709    0.00036332
     atom    7 type  2   force =     0.00000000   -0.00046709    0.00036332
     atom    8 type  2   force =     0.00000000    0.00046709   -0.00036332
     atom    9 type  3   force =    -0.00000000    0.00008790    0.00029028
     atom   10 type  3   force =     0.00000000   -0.00008790   -0.00029028
     atom   11 type  3   force =    -0.00000000    0.00008790   -0.00029028
     atom   12 type  3   force =    -0.00000000   -0.00008790    0.00029028
     atom   13 type  3   force =    -0.00000000    0.00005117   -0.00009777
     atom   14 type  3   force =     0.00000000   -0.00005117    0.00009777
     atom   15 type  3   force =    -0.00000000    0.00005117    0.00009777
     atom   16 type  3   force =     0.00000000   -0.00005117   -0.00009777
     atom   17 type  3   force =     0.00000000   -0.00013273    0.00001009
     atom   18 type  3   force =    -0.00000000    0.00013273   -0.00001009
     atom   19 type  3   force =     0.00000000   -0.00013273   -0.00001009
     atom   20 type  3   force =    -0.00000000    0.00013273    0.00001009

     Total force =     0.002726     Total SCF correction =     0.001390
     SCF correction compared to forces is large: reduce conv_thr to get better values


     Computing stress (Cartesian axis) and pressure

          total   stress  (Ry/bohr**3)                   (kbar)     P=       -0.84
  -0.00000602   0.00000000   0.00000000           -0.89        0.00        0.00
   0.00000000  -0.00000550   0.00000000            0.00       -0.81        0.00
   0.00000000   0.00000000  -0.00000561            0.00        0.00       -0.83

     kinetic stress (kbar)   5522.73      0.00      0.00
                                0.00   5534.45      0.00
                                0.00      0.00   5528.35

     local   stress (kbar)  -4517.42      0.00     -0.00
                                0.00  -1885.91      0.00
                               -0.00      0.00   -992.21

     nonloc. stress (kbar)   1141.23      0.00      0.00
                                0.00   1139.98      0.00
                                0.00      0.00   1142.53

     hartree stress (kbar)   3402.88      0.00     -0.00
                                0.00   2189.03      0.00
                               -0.00      0.00   1719.34

     exc-cor stress (kbar)   5446.68      0.00      0.00
                                0.00   5446.34      0.00
                                0.00      0.00   5446.77

     corecor stress (kbar)  -7212.20     -0.00     -0.00
                               -0.00  -7212.55     -0.00
                               -0.00     -0.00  -7212.51

     ewald   stress (kbar)  -3784.80     -0.00     -0.00
                               -0.00  -5212.16      0.00
                               -0.00      0.00  -5633.09

     hubbard stress (kbar)      0.00      0.00      0.00
                                0.00      0.00      0.00
                                0.00      0.00      0.00

     DFT-D   stress (kbar)      0.00      0.00      0.00
                                0.00      0.00      0.00
                                0.00      0.00      0.00

     XDM     stress (kbar)      0.00      0.00      0.00
                                0.00      0.00      0.00
                                0.00      0.00      0.00

     dft-nl  stress (kbar)      0.00      0.00      0.00
                                0.00      0.00      0.00
                                0.00      0.00      0.00

     TS-vdW  stress (kbar)      0.00      0.00      0.00
                                0.00      0.00      0.00
                                0.00      0.00      0.00



     Writing output data file ./CsSnI3.save/
 
     init_run     :      6.67s CPU      9.09s WALL (       1 calls)
     electrons    :    121.85s CPU    130.30s WALL (       1 calls)
     forces       :      3.58s CPU      3.80s WALL (       1 calls)
     stress       :     20.52s CPU     20.97s WALL (       1 calls)

     Called by init_run:
     wfcinit      :      2.81s CPU      3.38s WALL (       1 calls)
     wfcinit:atom :      0.02s CPU      0.03s WALL (       8 calls)
     wfcinit:wfcr :      2.63s CPU      3.14s WALL (       8 calls)
     potinit      :      1.08s CPU      2.16s WALL (       1 calls)
     hinit0       :      1.00s CPU      1.42s WALL (       1 calls)

     Called by electrons:
     c_bands      :     89.55s CPU     91.82s WALL (      11 calls)
     sum_band     :     19.59s CPU     22.78s WALL (      11 calls)
     v_of_rho     :      1.02s CPU      1.43s WALL (      11 calls)
     v_h          :      0.08s CPU      0.09s WALL (      11 calls)
     v_xc         :      1.10s CPU      1.44s WALL (      13 calls)
     newd         :      7.75s CPU      9.56s WALL (      11 calls)
     PAW_pot      :      4.82s CPU      5.45s WALL (      11 calls)
     mix_rho      :      0.26s CPU      0.54s WALL (      11 calls)

     Called by c_bands:
     init_us_2    :      2.30s CPU      2.35s WALL (     200 calls)
     cegterg      :     81.94s CPU     84.14s WALL (      88 calls)

     Called by sum_band:
     sum_band:wei :      0.00s CPU      0.00s WALL (      11 calls)
     sum_band:loo :     10.97s CPU     11.43s WALL (      11 calls)
     sum_band:buf :      0.22s CPU      0.23s WALL (      88 calls)
     sum_band:ini :      1.01s CPU      1.02s WALL (      88 calls)
     sum_band:cal :      2.24s CPU      2.52s WALL (      88 calls)
     sum_band:bec :      0.10s CPU      0.10s WALL (      88 calls)
     addusdens    :      8.31s CPU     11.03s WALL (      11 calls)
     addusd:skk   :      0.05s CPU      0.06s WALL (      33 calls)
     addusd:dgemm :      3.55s CPU      6.21s WALL (      33 calls)
     addusd:qvan2 :      4.40s CPU      4.41s WALL (      33 calls)

     Called by *egterg:
     cdiaghg      :      6.12s CPU      6.76s WALL (     457 calls)
     cegterg:over :      4.62s CPU      4.71s WALL (     377 calls)
     cegterg:upda :      2.46s CPU      2.47s WALL (     377 calls)
     cegterg:last :      4.36s CPU      4.38s WALL (     208 calls)
     h_psi        :     56.92s CPU     58.58s WALL (     473 calls)
     s_psi        :      7.10s CPU      7.34s WALL (     473 calls)
     g_psi        :      0.12s CPU      0.12s WALL (     377 calls)

     Called by h_psi:
     h_psi:calbec :      8.26s CPU      8.99s WALL (     473 calls)
     vloc_psi     :     41.06s CPU     41.87s WALL (     473 calls)
     add_vuspsi   :      7.10s CPU      7.21s WALL (     473 calls)

     General routines
     calbec       :     11.69s CPU     12.72s WALL (     601 calls)
     fft          :      1.06s CPU      1.15s WALL (     167 calls)
     ffts         :      0.06s CPU      0.06s WALL (      22 calls)
     fftw         :     45.25s CPU     46.14s WALL (   54038 calls)
     interpolate  :      0.10s CPU      0.10s WALL (      11 calls)
 
     Parallel routines
     fft_scatt_xy :      3.67s CPU      3.74s WALL (   54227 calls)
     fft_scatt_yz :     27.76s CPU     28.32s WALL (   54227 calls)

     PAW routines
     PAW_pot      :      4.82s CPU      5.45s WALL (      11 calls)
     PAW_symme    :      0.06s CPU      0.07s WALL (      22 calls)
 
     PWSCF        :   3m23.57s CPU   3m41.16s WALL

 
   This run was terminated on:  15:51:35  14Jan2021            

=------------------------------------------------------------------------------=
   JOB DONE.
=------------------------------------------------------------------------------=
