
     Program PWSCF v.6.7MaX starts on 15Jan2021 at 15:28:47 

     This program is part of the open-source Quantum ESPRESSO suite
     for quantum simulation of materials; please cite
         "P. Giannozzi et al., J. Phys.:Condens. Matter 21 395502 (2009);
         "P. Giannozzi et al., J. Phys.:Condens. Matter 29 465901 (2017);
          URL http://www.quantum-espresso.org", 
     in publications or presentations arising from this work. More details at
     http://www.quantum-espresso.org/quote

     Parallel version (MPI), running on    32 processors

     MPI processes distributed on     1 nodes
     R & G space division:  proc/nbgrp/npool/nimage =      32
     Waiting for input...
     Reading input from standard input

     Current dimensions of program PWSCF are:
     Max number of different atomic species (ntypx) = 10
     Max number of k-points (npk) =  40000
     Max angular momentum in pseudopotentials (lmaxx) =  3
     file Sn.pbe-dn-kjpaw_psl.1.0.0.UPF: wavefunction(s)  5S 5P 4D renormalized
     file I.pbe-n-kjpaw_psl.1.0.0.UPF: wavefunction(s)  5S renormalized

     Subspace diagonalization in iterative solution of the eigenvalue problem:
     a serial algorithm will be used

     Message from routine setup:
     using ibrav=0 with symmetry is DISCOURAGED, use correct ibrav instead

     Parallelization info
     --------------------
     sticks:   dense  smooth     PW     G-vecs:    dense   smooth      PW
     Min         144     144     40                 4560     4560     671
     Max         145     145     42                 4563     4563     673
     Sum        4637    4637   1305               145963   145963   21497


     Title: 
     SnI2tetr                                                                   


     bravais-lattice index     =            0
     lattice parameter (alat)  =      14.4199  a.u.
     unit-cell volume          =    1845.1511 (a.u.)^3
     number of atoms/cell      =            6
     number of atomic types    =            2
     number of electrons       =        56.00
     number of Kohn-Sham states=           29
     kinetic-energy cutoff     =      70.0000  Ry
     charge density cutoff     =     280.0000  Ry
     scf convergence threshold =      1.0E-06
     mixing beta               =       0.5000
     number of iterations used =            8  plain     mixing
     energy convergence thresh.=      1.0E-04
     force convergence thresh. =      1.0E-04
     press convergence thresh. =      5.0E-01
     Exchange-correlation= SLA  PW   PBX  PBC
                           (   1   4   3   4   0   0   0)
     nstep                     =           50


     celldm(1)=  14.419944  celldm(2)=   0.000000  celldm(3)=   0.000000
     celldm(4)=   0.000000  celldm(5)=   0.000000  celldm(6)=   0.000000

     crystal axes: (cart. coord. in units of alat)
               a(1) = (   1.000000   0.000000   0.000000 )  
               a(2) = (   0.000000   1.000000   0.000000 )  
               a(3) = (   0.000000   0.000000   0.615377 )  

     reciprocal axes: (cart. coord. in units 2 pi/alat)
               b(1) = (  1.000000  0.000000  0.000000 )  
               b(2) = (  0.000000  1.000000  0.000000 )  
               b(3) = (  0.000000  0.000000  1.625020 )  


     PseudoPot. # 1 for Sn read from file:
     ../../pseudo/Sn.pbe-dn-kjpaw_psl.1.0.0.UPF
     MD5 check sum: 67f11dec737d427557dc41ea34975807
     Pseudo is Projector augmented-wave + core cor, Zval = 14.0
     Generated using &quot;atomic&quot; code by A. Dal Corso  v.6.3
     Shape of augmentation charge: PSQ
     Using radial grid of 1243 points,  6 beta functions with: 
                l(1) =   0
                l(2) =   0
                l(3) =   1
                l(4) =   1
                l(5) =   2
                l(6) =   2
     Q(r) pseudized with 0 coefficients 


     PseudoPot. # 2 for I  read from file:
     ../../pseudo/I.pbe-n-kjpaw_psl.1.0.0.UPF
     MD5 check sum: cd3d296c3308a581e1559a0c8a554cb5
     Pseudo is Projector augmented-wave + core cor, Zval =  7.0
     Generated using &quot;atomic&quot; code by A. Dal Corso  v.6.3
     Shape of augmentation charge: PSQ
     Using radial grid of 1247 points,  6 beta functions with: 
                l(1) =   0
                l(2) =   0
                l(3) =   1
                l(4) =   1
                l(5) =   2
                l(6) =   2
     Q(r) pseudized with 0 coefficients 


     atomic species   valence    mass     pseudopotential
        Sn            14.00   118.70000     Sn( 1.00)
        I              7.00   126.90000     I ( 1.00)

     16 Sym. Ops., with inversion, found ( 8 have fractional translation)


                                    s                        frac. trans.

      isym =  1     identity                                     

 cryst.   s( 1) = (     1          0          0      )
                  (     0          1          0      )
                  (     0          0          1      )

 cart.    s( 1) = (  1.0000000  0.0000000  0.0000000 )
                  (  0.0000000  1.0000000  0.0000000 )
                  (  0.0000000  0.0000000  1.0000000 )


      isym =  2     180 deg rotation - cart. axis [0,0,1]        

 cryst.   s( 2) = (    -1          0          0      )
                  (     0         -1          0      )
                  (     0          0          1      )

 cart.    s( 2) = ( -1.0000000  0.0000000  0.0000000 )
                  (  0.0000000 -1.0000000  0.0000000 )
                  (  0.0000000  0.0000000  1.0000000 )


      isym =  3     180 deg rotation - cart. axis [0,1,0]        

 cryst.   s( 3) = (    -1          0          0      )    f =(  0.5000000 )
                  (     0          1          0      )       ( -0.5000000 )
                  (     0          0         -1      )       (  0.5000000 )

 cart.    s( 3) = ( -1.0000000  0.0000000  0.0000000 )    f =(  0.5000000 )
                  (  0.0000000  1.0000000  0.0000000 )       ( -0.5000000 )
                  (  0.0000000  0.0000000 -1.0000000 )       (  0.3076884 )


      isym =  4     180 deg rotation - cart. axis [1,0,0]        

 cryst.   s( 4) = (     1          0          0      )    f =( -0.5000000 )
                  (     0         -1          0      )       (  0.5000000 )
                  (     0          0         -1      )       (  0.5000000 )

 cart.    s( 4) = (  1.0000000  0.0000000  0.0000000 )    f =( -0.5000000 )
                  (  0.0000000 -1.0000000  0.0000000 )       (  0.5000000 )
                  (  0.0000000  0.0000000 -1.0000000 )       (  0.3076884 )


      isym =  5     180 deg rotation - cart. axis [1,1,0]        

 cryst.   s( 5) = (     0          1          0      )
                  (     1          0          0      )
                  (     0          0         -1      )

 cart.    s( 5) = (  0.0000000  1.0000000  0.0000000 )
                  (  1.0000000  0.0000000  0.0000000 )
                  (  0.0000000  0.0000000 -1.0000000 )


      isym =  6     180 deg rotation - cart. axis [1,-1,0]       

 cryst.   s( 6) = (     0         -1          0      )
                  (    -1          0          0      )
                  (     0          0         -1      )

 cart.    s( 6) = (  0.0000000 -1.0000000  0.0000000 )
                  ( -1.0000000  0.0000000  0.0000000 )
                  (  0.0000000  0.0000000 -1.0000000 )


      isym =  7      90 deg rotation - cart. axis [0,0,-1]       

 cryst.   s( 7) = (     0         -1          0      )    f =( -0.5000000 )
                  (     1          0          0      )       (  0.5000000 )
                  (     0          0          1      )       ( -0.5000000 )

 cart.    s( 7) = (  0.0000000  1.0000000  0.0000000 )    f =( -0.5000000 )
                  ( -1.0000000  0.0000000  0.0000000 )       (  0.5000000 )
                  (  0.0000000  0.0000000  1.0000000 )       ( -0.3076884 )


      isym =  8      90 deg rotation - cart. axis [0,0,1]        

 cryst.   s( 8) = (     0          1          0      )    f =(  0.5000000 )
                  (    -1          0          0      )       ( -0.5000000 )
                  (     0          0          1      )       ( -0.5000000 )

 cart.    s( 8) = (  0.0000000 -1.0000000  0.0000000 )    f =(  0.5000000 )
                  (  1.0000000  0.0000000  0.0000000 )       ( -0.5000000 )
                  (  0.0000000  0.0000000  1.0000000 )       ( -0.3076884 )


      isym =  9     inversion                                    

 cryst.   s( 9) = (    -1          0          0      )
                  (     0         -1          0      )
                  (     0          0         -1      )

 cart.    s( 9) = ( -1.0000000  0.0000000  0.0000000 )
                  (  0.0000000 -1.0000000  0.0000000 )
                  (  0.0000000  0.0000000 -1.0000000 )


      isym = 10     inv. 180 deg rotation - cart. axis [0,0,1]   

 cryst.   s(10) = (     1          0          0      )
                  (     0          1          0      )
                  (     0          0         -1      )

 cart.    s(10) = (  1.0000000  0.0000000  0.0000000 )
                  (  0.0000000  1.0000000  0.0000000 )
                  (  0.0000000  0.0000000 -1.0000000 )


      isym = 11     inv. 180 deg rotation - cart. axis [0,1,0]   

 cryst.   s(11) = (     1          0          0      )    f =( -0.5000000 )
                  (     0         -1          0      )       (  0.5000000 )
                  (     0          0          1      )       ( -0.5000000 )

 cart.    s(11) = (  1.0000000  0.0000000  0.0000000 )    f =( -0.5000000 )
                  (  0.0000000 -1.0000000  0.0000000 )       (  0.5000000 )
                  (  0.0000000  0.0000000  1.0000000 )       ( -0.3076884 )


      isym = 12     inv. 180 deg rotation - cart. axis [1,0,0]   

 cryst.   s(12) = (    -1          0          0      )    f =(  0.5000000 )
                  (     0          1          0      )       ( -0.5000000 )
                  (     0          0          1      )       ( -0.5000000 )

 cart.    s(12) = ( -1.0000000  0.0000000  0.0000000 )    f =(  0.5000000 )
                  (  0.0000000  1.0000000  0.0000000 )       ( -0.5000000 )
                  (  0.0000000  0.0000000  1.0000000 )       ( -0.3076884 )


      isym = 13     inv. 180 deg rotation - cart. axis [1,1,0]   

 cryst.   s(13) = (     0         -1          0      )
                  (    -1          0          0      )
                  (     0          0          1      )

 cart.    s(13) = (  0.0000000 -1.0000000  0.0000000 )
                  ( -1.0000000  0.0000000  0.0000000 )
                  (  0.0000000  0.0000000  1.0000000 )


      isym = 14     inv. 180 deg rotation - cart. axis [1,-1,0]  

 cryst.   s(14) = (     0          1          0      )
                  (     1          0          0      )
                  (     0          0          1      )

 cart.    s(14) = (  0.0000000  1.0000000  0.0000000 )
                  (  1.0000000  0.0000000  0.0000000 )
                  (  0.0000000  0.0000000  1.0000000 )


      isym = 15     inv.  90 deg rotation - cart. axis [0,0,-1]  

 cryst.   s(15) = (     0          1          0      )    f =(  0.5000000 )
                  (    -1          0          0      )       ( -0.5000000 )
                  (     0          0         -1      )       (  0.5000000 )

 cart.    s(15) = (  0.0000000 -1.0000000  0.0000000 )    f =(  0.5000000 )
                  (  1.0000000  0.0000000  0.0000000 )       ( -0.5000000 )
                  (  0.0000000  0.0000000 -1.0000000 )       (  0.3076884 )


      isym = 16     inv.  90 deg rotation - cart. axis [0,0,1]   

 cryst.   s(16) = (     0         -1          0      )    f =( -0.5000000 )
                  (     1          0          0      )       (  0.5000000 )
                  (     0          0         -1      )       (  0.5000000 )

 cart.    s(16) = (  0.0000000  1.0000000  0.0000000 )    f =( -0.5000000 )
                  ( -1.0000000  0.0000000  0.0000000 )       (  0.5000000 )
                  (  0.0000000  0.0000000 -1.0000000 )       (  0.3076884 )


   Cartesian axes

     site n.     atom                  positions (alat units)
         1           Sn  tau(   1) = (   0.0000000   0.0000000   0.0000000  )
         2           Sn  tau(   2) = (   0.5000000   0.5000000   0.3076884  )
         3           I   tau(   3) = (   0.2985210   0.2985210   0.0000000  )
         4           I   tau(   4) = (   0.7014790   0.7014790   0.0000000  )
         5           I   tau(   5) = (   0.7985210   0.2014790   0.3076884  )
         6           I   tau(   6) = (   0.2014790   0.7985210   0.3076884  )

   Crystallographic axes

     site n.     atom                  positions (cryst. coord.)
         1           Sn  tau(   1) = (  0.0000000  0.0000000  0.0000000  )
         2           Sn  tau(   2) = (  0.5000000  0.5000000  0.5000000  )
         3           I   tau(   3) = (  0.2985210  0.2985210  0.0000000  )
         4           I   tau(   4) = (  0.7014790  0.7014790  0.0000000  )
         5           I   tau(   5) = (  0.7985210  0.2014790  0.5000000  )
         6           I   tau(   6) = (  0.2014790  0.7985210  0.5000000  )

     number of k points=    18
                       cart. coord. in units 2pi/alat
        k(    1) = (   0.0000000   0.0000000   0.0000000), wk =   0.0312500
        k(    2) = (   0.0000000   0.0000000   0.4062551), wk =   0.0625000
        k(    3) = (   0.0000000   0.0000000  -0.8125102), wk =   0.0312500
        k(    4) = (   0.0000000   0.2500000   0.0000000), wk =   0.1250000
        k(    5) = (   0.0000000   0.2500000   0.4062551), wk =   0.2500000
        k(    6) = (   0.0000000   0.2500000  -0.8125102), wk =   0.1250000
        k(    7) = (   0.0000000  -0.5000000   0.0000000), wk =   0.0625000
        k(    8) = (   0.0000000  -0.5000000   0.4062551), wk =   0.1250000
        k(    9) = (   0.0000000  -0.5000000  -0.8125102), wk =   0.0625000
        k(   10) = (   0.2500000   0.2500000   0.0000000), wk =   0.1250000
        k(   11) = (   0.2500000   0.2500000   0.4062551), wk =   0.2500000
        k(   12) = (   0.2500000   0.2500000  -0.8125102), wk =   0.1250000
        k(   13) = (   0.2500000  -0.5000000   0.0000000), wk =   0.1250000
        k(   14) = (   0.2500000  -0.5000000   0.4062551), wk =   0.2500000
        k(   15) = (   0.2500000  -0.5000000  -0.8125102), wk =   0.1250000
        k(   16) = (  -0.5000000  -0.5000000   0.0000000), wk =   0.0312500
        k(   17) = (  -0.5000000  -0.5000000   0.4062551), wk =   0.0625000
        k(   18) = (  -0.5000000  -0.5000000  -0.8125102), wk =   0.0312500

                       cryst. coord.
        k(    1) = (   0.0000000   0.0000000   0.0000000), wk =   0.0312500
        k(    2) = (   0.0000000   0.0000000   0.2500000), wk =   0.0625000
        k(    3) = (   0.0000000   0.0000000  -0.5000000), wk =   0.0312500
        k(    4) = (   0.0000000   0.2500000   0.0000000), wk =   0.1250000
        k(    5) = (   0.0000000   0.2500000   0.2500000), wk =   0.2500000
        k(    6) = (   0.0000000   0.2500000  -0.5000000), wk =   0.1250000
        k(    7) = (   0.0000000  -0.5000000   0.0000000), wk =   0.0625000
        k(    8) = (   0.0000000  -0.5000000   0.2500000), wk =   0.1250000
        k(    9) = (   0.0000000  -0.5000000  -0.5000000), wk =   0.0625000
        k(   10) = (   0.2500000   0.2500000   0.0000000), wk =   0.1250000
        k(   11) = (   0.2500000   0.2500000   0.2500000), wk =   0.2500000
        k(   12) = (   0.2500000   0.2500000  -0.5000000), wk =   0.1250000
        k(   13) = (   0.2500000  -0.5000000   0.0000000), wk =   0.1250000
        k(   14) = (   0.2500000  -0.5000000   0.2500000), wk =   0.2500000
        k(   15) = (   0.2500000  -0.5000000  -0.5000000), wk =   0.1250000
        k(   16) = (  -0.5000000  -0.5000000   0.0000000), wk =   0.0312500
        k(   17) = (  -0.5000000  -0.5000000   0.2500000), wk =   0.0625000
        k(   18) = (  -0.5000000  -0.5000000  -0.5000000), wk =   0.0312500

     Dense  grid:   145963 G-vectors     FFT dimensions: (  80,  80,  48)

     Dynamical RAM for                 wfc:       0.25 MB

     Dynamical RAM for     wfc (w. buffer):       4.79 MB

     Dynamical RAM for           str. fact:       0.14 MB

     Dynamical RAM for           local pot:       0.00 MB

     Dynamical RAM for          nlocal pot:       0.94 MB

     Dynamical RAM for                qrad:       5.37 MB

     Dynamical RAM for          rho,v,vnew:       0.50 MB

     Dynamical RAM for               rhoin:       0.17 MB

     Dynamical RAM for            rho*nmix:       1.11 MB

     Dynamical RAM for           G-vectors:       0.30 MB

     Dynamical RAM for          h,s,v(r/c):       0.15 MB

     Dynamical RAM for          <psi|beta>:       0.05 MB

     Dynamical RAM for                 psi:       0.50 MB

     Dynamical RAM for                hpsi:       0.50 MB

     Dynamical RAM for                spsi:       0.50 MB

     Dynamical RAM for      wfcinit/wfcrot:       0.62 MB

     Dynamical RAM for           addusdens:      13.23 MB

     Dynamical RAM for          addusforce:      13.70 MB

     Dynamical RAM for         addusstress:      13.99 MB

     Estimated static dynamical RAM per process >      14.02 MB

     Estimated max dynamical RAM per process >      28.02 MB

     Estimated total dynamical RAM >     896.50 MB

     Initial potential from superposition of free atoms

     starting charge   55.99693, renormalised to   56.00000
     Starting wfcs are   34 randomized atomic wfcs
     Checking if some PAW data can be deallocated... 
       PAW data deallocated on   20 nodes for type:  1
       PAW data deallocated on   12 nodes for type:  2

     total cpu time spent up to now is       20.0 secs

     Self-consistent Calculation

     iteration #  1     ecut=    70.00 Ry     beta= 0.50
     Davidson diagonalization with overlap
     ethr =  1.00E-02,  avg # of iterations =  2.0

     Threshold (ethr) on eigenvalues was too large:
     Diagonalizing with lowered threshold

     Davidson diagonalization with overlap
     ethr =  2.34E-04,  avg # of iterations =  2.3

     total cpu time spent up to now is       62.0 secs

     total energy              =   -2399.95617411 Ry
     estimated scf accuracy    <       0.11764168 Ry

     iteration #  2     ecut=    70.00 Ry     beta= 0.50
     Davidson diagonalization with overlap
     ethr =  2.10E-04,  avg # of iterations =  3.1

     total cpu time spent up to now is       87.0 secs

     total energy              =   -2399.98853738 Ry
     estimated scf accuracy    <       0.00720471 Ry

     iteration #  3     ecut=    70.00 Ry     beta= 0.50
     Davidson diagonalization with overlap
     ethr =  1.29E-05,  avg # of iterations =  3.3

     total cpu time spent up to now is      112.1 secs

     total energy              =   -2399.98967928 Ry
     estimated scf accuracy    <       0.00136035 Ry

     iteration #  4     ecut=    70.00 Ry     beta= 0.50
     Davidson diagonalization with overlap
     ethr =  2.43E-06,  avg # of iterations =  4.1

     total cpu time spent up to now is      139.2 secs

     total energy              =   -2399.99000140 Ry
     estimated scf accuracy    <       0.00034177 Ry

     iteration #  5     ecut=    70.00 Ry     beta= 0.50
     Davidson diagonalization with overlap
     ethr =  6.10E-07,  avg # of iterations =  3.1

     total cpu time spent up to now is      163.3 secs

     total energy              =   -2399.99008074 Ry
     estimated scf accuracy    <       0.00000603 Ry

     iteration #  6     ecut=    70.00 Ry     beta= 0.50
     Davidson diagonalization with overlap
     c_bands:  1 eigenvalues not converged
     ethr =  1.08E-08,  avg # of iterations =  6.9

     total cpu time spent up to now is      197.7 secs

     total energy              =   -2399.99008369 Ry
     estimated scf accuracy    <       0.00000363 Ry

     iteration #  7     ecut=    70.00 Ry     beta= 0.50
     Davidson diagonalization with overlap
     ethr =  6.49E-09,  avg # of iterations =  3.0

     total cpu time spent up to now is      222.0 secs

     End of self-consistent calculation

          k = 0.0000 0.0000 0.0000 ( 18231 PWs)   bands (ev):

   -18.3228 -18.3198 -18.3127 -18.3123 -18.3091 -18.3091 -18.3088 -18.3088
   -18.3080 -18.3080  -9.3426  -8.8348  -8.8348  -8.7162  -4.1171  -2.2612
    -0.1082  -0.1082   0.4274   0.7356   1.2468   1.3488   1.5960   1.5960
     2.0034   2.0034   2.3767   2.8706   4.5454

     occupation numbers 
     1.0000   1.0000   1.0000   1.0000   1.0000   1.0000   1.0000   1.0000
     1.0000   1.0000   1.0000   1.0000   1.0000   1.0000   1.0000   1.0000
     1.0000   1.0000   1.0000   1.0000   1.0000   1.0000   1.0000   1.0000
     1.0000   1.0000   1.0000   1.0000   0.0000

          k = 0.0000 0.0000 0.4063 ( 18232 PWs)   bands (ev):

   -18.3214 -18.3193 -18.3125 -18.3123 -18.3114 -18.3114 -18.3086 -18.3086
   -18.3069 -18.3068  -9.1903  -8.7745  -8.7745  -8.7255  -4.0529  -2.7847
    -0.0366   0.0876   0.0876   0.3913   0.6960   0.6960   0.9719   1.8922
     1.8922   2.0391   2.1517   3.0755   5.4865

     occupation numbers 
     1.0000   1.0000   1.0000   1.0000   1.0000   1.0000   1.0000   1.0000
     1.0000   1.0000   1.0000   1.0000   1.0000   1.0000   1.0000   1.0000
     1.0000   1.0000   1.0000   1.0000   1.0000   1.0000   1.0000   1.0000
     1.0000   1.0000   1.0000   1.0000   0.0000

          k = 0.0000 0.0000-0.8125 ( 18160 PWs)   bands (ev):

   -18.3194 -18.3194 -18.3136 -18.3136 -18.3123 -18.3123 -18.3090 -18.3090
   -18.3048 -18.3048  -8.8842  -8.8842  -8.7121  -8.7121  -3.6610  -3.6610
    -0.0495  -0.0495  -0.0255  -0.0255   0.5245   0.5245   1.5627   1.5627
     1.6166   1.6166   2.3651   2.3651   6.1118

     occupation numbers 
     1.0000   1.0000   1.0000   1.0000   1.0000   1.0000   1.0000   1.0000
     1.0000   1.0000   1.0000   1.0000   1.0000   1.0000   1.0000   1.0000
     1.0000   1.0000   1.0000   1.0000   1.0000   1.0000   1.0000   1.0000
     1.0000   1.0000   1.0000   1.0000   0.0000

          k = 0.0000 0.2500 0.0000 ( 18288 PWs)   bands (ev):

   -18.3224 -18.3203 -18.3126 -18.3124 -18.3091 -18.3091 -18.3088 -18.3088
   -18.3081 -18.3081  -9.2850  -8.9434  -8.8084  -8.7082  -3.9146  -2.6753
     0.0355   0.2955   0.5183   0.8569   1.0815   1.1126   1.6266   1.6822
     1.8959   2.0049   2.2466   2.5639   4.7927

     occupation numbers 
     1.0000   1.0000   1.0000   1.0000   1.0000   1.0000   1.0000   1.0000
     1.0000   1.0000   1.0000   1.0000   1.0000   1.0000   1.0000   1.0000
     1.0000   1.0000   1.0000   1.0000   1.0000   1.0000   1.0000   1.0000
     1.0000   1.0000   1.0000   1.0000   0.0000

          k = 0.0000 0.2500 0.4063 ( 18213 PWs)   bands (ev):

   -18.3211 -18.3196 -18.3125 -18.3123 -18.3113 -18.3113 -18.3085 -18.3085
   -18.3069 -18.3069  -9.1427  -8.8678  -8.7586  -8.7055  -3.8942  -3.0122
    -0.3371  -0.1780   0.4333   0.5244   0.7259   1.1384   1.1902   1.7841
     1.8533   2.0046   2.1108   2.8772   4.8096

     occupation numbers 
     1.0000   1.0000   1.0000   1.0000   1.0000   1.0000   1.0000   1.0000
     1.0000   1.0000   1.0000   1.0000   1.0000   1.0000   1.0000   1.0000
     1.0000   1.0000   1.0000   1.0000   1.0000   1.0000   1.0000   1.0000
     1.0000   1.0000   1.0000   1.0000   0.0000

          k = 0.0000 0.2500-0.8125 ( 18256 PWs)   bands (ev):

   -18.3197 -18.3197 -18.3135 -18.3135 -18.3123 -18.3123 -18.3091 -18.3091
   -18.3048 -18.3048  -8.8745  -8.8745  -8.7220  -8.7220  -3.6520  -3.6520
    -0.4432  -0.4432   0.0135   0.0135   1.0114   1.0114   1.5089   1.5089
     1.6925   1.6925   2.4960   2.4960   5.0047

     occupation numbers 
     1.0000   1.0000   1.0000   1.0000   1.0000   1.0000   1.0000   1.0000
     1.0000   1.0000   1.0000   1.0000   1.0000   1.0000   1.0000   1.0000
     1.0000   1.0000   1.0000   1.0000   1.0000   1.0000   1.0000   1.0000
     1.0000   1.0000   1.0000   1.0000   0.0000

          k = 0.0000-0.5000 0.0000 ( 18230 PWs)   bands (ev):

   -18.3213 -18.3213 -18.3125 -18.3125 -18.3090 -18.3090 -18.3088 -18.3088
   -18.3080 -18.3080  -9.1317  -9.1317  -8.7489  -8.7489  -3.3738  -3.3738
     0.3784   0.3784   0.7706   0.7706   1.0684   1.0684   1.6851   1.6851
     1.8366   1.8366   2.1781   2.1781   5.2273

     occupation numbers 
     1.0000   1.0000   1.0000   1.0000   1.0000   1.0000   1.0000   1.0000
     1.0000   1.0000   1.0000   1.0000   1.0000   1.0000   1.0000   1.0000
     1.0000   1.0000   1.0000   1.0000   1.0000   1.0000   1.0000   1.0000
     1.0000   1.0000   1.0000   1.0000   0.0000

          k = 0.0000-0.5000 0.4063 ( 18234 PWs)   bands (ev):

   -18.3204 -18.3204 -18.3124 -18.3124 -18.3112 -18.3112 -18.3085 -18.3085
   -18.3069 -18.3069  -9.0180  -9.0180  -8.7241  -8.7241  -3.4847  -3.4847
    -0.3958  -0.3958   0.5177   0.5177   1.3316   1.3316   1.4338   1.4338
     1.9146   1.9146   2.3389   2.3389   4.8328

     occupation numbers 
     1.0000   1.0000   1.0000   1.0000   1.0000   1.0000   1.0000   1.0000
     1.0000   1.0000   1.0000   1.0000   1.0000   1.0000   1.0000   1.0000
     1.0000   1.0000   1.0000   1.0000   1.0000   1.0000   1.0000   1.0000
     1.0000   1.0000   1.0000   1.0000   0.0000

          k = 0.0000-0.5000-0.8125 ( 18288 PWs)   bands (ev):

   -18.3198 -18.3198 -18.3134 -18.3134 -18.3124 -18.3124 -18.3091 -18.3091
   -18.3048 -18.3048  -8.8634  -8.8634  -8.7334  -8.7334  -3.6426  -3.6426
    -0.6459  -0.6459   0.0177   0.0177   1.1693   1.1693   1.6884   1.6884
     1.8049   1.8049   2.6084   2.6084   4.3190

     occupation numbers 
     1.0000   1.0000   1.0000   1.0000   1.0000   1.0000   1.0000   1.0000
     1.0000   1.0000   1.0000   1.0000   1.0000   1.0000   1.0000   1.0000
     1.0000   1.0000   1.0000   1.0000   1.0000   1.0000   1.0000   1.0000
     1.0000   1.0000   1.0000   1.0000   0.0000

          k = 0.2500 0.2500 0.0000 ( 18253 PWs)   bands (ev):

   -18.3221 -18.3206 -18.3125 -18.3125 -18.3091 -18.3090 -18.3088 -18.3088
   -18.3081 -18.3080  -9.2324  -8.9612  -8.8412  -8.7262  -3.7475  -2.8749
    -0.0298   0.4954   0.5969   0.9679   1.0271   1.0543   1.5837   1.6947
     1.8604   2.0009   2.0735   2.4418   4.8894

     occupation numbers 
     1.0000   1.0000   1.0000   1.0000   1.0000   1.0000   1.0000   1.0000
     1.0000   1.0000   1.0000   1.0000   1.0000   1.0000   1.0000   1.0000
     1.0000   1.0000   1.0000   1.0000   1.0000   1.0000   1.0000   1.0000
     1.0000   1.0000   1.0000   1.0000   0.0000

          k = 0.2500 0.2500 0.4063 ( 18230 PWs)   bands (ev):

   -18.3209 -18.3199 -18.3125 -18.3124 -18.3113 -18.3112 -18.3086 -18.3085
   -18.3069 -18.3069  -9.1006  -8.8889  -8.7804  -8.7130  -3.7781  -3.1631
    -0.3550   0.1236   0.1601   0.4905   0.6200   1.3263   1.4352   1.6994
     1.8336   2.0252   2.0938   2.6529   4.8671

     occupation numbers 
     1.0000   1.0000   1.0000   1.0000   1.0000   1.0000   1.0000   1.0000
     1.0000   1.0000   1.0000   1.0000   1.0000   1.0000   1.0000   1.0000
     1.0000   1.0000   1.0000   1.0000   1.0000   1.0000   1.0000   1.0000
     1.0000   1.0000   1.0000   1.0000   0.0000

          k = 0.2500 0.2500-0.8125 ( 18262 PWs)   bands (ev):

   -18.3198 -18.3195 -18.3136 -18.3134 -18.3124 -18.3124 -18.3091 -18.3091
   -18.3048 -18.3048  -8.8771  -8.8637  -8.7331  -8.7173  -3.6943  -3.6424
    -0.5803  -0.2539  -0.1418   0.3341   0.5377   1.3841   1.4369   1.6288
     1.6950   1.7973   2.4417   2.4527   4.4215

     occupation numbers 
     1.0000   1.0000   1.0000   1.0000   1.0000   1.0000   1.0000   1.0000
     1.0000   1.0000   1.0000   1.0000   1.0000   1.0000   1.0000   1.0000
     1.0000   1.0000   1.0000   1.0000   1.0000   1.0000   1.0000   1.0000
     1.0000   1.0000   1.0000   1.0000   0.0000

          k = 0.2500-0.5000 0.0000 ( 18210 PWs)   bands (ev):

   -18.3213 -18.3213 -18.3125 -18.3125 -18.3090 -18.3090 -18.3088 -18.3088
   -18.3080 -18.3080  -9.0970  -9.0970  -8.7916  -8.7916  -3.3281  -3.3281
     0.2128   0.2128   0.8027   0.8027   1.1869   1.1869   1.6301   1.6301
     1.8206   1.8206   2.1592   2.1592   5.2029

     occupation numbers 
     1.0000   1.0000   1.0000   1.0000   1.0000   1.0000   1.0000   1.0000
     1.0000   1.0000   1.0000   1.0000   1.0000   1.0000   1.0000   1.0000
     1.0000   1.0000   1.0000   1.0000   1.0000   1.0000   1.0000   1.0000
     1.0000   1.0000   1.0000   1.0000   0.0000

          k = 0.2500-0.5000 0.4063 ( 18260 PWs)   bands (ev):

   -18.3204 -18.3204 -18.3124 -18.3124 -18.3113 -18.3113 -18.3086 -18.3086
   -18.3069 -18.3069  -8.9939  -8.9939  -8.7517  -8.7517  -3.4861  -3.4861
    -0.1992  -0.1992   0.4089   0.4089   0.9907   0.9907   1.5780   1.5780
     1.9193   1.9193   2.3581   2.3581   5.2270

     occupation numbers 
     1.0000   1.0000   1.0000   1.0000   1.0000   1.0000   1.0000   1.0000
     1.0000   1.0000   1.0000   1.0000   1.0000   1.0000   1.0000   1.0000
     1.0000   1.0000   1.0000   1.0000   1.0000   1.0000   1.0000   1.0000
     1.0000   1.0000   1.0000   1.0000   0.0000

          k = 0.2500-0.5000-0.8125 ( 18252 PWs)   bands (ev):

   -18.3197 -18.3197 -18.3135 -18.3135 -18.3124 -18.3124 -18.3091 -18.3091
   -18.3048 -18.3048  -8.8668  -8.8668  -8.7279  -8.7279  -3.6854  -3.6854
    -0.3938  -0.3938  -0.0640  -0.0640   1.1825   1.1825   1.5471   1.5471
     1.8224   1.8224   2.2908   2.2908   5.0461

     occupation numbers 
     1.0000   1.0000   1.0000   1.0000   1.0000   1.0000   1.0000   1.0000
     1.0000   1.0000   1.0000   1.0000   1.0000   1.0000   1.0000   1.0000
     1.0000   1.0000   1.0000   1.0000   1.0000   1.0000   1.0000   1.0000
     1.0000   1.0000   1.0000   1.0000   0.0000

          k =-0.5000-0.5000 0.0000 ( 18240 PWs)   bands (ev):

   -18.3214 -18.3214 -18.3125 -18.3125 -18.3091 -18.3091 -18.3088 -18.3088
   -18.3080 -18.3080  -9.0487  -9.0487  -8.8477  -8.8477  -3.2808  -3.2808
     0.0707   0.0707   0.8391   0.8391   1.3445   1.3445   1.5714   1.5714
     1.6847   1.6847   2.1987   2.1987   5.1918

     occupation numbers 
     1.0000   1.0000   1.0000   1.0000   1.0000   1.0000   1.0000   1.0000
     1.0000   1.0000   1.0000   1.0000   1.0000   1.0000   1.0000   1.0000
     1.0000   1.0000   1.0000   1.0000   1.0000   1.0000   1.0000   1.0000
     1.0000   1.0000   1.0000   1.0000   0.0000

          k =-0.5000-0.5000 0.4063 ( 18292 PWs)   bands (ev):

   -18.3204 -18.3204 -18.3125 -18.3125 -18.3114 -18.3114 -18.3086 -18.3086
   -18.3069 -18.3069  -8.9626  -8.9626  -8.7863  -8.7863  -3.4874  -3.4874
     0.2380   0.2380   0.3646   0.3646   0.3839   0.3839   1.7577   1.7577
     1.8719   1.8719   2.3731   2.3731   5.6912

     occupation numbers 
     1.0000   1.0000   1.0000   1.0000   1.0000   1.0000   1.0000   1.0000
     1.0000   1.0000   1.0000   1.0000   1.0000   1.0000   1.0000   1.0000
     1.0000   1.0000   1.0000   1.0000   1.0000   1.0000   1.0000   1.0000
     1.0000   1.0000   1.0000   1.0000   0.0000

          k =-0.5000-0.5000-0.8125 ( 18296 PWs)   bands (ev):

   -18.3196 -18.3196 -18.3136 -18.3136 -18.3124 -18.3124 -18.3091 -18.3091
   -18.3049 -18.3049  -8.8700  -8.8700  -8.7226  -8.7226  -3.7258  -3.7258
    -0.2421  -0.2421   0.2717   0.2717   0.5527   0.5527   1.8194   1.8194
     1.8349   1.8349   2.0162   2.0162   6.0076

     occupation numbers 
     1.0000   1.0000   1.0000   1.0000   1.0000   1.0000   1.0000   1.0000
     1.0000   1.0000   1.0000   1.0000   1.0000   1.0000   1.0000   1.0000
     1.0000   1.0000   1.0000   1.0000   1.0000   1.0000   1.0000   1.0000
     1.0000   1.0000   1.0000   1.0000   0.0000

     highest occupied, lowest unoccupied level (ev):     3.0755    4.3190

!    total energy              =   -2399.99008467 Ry

     total all-electron energy =    -81641.235432 Ry
     estimated scf accuracy    <       0.00000010 Ry

     The total energy is the sum of the following terms:
     one-electron contribution =    -203.79264736 Ry
     hartree contribution      =     130.15822055 Ry
     xc contribution           =    -159.02171107 Ry
     ewald contribution        =    -219.54274839 Ry
     one-center paw contrib.   =   -1947.79119841 Ry
      -> PAW hartree energy AE =     108.41594596 Ry
      -> PAW hartree energy PS =    -107.64976224 Ry
      -> PAW xc energy AE      =    -328.96386957 Ry
      -> PAW xc energy PS      =      47.26253725 Ry
      -> total E_H with PAW    =     130.92440426 Ry
      -> total E_XC with PAW   =    -440.72304339 Ry

     convergence has been achieved in   7 iterations

     Forces acting on atoms (cartesian axes, Ry/au):

     atom    1 type  1   force =     0.00000000    0.00000000    0.00000000
     atom    2 type  1   force =     0.00000000    0.00000000   -0.00000000
     atom    3 type  2   force =    -0.00031176   -0.00031176   -0.00000000
     atom    4 type  2   force =     0.00031176    0.00031176    0.00000000
     atom    5 type  2   force =    -0.00031176    0.00031176   -0.00000000
     atom    6 type  2   force =     0.00031176   -0.00031176    0.00000000
     The non-local contrib.  to forces
     atom    1 type  1   force =     0.00000000    0.00000000    0.00000000
     atom    2 type  1   force =     0.00000000    0.00000000    0.00000000
     atom    3 type  2   force =     0.01490893    0.01490893    0.00000000
     atom    4 type  2   force =    -0.01490893   -0.01490893    0.00000000
     atom    5 type  2   force =     0.01490893   -0.01490893    0.00000000
     atom    6 type  2   force =    -0.01490893    0.01490893    0.00000000
     The ionic contribution  to forces
     atom    1 type  1   force =    -0.00000000   -0.00000000    0.00000000
     atom    2 type  1   force =    -0.00000000   -0.00000000   -0.00000000
     atom    3 type  2   force =    -0.90990984   -0.90990984   -0.00000000
     atom    4 type  2   force =     0.90990984    0.90990984   -0.00000000
     atom    5 type  2   force =    -0.90990984    0.90990984   -0.00000000
     atom    6 type  2   force =     0.90990984   -0.90990984   -0.00000000
     The local contribution  to forces
     atom    1 type  1   force =     0.00000000    0.00000000    0.00000000
     atom    2 type  1   force =     0.00000000    0.00000000    0.00000000
     atom    3 type  2   force =     0.89658019    0.89658019    0.00000000
     atom    4 type  2   force =    -0.89658019   -0.89658019    0.00000000
     atom    5 type  2   force =     0.89658019   -0.89658019    0.00000000
     atom    6 type  2   force =    -0.89658019    0.89658019    0.00000000
     The core correction contribution to forces
     atom    1 type  1   force =     0.00000000    0.00000000    0.00000000
     atom    2 type  1   force =     0.00000000    0.00000000    0.00000000
     atom    3 type  2   force =    -0.00189856   -0.00189856    0.00000000
     atom    4 type  2   force =     0.00189856    0.00189856    0.00000000
     atom    5 type  2   force =    -0.00189856    0.00189856    0.00000000
     atom    6 type  2   force =     0.00189856   -0.00189856    0.00000000
     The Hubbard contrib.    to forces
     atom    1 type  1   force =     0.00000000    0.00000000    0.00000000
     atom    2 type  1   force =     0.00000000    0.00000000    0.00000000
     atom    3 type  2   force =     0.00000000    0.00000000    0.00000000
     atom    4 type  2   force =     0.00000000    0.00000000    0.00000000
     atom    5 type  2   force =     0.00000000    0.00000000    0.00000000
     atom    6 type  2   force =     0.00000000    0.00000000    0.00000000
     The SCF correction term to forces
     atom    1 type  1   force =     0.00000000    0.00000000    0.00000000
     atom    2 type  1   force =     0.00000000   -0.00000000    0.00000000
     atom    3 type  2   force =     0.00000751    0.00000751    0.00000000
     atom    4 type  2   force =    -0.00000751   -0.00000751    0.00000000
     atom    5 type  2   force =     0.00000751   -0.00000751    0.00000000
     atom    6 type  2   force =    -0.00000751    0.00000751    0.00000000

     Total force =     0.000882     Total SCF correction =     0.000021


     Computing stress (Cartesian axis) and pressure

          total   stress  (Ry/bohr**3)                   (kbar)     P=       -1.62
  -0.00001265   0.00000000   0.00000000           -1.86        0.00        0.00
   0.00000000  -0.00001265   0.00000000            0.00       -1.86        0.00
   0.00000000   0.00000000  -0.00000779            0.00        0.00       -1.15

     kinetic stress (kbar)   7315.12      0.00      0.00
                                0.00   7315.12      0.00
                                0.00      0.00   7289.93

     local   stress (kbar)  -1445.74     -0.00     -0.00
                               -0.00  -1445.74      0.00
                               -0.00      0.00  -5850.31

     nonloc. stress (kbar)    116.19      0.00      0.00
                                0.00    116.19      0.00
                                0.00      0.00    116.10

     hartree stress (kbar)   2829.20     -0.00     -0.00
                               -0.00   2829.20     -0.00
                               -0.00     -0.00   4718.49

     exc-cor stress (kbar)   6161.22      0.00     -0.00
                                0.00   6161.22     -0.00
                               -0.00     -0.00   6162.28

     corecor stress (kbar)  -8297.08     -0.00      0.00
                               -0.00  -8297.08      0.00
                                0.00      0.00  -8296.07

     ewald   stress (kbar)  -6680.77      0.00     -0.00
                                0.00  -6680.77     -0.00
                               -0.00     -0.00  -4141.56

     hubbard stress (kbar)      0.00      0.00      0.00
                                0.00      0.00      0.00
                                0.00      0.00      0.00

     DFT-D   stress (kbar)      0.00      0.00      0.00
                                0.00      0.00      0.00
                                0.00      0.00      0.00

     XDM     stress (kbar)      0.00      0.00      0.00
                                0.00      0.00      0.00
                                0.00      0.00      0.00

     dft-nl  stress (kbar)      0.00      0.00      0.00
                                0.00      0.00      0.00
                                0.00      0.00      0.00

     TS-vdW  stress (kbar)      0.00      0.00      0.00
                                0.00      0.00      0.00
                                0.00      0.00      0.00



     BFGS Geometry Optimization
     Energy error            =      0.0E+00
     Gradient error          =      3.1E-04
     Cell gradient error     =      1.3E-05


     number of scf cycles    =   1
     number of bfgs steps    =   0

     enthalpy new            =   -2399.9900846741 Ry

     new trust radius        =       0.0027178737 bohr
     new conv_thr            =       0.0000010000 Ry

     new unit-cell volume =   1843.62470 a.u.^3 (   273.19699 Ang^3 )
     density =      4.52824 g/cm^3

CELL_PARAMETERS (angstrom)
   7.628291940   0.000000000   0.000000000
   0.000000000   7.628291940   0.000000000
   0.000000000   0.000000000   4.694845520

ATOMIC_POSITIONS (crystal)
Sn            0.0000000000        0.0000000000        0.0000000000
Sn            0.5000000000        0.5000000000        0.5000000000
I             0.2984993801        0.2984993801       -0.0000000000
I             0.7015006199        0.7015006199        0.0000000000
I             0.7984993801        0.2015006199        0.5000000000
I             0.2015006199        0.7984993801        0.5000000000



     Writing output data file ./out/SnI2tetr.save/
     NEW-OLD atomic charge density approx. for the potential
     extrapolated charge   55.95364, renormalised to   56.00000

     total cpu time spent up to now is      260.4 secs

     Self-consistent Calculation

     iteration #  1     ecut=    70.00 Ry     beta= 0.50
     Davidson diagonalization with overlap
     ethr =  1.00E-06,  avg # of iterations =  2.0

     total cpu time spent up to now is      286.8 secs

     total energy              =   -2399.98997555 Ry
     estimated scf accuracy    <       0.00008456 Ry

     iteration #  2     ecut=    70.00 Ry     beta= 0.50
     Davidson diagonalization with overlap
     ethr =  1.51E-07,  avg # of iterations =  3.9

     total cpu time spent up to now is      319.7 secs

     total energy              =   -2399.99010178 Ry
     estimated scf accuracy    <       0.00006974 Ry

     iteration #  3     ecut=    70.00 Ry     beta= 0.50
     Davidson diagonalization with overlap
     ethr =  1.25E-07,  avg # of iterations =  2.0

     total cpu time spent up to now is      340.6 secs

     total energy              =   -2399.99009856 Ry
     estimated scf accuracy    <       0.00002073 Ry

     iteration #  4     ecut=    70.00 Ry     beta= 0.50
     Davidson diagonalization with overlap
     ethr =  3.70E-08,  avg # of iterations =  2.6

     total cpu time spent up to now is      365.1 secs

     total energy              =   -2399.99010047 Ry
     estimated scf accuracy    <       0.00000509 Ry

     iteration #  5     ecut=    70.00 Ry     beta= 0.50
     Davidson diagonalization with overlap
     ethr =  9.09E-09,  avg # of iterations =  1.8

     total cpu time spent up to now is      385.2 secs

     total energy              =   -2399.99010034 Ry
     estimated scf accuracy    <       0.00000366 Ry

     iteration #  6     ecut=    70.00 Ry     beta= 0.50
     Davidson diagonalization with overlap
     ethr =  6.53E-09,  avg # of iterations =  1.5

     total cpu time spent up to now is      404.9 secs

     total energy              =   -2399.99009958 Ry
     estimated scf accuracy    <       0.00000249 Ry

     iteration #  7     ecut=    70.00 Ry     beta= 0.50
     Davidson diagonalization with overlap
     ethr =  4.45E-09,  avg # of iterations =  2.1

     total cpu time spent up to now is      426.8 secs

     End of self-consistent calculation

          k = 0.0000 0.0000 0.0000 ( 18231 PWs)   bands (ev):

   -18.3109 -18.3079 -18.3008 -18.3004 -18.2972 -18.2972 -18.2969 -18.2969
   -18.2960 -18.2960  -9.3370  -8.8279  -8.8279  -8.7088  -4.1117  -2.2509
    -0.1033  -0.1033   0.4331   0.7408   1.2539   1.3564   1.6033   1.6033
     2.0111   2.0111   2.3850   2.8812   4.5541

     occupation numbers 
     1.0000   1.0000   1.0000   1.0000   1.0000   1.0000   1.0000   1.0000
     1.0000   1.0000   1.0000   1.0000   1.0000   1.0000   1.0000   1.0000
     1.0000   1.0000   1.0000   1.0000   1.0000   1.0000   1.0000   1.0000
     1.0000   1.0000   1.0000   1.0000   0.0000

          k = 0.0000 0.0000 0.4063 ( 18232 PWs)   bands (ev):

   -18.3095 -18.3074 -18.3006 -18.3004 -18.2995 -18.2995 -18.2966 -18.2966
   -18.2950 -18.2949  -9.1845  -8.7676  -8.7676  -8.7182  -4.0473  -2.7759
    -0.0310   0.0928   0.0928   0.3979   0.7022   0.7022   0.9774   1.8996
     1.8996   2.0472   2.1593   3.0863   5.4969

     occupation numbers 
     1.0000   1.0000   1.0000   1.0000   1.0000   1.0000   1.0000   1.0000
     1.0000   1.0000   1.0000   1.0000   1.0000   1.0000   1.0000   1.0000
     1.0000   1.0000   1.0000   1.0000   1.0000   1.0000   1.0000   1.0000
     1.0000   1.0000   1.0000   1.0000   0.0000

          k = 0.0000 0.0000-0.8127 ( 18160 PWs)   bands (ev):

   -18.3075 -18.3075 -18.3017 -18.3017 -18.3004 -18.3004 -18.2970 -18.2970
   -18.2929 -18.2929  -8.8775  -8.8775  -8.7050  -8.7050  -3.6544  -3.6544
    -0.0435  -0.0435  -0.0199  -0.0199   0.5301   0.5301   1.5691   1.5691
     1.6234   1.6234   2.3743   2.3743   6.1239

     occupation numbers 
     1.0000   1.0000   1.0000   1.0000   1.0000   1.0000   1.0000   1.0000
     1.0000   1.0000   1.0000   1.0000   1.0000   1.0000   1.0000   1.0000
     1.0000   1.0000   1.0000   1.0000   1.0000   1.0000   1.0000   1.0000
     1.0000   1.0000   1.0000   1.0000   0.0000

          k = 0.0000 0.2501 0.0000 ( 18288 PWs)   bands (ev):

   -18.3105 -18.3084 -18.3007 -18.3005 -18.2972 -18.2972 -18.2969 -18.2969
   -18.2961 -18.2961  -9.2793  -8.9368  -8.8014  -8.7008  -3.9088  -2.6665
     0.0407   0.3016   0.5242   0.8624   1.0885   1.1196   1.6339   1.6898
     1.9035   2.0129   2.2546   2.5741   4.8014

     occupation numbers 
     1.0000   1.0000   1.0000   1.0000   1.0000   1.0000   1.0000   1.0000
     1.0000   1.0000   1.0000   1.0000   1.0000   1.0000   1.0000   1.0000
     1.0000   1.0000   1.0000   1.0000   1.0000   1.0000   1.0000   1.0000
     1.0000   1.0000   1.0000   1.0000   0.0000

          k = 0.0000 0.2501 0.4063 ( 18213 PWs)   bands (ev):

   -18.3092 -18.3077 -18.3005 -18.3004 -18.2994 -18.2994 -18.2966 -18.2966
   -18.2950 -18.2949  -9.1367  -8.8611  -8.7516  -8.6982  -3.8883  -3.0041
    -0.3321  -0.1728   0.4395   0.5306   0.7319   1.1454   1.1963   1.7915
     1.8606   2.0128   2.1185   2.8877   4.8185

     occupation numbers 
     1.0000   1.0000   1.0000   1.0000   1.0000   1.0000   1.0000   1.0000
     1.0000   1.0000   1.0000   1.0000   1.0000   1.0000   1.0000   1.0000
     1.0000   1.0000   1.0000   1.0000   1.0000   1.0000   1.0000   1.0000
     1.0000   1.0000   1.0000   1.0000   0.0000

          k = 0.0000 0.2501-0.8127 ( 18256 PWs)   bands (ev):

   -18.3078 -18.3078 -18.3016 -18.3016 -18.3004 -18.3004 -18.2971 -18.2971
   -18.2929 -18.2929  -8.8678  -8.8678  -8.7149  -8.7149  -3.6453  -3.6453
    -0.4381  -0.4381   0.0192   0.0192   1.0179   1.0179   1.5157   1.5157
     1.6993   1.6993   2.5054   2.5054   5.0147

     occupation numbers 
     1.0000   1.0000   1.0000   1.0000   1.0000   1.0000   1.0000   1.0000
     1.0000   1.0000   1.0000   1.0000   1.0000   1.0000   1.0000   1.0000
     1.0000   1.0000   1.0000   1.0000   1.0000   1.0000   1.0000   1.0000
     1.0000   1.0000   1.0000   1.0000   0.0000

          k = 0.0000-0.5002 0.0000 ( 18230 PWs)   bands (ev):

   -18.3095 -18.3095 -18.3006 -18.3006 -18.2971 -18.2971 -18.2969 -18.2969
   -18.2961 -18.2961  -9.1256  -9.1256  -8.7418  -8.7418  -3.3669  -3.3669
     0.3841   0.3841   0.7769   0.7769   1.0748   1.0748   1.6926   1.6926
     1.8451   1.8451   2.1862   2.1862   5.2363

     occupation numbers 
     1.0000   1.0000   1.0000   1.0000   1.0000   1.0000   1.0000   1.0000
     1.0000   1.0000   1.0000   1.0000   1.0000   1.0000   1.0000   1.0000
     1.0000   1.0000   1.0000   1.0000   1.0000   1.0000   1.0000   1.0000
     1.0000   1.0000   1.0000   1.0000   0.0000

          k = 0.0000-0.5002 0.4063 ( 18234 PWs)   bands (ev):

   -18.3085 -18.3085 -18.3005 -18.3005 -18.2994 -18.2994 -18.2966 -18.2966
   -18.2950 -18.2950  -9.0117  -9.0117  -8.7170  -8.7170  -3.4778  -3.4778
    -0.3909  -0.3909   0.5239   0.5239   1.3386   1.3386   1.4406   1.4406
     1.9220   1.9220   2.3484   2.3484   4.8421

     occupation numbers 
     1.0000   1.0000   1.0000   1.0000   1.0000   1.0000   1.0000   1.0000
     1.0000   1.0000   1.0000   1.0000   1.0000   1.0000   1.0000   1.0000
     1.0000   1.0000   1.0000   1.0000   1.0000   1.0000   1.0000   1.0000
     1.0000   1.0000   1.0000   1.0000   0.0000

          k = 0.0000-0.5002-0.8127 ( 18288 PWs)   bands (ev):

   -18.3079 -18.3079 -18.3015 -18.3015 -18.3004 -18.3004 -18.2971 -18.2971
   -18.2929 -18.2929  -8.8566  -8.8566  -8.7264  -8.7264  -3.6359  -3.6359
    -0.6412  -0.6412   0.0233   0.0233   1.1755   1.1755   1.6961   1.6961
     1.8121   1.8121   2.6181   2.6181   4.3279

     occupation numbers 
     1.0000   1.0000   1.0000   1.0000   1.0000   1.0000   1.0000   1.0000
     1.0000   1.0000   1.0000   1.0000   1.0000   1.0000   1.0000   1.0000
     1.0000   1.0000   1.0000   1.0000   1.0000   1.0000   1.0000   1.0000
     1.0000   1.0000   1.0000   1.0000   0.0000

          k = 0.2501 0.2501 0.0000 ( 18253 PWs)   bands (ev):

   -18.3102 -18.3087 -18.3006 -18.3005 -18.2972 -18.2971 -18.2969 -18.2969
   -18.2961 -18.2960  -9.2266  -8.9547  -8.8345  -8.7189  -3.7413  -2.8666
    -0.0248   0.5016   0.6029   0.9736   1.0339   1.0615   1.5909   1.7023
     1.8678   2.0089   2.0812   2.4519   4.8987

     occupation numbers 
     1.0000   1.0000   1.0000   1.0000   1.0000   1.0000   1.0000   1.0000
     1.0000   1.0000   1.0000   1.0000   1.0000   1.0000   1.0000   1.0000
     1.0000   1.0000   1.0000   1.0000   1.0000   1.0000   1.0000   1.0000
     1.0000   1.0000   1.0000   1.0000   0.0000

          k = 0.2501 0.2501 0.4063 ( 18230 PWs)   bands (ev):

   -18.3090 -18.3080 -18.3005 -18.3004 -18.2995 -18.2993 -18.2966 -18.2966
   -18.2950 -18.2950  -9.0944  -8.8821  -8.7735  -8.7058  -3.7719  -3.1553
    -0.3499   0.1295   0.1654   0.4961   0.6265   1.3326   1.4425   1.7068
     1.8408   2.0336   2.1015   2.6627   4.8765

     occupation numbers 
     1.0000   1.0000   1.0000   1.0000   1.0000   1.0000   1.0000   1.0000
     1.0000   1.0000   1.0000   1.0000   1.0000   1.0000   1.0000   1.0000
     1.0000   1.0000   1.0000   1.0000   1.0000   1.0000   1.0000   1.0000
     1.0000   1.0000   1.0000   1.0000   0.0000

          k = 0.2501 0.2501-0.8127 ( 18262 PWs)   bands (ev):

   -18.3079 -18.3076 -18.3018 -18.3015 -18.3004 -18.3004 -18.2971 -18.2971
   -18.2929 -18.2929  -8.8704  -8.8569  -8.7261  -8.7103  -3.6878  -3.6357
    -0.5754  -0.2484  -0.1365   0.3408   0.5433   1.3908   1.4441   1.6357
     1.7018   1.8044   2.4507   2.4622   4.4308

     occupation numbers 
     1.0000   1.0000   1.0000   1.0000   1.0000   1.0000   1.0000   1.0000
     1.0000   1.0000   1.0000   1.0000   1.0000   1.0000   1.0000   1.0000
     1.0000   1.0000   1.0000   1.0000   1.0000   1.0000   1.0000   1.0000
     1.0000   1.0000   1.0000   1.0000   0.0000

          k = 0.2501-0.5002 0.0000 ( 18210 PWs)   bands (ev):

   -18.3095 -18.3095 -18.3005 -18.3005 -18.2971 -18.2971 -18.2969 -18.2969
   -18.2960 -18.2960  -9.0908  -9.0908  -8.7846  -8.7846  -3.3209  -3.3209
     0.2184   0.2184   0.8091   0.8091   1.1933   1.1933   1.6375   1.6375
     1.8283   1.8283   2.1681   2.1681   5.2123

     occupation numbers 
     1.0000   1.0000   1.0000   1.0000   1.0000   1.0000   1.0000   1.0000
     1.0000   1.0000   1.0000   1.0000   1.0000   1.0000   1.0000   1.0000
     1.0000   1.0000   1.0000   1.0000   1.0000   1.0000   1.0000   1.0000
     1.0000   1.0000   1.0000   1.0000   0.0000

          k = 0.2501-0.5002 0.4063 ( 18260 PWs)   bands (ev):

   -18.3085 -18.3085 -18.3005 -18.3005 -18.2994 -18.2994 -18.2966 -18.2966
   -18.2950 -18.2950  -8.9875  -8.9875  -8.7446  -8.7446  -3.4792  -3.4792
    -0.1940  -0.1940   0.4148   0.4148   0.9976   0.9976   1.5849   1.5849
     1.9268   1.9268   2.3673   2.3673   5.2369

     occupation numbers 
     1.0000   1.0000   1.0000   1.0000   1.0000   1.0000   1.0000   1.0000
     1.0000   1.0000   1.0000   1.0000   1.0000   1.0000   1.0000   1.0000
     1.0000   1.0000   1.0000   1.0000   1.0000   1.0000   1.0000   1.0000
     1.0000   1.0000   1.0000   1.0000   0.0000

          k = 0.2501-0.5002-0.8127 ( 18252 PWs)   bands (ev):

   -18.3078 -18.3078 -18.3017 -18.3017 -18.3004 -18.3004 -18.2971 -18.2971
   -18.2929 -18.2929  -8.8600  -8.8600  -8.7209  -8.7209  -3.6789  -3.6789
    -0.3886  -0.3886  -0.0585  -0.0585   1.1896   1.1896   1.5542   1.5542
     1.8296   1.8296   2.2995   2.2995   5.0563

     occupation numbers 
     1.0000   1.0000   1.0000   1.0000   1.0000   1.0000   1.0000   1.0000
     1.0000   1.0000   1.0000   1.0000   1.0000   1.0000   1.0000   1.0000
     1.0000   1.0000   1.0000   1.0000   1.0000   1.0000   1.0000   1.0000
     1.0000   1.0000   1.0000   1.0000   0.0000

          k =-0.5002-0.5002 0.0000 ( 18240 PWs)   bands (ev):

   -18.3095 -18.3095 -18.3005 -18.3005 -18.2972 -18.2972 -18.2969 -18.2969
   -18.2960 -18.2960  -9.0424  -9.0424  -8.8409  -8.8409  -3.2733  -3.2733
     0.0759   0.0759   0.8456   0.8456   1.3509   1.3509   1.5786   1.5786
     1.6917   1.6917   2.2082   2.2082   5.2016

     occupation numbers 
     1.0000   1.0000   1.0000   1.0000   1.0000   1.0000   1.0000   1.0000
     1.0000   1.0000   1.0000   1.0000   1.0000   1.0000   1.0000   1.0000
     1.0000   1.0000   1.0000   1.0000   1.0000   1.0000   1.0000   1.0000
     1.0000   1.0000   1.0000   1.0000   0.0000

          k =-0.5002-0.5002 0.4063 ( 18292 PWs)   bands (ev):

   -18.3085 -18.3085 -18.3005 -18.3005 -18.2995 -18.2995 -18.2966 -18.2966
   -18.2950 -18.2950  -8.9560  -8.9560  -8.7794  -8.7794  -3.4805  -3.4805
     0.2436   0.2436   0.3714   0.3714   0.3894   0.3894   1.7648   1.7648
     1.8794   1.8794   2.3821   2.3821   5.7015

     occupation numbers 
     1.0000   1.0000   1.0000   1.0000   1.0000   1.0000   1.0000   1.0000
     1.0000   1.0000   1.0000   1.0000   1.0000   1.0000   1.0000   1.0000
     1.0000   1.0000   1.0000   1.0000   1.0000   1.0000   1.0000   1.0000
     1.0000   1.0000   1.0000   1.0000   0.0000

          k =-0.5002-0.5002-0.8127 ( 18296 PWs)   bands (ev):

   -18.3077 -18.3077 -18.3018 -18.3018 -18.3005 -18.3005 -18.2971 -18.2971
   -18.2929 -18.2929  -8.8632  -8.8632  -8.7156  -8.7156  -3.7194  -3.7194
    -0.2370  -0.2370   0.2789   0.2789   0.5584   0.5584   1.8269   1.8269
     1.8421   1.8421   2.0242   2.0242   6.0193

     occupation numbers 
     1.0000   1.0000   1.0000   1.0000   1.0000   1.0000   1.0000   1.0000
     1.0000   1.0000   1.0000   1.0000   1.0000   1.0000   1.0000   1.0000
     1.0000   1.0000   1.0000   1.0000   1.0000   1.0000   1.0000   1.0000
     1.0000   1.0000   1.0000   1.0000   0.0000

     highest occupied, lowest unoccupied level (ev):     3.0863    4.3279

!    total energy              =   -2399.99009934 Ry

     total all-electron energy =    -81641.235447 Ry
     estimated scf accuracy    <       0.00000060 Ry

     The total energy is the sum of the following terms:
     one-electron contribution =    -203.68433908 Ry
     hartree contribution      =     130.11608493 Ry
     xc contribution           =    -159.02215590 Ry
     ewald contribution        =    -219.60817046 Ry
     one-center paw contrib.   =   -1947.79151883 Ry
      -> PAW hartree energy AE =     108.42979856 Ry
      -> PAW hartree energy PS =    -107.66406942 Ry
      -> PAW xc energy AE      =    -328.96417643 Ry
      -> PAW xc energy PS      =      47.26313339 Ry
      -> total E_H with PAW    =     130.88181407 Ry
      -> total E_XC with PAW   =    -440.72319893 Ry

     convergence has been achieved in   7 iterations

     Forces acting on atoms (cartesian axes, Ry/au):

     atom    1 type  1   force =     0.00000000    0.00000000    0.00000000
     atom    2 type  1   force =     0.00000000    0.00000000    0.00000000
     atom    3 type  2   force =    -0.00035469   -0.00035469    0.00000000
     atom    4 type  2   force =     0.00035469    0.00035469    0.00000000
     atom    5 type  2   force =    -0.00035469    0.00035469    0.00000000
     atom    6 type  2   force =     0.00035469   -0.00035469    0.00000000
     The non-local contrib.  to forces
     atom    1 type  1   force =     0.00000000    0.00000000   -0.00000000
     atom    2 type  1   force =     0.00000000    0.00000000   -0.00000000
     atom    3 type  2   force =     0.01494687    0.01494687    0.00000000
     atom    4 type  2   force =    -0.01494687   -0.01494687    0.00000000
     atom    5 type  2   force =     0.01494687   -0.01494687    0.00000000
     atom    6 type  2   force =    -0.01494687    0.01494687    0.00000000
     The ionic contribution  to forces
     atom    1 type  1   force =    -0.00000000   -0.00000000    0.00000000
     atom    2 type  1   force =     0.00000000    0.00000000    0.00000000
     atom    3 type  2   force =    -0.90866518   -0.90866518    0.00000000
     atom    4 type  2   force =     0.90866518    0.90866518   -0.00000000
     atom    5 type  2   force =    -0.90866518    0.90866518    0.00000000
     atom    6 type  2   force =     0.90866518   -0.90866518    0.00000000
     The local contribution  to forces
     atom    1 type  1   force =     0.00000000    0.00000000    0.00000000
     atom    2 type  1   force =     0.00000000    0.00000000    0.00000000
     atom    3 type  2   force =     0.89517016    0.89517016    0.00000000
     atom    4 type  2   force =    -0.89517016   -0.89517016    0.00000000
     atom    5 type  2   force =     0.89517016   -0.89517016   -0.00000000
     atom    6 type  2   force =    -0.89517016    0.89517016   -0.00000000
     The core correction contribution to forces
     atom    1 type  1   force =     0.00000000    0.00000000    0.00000000
     atom    2 type  1   force =    -0.00000000   -0.00000000   -0.00000000
     atom    3 type  2   force =    -0.00190421   -0.00190421    0.00000000
     atom    4 type  2   force =     0.00190421    0.00190421    0.00000000
     atom    5 type  2   force =    -0.00190421    0.00190421    0.00000000
     atom    6 type  2   force =     0.00190421   -0.00190421    0.00000000
     The Hubbard contrib.    to forces
     atom    1 type  1   force =     0.00000000    0.00000000    0.00000000
     atom    2 type  1   force =     0.00000000    0.00000000    0.00000000
     atom    3 type  2   force =     0.00000000    0.00000000    0.00000000
     atom    4 type  2   force =     0.00000000    0.00000000    0.00000000
     atom    5 type  2   force =     0.00000000    0.00000000    0.00000000
     atom    6 type  2   force =     0.00000000    0.00000000    0.00000000
     The SCF correction term to forces
     atom    1 type  1   force =     0.00000000    0.00000000    0.00000000
     atom    2 type  1   force =    -0.00000000   -0.00000000    0.00000000
     atom    3 type  2   force =     0.00009766    0.00009766   -0.00000000
     atom    4 type  2   force =    -0.00009766   -0.00009766   -0.00000000
     atom    5 type  2   force =     0.00009766   -0.00009766   -0.00000000
     atom    6 type  2   force =    -0.00009766    0.00009766    0.00000000

     Total force =     0.001003     Total SCF correction =     0.000276
     SCF correction compared to forces is large: reduce conv_thr to get better values


     Computing stress (Cartesian axis) and pressure

          total   stress  (Ry/bohr**3)                   (kbar)     P=       -2.70
  -0.00002004   0.00000000   0.00000000           -2.95        0.00        0.00
   0.00000000  -0.00002004   0.00000000            0.00       -2.95        0.00
   0.00000000   0.00000000  -0.00001502            0.00        0.00       -2.21

     kinetic stress (kbar)   7321.17      0.00      0.00
                                0.00   7321.17      0.00
                                0.00      0.00   7295.97

     local   stress (kbar)  -1445.33     -0.00      0.00
                               -0.00  -1445.33      0.00
                                0.00      0.00  -5850.19

     nonloc. stress (kbar)    115.36      0.00      0.00
                                0.00    115.36      0.00
                                0.00      0.00    115.25

     hartree stress (kbar)   2830.91     -0.00     -0.00
                               -0.00   2830.91     -0.00
                               -0.00     -0.00   4720.29

     exc-cor stress (kbar)   6166.30      0.00      0.00
                                0.00   6166.30     -0.00
                                0.00     -0.00   6167.36

     corecor stress (kbar)  -8303.94     -0.00     -0.00
                               -0.00  -8303.94     -0.00
                               -0.00     -0.00  -8302.92

     ewald   stress (kbar)  -6687.42      0.00      0.00
                                0.00  -6687.42      0.00
                                0.00      0.00  -4147.97

     hubbard stress (kbar)      0.00      0.00      0.00
                                0.00      0.00      0.00
                                0.00      0.00      0.00

     DFT-D   stress (kbar)      0.00      0.00      0.00
                                0.00      0.00      0.00
                                0.00      0.00      0.00

     XDM     stress (kbar)      0.00      0.00      0.00
                                0.00      0.00      0.00
                                0.00      0.00      0.00

     dft-nl  stress (kbar)      0.00      0.00      0.00
                                0.00      0.00      0.00
                                0.00      0.00      0.00

     TS-vdW  stress (kbar)      0.00      0.00      0.00
                                0.00      0.00      0.00
                                0.00      0.00      0.00


     Energy error            =      1.5E-05
     Gradient error          =      3.5E-04
     Cell gradient error     =      2.0E-05


     number of scf cycles    =   2
     number of bfgs steps    =   1

     enthalpy old            =   -2399.9900846741 Ry
     enthalpy new            =   -2399.9900993379 Ry

     CASE: enthalpy_new < enthalpy_old


     WARNING: bfgs curvature condition failed, Theta= 0.495
     new trust radius        =       0.0006224288 bohr
     new conv_thr            =       0.0000000100 Ry

     new unit-cell volume =   1843.31214 a.u.^3 (   273.15068 Ang^3 )
     density =      4.52901 g/cm^3

CELL_PARAMETERS (angstrom)
   7.627739035   0.000000000   0.000000000
   0.000000000   7.627739035   0.000000000
   0.000000000   0.000000000   4.694730098

ATOMIC_POSITIONS (crystal)
Sn            0.0000000000        0.0000000000        0.0000000000
Sn            0.5000000000        0.5000000000        0.5000000000
I             0.2984915589        0.2984915589       -0.0000000000
I             0.7015084411        0.7015084411        0.0000000000
I             0.7984915589        0.2015084411        0.5000000000
I             0.2015084411        0.7984915589        0.5000000000



     Writing output data file ./out/SnI2tetr.save/
     NEW-OLD atomic charge density approx. for the potential
     extrapolated charge   55.99050, renormalised to   56.00000

     total cpu time spent up to now is      465.5 secs

     Self-consistent Calculation

     iteration #  1     ecut=    70.00 Ry     beta= 0.50
     Davidson diagonalization with overlap
     ethr =  1.00E-06,  avg # of iterations =  2.0

     Threshold (ethr) on eigenvalues was too large:
     Diagonalizing with lowered threshold

     Davidson diagonalization with overlap
     ethr =  1.31E-08,  avg # of iterations =  3.2

     total cpu time spent up to now is      510.9 secs

     total energy              =   -2399.99009433 Ry
     estimated scf accuracy    <       0.00000848 Ry

     iteration #  2     ecut=    70.00 Ry     beta= 0.50
     Davidson diagonalization with overlap
     ethr =  1.51E-08,  avg # of iterations =  4.6

     total cpu time spent up to now is      543.5 secs

     total energy              =   -2399.99010278 Ry
     estimated scf accuracy    <       0.00000419 Ry

     iteration #  3     ecut=    70.00 Ry     beta= 0.50
     Davidson diagonalization with overlap
     ethr =  7.48E-09,  avg # of iterations =  2.0

     total cpu time spent up to now is      564.8 secs

     total energy              =   -2399.99010277 Ry
     estimated scf accuracy    <       0.00000092 Ry

     iteration #  4     ecut=    70.00 Ry     beta= 0.50
     Davidson diagonalization with overlap
     ethr =  1.65E-09,  avg # of iterations =  3.6

     total cpu time spent up to now is      590.1 secs

     total energy              =   -2399.99010292 Ry
     estimated scf accuracy    <       0.00000015 Ry

     iteration #  5     ecut=    70.00 Ry     beta= 0.50
     Davidson diagonalization with overlap
     ethr =  2.67E-10,  avg # of iterations =  3.0

     total cpu time spent up to now is      611.4 secs

     total energy              =   -2399.99010292 Ry
     estimated scf accuracy    <       0.00000012 Ry

     iteration #  6     ecut=    70.00 Ry     beta= 0.50
     Davidson diagonalization with overlap
     ethr =  2.15E-10,  avg # of iterations =  1.1

     total cpu time spent up to now is      630.6 secs

     total energy              =   -2399.99010292 Ry
     estimated scf accuracy    <       0.00000012 Ry

     iteration #  7     ecut=    70.00 Ry     beta= 0.50
     Davidson diagonalization with overlap
     ethr =  2.07E-10,  avg # of iterations =  1.3

     total cpu time spent up to now is      649.9 secs

     total energy              =   -2399.99010291 Ry
     estimated scf accuracy    <       0.00000007 Ry

     iteration #  8     ecut=    70.00 Ry     beta= 0.50
     Davidson diagonalization with overlap
     ethr =  1.32E-10,  avg # of iterations =  2.0

     total cpu time spent up to now is      670.9 secs

     total energy              =   -2399.99010292 Ry
     estimated scf accuracy    <       0.00000003 Ry

     iteration #  9     ecut=    70.00 Ry     beta= 0.50
     Davidson diagonalization with overlap
     ethr =  5.26E-11,  avg # of iterations =  1.3

     total cpu time spent up to now is      690.4 secs

     total energy              =   -2399.99010290 Ry
     estimated scf accuracy    <       0.00000003 Ry

     iteration # 10     ecut=    70.00 Ry     beta= 0.50
     Davidson diagonalization with overlap
     ethr =  4.69E-11,  avg # of iterations =  4.1

     total cpu time spent up to now is      719.8 secs

     End of self-consistent calculation

          k = 0.0000 0.0000 0.0000 ( 18231 PWs)   bands (ev):

   -18.3135 -18.3105 -18.3033 -18.3029 -18.2998 -18.2998 -18.2995 -18.2995
   -18.2986 -18.2986  -9.3366  -8.8272  -8.8272  -8.7079  -4.1117  -2.2500
    -0.1029  -0.1029   0.4337   0.7416   1.2546   1.3573   1.6042   1.6042
     2.0123   2.0123   2.3863   2.8825   4.5550

     occupation numbers 
     1.0000   1.0000   1.0000   1.0000   1.0000   1.0000   1.0000   1.0000
     1.0000   1.0000   1.0000   1.0000   1.0000   1.0000   1.0000   1.0000
     1.0000   1.0000   1.0000   1.0000   1.0000   1.0000   1.0000   1.0000
     1.0000   1.0000   1.0000   1.0000   0.0000

          k = 0.0000 0.0000 0.4063 ( 18232 PWs)   bands (ev):

   -18.3120 -18.3099 -18.3031 -18.3029 -18.3021 -18.3021 -18.2992 -18.2992
   -18.2976 -18.2975  -9.1839  -8.7669  -8.7669  -8.7174  -4.0472  -2.7752
    -0.0304   0.0933   0.0933   0.3987   0.7030   0.7030   0.9782   1.9007
     1.9007   2.0482   2.1605   3.0876   5.4981

     occupation numbers 
     1.0000   1.0000   1.0000   1.0000   1.0000   1.0000   1.0000   1.0000
     1.0000   1.0000   1.0000   1.0000   1.0000   1.0000   1.0000   1.0000
     1.0000   1.0000   1.0000   1.0000   1.0000   1.0000   1.0000   1.0000
     1.0000   1.0000   1.0000   1.0000   0.0000

          k = 0.0000 0.0000-0.8127 ( 18160 PWs)   bands (ev):

   -18.3101 -18.3101 -18.3043 -18.3043 -18.3029 -18.3029 -18.2996 -18.2996
   -18.2955 -18.2955  -8.8769  -8.8769  -8.7042  -8.7042  -3.6541  -3.6541
    -0.0428  -0.0428  -0.0192  -0.0192   0.5305   0.5305   1.5701   1.5701
     1.6245   1.6245   2.3755   2.3755   6.1257

     occupation numbers 
     1.0000   1.0000   1.0000   1.0000   1.0000   1.0000   1.0000   1.0000
     1.0000   1.0000   1.0000   1.0000   1.0000   1.0000   1.0000   1.0000
     1.0000   1.0000   1.0000   1.0000   1.0000   1.0000   1.0000   1.0000
     1.0000   1.0000   1.0000   1.0000   0.0000

          k = 0.0000 0.2501 0.0000 ( 18288 PWs)   bands (ev):

   -18.3131 -18.3110 -18.3032 -18.3030 -18.2998 -18.2998 -18.2995 -18.2995
   -18.2987 -18.2987  -9.2788  -8.9362  -8.8007  -8.7000  -3.9087  -2.6659
     0.0412   0.3023   0.5248   0.8632   1.0892   1.1204   1.6349   1.6908
     1.9045   2.0141   2.2559   2.5753   4.8024

     occupation numbers 
     1.0000   1.0000   1.0000   1.0000   1.0000   1.0000   1.0000   1.0000
     1.0000   1.0000   1.0000   1.0000   1.0000   1.0000   1.0000   1.0000
     1.0000   1.0000   1.0000   1.0000   1.0000   1.0000   1.0000   1.0000
     1.0000   1.0000   1.0000   1.0000   0.0000

          k = 0.0000 0.2501 0.4063 ( 18213 PWs)   bands (ev):

   -18.3118 -18.3103 -18.3031 -18.3029 -18.3020 -18.3020 -18.2991 -18.2991
   -18.2976 -18.2976  -9.1362  -8.8604  -8.7509  -8.6974  -3.8881  -3.0035
    -0.3317  -0.1724   0.4402   0.5313   0.7327   1.1463   1.1972   1.7925
     1.8617   2.0138   2.1197   2.8890   4.8195

     occupation numbers 
     1.0000   1.0000   1.0000   1.0000   1.0000   1.0000   1.0000   1.0000
     1.0000   1.0000   1.0000   1.0000   1.0000   1.0000   1.0000   1.0000
     1.0000   1.0000   1.0000   1.0000   1.0000   1.0000   1.0000   1.0000
     1.0000   1.0000   1.0000   1.0000   0.0000

          k = 0.0000 0.2501-0.8127 ( 18256 PWs)   bands (ev):

   -18.3103 -18.3103 -18.3043 -18.3043 -18.3029 -18.3029 -18.2997 -18.2997
   -18.2955 -18.2955  -8.8671  -8.8671  -8.7142  -8.7142  -3.6450  -3.6450
    -0.4376  -0.4376   0.0199   0.0199   1.0186   1.0186   1.5167   1.5167
     1.7004   1.7004   2.5066   2.5066   5.0159

     occupation numbers 
     1.0000   1.0000   1.0000   1.0000   1.0000   1.0000   1.0000   1.0000
     1.0000   1.0000   1.0000   1.0000   1.0000   1.0000   1.0000   1.0000
     1.0000   1.0000   1.0000   1.0000   1.0000   1.0000   1.0000   1.0000
     1.0000   1.0000   1.0000   1.0000   0.0000

          k = 0.0000-0.5002 0.0000 ( 18230 PWs)   bands (ev):

   -18.3120 -18.3120 -18.3031 -18.3031 -18.2997 -18.2997 -18.2995 -18.2995
   -18.2986 -18.2986  -9.1251  -9.1251  -8.7410  -8.7410  -3.3665  -3.3665
     0.3847   0.3847   0.7776   0.7776   1.0757   1.0757   1.6936   1.6936
     1.8463   1.8463   2.1873   2.1873   5.2373

     occupation numbers 
     1.0000   1.0000   1.0000   1.0000   1.0000   1.0000   1.0000   1.0000
     1.0000   1.0000   1.0000   1.0000   1.0000   1.0000   1.0000   1.0000
     1.0000   1.0000   1.0000   1.0000   1.0000   1.0000   1.0000   1.0000
     1.0000   1.0000   1.0000   1.0000   0.0000

          k = 0.0000-0.5002 0.4063 ( 18234 PWs)   bands (ev):

   -18.3111 -18.3111 -18.3030 -18.3030 -18.3020 -18.3020 -18.2991 -18.2991
   -18.2976 -18.2976  -9.0110  -9.0110  -8.7162  -8.7162  -3.4774  -3.4774
    -0.3905  -0.3905   0.5246   0.5246   1.3395   1.3395   1.4416   1.4416
     1.9231   1.9231   2.3495   2.3495   4.8431

     occupation numbers 
     1.0000   1.0000   1.0000   1.0000   1.0000   1.0000   1.0000   1.0000
     1.0000   1.0000   1.0000   1.0000   1.0000   1.0000   1.0000   1.0000
     1.0000   1.0000   1.0000   1.0000   1.0000   1.0000   1.0000   1.0000
     1.0000   1.0000   1.0000   1.0000   0.0000

          k = 0.0000-0.5002-0.8127 ( 18288 PWs)   bands (ev):

   -18.3105 -18.3105 -18.3042 -18.3042 -18.3030 -18.3030 -18.2997 -18.2997
   -18.2955 -18.2955  -8.8559  -8.8559  -8.7257  -8.7257  -3.6356  -3.6356
    -0.6408  -0.6408   0.0240   0.0240   1.1763   1.1763   1.6972   1.6972
     1.8132   1.8132   2.6194   2.6194   4.3289

     occupation numbers 
     1.0000   1.0000   1.0000   1.0000   1.0000   1.0000   1.0000   1.0000
     1.0000   1.0000   1.0000   1.0000   1.0000   1.0000   1.0000   1.0000
     1.0000   1.0000   1.0000   1.0000   1.0000   1.0000   1.0000   1.0000
     1.0000   1.0000   1.0000   1.0000   0.0000

          k = 0.2501 0.2501 0.0000 ( 18253 PWs)   bands (ev):

   -18.3128 -18.3113 -18.3031 -18.3031 -18.2998 -18.2998 -18.2995 -18.2995
   -18.2987 -18.2986  -9.2261  -8.9540  -8.8337  -8.7181  -3.7411  -2.8660
    -0.0243   0.5022   0.6036   0.9744   1.0347   1.0624   1.5918   1.7033
     1.8689   2.0099   2.0824   2.4530   4.8997

     occupation numbers 
     1.0000   1.0000   1.0000   1.0000   1.0000   1.0000   1.0000   1.0000
     1.0000   1.0000   1.0000   1.0000   1.0000   1.0000   1.0000   1.0000
     1.0000   1.0000   1.0000   1.0000   1.0000   1.0000   1.0000   1.0000
     1.0000   1.0000   1.0000   1.0000   0.0000

          k = 0.2501 0.2501 0.4063 ( 18230 PWs)   bands (ev):

   -18.3116 -18.3105 -18.3031 -18.3030 -18.3021 -18.3020 -18.2992 -18.2991
   -18.2976 -18.2976  -9.0939  -8.8815  -8.7728  -8.7050  -3.7717  -3.1549
    -0.3495   0.1302   0.1659   0.4969   0.6273   1.3336   1.4434   1.7079
     1.8419   2.0346   2.1027   2.6639   4.8775

     occupation numbers 
     1.0000   1.0000   1.0000   1.0000   1.0000   1.0000   1.0000   1.0000
     1.0000   1.0000   1.0000   1.0000   1.0000   1.0000   1.0000   1.0000
     1.0000   1.0000   1.0000   1.0000   1.0000   1.0000   1.0000   1.0000
     1.0000   1.0000   1.0000   1.0000   0.0000

          k = 0.2501 0.2501-0.8127 ( 18262 PWs)   bands (ev):

   -18.3104 -18.3102 -18.3044 -18.3042 -18.3030 -18.3030 -18.2997 -18.2997
   -18.2955 -18.2955  -8.8697  -8.8562  -8.7254  -8.7095  -3.6875  -3.6354
    -0.5751  -0.2478  -0.1359   0.3417   0.5438   1.3917   1.4450   1.6368
     1.7028   1.8055   2.4519   2.4634   4.4319

     occupation numbers 
     1.0000   1.0000   1.0000   1.0000   1.0000   1.0000   1.0000   1.0000
     1.0000   1.0000   1.0000   1.0000   1.0000   1.0000   1.0000   1.0000
     1.0000   1.0000   1.0000   1.0000   1.0000   1.0000   1.0000   1.0000
     1.0000   1.0000   1.0000   1.0000   0.0000

          k = 0.2501-0.5002 0.0000 ( 18210 PWs)   bands (ev):

   -18.3120 -18.3120 -18.3031 -18.3031 -18.2998 -18.2998 -18.2995 -18.2995
   -18.2986 -18.2986  -9.0902  -9.0902  -8.7839  -8.7839  -3.3205  -3.3205
     0.2189   0.2189   0.8098   0.8098   1.1942   1.1942   1.6384   1.6384
     1.8294   1.8294   2.1692   2.1692   5.2133

     occupation numbers 
     1.0000   1.0000   1.0000   1.0000   1.0000   1.0000   1.0000   1.0000
     1.0000   1.0000   1.0000   1.0000   1.0000   1.0000   1.0000   1.0000
     1.0000   1.0000   1.0000   1.0000   1.0000   1.0000   1.0000   1.0000
     1.0000   1.0000   1.0000   1.0000   0.0000

          k = 0.2501-0.5002 0.4063 ( 18260 PWs)   bands (ev):

   -18.3111 -18.3111 -18.3030 -18.3030 -18.3020 -18.3020 -18.2992 -18.2992
   -18.2976 -18.2976  -8.9868  -8.9868  -8.7439  -8.7439  -3.4789  -3.4789
    -0.1935  -0.1935   0.4155   0.4155   0.9985   0.9985   1.5859   1.5859
     1.9280   1.9280   2.3683   2.3683   5.2381

     occupation numbers 
     1.0000   1.0000   1.0000   1.0000   1.0000   1.0000   1.0000   1.0000
     1.0000   1.0000   1.0000   1.0000   1.0000   1.0000   1.0000   1.0000
     1.0000   1.0000   1.0000   1.0000   1.0000   1.0000   1.0000   1.0000
     1.0000   1.0000   1.0000   1.0000   0.0000

          k = 0.2501-0.5002-0.8127 ( 18252 PWs)   bands (ev):

   -18.3103 -18.3103 -18.3043 -18.3043 -18.3030 -18.3030 -18.2997 -18.2997
   -18.2955 -18.2955  -8.8594  -8.8594  -8.7201  -8.7201  -3.6786  -3.6786
    -0.3881  -0.3881  -0.0579  -0.0579   1.1904   1.1904   1.5552   1.5552
     1.8308   1.8308   2.3006   2.3006   5.0576

     occupation numbers 
     1.0000   1.0000   1.0000   1.0000   1.0000   1.0000   1.0000   1.0000
     1.0000   1.0000   1.0000   1.0000   1.0000   1.0000   1.0000   1.0000
     1.0000   1.0000   1.0000   1.0000   1.0000   1.0000   1.0000   1.0000
     1.0000   1.0000   1.0000   1.0000   0.0000

          k =-0.5002-0.5002 0.0000 ( 18240 PWs)   bands (ev):

   -18.3120 -18.3120 -18.3031 -18.3031 -18.2998 -18.2998 -18.2995 -18.2995
   -18.2986 -18.2986  -9.0417  -9.0417  -8.8402  -8.8402  -3.2729  -3.2729
     0.0764   0.0764   0.8463   0.8463   1.3518   1.3518   1.5795   1.5795
     1.6928   1.6928   2.2093   2.2093   5.2027

     occupation numbers 
     1.0000   1.0000   1.0000   1.0000   1.0000   1.0000   1.0000   1.0000
     1.0000   1.0000   1.0000   1.0000   1.0000   1.0000   1.0000   1.0000
     1.0000   1.0000   1.0000   1.0000   1.0000   1.0000   1.0000   1.0000
     1.0000   1.0000   1.0000   1.0000   0.0000

          k =-0.5002-0.5002 0.4063 ( 18292 PWs)   bands (ev):

   -18.3110 -18.3110 -18.3031 -18.3031 -18.3021 -18.3021 -18.2992 -18.2992
   -18.2976 -18.2976  -8.9554  -8.9554  -8.7787  -8.7787  -3.4802  -3.4802
     0.2441   0.2441   0.3722   0.3722   0.3901   0.3901   1.7659   1.7659
     1.8805   1.8805   2.3831   2.3831   5.7027

     occupation numbers 
     1.0000   1.0000   1.0000   1.0000   1.0000   1.0000   1.0000   1.0000
     1.0000   1.0000   1.0000   1.0000   1.0000   1.0000   1.0000   1.0000
     1.0000   1.0000   1.0000   1.0000   1.0000   1.0000   1.0000   1.0000
     1.0000   1.0000   1.0000   1.0000   0.0000

          k =-0.5002-0.5002-0.8127 ( 18296 PWs)   bands (ev):

   -18.3102 -18.3102 -18.3044 -18.3044 -18.3030 -18.3030 -18.2997 -18.2997
   -18.2955 -18.2955  -8.8625  -8.8625  -8.7148  -8.7148  -3.7192  -3.7192
    -0.2364  -0.2364   0.2798   0.2798   0.5588   0.5588   1.8281   1.8281
     1.8432   1.8432   2.0252   2.0252   6.0211

     occupation numbers 
     1.0000   1.0000   1.0000   1.0000   1.0000   1.0000   1.0000   1.0000
     1.0000   1.0000   1.0000   1.0000   1.0000   1.0000   1.0000   1.0000
     1.0000   1.0000   1.0000   1.0000   1.0000   1.0000   1.0000   1.0000
     1.0000   1.0000   1.0000   1.0000   0.0000

     highest occupied, lowest unoccupied level (ev):     3.0876    4.3289

!    total energy              =   -2399.99010291 Ry

     total all-electron energy =    -81641.235451 Ry
     estimated scf accuracy    <          2.5E-09 Ry

     The total energy is the sum of the following terms:
     one-electron contribution =    -203.66899353 Ry
     hartree contribution      =     130.11634989 Ry
     xc contribution           =    -159.02368409 Ry
     ewald contribution        =    -219.62241797 Ry
     one-center paw contrib.   =   -1947.79135722 Ry
      -> PAW hartree energy AE =     108.42316653 Ry
      -> PAW hartree energy PS =    -107.65700987 Ry
      -> PAW xc energy AE      =    -328.96449715 Ry
      -> PAW xc energy PS      =      47.26312207 Ry
      -> total E_H with PAW    =     130.88250655 Ry
      -> total E_XC with PAW   =    -440.72505917 Ry

     convergence has been achieved in  10 iterations

     Forces acting on atoms (cartesian axes, Ry/au):

     atom    1 type  1   force =     0.00000000    0.00000000    0.00000000
     atom    2 type  1   force =     0.00000000    0.00000000    0.00000000
     atom    3 type  2   force =    -0.00031685   -0.00031685   -0.00000000
     atom    4 type  2   force =     0.00031685    0.00031685   -0.00000000
     atom    5 type  2   force =    -0.00031685    0.00031685    0.00000000
     atom    6 type  2   force =     0.00031685   -0.00031685   -0.00000000
     The non-local contrib.  to forces
     atom    1 type  1   force =     0.00000000    0.00000000    0.00000000
     atom    2 type  1   force =     0.00000000    0.00000000   -0.00000000
     atom    3 type  2   force =     0.01488313    0.01488313    0.00000000
     atom    4 type  2   force =    -0.01488313   -0.01488313    0.00000000
     atom    5 type  2   force =     0.01488313   -0.01488313    0.00000000
     atom    6 type  2   force =    -0.01488313    0.01488313    0.00000000
     The ionic contribution  to forces
     atom    1 type  1   force =    -0.00000000   -0.00000000   -0.00000000
     atom    2 type  1   force =    -0.00000000   -0.00000000   -0.00000000
     atom    3 type  2   force =    -0.90811373   -0.90811373   -0.00000000
     atom    4 type  2   force =     0.90811373    0.90811373   -0.00000000
     atom    5 type  2   force =    -0.90811373    0.90811373    0.00000000
     atom    6 type  2   force =     0.90811373   -0.90811373    0.00000000
     The local contribution  to forces
     atom    1 type  1   force =     0.00000000    0.00000000    0.00000000
     atom    2 type  1   force =     0.00000000    0.00000000    0.00000000
     atom    3 type  2   force =     0.89481462    0.89481462    0.00000000
     atom    4 type  2   force =    -0.89481462   -0.89481462    0.00000000
     atom    5 type  2   force =     0.89481462   -0.89481462    0.00000000
     atom    6 type  2   force =    -0.89481462    0.89481462    0.00000000
     The core correction contribution to forces
     atom    1 type  1   force =     0.00000000    0.00000000    0.00000000
     atom    2 type  1   force =     0.00000000    0.00000000    0.00000000
[...]

     occupation numbers 
     1.0000   1.0000   1.0000   1.0000   1.0000   1.0000   1.0000   1.0000
     1.0000   1.0000   1.0000   1.0000   1.0000   1.0000   1.0000   1.0000
     1.0000   1.0000   1.0000   1.0000   1.0000   1.0000   1.0000   1.0000
     1.0000   1.0000   1.0000   1.0000   0.0000

          k = 0.0000 0.2506 0.4061 ( 18149 PWs)   bands (ev):

   -18.2716 -18.2700 -18.2627 -18.2626 -18.2626 -18.2626 -18.2587 -18.2586
   -18.2580 -18.2580  -9.1129  -8.8335  -8.7233  -8.6683  -3.8637  -2.9680
    -0.3121  -0.1519   0.4686   0.5596   0.7568   1.1782   1.2224   1.8237
     1.8913   2.0448   2.1516   2.9322   4.8569

     occupation numbers 
     1.0000   1.0000   1.0000   1.0000   1.0000   1.0000   1.0000   1.0000
     1.0000   1.0000   1.0000   1.0000   1.0000   1.0000   1.0000   1.0000
     1.0000   1.0000   1.0000   1.0000   1.0000   1.0000   1.0000   1.0000
     1.0000   1.0000   1.0000   1.0000   0.0000

          k = 0.0000 0.2506-0.8123 ( 18184 PWs)   bands (ev):

   -18.2702 -18.2702 -18.2648 -18.2648 -18.2626 -18.2626 -18.2592 -18.2592
   -18.2559 -18.2559  -8.8413  -8.8413  -8.6874  -8.6874  -3.6158  -3.6158
    -0.4159  -0.4159   0.0482   0.0482   1.0447   1.0447   1.5449   1.5449
     1.7282   1.7282   2.5481   2.5481   5.0639

     occupation numbers 
     1.0000   1.0000   1.0000   1.0000   1.0000   1.0000   1.0000   1.0000
     1.0000   1.0000   1.0000   1.0000   1.0000   1.0000   1.0000   1.0000
     1.0000   1.0000   1.0000   1.0000   1.0000   1.0000   1.0000   1.0000
     1.0000   1.0000   1.0000   1.0000   0.0000

          k = 0.0000-0.5013 0.0000 ( 18126 PWs)   bands (ev):

   -18.2717 -18.2717 -18.2627 -18.2627 -18.2603 -18.2603 -18.2599 -18.2599
   -18.2581 -18.2581  -9.1005  -9.1005  -8.7117  -8.7117  -3.3372  -3.3372
     0.4051   0.4051   0.7991   0.7991   1.1047   1.1047   1.7220   1.7220
     1.8867   1.8867   2.2182   2.2182   5.2685

     occupation numbers 
     1.0000   1.0000   1.0000   1.0000   1.0000   1.0000   1.0000   1.0000
     1.0000   1.0000   1.0000   1.0000   1.0000   1.0000   1.0000   1.0000
     1.0000   1.0000   1.0000   1.0000   1.0000   1.0000   1.0000   1.0000
     1.0000   1.0000   1.0000   1.0000   0.0000

          k = 0.0000-0.5013 0.4061 ( 18154 PWs)   bands (ev):

   -18.2709 -18.2709 -18.2627 -18.2627 -18.2625 -18.2625 -18.2587 -18.2587
   -18.2580 -18.2580  -8.9861  -8.9861  -8.6879  -8.6879  -3.4481  -3.4481
    -0.3716  -0.3716   0.5522   0.5522   1.3681   1.3681   1.4711   1.4711
     1.9539   1.9539   2.3892   2.3892   4.8843

     occupation numbers 
     1.0000   1.0000   1.0000   1.0000   1.0000   1.0000   1.0000   1.0000
     1.0000   1.0000   1.0000   1.0000   1.0000   1.0000   1.0000   1.0000
     1.0000   1.0000   1.0000   1.0000   1.0000   1.0000   1.0000   1.0000
     1.0000   1.0000   1.0000   1.0000   0.0000

          k = 0.0000-0.5013-0.8123 ( 18136 PWs)   bands (ev):

   -18.2703 -18.2703 -18.2646 -18.2646 -18.2626 -18.2626 -18.2592 -18.2592
   -18.2559 -18.2559  -8.8297  -8.8297  -8.6992  -8.6992  -3.6061  -3.6061
    -0.6218  -0.6218   0.0522   0.0522   1.2008   1.2008   1.7314   1.7314
     1.8432   1.8432   2.6621   2.6621   4.3702

     occupation numbers 
     1.0000   1.0000   1.0000   1.0000   1.0000   1.0000   1.0000   1.0000
     1.0000   1.0000   1.0000   1.0000   1.0000   1.0000   1.0000   1.0000
     1.0000   1.0000   1.0000   1.0000   1.0000   1.0000   1.0000   1.0000
     1.0000   1.0000   1.0000   1.0000   0.0000

          k = 0.2506 0.2506 0.0000 ( 18175 PWs)   bands (ev):

   -18.2725 -18.2710 -18.2628 -18.2627 -18.2604 -18.2603 -18.2600 -18.2599
   -18.2582 -18.2581  -9.2027  -8.9269  -8.8065  -8.6881  -3.7160  -2.8298
    -0.0030   0.5231   0.6231   0.9972   1.0602   1.0966   1.6177   1.7321
     1.9012   2.0416   2.1152   2.4935   4.9365

     occupation numbers 
     1.0000   1.0000   1.0000   1.0000   1.0000   1.0000   1.0000   1.0000
     1.0000   1.0000   1.0000   1.0000   1.0000   1.0000   1.0000   1.0000
     1.0000   1.0000   1.0000   1.0000   1.0000   1.0000   1.0000   1.0000
     1.0000   1.0000   1.0000   1.0000   0.0000

          k = 0.2506 0.2506 0.4061 ( 18151 PWs)   bands (ev):

   -18.2714 -18.2703 -18.2627 -18.2626 -18.2626 -18.2625 -18.2587 -18.2587
   -18.2580 -18.2580  -9.0700  -8.8545  -8.7457  -8.6764  -3.7459  -3.1216
    -0.3299   0.1567   0.1877   0.5202   0.6576   1.3598   1.4748   1.7412
     1.8721   2.0661   2.1351   2.7028   4.9192

     occupation numbers 
     1.0000   1.0000   1.0000   1.0000   1.0000   1.0000   1.0000   1.0000
     1.0000   1.0000   1.0000   1.0000   1.0000   1.0000   1.0000   1.0000
     1.0000   1.0000   1.0000   1.0000   1.0000   1.0000   1.0000   1.0000
     1.0000   1.0000   1.0000   1.0000   0.0000

          k = 0.2506 0.2506-0.8123 ( 18204 PWs)   bands (ev):

   -18.2703 -18.2700 -18.2650 -18.2647 -18.2626 -18.2626 -18.2592 -18.2592
   -18.2559 -18.2559  -8.8440  -8.8301  -8.6989  -8.6826  -3.6597  -3.6059
    -0.5558  -0.2215  -0.1098   0.3768   0.5629   1.4188   1.4760   1.6656
     1.7301   1.8351   2.4902   2.5062   4.4763

     occupation numbers 
     1.0000   1.0000   1.0000   1.0000   1.0000   1.0000   1.0000   1.0000
     1.0000   1.0000   1.0000   1.0000   1.0000   1.0000   1.0000   1.0000
     1.0000   1.0000   1.0000   1.0000   1.0000   1.0000   1.0000   1.0000
     1.0000   1.0000   1.0000   1.0000   0.0000

          k = 0.2506-0.5013 0.0000 ( 18144 PWs)   bands (ev):

   -18.2717 -18.2717 -18.2628 -18.2628 -18.2603 -18.2603 -18.2599 -18.2599
   -18.2581 -18.2581  -9.0650  -9.0650  -8.7554  -8.7554  -3.2902  -3.2902
     0.2409   0.2409   0.8321   0.8321   1.2210   1.2210   1.6655   1.6655
     1.8635   1.8635   2.2044   2.2044   5.2488

     occupation numbers 
     1.0000   1.0000   1.0000   1.0000   1.0000   1.0000   1.0000   1.0000
     1.0000   1.0000   1.0000   1.0000   1.0000   1.0000   1.0000   1.0000
     1.0000   1.0000   1.0000   1.0000   1.0000   1.0000   1.0000   1.0000
     1.0000   1.0000   1.0000   1.0000   0.0000

          k = 0.2506-0.5013 0.4061 ( 18172 PWs)   bands (ev):

   -18.2708 -18.2708 -18.2627 -18.2627 -18.2626 -18.2626 -18.2587 -18.2587
   -18.2580 -18.2580  -8.9614  -8.9614  -8.7161  -8.7161  -3.4497  -3.4497
    -0.1724  -0.1724   0.4407   0.4407   1.0299   1.0299   1.6145   1.6145
     1.9593   1.9593   2.4036   2.4036   5.2840

     occupation numbers 
     1.0000   1.0000   1.0000   1.0000   1.0000   1.0000   1.0000   1.0000
     1.0000   1.0000   1.0000   1.0000   1.0000   1.0000   1.0000   1.0000
     1.0000   1.0000   1.0000   1.0000   1.0000   1.0000   1.0000   1.0000
     1.0000   1.0000   1.0000   1.0000   0.0000

          k = 0.2506-0.5013-0.8123 ( 18184 PWs)   bands (ev):

   -18.2701 -18.2701 -18.2648 -18.2648 -18.2626 -18.2626 -18.2592 -18.2592
   -18.2559 -18.2559  -8.8333  -8.8333  -8.6935  -8.6935  -3.6505  -3.6505
    -0.3654  -0.3654  -0.0321  -0.0321   1.2220   1.2220   1.5847   1.5847
     1.8609   1.8609   2.3367   2.3367   5.1068

     occupation numbers 
     1.0000   1.0000   1.0000   1.0000   1.0000   1.0000   1.0000   1.0000
     1.0000   1.0000   1.0000   1.0000   1.0000   1.0000   1.0000   1.0000
     1.0000   1.0000   1.0000   1.0000   1.0000   1.0000   1.0000   1.0000
     1.0000   1.0000   1.0000   1.0000   0.0000

          k =-0.5013-0.5013 0.0000 ( 18136 PWs)   bands (ev):

   -18.2718 -18.2718 -18.2627 -18.2627 -18.2603 -18.2603 -18.2600 -18.2600
   -18.2581 -18.2581  -9.0154  -9.0154  -8.8131  -8.8131  -3.2415  -3.2415
     0.0988   0.0988   0.8695   0.8695   1.3771   1.3771   1.6051   1.6051
     1.7234   1.7234   2.2463   2.2463   5.2413

     occupation numbers 
     1.0000   1.0000   1.0000   1.0000   1.0000   1.0000   1.0000   1.0000
     1.0000   1.0000   1.0000   1.0000   1.0000   1.0000   1.0000   1.0000
     1.0000   1.0000   1.0000   1.0000   1.0000   1.0000   1.0000   1.0000
     1.0000   1.0000   1.0000   1.0000   0.0000

          k =-0.5013-0.5013 0.4061 ( 18204 PWs)   bands (ev):

   -18.2708 -18.2708 -18.2627 -18.2627 -18.2627 -18.2627 -18.2587 -18.2587
   -18.2580 -18.2580  -8.9293  -8.9293  -8.7517  -8.7517  -3.4513  -3.4513
     0.2669   0.2669   0.4046   0.4046   0.4117   0.4117   1.7962   1.7962
     1.9123   1.9123   2.4159   2.4159   5.7468

     occupation numbers 
     1.0000   1.0000   1.0000   1.0000   1.0000   1.0000   1.0000   1.0000
     1.0000   1.0000   1.0000   1.0000   1.0000   1.0000   1.0000   1.0000
     1.0000   1.0000   1.0000   1.0000   1.0000   1.0000   1.0000   1.0000
     1.0000   1.0000   1.0000   1.0000   0.0000

          k =-0.5013-0.5013-0.8123 ( 18168 PWs)   bands (ev):

   -18.2699 -18.2699 -18.2650 -18.2650 -18.2627 -18.2627 -18.2592 -18.2592
   -18.2559 -18.2559  -8.8366  -8.8366  -8.6880  -8.6880  -3.6923  -3.6923
    -0.2124  -0.2124   0.3172   0.3172   0.5782   0.5782   1.8614   1.8614
     1.8732   1.8732   2.0573   2.0573   6.0842

     occupation numbers 
     1.0000   1.0000   1.0000   1.0000   1.0000   1.0000   1.0000   1.0000
     1.0000   1.0000   1.0000   1.0000   1.0000   1.0000   1.0000   1.0000
     1.0000   1.0000   1.0000   1.0000   1.0000   1.0000   1.0000   1.0000
     1.0000   1.0000   1.0000   1.0000   0.0000

     highest occupied, lowest unoccupied level (ev):     3.1303    4.3702

!    total energy              =   -2399.99007879 Ry

     total all-electron energy =    -81641.235426 Ry
     estimated scf accuracy    <          4.2E-10 Ry

     The total energy is the sum of the following terms:
     one-electron contribution =    -203.09790681 Ry
     hartree contribution      =     129.90219089 Ry
     xc contribution           =    -159.03023023 Ry
     ewald contribution        =    -219.97209784 Ry
     one-center paw contrib.   =   -1947.79203479 Ry
      -> PAW hartree energy AE =     108.44439113 Ry
      -> PAW hartree energy PS =    -107.67838669 Ry
      -> PAW xc energy AE      =    -328.96597966 Ry
      -> PAW xc energy PS      =      47.26461283 Ry
      -> total E_H with PAW    =     130.66819532 Ry
      -> total E_XC with PAW   =    -440.73159707 Ry

     convergence has been achieved in   9 iterations

     Forces acting on atoms (cartesian axes, Ry/au):

     atom    1 type  1   force =     0.00000000    0.00000000    0.00000000
     atom    2 type  1   force =     0.00000000    0.00000000    0.00000000
     atom    3 type  2   force =    -0.00005425   -0.00005425    0.00000000
     atom    4 type  2   force =     0.00005425    0.00005425   -0.00000000
     atom    5 type  2   force =    -0.00005425    0.00005425   -0.00000000
     atom    6 type  2   force =     0.00005425   -0.00005425   -0.00000000
     The non-local contrib.  to forces
     atom    1 type  1   force =     0.00000000    0.00000000   -0.00000000
     atom    2 type  1   force =     0.00000000    0.00000000   -0.00000000
     atom    3 type  2   force =     0.01473648    0.01473648    0.00000000
     atom    4 type  2   force =    -0.01473648   -0.01473648    0.00000000
     atom    5 type  2   force =     0.01473648   -0.01473648   -0.00000000
     atom    6 type  2   force =    -0.01473648    0.01473648   -0.00000000
     The ionic contribution  to forces
     atom    1 type  1   force =     0.00000000    0.00000000   -0.00000000
     atom    2 type  1   force =    -0.00000000   -0.00000000    0.00000000
     atom    3 type  2   force =    -0.88503928   -0.88503928   -0.00000000
     atom    4 type  2   force =     0.88503928    0.88503928   -0.00000000
     atom    5 type  2   force =    -0.88503928    0.88503928    0.00000000
     atom    6 type  2   force =     0.88503928   -0.88503928    0.00000000
     The local contribution  to forces
     atom    1 type  1   force =     0.00000000    0.00000000    0.00000000
     atom    2 type  1   force =    -0.00000000   -0.00000000    0.00000000
     atom    3 type  2   force =     0.87213086    0.87213086    0.00000000
     atom    4 type  2   force =    -0.87213086   -0.87213086    0.00000000
     atom    5 type  2   force =     0.87213086   -0.87213086    0.00000000
     atom    6 type  2   force =    -0.87213086    0.87213086    0.00000000
     The core correction contribution to forces
     atom    1 type  1   force =     0.00000000    0.00000000    0.00000000
     atom    2 type  1   force =    -0.00000000   -0.00000000    0.00000000
     atom    3 type  2   force =    -0.00188241   -0.00188241    0.00000000
     atom    4 type  2   force =     0.00188241    0.00188241    0.00000000
     atom    5 type  2   force =    -0.00188241    0.00188241   -0.00000000
     atom    6 type  2   force =     0.00188241   -0.00188241   -0.00000000
     The Hubbard contrib.    to forces
     atom    1 type  1   force =     0.00000000    0.00000000    0.00000000
     atom    2 type  1   force =     0.00000000    0.00000000    0.00000000
     atom    3 type  2   force =     0.00000000    0.00000000    0.00000000
     atom    4 type  2   force =     0.00000000    0.00000000    0.00000000
     atom    5 type  2   force =     0.00000000    0.00000000    0.00000000
     atom    6 type  2   force =     0.00000000    0.00000000    0.00000000
     The SCF correction term to forces
     atom    1 type  1   force =     0.00000000   -0.00000000    0.00000000
     atom    2 type  1   force =    -0.00000000   -0.00000000    0.00000000
     atom    3 type  2   force =     0.00000010    0.00000010   -0.00000000
     atom    4 type  2   force =    -0.00000010   -0.00000010   -0.00000000
     atom    5 type  2   force =     0.00000010   -0.00000010   -0.00000000
     atom    6 type  2   force =    -0.00000010    0.00000010   -0.00000000

     Total force =     0.000153     Total SCF correction =     0.000000


     Computing stress (Cartesian axis) and pressure

          total   stress  (Ry/bohr**3)                   (kbar)     P=       -0.45
  -0.00000332   0.00000000   0.00000000           -0.49        0.00        0.00
   0.00000000  -0.00000332   0.00000000            0.00       -0.49        0.00
   0.00000000   0.00000000  -0.00000263            0.00        0.00       -0.39

     kinetic stress (kbar)   7350.44      0.00      0.00
                                0.00   7350.44      0.00
                                0.00      0.00   7324.88

     local   stress (kbar)  -1453.22     -0.00      0.00
                               -0.00  -1453.22      0.00
                                0.00      0.00  -5821.96

     nonloc. stress (kbar)    117.61      0.00      0.00
                                0.00    117.61      0.00
                                0.00      0.00    117.18

     hartree stress (kbar)   2843.38      0.00      0.00
                                0.00   2843.38     -0.00
                                0.00     -0.00   4718.64

     exc-cor stress (kbar)   6190.18      0.00     -0.00
                                0.00   6190.18     -0.00
                               -0.00     -0.00   6191.20

     corecor stress (kbar)  -8336.32      0.00      0.00
                                0.00  -8336.32      0.00
                                0.00      0.00  -8335.28

     ewald   stress (kbar)  -6712.56      0.00      0.00
                                0.00  -6712.56      0.00
                                0.00      0.00  -4195.05

     hubbard stress (kbar)      0.00      0.00      0.00
                                0.00      0.00      0.00
                                0.00      0.00      0.00

     DFT-D   stress (kbar)      0.00      0.00      0.00
                                0.00      0.00      0.00
                                0.00      0.00      0.00

     XDM     stress (kbar)      0.00      0.00      0.00
                                0.00      0.00      0.00
                                0.00      0.00      0.00

     dft-nl  stress (kbar)      0.00      0.00      0.00
                                0.00      0.00      0.00
                                0.00      0.00      0.00

     TS-vdW  stress (kbar)      0.00      0.00      0.00
                                0.00      0.00      0.00
                                0.00      0.00      0.00



     Writing output data file ./out/SnI2tetr.save/

     init_run     :     32.66s CPU     33.48s WALL (       2 calls)
     electrons    :   4422.32s CPU   4548.43s WALL (      18 calls)
     update_pot   :    139.08s CPU    140.58s WALL (      16 calls)
     forces       :    148.46s CPU    150.74s WALL (      18 calls)
     stress       :    336.81s CPU    341.10s WALL (      18 calls)

     Called by init_run:
     wfcinit      :     15.42s CPU     15.83s WALL (       2 calls)
     wfcinit:atom :      0.11s CPU      0.12s WALL (      36 calls)
     wfcinit:wfcr :     14.51s CPU     14.82s WALL (      36 calls)
     potinit      :      5.74s CPU      5.92s WALL (       2 calls)
     hinit0       :      9.38s CPU      9.47s WALL (       2 calls)

     Called by electrons:
     c_bands      :   3607.38s CPU   3709.17s WALL (     185 calls)
     sum_band     :    583.32s CPU    598.93s WALL (     185 calls)
     v_of_rho     :     23.16s CPU     23.64s WALL (     189 calls)
     v_h          :      1.61s CPU      1.65s WALL (     189 calls)
     v_xc         :     25.61s CPU     26.13s WALL (     225 calls)
     newd         :     90.77s CPU     92.48s WALL (     189 calls)
     PAW_pot      :    145.23s CPU    147.85s WALL (     205 calls)
     mix_rho      :      4.06s CPU      4.20s WALL (     185 calls)

     Called by c_bands:
     init_us_2    :     42.76s CPU     45.41s WALL (    7632 calls)
     cegterg      :   3491.79s CPU   3570.90s WALL (    3330 calls)

     Called by sum_band:
     sum_band:wei :      0.01s CPU      0.01s WALL (     185 calls)
     sum_band:loo :    498.97s CPU    512.21s WALL (     185 calls)
     sum_band:buf :      3.55s CPU      3.84s WALL (    3330 calls)
     sum_band:ini :     18.63s CPU     19.12s WALL (    3330 calls)
     sum_band:cal :    135.74s CPU    138.03s WALL (    3618 calls)
     sum_band:bec :      3.50s CPU      3.65s WALL (    3618 calls)
     addusdens    :     73.87s CPU     76.01s WALL (     185 calls)
     addusd:skk   :      0.30s CPU      0.31s WALL (     370 calls)
     addusd:dgemm :     22.75s CPU     23.92s WALL (     370 calls)
     addusd:qvan2 :     44.20s CPU     45.05s WALL (     370 calls)

     Called by *egterg:
     cdiaghg      :    131.10s CPU    133.26s WALL (   12425 calls)
     cegterg:over :    205.44s CPU    209.03s WALL (    9635 calls)
     cegterg:upda :    101.88s CPU    103.46s WALL (    9635 calls)
     cegterg:last :    243.05s CPU    246.64s WALL (    6943 calls)
     h_psi        :   2413.25s CPU   2474.18s WALL (   13001 calls)
     s_psi        :    307.66s CPU    312.87s WALL (   13001 calls)
     g_psi        :      5.91s CPU      6.13s WALL (    9635 calls)

     Called by h_psi:
     h_psi:calbec :    347.51s CPU    353.53s WALL (   13001 calls)
     vloc_psi     :   1747.35s CPU   1797.00s WALL (   13001 calls)
     add_vuspsi   :    311.50s CPU    316.55s WALL (   13001 calls)

     General routines
     calbec       :    542.32s CPU    551.70s WALL (   18239 calls)
     fft          :     18.40s CPU     18.84s WALL (    2559 calls)
     ffts         :      1.18s CPU      1.21s WALL (     185 calls)
     fftw         :   1976.60s CPU   2031.57s WALL (  605944 calls)

     Parallel routines
     fft_scatt_xy :    134.74s CPU    139.40s WALL (  608688 calls)
     fft_scatt_yz :    463.78s CPU    477.98s WALL (  608688 calls)

     PAW routines
     PAW_pot      :    145.23s CPU    147.85s WALL (     205 calls)
     PAW_symme    :      0.89s CPU      0.92s WALL (     390 calls)

     PWSCF        :      1h25m CPU      1h27m WALL


   This run was terminated on:  16:56:31  15Jan2021            

=------------------------------------------------------------------------------=
   JOB DONE.
=------------------------------------------------------------------------------=
