
     Program PWSCF v.6.4.1 starts on 25Jan2021 at 15:39:58 

     This program is part of the open-source Quantum ESPRESSO suite
     for quantum simulation of materials; please cite
         "P. Giannozzi et al., J. Phys.:Condens. Matter 21 395502 (2009);
         "P. Giannozzi et al., J. Phys.:Condens. Matter 29 465901 (2017);
          URL http://www.quantum-espresso.org", 
     in publications or presentations arising from this work. More details at
     http://www.quantum-espresso.org/quote

     Parallel version (MPI & OpenMP), running on      48 processor cores
     Number of MPI processes:                24
     Threads/MPI process:                     2

     MPI processes distributed on     1 nodes
     R & G space division:  proc/nbgrp/npool/nimage =      24
     Waiting for input...
     Reading input from standard input

     Current dimensions of program PWSCF are:
     Max number of different atomic species (ntypx) = 10
     Max number of k-points (npk) =  40000
     Max angular momentum in pseudopotentials (lmaxx) =  3
               file Cs.rel-pbesol-spn-rrkjus_psl.1.0.0.UPF: wavefunction(s)  5S 6S renormalized
               file Sn.rel-pbesol-dn-rrkjus_psl.1.0.0.UPF: wavefunction(s)  5S 4D 4D renormalized
               file I.rel-pbesol-n-rrkjus_psl.1.0.0.UPF: wavefunction(s)  5S renormalized

     Subspace diagonalization in iterative solution of the eigenvalue problem:
     one sub-group per band group will be used
     scalapack distributed-memory algorithm (size of sub-group:  3*  3 procs)

 
     Parallelization info
     --------------------
     sticks:   dense  smooth     PW     G-vecs:    dense   smooth      PW
     Min         480     320     82                97644    53140    6984
     Max         481     321     83                97651    53149    6993
     Sum       11537    7681   1983              2343561  1275409  167705
 

     Title: 
     CsSnI3                                                                     


     bravais-lattice index     =            8
     lattice parameter (alat)  =       9.1317  a.u.
     unit-cell volume          =    6370.5385 (a.u.)^3
     number of atoms/cell      =           20
     number of atomic types    =            3
     number of electrons       =       176.00
     number of Kohn-Sham states=          176
     kinetic-energy cutoff     =     130.0000  Ry
     charge density cutoff     =     780.0000  Ry
     convergence threshold     =      1.0E-06
     mixing beta               =       0.3500
     number of iterations used =            8  plain     mixing
     Exchange-correlation      = PBESOL ( 1  4 10  8 0 0)
     Non magnetic calculation with spin-orbit


     celldm(1)=   9.131705  celldm(2)=   2.227728  celldm(3)=   3.755420
     celldm(4)=   0.000000  celldm(5)=   0.000000  celldm(6)=   0.000000

     crystal axes: (cart. coord. in units of alat)
               a(1) = (   1.000000   0.000000   0.000000 )  
               a(2) = (   0.000000   2.227728   0.000000 )  
               a(3) = (   0.000000   0.000000   3.755420 )  

     reciprocal axes: (cart. coord. in units 2 pi/alat)
               b(1) = (  1.000000  0.000000  0.000000 )  
               b(2) = (  0.000000  0.448888  0.000000 )  
               b(3) = (  0.000000  0.000000  0.266282 )  


     PseudoPot. # 1 for Cs read from file:
     /marconi_scratch/userexternal/cmalosso/degironcoli/pseudo/pseudo-usp/Cs.rel-pbesol-spn-rrkjus_psl.1.0.0.UPF
     MD5 check sum: 846889b67fb1b19751b5b37931589d70
     Pseudo is Ultrasoft + core correction, Zval =  9.0
     Generated using "atomic" code by A. Dal Corso v.6.4.1
     Using radial grid of 1251 points, 15 beta functions with: 
                l(1) =   0
                l(2) =   0
                l(3) =   0
                l(4) =   1
                l(5) =   1
                l(6) =   1
                l(7) =   1
                l(8) =   2
                l(9) =   2
               l(10) =   2
               l(11) =   2
               l(12) =   3
               l(13) =   3
               l(14) =   3
               l(15) =   3
     Q(r) pseudized with 0 coefficients 


     PseudoPot. # 2 for Sn read from file:
     /marconi_scratch/userexternal/cmalosso/degironcoli/pseudo/pseudo-usp/Sn.rel-pbesol-dn-rrkjus_psl.1.0.0.UPF
     MD5 check sum: c1cf6ea56b96a3656bdf0d1db379e093
     Pseudo is Ultrasoft + core correction, Zval = 14.0
     Generated using "atomic" code by A. Dal Corso v.6.3
     Using radial grid of 1243 points, 10 beta functions with: 
                l(1) =   0
                l(2) =   0
                l(3) =   1
                l(4) =   1
                l(5) =   1
                l(6) =   1
                l(7) =   2
                l(8) =   2
                l(9) =   2
               l(10) =   2
     Q(r) pseudized with 0 coefficients 


     PseudoPot. # 3 for I  read from file:
     /marconi_scratch/userexternal/cmalosso/degironcoli/pseudo/pseudo-usp/I.rel-pbesol-n-rrkjus_psl.1.0.0.UPF
     MD5 check sum: 0f96c6bfb1b448f280658f96eb466b08
     Pseudo is Ultrasoft + core correction, Zval =  7.0
     Generated using "atomic" code by A. Dal Corso v.6.3
     Using radial grid of 1247 points, 10 beta functions with: 
                l(1) =   0
                l(2) =   0
                l(3) =   1
                l(4) =   1
                l(5) =   1
                l(6) =   1
                l(7) =   2
                l(8) =   2
                l(9) =   2
               l(10) =   2
     Q(r) pseudized with 0 coefficients 


     atomic species   valence    mass     pseudopotential
        Cs             9.00   132.90000     Cs( 1.00)
        Sn            14.00   118.70000     Sn( 1.00)
        I              7.00   126.90000     I ( 1.00)

      8 Sym. Ops., with inversion, found ( 6 have fractional translation)


                                    s                        frac. trans.

      isym =  1     identity                                     

 cryst.   s( 1) = (     1          0          0      )
                  (     0          1          0      )
                  (     0          0          1      )

 cart.    s( 1) = (  1.0000000  0.0000000  0.0000000 )
                  (  0.0000000  1.0000000  0.0000000 )
                  (  0.0000000  0.0000000  1.0000000 )


      isym =  2     180 deg rotation - cart. axis [0,0,1]        

 cryst.   s( 2) = (    -1          0          0      )    f =(  0.0000000 )
                  (     0         -1          0      )       (  0.5000000 )
                  (     0          0          1      )       (  0.5000000 )

 cart.    s( 2) = ( -1.0000000  0.0000000  0.0000000 )    f =(  0.0000000 )
                  (  0.0000000 -1.0000000  0.0000000 )       (  1.1138638 )
                  (  0.0000000  0.0000000  1.0000000 )       (  1.8777098 )


      isym =  3     180 deg rotation - cart. axis [0,1,0]        

 cryst.   s( 3) = (    -1          0          0      )    f =(  0.5000000 )
                  (     0          1          0      )       ( -0.5000000 )
                  (     0          0         -1      )       ( -0.5000000 )

 cart.    s( 3) = ( -1.0000000  0.0000000  0.0000000 )    f =(  0.5000000 )
                  (  0.0000000  1.0000000  0.0000000 )       ( -1.1138638 )
                  (  0.0000000  0.0000000 -1.0000000 )       ( -1.8777098 )


      isym =  4     180 deg rotation - cart. axis [1,0,0]        

 cryst.   s( 4) = (     1          0          0      )    f =( -0.5000000 )
                  (     0         -1          0      )       (  0.0000000 )
                  (     0          0         -1      )       (  0.0000000 )

 cart.    s( 4) = (  1.0000000  0.0000000  0.0000000 )    f =( -0.5000000 )
                  (  0.0000000 -1.0000000  0.0000000 )       (  0.0000000 )
                  (  0.0000000  0.0000000 -1.0000000 )       (  0.0000000 )


      isym =  5     inversion                                    

 cryst.   s( 5) = (    -1          0          0      )
                  (     0         -1          0      )
                  (     0          0         -1      )

 cart.    s( 5) = ( -1.0000000  0.0000000  0.0000000 )
                  (  0.0000000 -1.0000000  0.0000000 )
                  (  0.0000000  0.0000000 -1.0000000 )


      isym =  6     inv. 180 deg rotation - cart. axis [0,0,1]   

 cryst.   s( 6) = (     1          0          0      )    f =(  0.0000000 )
                  (     0          1          0      )       ( -0.5000000 )
                  (     0          0         -1      )       ( -0.5000000 )

 cart.    s( 6) = (  1.0000000  0.0000000  0.0000000 )    f =(  0.0000000 )
                  (  0.0000000  1.0000000  0.0000000 )       ( -1.1138638 )
                  (  0.0000000  0.0000000 -1.0000000 )       ( -1.8777098 )


      isym =  7     inv. 180 deg rotation - cart. axis [0,1,0]   

 cryst.   s( 7) = (     1          0          0      )    f =( -0.5000000 )
                  (     0         -1          0      )       (  0.5000000 )
                  (     0          0          1      )       (  0.5000000 )

 cart.    s( 7) = (  1.0000000  0.0000000  0.0000000 )    f =( -0.5000000 )
                  (  0.0000000 -1.0000000  0.0000000 )       (  1.1138638 )
                  (  0.0000000  0.0000000  1.0000000 )       (  1.8777098 )


      isym =  8     inv. 180 deg rotation - cart. axis [1,0,0]   

 cryst.   s( 8) = (    -1          0          0      )    f =(  0.5000000 )
                  (     0          1          0      )       (  0.0000000 )
                  (     0          0          1      )       (  0.0000000 )

 cart.    s( 8) = ( -1.0000000  0.0000000  0.0000000 )    f =(  0.5000000 )
                  (  0.0000000  1.0000000  0.0000000 )       (  0.0000000 )
                  (  0.0000000  0.0000000  1.0000000 )       (  0.0000000 )


     double point group D_2h (mmm) 
     there are 10 classes and  2 irreducible representations
     the character table:

       E     -E     C2    C2'  C2''  i     -i     s_v   s_v' s_v''
                   -C2   -C2'  -C2''             -s_v  -s_v' -s_v'
G_5+   2.00 -2.00  0.00  0.00  0.00  2.00 -2.00  0.00  0.00  0.00
G_5-   2.00 -2.00  0.00  0.00  0.00 -2.00  2.00  0.00  0.00  0.00

     the symmetry operations in each class and the name of the first element:

     E             1
          identity                                               
     -E           -1
          identity E                                             
      C2  -C2      2   -2
          180 deg rotation - cart. axis [0,0,1]                  
      C2' -C2'     4   -4
          180 deg rotation - cart. axis [1,0,0]                  
     C2'' -C2''    3   -3
          180 deg rotation - cart. axis [0,1,0]                  
     i             5
          inversion                                              
     -i           -5
          inversion E                                            
      s_v -s_v     6   -6
          inv. 180 deg rotation - cart. axis [0,0,1]             
      s_v'-s_v'    8   -8
          inv. 180 deg rotation - cart. axis [1,0,0]             
     s_v''-s_v'    7   -7
          inv. 180 deg rotation - cart. axis [0,1,0]             

   Cartesian axes

     site n.     atom                  positions (alat units)
         1           Cs  tau(   1) = (   0.2500000   0.1859640   2.5168147  )
         2           Cs  tau(   2) = (   0.7500000   2.0417636   1.2386050  )
         3           Cs  tau(   3) = (   0.2500000   1.2998278   3.1163149  )
         4           Cs  tau(   4) = (   0.7500000   0.9278998   0.6391048  )
         5           Sn  tau(   5) = (   0.2500000   0.7615710   1.6485466  )
         6           Sn  tau(   6) = (   0.7500000   1.4661567   2.1068731  )
         7           Sn  tau(   7) = (   0.2500000   1.8754348   0.2291632  )
         8           Sn  tau(   8) = (   0.7500000   0.3522928   3.5262565  )
         9           I   tau(   9) = (   0.7500000   0.0581437   0.4202578  )
        10           I   tau(  10) = (   0.2500000   2.1695839   3.3351619  )
        11           I   tau(  11) = (   0.7500000   1.1720075   1.4574521  )
        12           I   tau(  12) = (   0.2500000   1.0557201   2.2979676  )
        13           I   tau(  13) = (   0.7500000   0.6531118   2.9738192  )
        14           I   tau(  14) = (   0.2500000   1.5746158   0.7816005  )
        15           I   tau(  15) = (   0.7500000   1.7669756   2.6593103  )
        16           I   tau(  16) = (   0.2500000   0.4607520   1.0961094  )
        17           I   tau(  17) = (   0.7500000   0.3753632   1.8734812  )
        18           I   tau(  18) = (   0.2500000   1.8523644   1.8819384  )
        19           I   tau(  19) = (   0.7500000   1.4892270   0.0042286  )
        20           I   tau(  20) = (   0.2500000   0.7385006   3.7511911  )

   Crystallographic axes

     site n.     atom                  positions (cryst. coord.)
         1           Cs  tau(   1) = (  0.2500000  0.0834770  0.6701820  )
         2           Cs  tau(   2) = (  0.7500000  0.9165230  0.3298180  )
         3           Cs  tau(   3) = (  0.2500000  0.5834770  0.8298180  )
         4           Cs  tau(   4) = (  0.7500000  0.4165230  0.1701820  )
         5           Sn  tau(   5) = (  0.2500000  0.3418600  0.4389780  )
         6           Sn  tau(   6) = (  0.7500000  0.6581400  0.5610220  )
         7           Sn  tau(   7) = (  0.2500000  0.8418600  0.0610220  )
         8           Sn  tau(   8) = (  0.7500000  0.1581400  0.9389780  )
         9           I   tau(   9) = (  0.7500000  0.0261000  0.1119070  )
        10           I   tau(  10) = (  0.2500000  0.9739000  0.8880930  )
        11           I   tau(  11) = (  0.7500000  0.5261000  0.3880930  )
        12           I   tau(  12) = (  0.2500000  0.4739000  0.6119070  )
        13           I   tau(  13) = (  0.7500000  0.2931740  0.7918740  )
        14           I   tau(  14) = (  0.2500000  0.7068260  0.2081260  )
        15           I   tau(  15) = (  0.7500000  0.7931740  0.7081260  )
        16           I   tau(  16) = (  0.2500000  0.2068260  0.2918740  )
        17           I   tau(  17) = (  0.7500000  0.1684960  0.4988740  )
        18           I   tau(  18) = (  0.2500000  0.8315040  0.5011260  )
        19           I   tau(  19) = (  0.7500000  0.6684960  0.0011260  )
        20           I   tau(  20) = (  0.2500000  0.3315040  0.9988740  )

     number of k points=     1
                       cart. coord. in units 2pi/alat
        k(    1) = (   0.2500000   0.1122220   0.0665705), wk =   1.0000000

                       cryst. coord.
        k(    1) = (   0.2500000   0.2500000   0.2500000), wk =   1.0000000

     Dense  grid:  2343561 G-vectors     FFT dimensions: (  90, 192, 320)

     Smooth grid:  1275409 G-vectors     FFT dimensions: (  72, 150, 250)

     Dynamical RAM for                 wfc:      35.69 MB

     Dynamical RAM for     wfc (w. buffer):      35.69 MB

     Dynamical RAM for           str. fact:       4.47 MB

     Dynamical RAM for           local pot:       0.00 MB

     Dynamical RAM for          nlocal pot:      80.70 MB

     Dynamical RAM for                qrad:      78.12 MB

     Dynamical RAM for          rho,v,vnew:      40.03 MB

     Dynamical RAM for               rhoin:      13.34 MB

     Dynamical RAM for            rho*nmix:      95.36 MB

     Dynamical RAM for           G-vectors:       5.99 MB

     Dynamical RAM for          h,s,v(r/c):       2.51 MB

     Dynamical RAM for          <psi|beta>:       4.28 MB

     Dynamical RAM for                 psi:     142.74 MB

     Dynamical RAM for                hpsi:     142.74 MB

     Dynamical RAM for                spsi:     142.74 MB

     Dynamical RAM for      wfcinit/wfcrot:      64.25 MB

     Dynamical RAM for           addusdens:    3061.96 MB

     Dynamical RAM for          addusforce:    3132.17 MB

     Dynamical RAM for         addusstress:    3088.78 MB

     Estimated static dynamical RAM per process >     374.42 MB

     Estimated max dynamical RAM per process >       3.42 GB

     Estimated total dynamical RAM >      82.19 GB

     Initial potential from superposition of free atoms

     starting charge  175.84164, renormalised to  176.00000
     Starting wfcs are  208 randomized atomic wfcs

     total cpu time spent up to now is       50.7 secs

     Self-consistent Calculation

     iteration #  1     ecut=   130.00 Ry     beta= 0.35
     Davidson diagonalization with overlap
     ethr =  1.00E-02,  avg # of iterations =  1.0

     Threshold (ethr) on eigenvalues was too large:
     Diagonalizing with lowered threshold

     Davidson diagonalization with overlap
     ethr =  3.09E-04,  avg # of iterations =  3.0

     total cpu time spent up to now is      214.9 secs

     total energy              =   -1268.08624049 Ry
     Harris-Foulkes estimate   =   -1268.28104968 Ry
     estimated scf accuracy    <       0.41808293 Ry

     iteration #  2     ecut=   130.00 Ry     beta= 0.35
     Davidson diagonalization with overlap
     ethr =  2.38E-04,  avg # of iterations =  2.0

     total cpu time spent up to now is      300.5 secs

     total energy              =   -1268.15809172 Ry
     Harris-Foulkes estimate   =   -1268.17277719 Ry
     estimated scf accuracy    <       0.05325911 Ry

     iteration #  3     ecut=   130.00 Ry     beta= 0.35
     Davidson diagonalization with overlap
     ethr =  3.03E-05,  avg # of iterations =  3.0

     total cpu time spent up to now is      386.9 secs

     total energy              =   -1268.16605150 Ry
     Harris-Foulkes estimate   =   -1268.16654117 Ry
     estimated scf accuracy    <       0.01029069 Ry

     iteration #  4     ecut=   130.00 Ry     beta= 0.35
     Davidson diagonalization with overlap
     ethr =  5.85E-06,  avg # of iterations =  2.0

     total cpu time spent up to now is      466.7 secs

     total energy              =   -1268.16732953 Ry
     Harris-Foulkes estimate   =   -1268.16693060 Ry
     estimated scf accuracy    <       0.00197597 Ry

     iteration #  5     ecut=   130.00 Ry     beta= 0.35
     Davidson diagonalization with overlap
     ethr =  1.12E-06,  avg # of iterations =  3.0

     total cpu time spent up to now is      551.1 secs

     total energy              =   -1268.16758726 Ry
     Harris-Foulkes estimate   =   -1268.16760142 Ry
     estimated scf accuracy    <       0.00021081 Ry

     iteration #  6     ecut=   130.00 Ry     beta= 0.35
     Davidson diagonalization with overlap
     ethr =  1.20E-07,  avg # of iterations =  4.0

     total cpu time spent up to now is      648.3 secs

     total energy              =   -1268.16766221 Ry
     Harris-Foulkes estimate   =   -1268.16765547 Ry
     estimated scf accuracy    <       0.00001999 Ry

     iteration #  7     ecut=   130.00 Ry     beta= 0.35
     Davidson diagonalization with overlap
     ethr =  1.14E-08,  avg # of iterations =  2.0

     total cpu time spent up to now is      733.5 secs

     total energy              =   -1268.16766830 Ry
     Harris-Foulkes estimate   =   -1268.16766477 Ry
     estimated scf accuracy    <       0.00000520 Ry

     iteration #  8     ecut=   130.00 Ry     beta= 0.35
     Davidson diagonalization with overlap
     ethr =  2.96E-09,  avg # of iterations =  4.0

     total cpu time spent up to now is      826.1 secs

     End of self-consistent calculation

          k = 0.2500 0.1122 0.0666 (159475 PWs)   bands (ev):

   -18.4242 -18.4242 -18.4242 -18.4242 -18.4240 -18.4240 -18.4240 -18.4240
   -18.4123 -18.4123 -18.4123 -18.4123 -18.4122 -18.4122 -18.4122 -18.4122
   -17.8382 -17.8382 -17.8380 -17.8380 -17.8376 -17.8376 -17.8375 -17.8375
   -17.3863 -17.3863 -17.3863 -17.3863 -17.3862 -17.3862 -17.3862 -17.3862
   -17.3743 -17.3743 -17.3743 -17.3743 -17.3742 -17.3742 -17.3742 -17.3742
   -17.3711 -17.3711 -17.3711 -17.3711 -17.3709 -17.3709 -17.3709 -17.3709
    -8.8093  -8.8093  -8.7980  -8.7980  -8.6593  -8.6593  -8.6434  -8.6434
    -8.5480  -8.5480  -8.5422  -8.5422  -8.4763  -8.4763  -8.4592  -8.4592
    -8.4025  -8.4025  -8.3979  -8.3979  -8.3822  -8.3822  -8.3769  -8.3769
    -5.8019  -5.8019  -5.7980  -5.7980  -5.7944  -5.7944  -5.7903  -5.7903
    -4.2235  -4.2235  -4.2182  -4.2182  -4.2071  -4.2071  -4.1999  -4.1999
    -4.1620  -4.1620  -4.1588  -4.1588  -4.1538  -4.1538  -4.1490  -4.1490
    -3.1730  -3.1730  -3.1690  -3.1690  -3.0806  -3.0806  -3.0706  -3.0706
    -0.0211  -0.0211   0.0391   0.0391   0.1308   0.1308   0.1635   0.1635
     0.2805   0.2805   0.3712   0.3712   0.5000   0.5000   0.5581   0.5581
     0.6743   0.6743   0.7074   0.7074   0.7414   0.7414   0.8077   0.8077
     1.0141   1.0141   1.0801   1.0801   1.2821   1.2821   1.3562   1.3562
     1.4098   1.4098   1.4765   1.4765   1.5946   1.5946   1.6542   1.6542
     1.7278   1.7278   1.7667   1.7667   1.8189   1.8189   1.8470   1.8470
     1.8791   1.8791   1.9581   1.9581   2.0061   2.0061   2.0773   2.0773
     2.1319   2.1319   2.1595   2.1595   2.3125   2.3125   2.3451   2.3451
     2.6535   2.6535   2.7507   2.7507   2.9420   2.9420   2.9897   2.9897

     occupation numbers 
     1.0000   1.0000   1.0000   1.0000   1.0000   1.0000   1.0000   1.0000
     1.0000   1.0000   1.0000   1.0000   1.0000   1.0000   1.0000   1.0000
     1.0000   1.0000   1.0000   1.0000   1.0000   1.0000   1.0000   1.0000
     1.0000   1.0000   1.0000   1.0000   1.0000   1.0000   1.0000   1.0000
     1.0000   1.0000   1.0000   1.0000   1.0000   1.0000   1.0000   1.0000
     1.0000   1.0000   1.0000   1.0000   1.0000   1.0000   1.0000   1.0000
     1.0000   1.0000   1.0000   1.0000   1.0000   1.0000   1.0000   1.0000
     1.0000   1.0000   1.0000   1.0000   1.0000   1.0000   1.0000   1.0000
     1.0000   1.0000   1.0000   1.0000   1.0000   1.0000   1.0000   1.0000
     1.0000   1.0000   1.0000   1.0000   1.0000   1.0000   1.0000   1.0000
     1.0000   1.0000   1.0000   1.0000   1.0000   1.0000   1.0000   1.0000
     1.0000   1.0000   1.0000   1.0000   1.0000   1.0000   1.0000   1.0000
     1.0000   1.0000   1.0000   1.0000   1.0000   1.0000   1.0000   1.0000
     1.0000   1.0000   1.0000   1.0000   1.0000   1.0000   1.0000   1.0000
     1.0000   1.0000   1.0000   1.0000   1.0000   1.0000   1.0000   1.0000
     1.0000   1.0000   1.0000   1.0000   1.0000   1.0000   1.0000   1.0000
     1.0000   1.0000   1.0000   1.0000   1.0000   1.0000   1.0000   1.0000
     1.0000   1.0000   1.0000   1.0000   1.0000   1.0000   1.0000   1.0000
     1.0000   1.0000   1.0000   1.0000   1.0000   1.0000   1.0000   1.0000
     1.0000   1.0000   1.0000   1.0000   1.0000   1.0000   1.0000   1.0000
     1.0000   1.0000   1.0000   1.0000   1.0000   1.0000   1.0000   1.0000
     1.0000   1.0000   1.0000   1.0000   1.0000   1.0000   1.0000   1.0000

     highest occupied level (ev):     2.9897

!    total energy              =   -1268.16767036 Ry
     Harris-Foulkes estimate   =   -1268.16766968 Ry
     estimated scf accuracy    <       0.00000087 Ry

     The total energy is the sum of the following terms:

     one-electron contribution =    -488.15378144 Ry
     hartree contribution      =     316.29875179 Ry
     xc contribution           =    -462.74303909 Ry
     ewald contribution        =    -633.56960162 Ry

     convergence has been achieved in   8 iterations

     Forces acting on atoms (cartesian axes, Ry/au):

     atom    1 type  1   force =     0.00000000   -0.00082826    0.00019105
     atom    2 type  1   force =     0.00000000    0.00082826   -0.00019105
     atom    3 type  1   force =     0.00000000   -0.00082826   -0.00019105
     atom    4 type  1   force =     0.00000000    0.00082826    0.00019105
     atom    5 type  2   force =     0.00000000   -0.00146221   -0.00033638
     atom    6 type  2   force =     0.00000000    0.00146221    0.00033638
     atom    7 type  2   force =     0.00000000   -0.00146221    0.00033638
     atom    8 type  2   force =     0.00000000    0.00146221   -0.00033638
     atom    9 type  3   force =     0.00000000    0.00105170   -0.00186089
     atom   10 type  3   force =     0.00000000   -0.00105170    0.00186089
     atom   11 type  3   force =     0.00000000    0.00105170    0.00186089
     atom   12 type  3   force =     0.00000000   -0.00105170   -0.00186089
     atom   13 type  3   force =     0.00000000   -0.00163033    0.00215739
     atom   14 type  3   force =     0.00000000    0.00163033   -0.00215739
     atom   15 type  3   force =     0.00000000   -0.00163033   -0.00215739
     atom   16 type  3   force =     0.00000000    0.00163033    0.00215739
     atom   17 type  3   force =     0.00000000   -0.00205047    0.00060530
     atom   18 type  3   force =     0.00000000    0.00205047   -0.00060530
     atom   19 type  3   force =     0.00000000   -0.00205047   -0.00060530
     atom   20 type  3   force =     0.00000000    0.00205047    0.00060530
     The non-local contrib.  to forces
     atom    1 type  1   force =     0.00000000    0.00264087   -0.00358547
     atom    2 type  1   force =     0.00000000   -0.00264087    0.00358547
     atom    3 type  1   force =     0.00000000    0.00264087    0.00358547
     atom    4 type  1   force =     0.00000000   -0.00264087   -0.00358547
     atom    5 type  2   force =     0.00000000   -0.08427687   -0.12920646
     atom    6 type  2   force =     0.00000000    0.08427687    0.12920646
     atom    7 type  2   force =     0.00000000   -0.08427687    0.12920646
     atom    8 type  2   force =     0.00000000    0.08427687   -0.12920646
     atom    9 type  3   force =    -0.00000000   -0.05026025   -0.04899261
     atom   10 type  3   force =     0.00000000    0.05026025    0.04899261
     atom   11 type  3   force =     0.00000000   -0.05026025    0.04899261
     atom   12 type  3   force =     0.00000000    0.05026025   -0.04899261
     atom   13 type  3   force =     0.00000000   -0.03226585    0.05467342
     atom   14 type  3   force =     0.00000000    0.03226585   -0.05467342
     atom   15 type  3   force =    -0.00000000   -0.03226585   -0.05467342
     atom   16 type  3   force =     0.00000000    0.03226585    0.05467342
     atom   17 type  3   force =     0.00000000    0.05655331   -0.01766933
     atom   18 type  3   force =     0.00000000   -0.05655331    0.01766933
     atom   19 type  3   force =     0.00000000    0.05655331    0.01766933
     atom   20 type  3   force =     0.00000000   -0.05655331   -0.01766933
     The ionic contribution  to forces
     atom    1 type  1   force =     0.00000000    0.02273773    0.42856976
     atom    2 type  1   force =    -0.00000000   -0.02273773   -0.42856976
     atom    3 type  1   force =     0.00000000    0.02273773   -0.42856976
     atom    4 type  1   force =    -0.00000000   -0.02273773    0.42856976
     atom    5 type  2   force =    -0.00000000   -2.44382133   -1.60292982
     atom    6 type  2   force =     0.00000000    2.44382133    1.60292982
     atom    7 type  2   force =    -0.00000000   -2.44382133    1.60292982
     atom    8 type  2   force =     0.00000000    2.44382133   -1.60292982
     atom    9 type  3   force =    -0.00000000    3.00608889    5.13288889
     atom   10 type  3   force =    -0.00000000   -3.00608889   -5.13288889
     atom   11 type  3   force =    -0.00000000    3.00608889   -5.13288889
     atom   12 type  3   force =    -0.00000000   -3.00608889    5.13288889
     atom   13 type  3   force =    -0.00000000    2.02422847   -3.75281495
     atom   14 type  3   force =     0.00000000   -2.02422847    3.75281495
     atom   15 type  3   force =    -0.00000000    2.02422847    3.75281495
     atom   16 type  3   force =     0.00000000   -2.02422847   -3.75281495
     atom   17 type  3   force =    -0.00000000   -4.20564469    2.10270402
     atom   18 type  3   force =     0.00000000    4.20564469   -2.10270402
     atom   19 type  3   force =    -0.00000000   -4.20564469   -2.10270402
     atom   20 type  3   force =     0.00000000    4.20564469    2.10270402
     The local contribution  to forces
     atom    1 type  1   force =    -0.00000000   -0.02591001   -0.42456972
     atom    2 type  1   force =     0.00000000    0.02591001    0.42456972
     atom    3 type  1   force =    -0.00000000   -0.02591001    0.42456972
     atom    4 type  1   force =     0.00000000    0.02591001   -0.42456972
     atom    5 type  2   force =    -0.00000000    2.52690266    1.73140929
     atom    6 type  2   force =    -0.00000000   -2.52690266   -1.73140929
     atom    7 type  2   force =     0.00000000    2.52690266   -1.73140929
     atom    8 type  2   force =    -0.00000000   -2.52690266    1.73140929
     atom    9 type  3   force =     0.00000000   -2.95999018   -5.09068126
     atom   10 type  3   force =    -0.00000000    2.95999018    5.09068126
     atom   11 type  3   force =     0.00000000   -2.95999018    5.09068126
     atom   12 type  3   force =    -0.00000000    2.95999018   -5.09068126
     atom   13 type  3   force =     0.00000000   -1.99683200    3.70530943
     atom   14 type  3   force =    -0.00000000    1.99683200   -3.70530943
     atom   15 type  3   force =     0.00000000   -1.99683200   -3.70530943
     atom   16 type  3   force =    -0.00000000    1.99683200    3.70530943
     atom   17 type  3   force =    -0.00000000    4.15343048   -2.08631522
     atom   18 type  3   force =     0.00000000   -4.15343048    2.08631522
     atom   19 type  3   force =    -0.00000000    4.15343048    2.08631522
     atom   20 type  3   force =     0.00000000   -4.15343048   -2.08631522
     The core correction contribution to forces
     atom    1 type  1   force =     0.00000000   -0.00005809    0.00023050
     atom    2 type  1   force =    -0.00000000    0.00005809   -0.00023050
     atom    3 type  1   force =     0.00000000   -0.00005809   -0.00023050
     atom    4 type  1   force =     0.00000000    0.00005809    0.00023050
     atom    5 type  2   force =    -0.00000000    0.00018425    0.00016525
     atom    6 type  2   force =    -0.00000000   -0.00018425   -0.00016525
     atom    7 type  2   force =    -0.00000000    0.00018425   -0.00016525
     atom    8 type  2   force =    -0.00000000   -0.00018425    0.00016525
     atom    9 type  3   force =    -0.00000000    0.00539087    0.00547969
     atom   10 type  3   force =     0.00000000   -0.00539087   -0.00547969
     atom   11 type  3   force =    -0.00000000    0.00539087   -0.00547969
     atom   12 type  3   force =     0.00000000   -0.00539087    0.00547969
     atom   13 type  3   force =     0.00000000    0.00318905   -0.00548584
     atom   14 type  3   force =    -0.00000000   -0.00318905    0.00548584
     atom   15 type  3   force =     0.00000000    0.00318905    0.00548584
     atom   16 type  3   force =    -0.00000000   -0.00318905   -0.00548584
     atom   17 type  3   force =    -0.00000000   -0.00641395    0.00211376
     atom   18 type  3   force =     0.00000000    0.00641395   -0.00211376
     atom   19 type  3   force =    -0.00000000   -0.00641395   -0.00211376
     atom   20 type  3   force =     0.00000000    0.00641395    0.00211376
     The Hubbard contrib.    to forces
     atom    1 type  1   force =     0.00000000    0.00000000    0.00000000
     atom    2 type  1   force =     0.00000000    0.00000000    0.00000000
     atom    3 type  1   force =     0.00000000    0.00000000    0.00000000
     atom    4 type  1   force =     0.00000000    0.00000000    0.00000000
     atom    5 type  2   force =     0.00000000    0.00000000    0.00000000
     atom    6 type  2   force =     0.00000000    0.00000000    0.00000000
     atom    7 type  2   force =     0.00000000    0.00000000    0.00000000
     atom    8 type  2   force =     0.00000000    0.00000000    0.00000000
     atom    9 type  3   force =     0.00000000    0.00000000    0.00000000
     atom   10 type  3   force =     0.00000000    0.00000000    0.00000000
     atom   11 type  3   force =     0.00000000    0.00000000    0.00000000
     atom   12 type  3   force =     0.00000000    0.00000000    0.00000000
     atom   13 type  3   force =     0.00000000    0.00000000    0.00000000
     atom   14 type  3   force =     0.00000000    0.00000000    0.00000000
     atom   15 type  3   force =     0.00000000    0.00000000    0.00000000
     atom   16 type  3   force =     0.00000000    0.00000000    0.00000000
     atom   17 type  3   force =     0.00000000    0.00000000    0.00000000
     atom   18 type  3   force =     0.00000000    0.00000000    0.00000000
     atom   19 type  3   force =     0.00000000    0.00000000    0.00000000
     atom   20 type  3   force =     0.00000000    0.00000000    0.00000000
     The SCF correction term to forces
     atom    1 type  1   force =     0.00000000   -0.00023877   -0.00045402
     atom    2 type  1   force =    -0.00000000    0.00023877    0.00045402
     atom    3 type  1   force =     0.00000000   -0.00023877    0.00045402
     atom    4 type  1   force =    -0.00000000    0.00023877   -0.00045402
     atom    5 type  2   force =     0.00000000   -0.00045092    0.00022537
     atom    6 type  2   force =    -0.00000000    0.00045092   -0.00022537
     atom    7 type  2   force =    -0.00000000   -0.00045092   -0.00022537
     atom    8 type  2   force =     0.00000000    0.00045092    0.00022537
     atom    9 type  3   force =     0.00000000   -0.00017763   -0.00055560
     atom   10 type  3   force =    -0.00000000    0.00017763    0.00055560
     atom   11 type  3   force =     0.00000000   -0.00017763    0.00055560
     atom   12 type  3   force =    -0.00000000    0.00017763   -0.00055560
     atom   13 type  3   force =     0.00000000    0.00004999    0.00047534
     atom   14 type  3   force =    -0.00000000   -0.00004999   -0.00047534
     atom   15 type  3   force =    -0.00000000    0.00004999   -0.00047534
     atom   16 type  3   force =     0.00000000   -0.00004999    0.00047534
     atom   17 type  3   force =    -0.00000000    0.00002438   -0.00022794
     atom   18 type  3   force =     0.00000000   -0.00002438    0.00022794
     atom   19 type  3   force =    -0.00000000    0.00002438    0.00022794
     atom   20 type  3   force =     0.00000000   -0.00002438   -0.00022794

     Total force =     0.008815     Total SCF correction =     0.002134
     SCF correction compared to forces is large: reduce conv_thr to get better values


     Computing stress (Cartesian axis) and pressure

     Message from routine stres:
     noncollinear stress + GGA not implemented

     Writing output data file CsSnI3.save/
 
     init_run     :     32.99s CPU     43.15s WALL (       1 calls)
     electrons    :    583.22s CPU    775.63s WALL (       1 calls)
     forces       :     21.24s CPU     24.83s WALL (       1 calls)

     Called by init_run:
     wfcinit      :     15.25s CPU     21.35s WALL (       1 calls)
     wfcinit:atom :      0.03s CPU      0.05s WALL (       1 calls)
     wfcinit:wfcr :     15.05s CPU     21.05s WALL (       1 calls)
     potinit      :      2.68s CPU      3.31s WALL (       1 calls)
     hinit0       :      3.32s CPU      3.82s WALL (       1 calls)

     Called by electrons:
     c_bands      :    300.07s CPU    412.74s WALL (       9 calls)
     sum_band     :    185.83s CPU    237.94s WALL (       9 calls)
     v_of_rho     :      5.06s CPU      6.59s WALL (       9 calls)
     v_h          :      0.39s CPU      0.53s WALL (       9 calls)
     v_xc         :      5.37s CPU      6.97s WALL (      10 calls)
     newd         :     95.76s CPU    121.60s WALL (       9 calls)
     mix_rho      :      3.71s CPU      5.07s WALL (       9 calls)

     Called by c_bands:
     init_us_2    :      0.88s CPU      0.92s WALL (      19 calls)
     cegterg      :    282.09s CPU    394.44s WALL (       9 calls)

     Called by sum_band:
     sum_band:bec :      0.65s CPU      0.96s WALL (       9 calls)
     addusdens    :    107.44s CPU    128.67s WALL (       9 calls)

     Called by *egterg:
     h_psi        :    257.07s CPU    367.04s WALL (      34 calls)
     s_psi        :      9.32s CPU      9.87s WALL (      34 calls)
     g_psi        :      0.25s CPU      0.26s WALL (      24 calls)
     cdiaghg      :      6.11s CPU      9.49s WALL (      32 calls)
     cegterg:over :      9.34s CPU     10.76s WALL (      24 calls)
     cegterg:upda :      6.71s CPU      7.82s WALL (      24 calls)
     cegterg:last :      2.39s CPU      2.60s WALL (       9 calls)
     cdiaghg:chol :      0.53s CPU      0.99s WALL (      32 calls)
     cdiaghg:inve :      0.26s CPU      0.46s WALL (      32 calls)
     cdiaghg:para :      0.74s CPU      1.08s WALL (      64 calls)

     Called by h_psi:
     h_psi:pot    :    256.66s CPU    366.31s WALL (      34 calls)
     h_psi:calbec :      8.72s CPU      9.50s WALL (      34 calls)
     vloc_psi     :    238.52s CPU    346.79s WALL (      34 calls)
     add_vuspsi   :      9.42s CPU     10.03s WALL (      34 calls)

     General routines
     calbec       :     13.11s CPU     14.28s WALL (      47 calls)
     fft          :     10.04s CPU     13.38s WALL (     199 calls)
     ffts         :      3.16s CPU      5.04s WALL (      72 calls)
     fftw         :    274.81s CPU    410.27s WALL (   20796 calls)
     interpolate  :      3.33s CPU      4.94s WALL (      36 calls)
 
     Parallel routines
     fft_scatt_xy :     15.69s CPU     16.07s WALL (   21067 calls)
     fft_scatt_yz :    210.35s CPU    331.79s WALL (   21067 calls)
 
     PWSCF        :  10m45.38s CPU  14m12.52s WALL

 
   This run was terminated on:  15:54:11  25Jan2021            

=------------------------------------------------------------------------------=
   JOB DONE.
=------------------------------------------------------------------------------=
