
     Program PWSCF v.6.4.1 starts on 24Jan2021 at 17:51:18 

     This program is part of the open-source Quantum ESPRESSO suite
     for quantum simulation of materials; please cite
         "P. Giannozzi et al., J. Phys.:Condens. Matter 21 395502 (2009);
         "P. Giannozzi et al., J. Phys.:Condens. Matter 29 465901 (2017);
          URL http://www.quantum-espresso.org", 
     in publications or presentations arising from this work. More details at
     http://www.quantum-espresso.org/quote

     Parallel version (MPI & OpenMP), running on      48 processor cores
     Number of MPI processes:                24
     Threads/MPI process:                     2

     MPI processes distributed on     1 nodes
     R & G space division:  proc/nbgrp/npool/nimage =      24
     Waiting for input...
     Reading input from standard input

     Current dimensions of program PWSCF are:
     Max number of different atomic species (ntypx) = 10
     Max number of k-points (npk) =  40000
     Max angular momentum in pseudopotentials (lmaxx) =  3
               file Sn.rel-pbesol-dn-kjpaw_psl.1.0.0.UPF: wavefunction(s)  5S 5P 5P 4D 4D renormalized
               file I.rel-pbesol-n-kjpaw_psl.1.0.0.UPF: wavefunction(s)  5S renormalized

     Subspace diagonalization in iterative solution of the eigenvalue problem:
     one sub-group per band group will be used
     scalapack distributed-memory algorithm (size of sub-group:  3*  3 procs)

 
     Parallelization info
     --------------------
     sticks:   dense  smooth     PW     G-vecs:    dense   smooth      PW
     Min         372     248     66                26472    14418    2010
     Max         373     249     67                26475    14423    2015
     Sum        8945    5957   1605               635371   346083   48297
 

     Title: 
     CsIsalt                                                                    


     bravais-lattice index     =            1
     lattice parameter (alat)  =      14.4199  a.u.
     unit-cell volume          =    2998.4083 (a.u.)^3
     number of atoms/cell      =            6
     number of atomic types    =            2
     number of electrons       =        56.00
     number of Kohn-Sham states=           56
     kinetic-energy cutoff     =      90.0000  Ry
     charge density cutoff     =     540.0000  Ry
     convergence threshold     =      1.0E-06
     mixing beta               =       0.3500
     number of iterations used =            8  plain     mixing
     Exchange-correlation      = SLA PW PSX PSC ( 1  4 10  8 0 0)
     Non magnetic calculation with spin-orbit


     celldm(1)=  14.419945  celldm(2)=   0.000000  celldm(3)=   0.000000
     celldm(4)=   0.000000  celldm(5)=   0.000000  celldm(6)=   0.000000

     crystal axes: (cart. coord. in units of alat)
               a(1) = (   1.000000   0.000000   0.000000 )  
               a(2) = (   0.000000   1.000000   0.000000 )  
               a(3) = (   0.000000   0.000000   1.000000 )  

     reciprocal axes: (cart. coord. in units 2 pi/alat)
               b(1) = (  1.000000  0.000000  0.000000 )  
               b(2) = (  0.000000  1.000000  0.000000 )  
               b(3) = (  0.000000  0.000000  1.000000 )  


     PseudoPot. # 1 for Sn read from file:
     /marconi_scratch/userexternal/cmalosso/degironcoli/pseudo/Sn.rel-pbesol-dn-kjpaw_psl.1.0.0.UPF
     MD5 check sum: e69eff64f15ae39ad43ef58bacbfdf88
     Pseudo is Projector augmented-wave + core cor, Zval = 14.0
     Generated using "atomic" code by A. Dal Corso v.6.3
     Shape of augmentation charge: PSQ
     Using radial grid of 1243 points, 10 beta functions with: 
                l(1) =   0
                l(2) =   0
                l(3) =   1
                l(4) =   1
                l(5) =   1
                l(6) =   1
                l(7) =   2
                l(8) =   2
                l(9) =   2
               l(10) =   2
     Q(r) pseudized with 0 coefficients 


     PseudoPot. # 2 for I  read from file:
     /marconi_scratch/userexternal/cmalosso/degironcoli/pseudo/I.rel-pbesol-n-kjpaw_psl.1.0.0.UPF
     MD5 check sum: 4478c427bd443f303eca1937a163b991
     Pseudo is Projector augmented-wave + core cor, Zval =  7.0
     Generated using "atomic" code by A. Dal Corso v.6.3
     Shape of augmentation charge: PSQ
     Using radial grid of 1247 points, 10 beta functions with: 
                l(1) =   0
                l(2) =   0
                l(3) =   1
                l(4) =   1
                l(5) =   1
                l(6) =   1
                l(7) =   2
                l(8) =   2
                l(9) =   2
               l(10) =   2
     Q(r) pseudized with 0 coefficients 


     atomic species   valence    mass     pseudopotential
        Sn            14.00   118.70000     Sn( 1.00)
        I              7.00   126.90000     I ( 1.00)

     16 Sym. Ops., with inversion, found ( 8 have fractional translation)


                                    s                        frac. trans.

      isym =  1     identity                                     

 cryst.   s( 1) = (     1          0          0      )
                  (     0          1          0      )
                  (     0          0          1      )

 cart.    s( 1) = (  1.0000000  0.0000000  0.0000000 )
                  (  0.0000000  1.0000000  0.0000000 )
                  (  0.0000000  0.0000000  1.0000000 )


      isym =  2     180 deg rotation - cart. axis [0,0,1]        

 cryst.   s( 2) = (    -1          0          0      )
                  (     0         -1          0      )
                  (     0          0          1      )

 cart.    s( 2) = ( -1.0000000  0.0000000  0.0000000 )
                  (  0.0000000 -1.0000000  0.0000000 )
                  (  0.0000000  0.0000000  1.0000000 )


      isym =  3     180 deg rotation - cart. axis [0,1,0]        

 cryst.   s( 3) = (    -1          0          0      )    f =(  0.5000000 )
                  (     0          1          0      )       ( -0.5000000 )
                  (     0          0         -1      )       (  0.5000000 )

 cart.    s( 3) = ( -1.0000000  0.0000000  0.0000000 )    f =(  0.5000000 )
                  (  0.0000000  1.0000000  0.0000000 )       ( -0.5000000 )
                  (  0.0000000  0.0000000 -1.0000000 )       (  0.5000000 )


      isym =  4     180 deg rotation - cart. axis [1,0,0]        

 cryst.   s( 4) = (     1          0          0      )    f =( -0.5000000 )
                  (     0         -1          0      )       (  0.5000000 )
                  (     0          0         -1      )       (  0.5000000 )

 cart.    s( 4) = (  1.0000000  0.0000000  0.0000000 )    f =( -0.5000000 )
                  (  0.0000000 -1.0000000  0.0000000 )       (  0.5000000 )
                  (  0.0000000  0.0000000 -1.0000000 )       (  0.5000000 )


      isym =  5     180 deg rotation - cart. axis [1,1,0]        

 cryst.   s( 5) = (     0          1          0      )
                  (     1          0          0      )
                  (     0          0         -1      )

 cart.    s( 5) = (  0.0000000  1.0000000  0.0000000 )
                  (  1.0000000  0.0000000  0.0000000 )
                  (  0.0000000  0.0000000 -1.0000000 )


      isym =  6     180 deg rotation - cart. axis [1,-1,0]       

 cryst.   s( 6) = (     0         -1          0      )
                  (    -1          0          0      )
                  (     0          0         -1      )

 cart.    s( 6) = (  0.0000000 -1.0000000  0.0000000 )
                  ( -1.0000000  0.0000000  0.0000000 )
                  (  0.0000000  0.0000000 -1.0000000 )


      isym =  7      90 deg rotation - cart. axis [0,0,-1]       

 cryst.   s( 7) = (     0         -1          0      )    f =( -0.5000000 )
                  (     1          0          0      )       (  0.5000000 )
                  (     0          0          1      )       ( -0.5000000 )

 cart.    s( 7) = (  0.0000000  1.0000000  0.0000000 )    f =( -0.5000000 )
                  ( -1.0000000  0.0000000  0.0000000 )       (  0.5000000 )
                  (  0.0000000  0.0000000  1.0000000 )       ( -0.5000000 )


      isym =  8      90 deg rotation - cart. axis [0,0,1]        

 cryst.   s( 8) = (     0          1          0      )    f =(  0.5000000 )
                  (    -1          0          0      )       ( -0.5000000 )
                  (     0          0          1      )       ( -0.5000000 )

 cart.    s( 8) = (  0.0000000 -1.0000000  0.0000000 )    f =(  0.5000000 )
                  (  1.0000000  0.0000000  0.0000000 )       ( -0.5000000 )
                  (  0.0000000  0.0000000  1.0000000 )       ( -0.5000000 )


      isym =  9     inversion                                    

 cryst.   s( 9) = (    -1          0          0      )
                  (     0         -1          0      )
                  (     0          0         -1      )

 cart.    s( 9) = ( -1.0000000  0.0000000  0.0000000 )
                  (  0.0000000 -1.0000000  0.0000000 )
                  (  0.0000000  0.0000000 -1.0000000 )


      isym = 10     inv. 180 deg rotation - cart. axis [0,0,1]   

 cryst.   s(10) = (     1          0          0      )
                  (     0          1          0      )
                  (     0          0         -1      )

 cart.    s(10) = (  1.0000000  0.0000000  0.0000000 )
                  (  0.0000000  1.0000000  0.0000000 )
                  (  0.0000000  0.0000000 -1.0000000 )


      isym = 11     inv. 180 deg rotation - cart. axis [0,1,0]   

 cryst.   s(11) = (     1          0          0      )    f =( -0.5000000 )
                  (     0         -1          0      )       (  0.5000000 )
                  (     0          0          1      )       ( -0.5000000 )

 cart.    s(11) = (  1.0000000  0.0000000  0.0000000 )    f =( -0.5000000 )
                  (  0.0000000 -1.0000000  0.0000000 )       (  0.5000000 )
                  (  0.0000000  0.0000000  1.0000000 )       ( -0.5000000 )


      isym = 12     inv. 180 deg rotation - cart. axis [1,0,0]   

 cryst.   s(12) = (    -1          0          0      )    f =(  0.5000000 )
                  (     0          1          0      )       ( -0.5000000 )
                  (     0          0          1      )       ( -0.5000000 )

 cart.    s(12) = ( -1.0000000  0.0000000  0.0000000 )    f =(  0.5000000 )
                  (  0.0000000  1.0000000  0.0000000 )       ( -0.5000000 )
                  (  0.0000000  0.0000000  1.0000000 )       ( -0.5000000 )


      isym = 13     inv. 180 deg rotation - cart. axis [1,1,0]   

 cryst.   s(13) = (     0         -1          0      )
                  (    -1          0          0      )
                  (     0          0          1      )

 cart.    s(13) = (  0.0000000 -1.0000000  0.0000000 )
                  ( -1.0000000  0.0000000  0.0000000 )
                  (  0.0000000  0.0000000  1.0000000 )


      isym = 14     inv. 180 deg rotation - cart. axis [1,-1,0]  

 cryst.   s(14) = (     0          1          0      )
                  (     1          0          0      )
                  (     0          0          1      )

 cart.    s(14) = (  0.0000000  1.0000000  0.0000000 )
                  (  1.0000000  0.0000000  0.0000000 )
                  (  0.0000000  0.0000000  1.0000000 )


      isym = 15     inv.  90 deg rotation - cart. axis [0,0,-1]  

 cryst.   s(15) = (     0          1          0      )    f =(  0.5000000 )
                  (    -1          0          0      )       ( -0.5000000 )
                  (     0          0         -1      )       (  0.5000000 )

 cart.    s(15) = (  0.0000000 -1.0000000  0.0000000 )    f =(  0.5000000 )
                  (  1.0000000  0.0000000  0.0000000 )       ( -0.5000000 )
                  (  0.0000000  0.0000000 -1.0000000 )       (  0.5000000 )


      isym = 16     inv.  90 deg rotation - cart. axis [0,0,1]   

 cryst.   s(16) = (     0         -1          0      )    f =( -0.5000000 )
                  (     1          0          0      )       (  0.5000000 )
                  (     0          0         -1      )       (  0.5000000 )

 cart.    s(16) = (  0.0000000  1.0000000  0.0000000 )    f =( -0.5000000 )
                  ( -1.0000000  0.0000000  0.0000000 )       (  0.5000000 )
                  (  0.0000000  0.0000000 -1.0000000 )       (  0.5000000 )


     double point group D_4h(4/mmm)
     there are 14 classes and  4 irreducible representations
     the character table:

       E     -E    2C4   -2C4   C2    2C2' 2C2'' i     -i    2S4   -2S4   s_h 
                               -C2   -2C2' -2C2'                         -s_h 
G_6+   2.00 -2.00  1.41 -1.41  0.00  0.00  0.00  2.00 -2.00  1.41 -1.41  0.00
G_7+   2.00 -2.00 -1.41  1.41  0.00  0.00  0.00  2.00 -2.00 -1.41  1.41  0.00
G_6-   2.00 -2.00  1.41 -1.41  0.00  0.00  0.00 -2.00  2.00 -1.41  1.41  0.00
G_7-   2.00 -2.00 -1.41  1.41  0.00  0.00  0.00 -2.00  2.00  1.41 -1.41  0.00

        2s_v  2s_d
       -2s_v -2s_d
G_6+   0.00  0.00
G_7+   0.00  0.00
G_6-   0.00  0.00
G_7-   0.00  0.00

     the symmetry operations in each class and the name of the first element:

     E             1
          identity                                               
     -E           -1
          identity E                                             
     2C4           7    8
           90 deg rotation - cart. axis [0,0,-1]                 
     -2C4         -7   -8
           90 deg rotation - cart. axis [0,0,-1] E               
      C2  -C2      2   -2
          180 deg rotation - cart. axis [0,0,1]                  
      2C2'-2C2'    3   -3    4   -4
          180 deg rotation - cart. axis [0,1,0]                  
     2C2''-2C2'    5   -5   -6    6
          180 deg rotation - cart. axis [1,1,0]                  
     i             9
          inversion                                              
     -i           -9
          inversion E                                            
     2S4          15   16
          inv.  90 deg rotation - cart. axis [0,0,-1]            
     -2S4        -15  -16
          inv.  90 deg rotation - cart. axis [0,0,-1] E          
      s_h -s_h    10  -10
          inv. 180 deg rotation - cart. axis [0,0,1]             
      2s_v-2s_v   11  -11   12  -12
          inv. 180 deg rotation - cart. axis [0,1,0]             
      2s_d-2s_d   13  -13  -14   14
          inv. 180 deg rotation - cart. axis [1,1,0]             

   Cartesian axes

     site n.     atom                  positions (alat units)
         1           Sn  tau(   1) = (   0.0000000   0.0000000   0.0000000  )
         2           Sn  tau(   2) = (   0.5000000   0.5000000   0.5000000  )
         3           I   tau(   3) = (   0.2985210   0.2985210   0.0000000  )
         4           I   tau(   4) = (   0.7014790   0.7014790   0.0000000  )
         5           I   tau(   5) = (   0.7985210   0.2014790   0.5000000  )
         6           I   tau(   6) = (   0.2014790   0.7985210   0.5000000  )

   Crystallographic axes

     site n.     atom                  positions (cryst. coord.)
         1           Sn  tau(   1) = (  0.0000000  0.0000000  0.0000000  )
         2           Sn  tau(   2) = (  0.5000000  0.5000000  0.5000000  )
         3           I   tau(   3) = (  0.2985210  0.2985210  0.0000000  )
         4           I   tau(   4) = (  0.7014790  0.7014790  0.0000000  )
         5           I   tau(   5) = (  0.7985210  0.2014790  0.5000000  )
         6           I   tau(   6) = (  0.2014790  0.7985210  0.5000000  )

     number of k points=   126
                       cart. coord. in units 2pi/alat
        k(    1) = (   0.0416667   0.0416667   0.0416667), wk =   0.0046296
        k(    2) = (   0.0416667   0.0416667   0.1250000), wk =   0.0046296
        k(    3) = (   0.0416667   0.0416667   0.2083333), wk =   0.0046296
        k(    4) = (   0.0416667   0.0416667   0.2916667), wk =   0.0046296
        k(    5) = (   0.0416667   0.0416667   0.3750000), wk =   0.0046296
        k(    6) = (   0.0416667   0.0416667   0.4583333), wk =   0.0046296
        k(    7) = (   0.0416667   0.1250000   0.1250000), wk =   0.0092593
        k(    8) = (   0.0416667   0.1250000   0.2083333), wk =   0.0092593
        k(    9) = (   0.0416667   0.1250000   0.2916667), wk =   0.0092593
        k(   10) = (   0.0416667   0.1250000   0.3750000), wk =   0.0092593
        k(   11) = (   0.0416667   0.1250000   0.4583333), wk =   0.0092593
        k(   12) = (   0.0416667   0.2083333   0.2083333), wk =   0.0092593
        k(   13) = (   0.0416667   0.2083333   0.2916667), wk =   0.0092593
        k(   14) = (   0.0416667   0.2083333   0.3750000), wk =   0.0092593
        k(   15) = (   0.0416667   0.2083333   0.4583333), wk =   0.0092593
        k(   16) = (   0.0416667   0.2916667   0.2916667), wk =   0.0092593
        k(   17) = (   0.0416667   0.2916667   0.3750000), wk =   0.0092593
        k(   18) = (   0.0416667   0.2916667   0.4583333), wk =   0.0092593
        k(   19) = (   0.0416667   0.3750000   0.3750000), wk =   0.0092593
        k(   20) = (   0.0416667   0.3750000   0.4583333), wk =   0.0092593
        k(   21) = (   0.0416667   0.4583333   0.4583333), wk =   0.0092593
        k(   22) = (   0.1250000   0.1250000   0.1250000), wk =   0.0046296
        k(   23) = (   0.1250000   0.1250000   0.2083333), wk =   0.0046296
        k(   24) = (   0.1250000   0.1250000   0.2916667), wk =   0.0046296
        k(   25) = (   0.1250000   0.1250000   0.3750000), wk =   0.0046296
        k(   26) = (   0.1250000   0.1250000   0.4583333), wk =   0.0046296
        k(   27) = (   0.1250000   0.2083333   0.2083333), wk =   0.0092593
        k(   28) = (   0.1250000   0.2083333   0.2916667), wk =   0.0092593
        k(   29) = (   0.1250000   0.2083333   0.3750000), wk =   0.0092593
        k(   30) = (   0.1250000   0.2083333   0.4583333), wk =   0.0092593
        k(   31) = (   0.1250000   0.2916667   0.2916667), wk =   0.0092593
        k(   32) = (   0.1250000   0.2916667   0.3750000), wk =   0.0092593
        k(   33) = (   0.1250000   0.2916667   0.4583333), wk =   0.0092593
        k(   34) = (   0.1250000   0.3750000   0.3750000), wk =   0.0092593
        k(   35) = (   0.1250000   0.3750000   0.4583333), wk =   0.0092593
        k(   36) = (   0.1250000   0.4583333   0.4583333), wk =   0.0092593
        k(   37) = (   0.2083333   0.2083333   0.2083333), wk =   0.0046296
        k(   38) = (   0.2083333   0.2083333   0.2916667), wk =   0.0046296
        k(   39) = (   0.2083333   0.2083333   0.3750000), wk =   0.0046296
        k(   40) = (   0.2083333   0.2083333   0.4583333), wk =   0.0046296
        k(   41) = (   0.2083333   0.2916667   0.2916667), wk =   0.0092593
        k(   42) = (   0.2083333   0.2916667   0.3750000), wk =   0.0092593
        k(   43) = (   0.2083333   0.2916667   0.4583333), wk =   0.0092593
        k(   44) = (   0.2083333   0.3750000   0.3750000), wk =   0.0092593
        k(   45) = (   0.2083333   0.3750000   0.4583333), wk =   0.0092593
        k(   46) = (   0.2083333   0.4583333   0.4583333), wk =   0.0092593
        k(   47) = (   0.2916667   0.2916667   0.2916667), wk =   0.0046296
        k(   48) = (   0.2916667   0.2916667   0.3750000), wk =   0.0046296
        k(   49) = (   0.2916667   0.2916667   0.4583333), wk =   0.0046296
        k(   50) = (   0.2916667   0.3750000   0.3750000), wk =   0.0092593
        k(   51) = (   0.2916667   0.3750000   0.4583333), wk =   0.0092593
        k(   52) = (   0.2916667   0.4583333   0.4583333), wk =   0.0092593
        k(   53) = (   0.3750000   0.3750000   0.3750000), wk =   0.0046296
        k(   54) = (   0.3750000   0.3750000   0.4583333), wk =   0.0046296
        k(   55) = (   0.3750000   0.4583333   0.4583333), wk =   0.0092593
        k(   56) = (   0.4583333   0.4583333   0.4583333), wk =   0.0046296
        k(   57) = (   0.0416667   0.1250000   0.0416667), wk =   0.0092593
        k(   58) = (   0.0416667   0.2083333   0.0416667), wk =   0.0092593
        k(   59) = (   0.0416667   0.2916667   0.0416667), wk =   0.0092593
        k(   60) = (   0.0416667   0.3750000   0.0416667), wk =   0.0092593
        k(   61) = (   0.0416667   0.4583333   0.0416667), wk =   0.0092593
        k(   62) = (   0.1250000   0.1250000   0.0416667), wk =   0.0046296
        k(   63) = (   0.1250000   0.2083333   0.0416667), wk =   0.0092593
        k(   64) = (   0.2083333   0.0416667   0.1250000), wk =   0.0092593
        k(   65) = (   0.1250000   0.2916667   0.0416667), wk =   0.0092593
        k(   66) = (   0.2916667   0.0416667   0.1250000), wk =   0.0092593
        k(   67) = (   0.1250000   0.3750000   0.0416667), wk =   0.0092593
        k(   68) = (   0.3750000   0.0416667   0.1250000), wk =   0.0092593
        k(   69) = (   0.1250000   0.4583333   0.0416667), wk =   0.0092593
        k(   70) = (   0.4583333   0.0416667   0.1250000), wk =   0.0092593
        k(   71) = (   0.2083333   0.2083333   0.0416667), wk =   0.0046296
        k(   72) = (   0.2083333   0.2916667   0.0416667), wk =   0.0092593
        k(   73) = (   0.2916667   0.0416667   0.2083333), wk =   0.0092593
        k(   74) = (   0.2083333   0.3750000   0.0416667), wk =   0.0092593
        k(   75) = (   0.3750000   0.0416667   0.2083333), wk =   0.0092593
        k(   76) = (   0.2083333   0.4583333   0.0416667), wk =   0.0092593
        k(   77) = (   0.4583333   0.0416667   0.2083333), wk =   0.0092593
        k(   78) = (   0.2916667   0.2916667   0.0416667), wk =   0.0046296
        k(   79) = (   0.2916667   0.3750000   0.0416667), wk =   0.0092593
        k(   80) = (   0.3750000   0.0416667   0.2916667), wk =   0.0092593
        k(   81) = (   0.2916667   0.4583333   0.0416667), wk =   0.0092593
        k(   82) = (   0.4583333   0.0416667   0.2916667), wk =   0.0092593
        k(   83) = (   0.3750000   0.3750000   0.0416667), wk =   0.0046296
        k(   84) = (   0.3750000   0.4583333   0.0416667), wk =   0.0092593
        k(   85) = (   0.4583333   0.0416667   0.3750000), wk =   0.0092593
        k(   86) = (   0.4583333   0.4583333   0.0416667), wk =   0.0046296
        k(   87) = (   0.1250000   0.2083333   0.1250000), wk =   0.0092593
        k(   88) = (   0.1250000   0.2916667   0.1250000), wk =   0.0092593
        k(   89) = (   0.1250000   0.3750000   0.1250000), wk =   0.0092593
        k(   90) = (   0.1250000   0.4583333   0.1250000), wk =   0.0092593
        k(   91) = (   0.2083333   0.2083333   0.1250000), wk =   0.0046296
        k(   92) = (   0.2083333   0.2916667   0.1250000), wk =   0.0092593
        k(   93) = (   0.2916667   0.1250000   0.2083333), wk =   0.0092593
        k(   94) = (   0.2083333   0.3750000   0.1250000), wk =   0.0092593
        k(   95) = (   0.3750000   0.1250000   0.2083333), wk =   0.0092593
        k(   96) = (   0.2083333   0.4583333   0.1250000), wk =   0.0092593
        k(   97) = (   0.4583333   0.1250000   0.2083333), wk =   0.0092593
        k(   98) = (   0.2916667   0.2916667   0.1250000), wk =   0.0046296
        k(   99) = (   0.2916667   0.3750000   0.1250000), wk =   0.0092593
        k(  100) = (   0.3750000   0.1250000   0.2916667), wk =   0.0092593
        k(  101) = (   0.2916667   0.4583333   0.1250000), wk =   0.0092593
        k(  102) = (   0.4583333   0.1250000   0.2916667), wk =   0.0092593
        k(  103) = (   0.3750000   0.3750000   0.1250000), wk =   0.0046296
        k(  104) = (   0.3750000   0.4583333   0.1250000), wk =   0.0092593
        k(  105) = (   0.4583333   0.1250000   0.3750000), wk =   0.0092593
        k(  106) = (   0.4583333   0.4583333   0.1250000), wk =   0.0046296
        k(  107) = (   0.2083333   0.2916667   0.2083333), wk =   0.0092593
        k(  108) = (   0.2083333   0.3750000   0.2083333), wk =   0.0092593
        k(  109) = (   0.2083333   0.4583333   0.2083333), wk =   0.0092593
        k(  110) = (   0.2916667   0.2916667   0.2083333), wk =   0.0046296
        k(  111) = (   0.2916667   0.3750000   0.2083333), wk =   0.0092593
        k(  112) = (   0.3750000   0.2083333   0.2916667), wk =   0.0092593
        k(  113) = (   0.2916667   0.4583333   0.2083333), wk =   0.0092593
        k(  114) = (   0.4583333   0.2083333   0.2916667), wk =   0.0092593
        k(  115) = (   0.3750000   0.3750000   0.2083333), wk =   0.0046296
        k(  116) = (   0.3750000   0.4583333   0.2083333), wk =   0.0092593
        k(  117) = (   0.4583333   0.2083333   0.3750000), wk =   0.0092593
        k(  118) = (   0.4583333   0.4583333   0.2083333), wk =   0.0046296
        k(  119) = (   0.2916667   0.3750000   0.2916667), wk =   0.0092593
        k(  120) = (   0.2916667   0.4583333   0.2916667), wk =   0.0092593
        k(  121) = (   0.3750000   0.3750000   0.2916667), wk =   0.0046296
        k(  122) = (   0.3750000   0.4583333   0.2916667), wk =   0.0092593
        k(  123) = (   0.4583333   0.2916667   0.3750000), wk =   0.0092593
        k(  124) = (   0.4583333   0.4583333   0.2916667), wk =   0.0046296
        k(  125) = (   0.3750000   0.4583333   0.3750000), wk =   0.0092593
        k(  126) = (   0.4583333   0.4583333   0.3750000), wk =   0.0046296

                       cryst. coord.
        k(    1) = (   0.0416667   0.0416667   0.0416667), wk =   0.0046296
        k(    2) = (   0.0416667   0.0416667   0.1250000), wk =   0.0046296
        k(    3) = (   0.0416667   0.0416667   0.2083333), wk =   0.0046296
        k(    4) = (   0.0416667   0.0416667   0.2916667), wk =   0.0046296
        k(    5) = (   0.0416667   0.0416667   0.3750000), wk =   0.0046296
        k(    6) = (   0.0416667   0.0416667   0.4583333), wk =   0.0046296
        k(    7) = (   0.0416667   0.1250000   0.1250000), wk =   0.0092593
        k(    8) = (   0.0416667   0.1250000   0.2083333), wk =   0.0092593
        k(    9) = (   0.0416667   0.1250000   0.2916667), wk =   0.0092593
        k(   10) = (   0.0416667   0.1250000   0.3750000), wk =   0.0092593
        k(   11) = (   0.0416667   0.1250000   0.4583333), wk =   0.0092593
        k(   12) = (   0.0416667   0.2083333   0.2083333), wk =   0.0092593
        k(   13) = (   0.0416667   0.2083333   0.2916667), wk =   0.0092593
        k(   14) = (   0.0416667   0.2083333   0.3750000), wk =   0.0092593
        k(   15) = (   0.0416667   0.2083333   0.4583333), wk =   0.0092593
        k(   16) = (   0.0416667   0.2916667   0.2916667), wk =   0.0092593
        k(   17) = (   0.0416667   0.2916667   0.3750000), wk =   0.0092593
        k(   18) = (   0.0416667   0.2916667   0.4583333), wk =   0.0092593
        k(   19) = (   0.0416667   0.3750000   0.3750000), wk =   0.0092593
        k(   20) = (   0.0416667   0.3750000   0.4583333), wk =   0.0092593
        k(   21) = (   0.0416667   0.4583333   0.4583333), wk =   0.0092593
        k(   22) = (   0.1250000   0.1250000   0.1250000), wk =   0.0046296
        k(   23) = (   0.1250000   0.1250000   0.2083333), wk =   0.0046296
        k(   24) = (   0.1250000   0.1250000   0.2916667), wk =   0.0046296
        k(   25) = (   0.1250000   0.1250000   0.3750000), wk =   0.0046296
        k(   26) = (   0.1250000   0.1250000   0.4583333), wk =   0.0046296
        k(   27) = (   0.1250000   0.2083333   0.2083333), wk =   0.0092593
        k(   28) = (   0.1250000   0.2083333   0.2916667), wk =   0.0092593
        k(   29) = (   0.1250000   0.2083333   0.3750000), wk =   0.0092593
        k(   30) = (   0.1250000   0.2083333   0.4583333), wk =   0.0092593
        k(   31) = (   0.1250000   0.2916667   0.2916667), wk =   0.0092593
        k(   32) = (   0.1250000   0.2916667   0.3750000), wk =   0.0092593
        k(   33) = (   0.1250000   0.2916667   0.4583333), wk =   0.0092593
        k(   34) = (   0.1250000   0.3750000   0.3750000), wk =   0.0092593
        k(   35) = (   0.1250000   0.3750000   0.4583333), wk =   0.0092593
        k(   36) = (   0.1250000   0.4583333   0.4583333), wk =   0.0092593
        k(   37) = (   0.2083333   0.2083333   0.2083333), wk =   0.0046296
        k(   38) = (   0.2083333   0.2083333   0.2916667), wk =   0.0046296
        k(   39) = (   0.2083333   0.2083333   0.3750000), wk =   0.0046296
        k(   40) = (   0.2083333   0.2083333   0.4583333), wk =   0.0046296
        k(   41) = (   0.2083333   0.2916667   0.2916667), wk =   0.0092593
        k(   42) = (   0.2083333   0.2916667   0.3750000), wk =   0.0092593
        k(   43) = (   0.2083333   0.2916667   0.4583333), wk =   0.0092593
        k(   44) = (   0.2083333   0.3750000   0.3750000), wk =   0.0092593
        k(   45) = (   0.2083333   0.3750000   0.4583333), wk =   0.0092593
        k(   46) = (   0.2083333   0.4583333   0.4583333), wk =   0.0092593
        k(   47) = (   0.2916667   0.2916667   0.2916667), wk =   0.0046296
        k(   48) = (   0.2916667   0.2916667   0.3750000), wk =   0.0046296
        k(   49) = (   0.2916667   0.2916667   0.4583333), wk =   0.0046296
        k(   50) = (   0.2916667   0.3750000   0.3750000), wk =   0.0092593
        k(   51) = (   0.2916667   0.3750000   0.4583333), wk =   0.0092593
        k(   52) = (   0.2916667   0.4583333   0.4583333), wk =   0.0092593
        k(   53) = (   0.3750000   0.3750000   0.3750000), wk =   0.0046296
        k(   54) = (   0.3750000   0.3750000   0.4583333), wk =   0.0046296
        k(   55) = (   0.3750000   0.4583333   0.4583333), wk =   0.0092593
        k(   56) = (   0.4583333   0.4583333   0.4583333), wk =   0.0046296
        k(   57) = (   0.0416667   0.1250000   0.0416667), wk =   0.0092593
        k(   58) = (   0.0416667   0.2083333   0.0416667), wk =   0.0092593
        k(   59) = (   0.0416667   0.2916667   0.0416667), wk =   0.0092593
        k(   60) = (   0.0416667   0.3750000   0.0416667), wk =   0.0092593
        k(   61) = (   0.0416667   0.4583333   0.0416667), wk =   0.0092593
        k(   62) = (   0.1250000   0.1250000   0.0416667), wk =   0.0046296
        k(   63) = (   0.1250000   0.2083333   0.0416667), wk =   0.0092593
        k(   64) = (   0.2083333   0.0416667   0.1250000), wk =   0.0092593
        k(   65) = (   0.1250000   0.2916667   0.0416667), wk =   0.0092593
        k(   66) = (   0.2916667   0.0416667   0.1250000), wk =   0.0092593
        k(   67) = (   0.1250000   0.3750000   0.0416667), wk =   0.0092593
        k(   68) = (   0.3750000   0.0416667   0.1250000), wk =   0.0092593
        k(   69) = (   0.1250000   0.4583333   0.0416667), wk =   0.0092593
        k(   70) = (   0.4583333   0.0416667   0.1250000), wk =   0.0092593
        k(   71) = (   0.2083333   0.2083333   0.0416667), wk =   0.0046296
        k(   72) = (   0.2083333   0.2916667   0.0416667), wk =   0.0092593
        k(   73) = (   0.2916667   0.0416667   0.2083333), wk =   0.0092593
        k(   74) = (   0.2083333   0.3750000   0.0416667), wk =   0.0092593
        k(   75) = (   0.3750000   0.0416667   0.2083333), wk =   0.0092593
        k(   76) = (   0.2083333   0.4583333   0.0416667), wk =   0.0092593
        k(   77) = (   0.4583333   0.0416667   0.2083333), wk =   0.0092593
        k(   78) = (   0.2916667   0.2916667   0.0416667), wk =   0.0046296
        k(   79) = (   0.2916667   0.3750000   0.0416667), wk =   0.0092593
        k(   80) = (   0.3750000   0.0416667   0.2916667), wk =   0.0092593
        k(   81) = (   0.2916667   0.4583333   0.0416667), wk =   0.0092593
        k(   82) = (   0.4583333   0.0416667   0.2916667), wk =   0.0092593
        k(   83) = (   0.3750000   0.3750000   0.0416667), wk =   0.0046296
        k(   84) = (   0.3750000   0.4583333   0.0416667), wk =   0.0092593
        k(   85) = (   0.4583333   0.0416667   0.3750000), wk =   0.0092593
        k(   86) = (   0.4583333   0.4583333   0.0416667), wk =   0.0046296
        k(   87) = (   0.1250000   0.2083333   0.1250000), wk =   0.0092593
        k(   88) = (   0.1250000   0.2916667   0.1250000), wk =   0.0092593
        k(   89) = (   0.1250000   0.3750000   0.1250000), wk =   0.0092593
        k(   90) = (   0.1250000   0.4583333   0.1250000), wk =   0.0092593
        k(   91) = (   0.2083333   0.2083333   0.1250000), wk =   0.0046296
        k(   92) = (   0.2083333   0.2916667   0.1250000), wk =   0.0092593
        k(   93) = (   0.2916667   0.1250000   0.2083333), wk =   0.0092593
        k(   94) = (   0.2083333   0.3750000   0.1250000), wk =   0.0092593
        k(   95) = (   0.3750000   0.1250000   0.2083333), wk =   0.0092593
        k(   96) = (   0.2083333   0.4583333   0.1250000), wk =   0.0092593
        k(   97) = (   0.4583333   0.1250000   0.2083333), wk =   0.0092593
        k(   98) = (   0.2916667   0.2916667   0.1250000), wk =   0.0046296
        k(   99) = (   0.2916667   0.3750000   0.1250000), wk =   0.0092593
        k(  100) = (   0.3750000   0.1250000   0.2916667), wk =   0.0092593
        k(  101) = (   0.2916667   0.4583333   0.1250000), wk =   0.0092593
        k(  102) = (   0.4583333   0.1250000   0.2916667), wk =   0.0092593
        k(  103) = (   0.3750000   0.3750000   0.1250000), wk =   0.0046296
        k(  104) = (   0.3750000   0.4583333   0.1250000), wk =   0.0092593
        k(  105) = (   0.4583333   0.1250000   0.3750000), wk =   0.0092593
        k(  106) = (   0.4583333   0.4583333   0.1250000), wk =   0.0046296
        k(  107) = (   0.2083333   0.2916667   0.2083333), wk =   0.0092593
        k(  108) = (   0.2083333   0.3750000   0.2083333), wk =   0.0092593
        k(  109) = (   0.2083333   0.4583333   0.2083333), wk =   0.0092593
        k(  110) = (   0.2916667   0.2916667   0.2083333), wk =   0.0046296
        k(  111) = (   0.2916667   0.3750000   0.2083333), wk =   0.0092593
        k(  112) = (   0.3750000   0.2083333   0.2916667), wk =   0.0092593
        k(  113) = (   0.2916667   0.4583333   0.2083333), wk =   0.0092593
        k(  114) = (   0.4583333   0.2083333   0.2916667), wk =   0.0092593
        k(  115) = (   0.3750000   0.3750000   0.2083333), wk =   0.0046296
        k(  116) = (   0.3750000   0.4583333   0.2083333), wk =   0.0092593
        k(  117) = (   0.4583333   0.2083333   0.3750000), wk =   0.0092593
        k(  118) = (   0.4583333   0.4583333   0.2083333), wk =   0.0046296
        k(  119) = (   0.2916667   0.3750000   0.2916667), wk =   0.0092593
        k(  120) = (   0.2916667   0.4583333   0.2916667), wk =   0.0092593
        k(  121) = (   0.3750000   0.3750000   0.2916667), wk =   0.0046296
        k(  122) = (   0.3750000   0.4583333   0.2916667), wk =   0.0092593
        k(  123) = (   0.4583333   0.2916667   0.3750000), wk =   0.0092593
        k(  124) = (   0.4583333   0.4583333   0.2916667), wk =   0.0046296
        k(  125) = (   0.3750000   0.4583333   0.3750000), wk =   0.0092593
        k(  126) = (   0.4583333   0.4583333   0.3750000), wk =   0.0046296

     Dense  grid:   635371 G-vectors     FFT dimensions: ( 108, 108, 108)

     Smooth grid:   346083 G-vectors     FFT dimensions: (  90,  90,  90)

     Dynamical RAM for                 wfc:       3.08 MB

     Dynamical RAM for     wfc (w. buffer):     390.89 MB

     Dynamical RAM for           str. fact:       0.81 MB

     Dynamical RAM for           local pot:       0.00 MB

     Dynamical RAM for          nlocal pot:       5.61 MB

     Dynamical RAM for                qrad:      22.39 MB

     Dynamical RAM for          rho,v,vnew:      10.19 MB

     Dynamical RAM for               rhoin:       3.40 MB

     Dynamical RAM for            rho*nmix:      25.85 MB

     Dynamical RAM for           G-vectors:       1.62 MB

     Dynamical RAM for          h,s,v(r/c):       0.25 MB

     Dynamical RAM for          <psi|beta>:       0.35 MB

     Dynamical RAM for                 psi:      12.31 MB

     Dynamical RAM for                hpsi:      12.31 MB

     Dynamical RAM for                spsi:      12.31 MB

     Dynamical RAM for      wfcinit/wfcrot:       5.71 MB

     Dynamical RAM for           addusdens:     248.04 MB

     Dynamical RAM for          addusforce:     253.17 MB

     Dynamical RAM for         addusstress:     253.70 MB

     Estimated static dynamical RAM per process >     465.53 MB

     Estimated max dynamical RAM per process >     719.23 MB

     Estimated total dynamical RAM >      16.86 GB

     Initial potential from superposition of free atoms

     starting charge   55.99771, renormalised to   56.00000
     Starting wfcs are   68 randomized atomic wfcs
     Checking if some PAW data can be deallocated... 
       PAW data deallocated on   16 nodes for type:  1
       PAW data deallocated on    8 nodes for type:  2

     total cpu time spent up to now is      218.0 secs

     Self-consistent Calculation

     iteration #  1     ecut=    90.00 Ry     beta= 0.35
     Davidson diagonalization with overlap
     ethr =  1.00E-02,  avg # of iterations =  1.0

     total cpu time spent up to now is      761.6 secs

     total energy              =   -2370.83370605 Ry
     Harris-Foulkes estimate   =   -2371.11851855 Ry
     estimated scf accuracy    <       0.58881647 Ry

     iteration #  2     ecut=    90.00 Ry     beta= 0.35
     Davidson diagonalization with overlap
     ethr =  1.05E-03,  avg # of iterations =  3.0

     total cpu time spent up to now is     1540.8 secs

     total energy              =   -2370.93720671 Ry
     Harris-Foulkes estimate   =   -2370.94810309 Ry
     estimated scf accuracy    <       0.04039749 Ry

     iteration #  3     ecut=    90.00 Ry     beta= 0.35
     Davidson diagonalization with overlap
     ethr =  7.21E-05,  avg # of iterations =  3.3

     total cpu time spent up to now is     2272.7 secs

     total energy              =   -2370.94077926 Ry
     Harris-Foulkes estimate   =   -2370.94309641 Ry
     estimated scf accuracy    <       0.00912979 Ry

     iteration #  4     ecut=    90.00 Ry     beta= 0.35
     Davidson diagonalization with overlap
     ethr =  1.63E-05,  avg # of iterations =  3.1

     total cpu time spent up to now is     2955.5 secs

     total energy              =   -2370.94201099 Ry
     Harris-Foulkes estimate   =   -2370.94196665 Ry
     estimated scf accuracy    <       0.00056830 Ry

     iteration #  5     ecut=    90.00 Ry     beta= 0.35
     Davidson diagonalization with overlap
     ethr =  1.01E-06,  avg # of iterations =  4.8

     total cpu time spent up to now is     3874.3 secs

     total energy              =   -2370.94217572 Ry
     Harris-Foulkes estimate   =   -2370.94220213 Ry
     estimated scf accuracy    <       0.00006370 Ry

     iteration #  6     ecut=    90.00 Ry     beta= 0.35
     Davidson diagonalization with overlap
     ethr =  1.14E-07,  avg # of iterations =  3.3

     total cpu time spent up to now is     4785.9 secs

     total energy              =   -2370.94219465 Ry
     Harris-Foulkes estimate   =   -2370.94218742 Ry
     estimated scf accuracy    <       0.00000866 Ry

     iteration #  7     ecut=    90.00 Ry     beta= 0.35
     Davidson diagonalization with overlap
     ethr =  1.55E-08,  avg # of iterations =  4.0

     total cpu time spent up to now is     5514.0 secs

     total energy              =   -2370.94219657 Ry
     Harris-Foulkes estimate   =   -2370.94219666 Ry
     estimated scf accuracy    <       0.00000120 Ry

     iteration #  8     ecut=    90.00 Ry     beta= 0.35
     Davidson diagonalization with overlap
     ethr =  2.15E-09,  avg # of iterations =  3.0

     total cpu time spent up to now is     6104.2 secs

     End of self-consistent calculation

          k = 0.0417 0.0417 0.0417 ( 43252 PWs)   bands (ev):

   -23.2732 -23.2732 -23.2732 -23.2732 -23.1409 -23.1409 -23.1409 -23.1409
   -22.2535 -22.2535 -22.2535 -22.2535 -22.1383 -22.1383 -22.1383 -22.1383
   -22.0847 -22.0847 -22.0846 -22.0846 -11.6297 -11.6297 -11.5341 -11.5341
   -11.4812 -11.4812 -11.4801 -11.4801  -7.0831  -7.0831  -6.8677  -6.8677
    -2.6584  -2.6584  -2.4912  -2.4912  -2.1281  -2.1281  -2.0554  -2.0554
    -1.9159  -1.9159  -1.5255  -1.5255  -1.2400  -1.2400  -1.1146  -1.1146
    -1.0947  -1.0947  -1.0416  -1.0416  -0.9273  -0.9273  -0.8967  -0.8967

     occupation numbers 
     1.0000   1.0000   1.0000   1.0000   1.0000   1.0000   1.0000   1.0000
     1.0000   1.0000   1.0000   1.0000   1.0000   1.0000   1.0000   1.0000
     1.0000   1.0000   1.0000   1.0000   1.0000   1.0000   1.0000   1.0000
     1.0000   1.0000   1.0000   1.0000   1.0000   1.0000   1.0000   1.0000
     1.0000   1.0000   1.0000   1.0000   1.0000   1.0000   1.0000   1.0000
     1.0000   1.0000   1.0000   1.0000   1.0000   1.0000   1.0000   1.0000
     1.0000   1.0000   1.0000   1.0000   1.0000   1.0000   1.0000   1.0000

          k = 0.0417 0.0417 0.1250 ( 43260 PWs)   bands (ev):

   -23.2732 -23.2732 -23.2732 -23.2732 -23.1409 -23.1409 -23.1409 -23.1409
   -22.2535 -22.2535 -22.2535 -22.2535 -22.1383 -22.1383 -22.1383 -22.1383
   -22.0847 -22.0847 -22.0846 -22.0846 -11.6263 -11.6263 -11.5373 -11.5373
   -11.4812 -11.4812 -11.4800 -11.4800  -7.0777  -7.0777  -6.8772  -6.8772
    -2.6491  -2.6491  -2.4929  -2.4929  -2.1261  -2.1261  -2.0549  -2.0549
    -1.9050  -1.9050  -1.5282  -1.5282  -1.2427  -1.2427  -1.1284  -1.1284
    -1.1055  -1.1055  -1.0508  -1.0508  -0.9262  -0.9262  -0.9056  -0.9056

     occupation numbers 
     1.0000   1.0000   1.0000   1.0000   1.0000   1.0000   1.0000   1.0000
     1.0000   1.0000   1.0000   1.0000   1.0000   1.0000   1.0000   1.0000
     1.0000   1.0000   1.0000   1.0000   1.0000   1.0000   1.0000   1.0000
     1.0000   1.0000   1.0000   1.0000   1.0000   1.0000   1.0000   1.0000
     1.0000   1.0000   1.0000   1.0000   1.0000   1.0000   1.0000   1.0000
     1.0000   1.0000   1.0000   1.0000   1.0000   1.0000   1.0000   1.0000
     1.0000   1.0000   1.0000   1.0000   1.0000   1.0000   1.0000   1.0000

          k = 0.0417 0.0417 0.2083 ( 43201 PWs)   bands (ev):

   -23.2732 -23.2732 -23.2732 -23.2732 -23.1409 -23.1409 -23.1409 -23.1409
   -22.2535 -22.2535 -22.2535 -22.2535 -22.1383 -22.1383 -22.1383 -22.1383
   -22.0847 -22.0847 -22.0846 -22.0846 -11.6200 -11.6200 -11.5434 -11.5434
   -11.4811 -11.4811 -11.4799 -11.4799  -7.0670  -7.0670  -6.8950  -6.8950
    -2.6322  -2.6322  -2.4966  -2.4966  -2.1241  -2.1241  -2.0543  -2.0543
    -1.8815  -1.8815  -1.5386  -1.5386  -1.2452  -1.2452  -1.1495  -1.1495
    -1.1210  -1.1210  -1.0658  -1.0658  -0.9351  -0.9351  -0.9147  -0.9147

     occupation numbers 
     1.0000   1.0000   1.0000   1.0000   1.0000   1.0000   1.0000   1.0000
     1.0000   1.0000   1.0000   1.0000   1.0000   1.0000   1.0000   1.0000
     1.0000   1.0000   1.0000   1.0000   1.0000   1.0000   1.0000   1.0000
     1.0000   1.0000   1.0000   1.0000   1.0000   1.0000   1.0000   1.0000
     1.0000   1.0000   1.0000   1.0000   1.0000   1.0000   1.0000   1.0000
     1.0000   1.0000   1.0000   1.0000   1.0000   1.0000   1.0000   1.0000
     1.0000   1.0000   1.0000   1.0000   1.0000   1.0000   1.0000   1.0000

          k = 0.0417 0.0417 0.2917 ( 43216 PWs)   bands (ev):

   -23.2732 -23.2732 -23.2732 -23.2732 -23.1409 -23.1409 -23.1409 -23.1409
   -22.2535 -22.2535 -22.2535 -22.2535 -22.1383 -22.1383 -22.1383 -22.1383
   -22.0847 -22.0847 -22.0847 -22.0847 -11.6109 -11.6109 -11.5522 -11.5522
   -11.4810 -11.4810 -11.4798 -11.4798  -7.0510  -7.0510  -6.9192  -6.9192
    -2.6108  -2.6108  -2.5027  -2.5027  -2.1236  -2.1236  -2.0541  -2.0541
    -1.8442  -1.8442  -1.5634  -1.5634  -1.2432  -1.2432  -1.1673  -1.1673
    -1.1382  -1.1382  -1.0818  -1.0818  -0.9538  -0.9538  -0.9241  -0.9241

     occupation numbers 
     1.0000   1.0000   1.0000   1.0000   1.0000   1.0000   1.0000   1.0000
     1.0000   1.0000   1.0000   1.0000   1.0000   1.0000   1.0000   1.0000
     1.0000   1.0000   1.0000   1.0000   1.0000   1.0000   1.0000   1.0000
     1.0000   1.0000   1.0000   1.0000   1.0000   1.0000   1.0000   1.0000
     1.0000   1.0000   1.0000   1.0000   1.0000   1.0000   1.0000   1.0000
     1.0000   1.0000   1.0000   1.0000   1.0000   1.0000   1.0000   1.0000
     1.0000   1.0000   1.0000   1.0000   1.0000   1.0000   1.0000   1.0000

          k = 0.0417 0.0417 0.3750 ( 43217 PWs)   bands (ev):

   -23.2732 -23.2732 -23.2732 -23.2732 -23.1409 -23.1409 -23.1409 -23.1409
   -22.2535 -22.2535 -22.2535 -22.2535 -22.1383 -22.1383 -22.1383 -22.1383
   -22.0847 -22.0847 -22.0847 -22.0847 -11.5999 -11.5999 -11.5630 -11.5630
   -11.4809 -11.4809 -11.4797 -11.4797  -7.0300  -7.0300  -6.9473  -6.9473
    -2.5892  -2.5892  -2.5110  -2.5110  -2.1243  -2.1243  -2.0546  -2.0546
    -1.7955  -1.7955  -1.6037  -1.6037  -1.2346  -1.2346  -1.1790  -1.1790
    -1.1531  -1.1531  -1.0944  -1.0944  -0.9709  -0.9709  -0.9379  -0.9379

     occupation numbers 
     1.0000   1.0000   1.0000   1.0000   1.0000   1.0000   1.0000   1.0000
     1.0000   1.0000   1.0000   1.0000   1.0000   1.0000   1.0000   1.0000
     1.0000   1.0000   1.0000   1.0000   1.0000   1.0000   1.0000   1.0000
     1.0000   1.0000   1.0000   1.0000   1.0000   1.0000   1.0000   1.0000
     1.0000   1.0000   1.0000   1.0000   1.0000   1.0000   1.0000   1.0000
     1.0000   1.0000   1.0000   1.0000   1.0000   1.0000   1.0000   1.0000
     1.0000   1.0000   1.0000   1.0000   1.0000   1.0000   1.0000   1.0000

          k = 0.0417 0.0417 0.4583 ( 43249 PWs)   bands (ev):

   -23.2732 -23.2732 -23.2732 -23.2732 -23.1409 -23.1409 -23.1409 -23.1409
   -22.2535 -22.2535 -22.2535 -22.2535 -22.1383 -22.1383 -22.1383 -22.1383
   -22.0847 -22.0847 -22.0847 -22.0847 -11.5877 -11.5877 -11.5751 -11.5751
   -11.4808 -11.4808 -11.4797 -11.4797  -7.0048  -7.0048  -6.9766  -6.9766
    -2.5736  -2.5736  -2.5190  -2.5190  -2.1251  -2.1251  -2.0553  -2.0553
    -1.7461  -1.7461  -1.6494  -1.6494  -1.2226  -1.2226  -1.1907  -1.1907
    -1.1593  -1.1593  -1.1013  -1.1013  -0.9801  -0.9801  -0.9495  -0.9495

     occupation numbers 
     1.0000   1.0000   1.0000   1.0000   1.0000   1.0000   1.0000   1.0000
     1.0000   1.0000   1.0000   1.0000   1.0000   1.0000   1.0000   1.0000
     1.0000   1.0000   1.0000   1.0000   1.0000   1.0000   1.0000   1.0000
     1.0000   1.0000   1.0000   1.0000   1.0000   1.0000   1.0000   1.0000
     1.0000   1.0000   1.0000   1.0000   1.0000   1.0000   1.0000   1.0000
     1.0000   1.0000   1.0000   1.0000   1.0000   1.0000   1.0000   1.0000
     1.0000   1.0000   1.0000   1.0000   1.0000   1.0000   1.0000   1.0000

          k = 0.0417 0.1250 0.1250 ( 43219 PWs)   bands (ev):

   -23.2732 -23.2732 -23.2732 -23.2732 -23.1409 -23.1409 -23.1409 -23.1409
   -22.2535 -22.2535 -22.2535 -22.2535 -22.1383 -22.1383 -22.1383 -22.1383
   -22.0847 -22.0847 -22.0846 -22.0846 -11.6219 -11.6219 -11.5362 -11.5362
   -11.4856 -11.4856 -11.4814 -11.4814  -7.0697  -7.0697  -6.8826  -6.8826
    -2.6900  -2.6900  -2.5516  -2.5516  -2.1501  -2.1501  -2.0074  -2.0074
    -1.8696  -1.8696  -1.5356  -1.5356  -1.2262  -1.2262  -1.1420  -1.1420
    -1.1015  -1.1015  -0.9996  -0.9996  -0.9275  -0.9275  -0.8843  -0.8843

     occupation numbers 
     1.0000   1.0000   1.0000   1.0000   1.0000   1.0000   1.0000   1.0000
     1.0000   1.0000   1.0000   1.0000   1.0000   1.0000   1.0000   1.0000
     1.0000   1.0000   1.0000   1.0000   1.0000   1.0000   1.0000   1.0000
     1.0000   1.0000   1.0000   1.0000   1.0000   1.0000   1.0000   1.0000
     1.0000   1.0000   1.0000   1.0000   1.0000   1.0000   1.0000   1.0000
     1.0000   1.0000   1.0000   1.0000   1.0000   1.0000   1.0000   1.0000
     1.0000   1.0000   1.0000   1.0000   1.0000   1.0000   1.0000   1.0000

          k = 0.0417 0.1250 0.2083 ( 43207 PWs)   bands (ev):

   -23.2732 -23.2732 -23.2732 -23.2732 -23.1409 -23.1409 -23.1409 -23.1409
   -22.2535 -22.2535 -22.2535 -22.2535 -22.1383 -22.1383 -22.1383 -22.1383
   -22.0847 -22.0847 -22.0846 -22.0846 -11.6157 -11.6157 -11.5421 -11.5421
   -11.4854 -11.4854 -11.4814 -11.4814  -7.0599  -7.0599  -6.8994  -6.8994
    -2.6833  -2.6833  -2.5543  -2.5543  -2.1346  -2.1346  -1.9990  -1.9990
    -1.8603  -1.8603  -1.5479  -1.5479  -1.2258  -1.2258  -1.1599  -1.1599
    -1.1138  -1.1138  -1.0151  -1.0151  -0.9315  -0.9315  -0.8903  -0.8903

     occupation numbers 
     1.0000   1.0000   1.0000   1.0000   1.0000   1.0000   1.0000   1.0000
     1.0000   1.0000   1.0000   1.0000   1.0000   1.0000   1.0000   1.0000
     1.0000   1.0000   1.0000   1.0000   1.0000   1.0000   1.0000   1.0000
     1.0000   1.0000   1.0000   1.0000   1.0000   1.0000   1.0000   1.0000
     1.0000   1.0000   1.0000   1.0000   1.0000   1.0000   1.0000   1.0000
     1.0000   1.0000   1.0000   1.0000   1.0000   1.0000   1.0000   1.0000
     1.0000   1.0000   1.0000   1.0000   1.0000   1.0000   1.0000   1.0000

          k = 0.0417 0.1250 0.2917 ( 43226 PWs)   bands (ev):

   -23.2732 -23.2732 -23.2732 -23.2732 -23.1409 -23.1409 -23.1409 -23.1409
   -22.2535 -22.2535 -22.2535 -22.2535 -22.1383 -22.1383 -22.1383 -22.1383
   -22.0847 -22.0847 -22.0847 -22.0847 -11.6070 -11.6070 -11.5504 -11.5504
   -11.4853 -11.4853 -11.4815 -11.4815  -7.0452  -7.0452  -6.9222  -6.9222
    -2.6753  -2.6753  -2.5572  -2.5572  -2.1212  -2.1212  -1.9887  -1.9887
    -1.8409  -1.8409  -1.5685  -1.5685  -1.2238  -1.2238  -1.1798  -1.1798
    -1.1236  -1.1236  -1.0321  -1.0321  -0.9422  -0.9422  -0.8969  -0.8969

     occupation numbers 
     1.0000   1.0000   1.0000   1.0000   1.0000   1.0000   1.0000   1.0000
     1.0000   1.0000   1.0000   1.0000   1.0000   1.0000   1.0000   1.0000
     1.0000   1.0000   1.0000   1.0000   1.0000   1.0000   1.0000   1.0000
     1.0000   1.0000   1.0000   1.0000   1.0000   1.0000   1.0000   1.0000
     1.0000   1.0000   1.0000   1.0000   1.0000   1.0000   1.0000   1.0000
     1.0000   1.0000   1.0000   1.0000   1.0000   1.0000   1.0000   1.0000
     1.0000   1.0000   1.0000   1.0000   1.0000   1.0000   1.0000   1.0000

          k = 0.0417 0.1250 0.3750 ( 43243 PWs)   bands (ev):

   -23.2732 -23.2732 -23.2732 -23.2732 -23.1409 -23.1409 -23.1409 -23.1409
   -22.2535 -22.2535 -22.2535 -22.2535 -22.1383 -22.1383 -22.1383 -22.1383
   -22.0847 -22.0847 -22.0847 -22.0847 -11.5964 -11.5964 -11.5607 -11.5607
   -11.4851 -11.4851 -11.4816 -11.4816  -7.0258  -7.0258  -6.9485  -6.9485
    -2.6682  -2.6682  -2.5597  -2.5597  -2.1132  -2.1132  -1.9811  -1.9811
    -1.8112  -1.8112  -1.5951  -1.5951  -1.2252  -1.2252  -1.1896  -1.1896
    -1.1302  -1.1302  -1.0468  -1.0468  -0.9561  -0.9561  -0.9032  -0.9032

     occupation numbers 
     1.0000   1.0000   1.0000   1.0000   1.0000   1.0000   1.0000   1.0000
     1.0000   1.0000   1.0000   1.0000   1.0000   1.0000   1.0000   1.0000
     1.0000   1.0000   1.0000   1.0000   1.0000   1.0000   1.0000   1.0000
     1.0000   1.0000   1.0000   1.0000   1.0000   1.0000   1.0000   1.0000
     1.0000   1.0000   1.0000   1.0000   1.0000   1.0000   1.0000   1.0000
     1.0000   1.0000   1.0000   1.0000   1.0000   1.0000   1.0000   1.0000
     1.0000   1.0000   1.0000   1.0000   1.0000   1.0000   1.0000   1.0000

          k = 0.0417 0.1250 0.4583 ( 43235 PWs)   bands (ev):

   -23.2732 -23.2732 -23.2732 -23.2732 -23.1409 -23.1409 -23.1409 -23.1409
   -22.2535 -22.2535 -22.2535 -22.2535 -22.1383 -22.1383 -22.1383 -22.1383
   -22.0847 -22.0847 -22.0847 -22.0847 -11.5847 -11.5847 -11.5722 -11.5722
   -11.4850 -11.4850 -11.4816 -11.4816  -7.0025  -7.0025  -6.9758  -6.9758
    -2.6640  -2.6640  -2.5612  -2.5612  -2.1099  -2.1099  -1.9777  -1.9777
    -1.7846  -1.7846  -1.6178  -1.6178  -1.2297  -1.2297  -1.1894  -1.1894
    -1.1337  -1.1337  -1.0553  -1.0553  -0.9661  -0.9661  -0.9076  -0.9076

     occupation numbers 
     1.0000   1.0000   1.0000   1.0000   1.0000   1.0000   1.0000   1.0000
     1.0000   1.0000   1.0000   1.0000   1.0000   1.0000   1.0000   1.0000
     1.0000   1.0000   1.0000   1.0000   1.0000   1.0000   1.0000   1.0000
     1.0000   1.0000   1.0000   1.0000   1.0000   1.0000   1.0000   1.0000
     1.0000   1.0000   1.0000   1.0000   1.0000   1.0000   1.0000   1.0000
     1.0000   1.0000   1.0000   1.0000   1.0000   1.0000   1.0000   1.0000
     1.0000   1.0000   1.0000   1.0000   1.0000   1.0000   1.0000   1.0000

          k = 0.0417 0.2083 0.2083 ( 43219 PWs)   bands (ev):

   -23.2732 -23.2732 -23.2732 -23.2732 -23.1409 -23.1409 -23.1409 -23.1409
   -22.2535 -22.2535 -22.2535 -22.2535 -22.1383 -22.1383 -22.1383 -22.1383
   -22.0847 -22.0847 -22.0847 -22.0847 -11.6076 -11.6076 -11.5399 -11.5399
   -11.4929 -11.4929 -11.4849 -11.4849  -7.0463  -7.0463  -6.9082  -6.9082
    -2.7554  -2.7554  -2.6415  -2.6415  -2.1271  -2.1271  -1.9588  -1.9588
    -1.8231  -1.8231  -1.5616  -1.5616  -1.2345  -1.2345  -1.1689  -1.1689
    -1.0552  -1.0552  -0.9762  -0.9762  -0.9162  -0.9162  -0.8165  -0.8165

     occupation numbers 
     1.0000   1.0000   1.0000   1.0000   1.0000   1.0000   1.0000   1.0000
     1.0000   1.0000   1.0000   1.0000   1.0000   1.0000   1.0000   1.0000
     1.0000   1.0000   1.0000   1.0000   1.0000   1.0000   1.0000   1.0000
     1.0000   1.0000   1.0000   1.0000   1.0000   1.0000   1.0000   1.0000
     1.0000   1.0000   1.0000   1.0000   1.0000   1.0000   1.0000   1.0000
     1.0000   1.0000   1.0000   1.0000   1.0000   1.0000   1.0000   1.0000
     1.0000   1.0000   1.0000   1.0000   1.0000   1.0000   1.0000   1.0000

          k = 0.0417 0.2083 0.2917 ( 43214 PWs)   bands (ev):

   -23.2732 -23.2732 -23.2732 -23.2732 -23.1409 -23.1409 -23.1409 -23.1409
   -22.2535 -22.2535 -22.2535 -22.2535 -22.1383 -22.1383 -22.1383 -22.1383
   -22.0847 -22.0847 -22.0847 -22.0847 -11.5995 -11.5995 -11.5473 -11.5473
   -11.4925 -11.4925 -11.4854 -11.4854  -7.0341  -7.0341  -6.9282  -6.9282
    -2.7578  -2.7578  -2.6467  -2.6467  -2.0972  -2.0972  -1.9392  -1.9392
    -1.8258  -1.8258  -1.5755  -1.5755  -1.2397  -1.2397  -1.1728  -1.1728
    -1.0638  -1.0638  -0.9888  -0.9888  -0.9176  -0.9176  -0.8197  -0.8197

     occupation numbers 
     1.0000   1.0000   1.0000   1.0000   1.0000   1.0000   1.0000   1.0000
     1.0000   1.0000   1.0000   1.0000   1.0000   1.0000   1.0000   1.0000
     1.0000   1.0000   1.0000   1.0000   1.0000   1.0000   1.0000   1.0000
     1.0000   1.0000   1.0000   1.0000   1.0000   1.0000   1.0000   1.0000
     1.0000   1.0000   1.0000   1.0000   1.0000   1.0000   1.0000   1.0000
     1.0000   1.0000   1.0000   1.0000   1.0000   1.0000   1.0000   1.0000
     1.0000   1.0000   1.0000   1.0000   1.0000   1.0000   1.0000   1.0000

          k = 0.0417 0.2083 0.3750 ( 43240 PWs)   bands (ev):

   -23.2732 -23.2732 -23.2732 -23.2732 -23.1409 -23.1409 -23.1409 -23.1409
   -22.2535 -22.2535 -22.2535 -22.2535 -22.1383 -22.1383 -22.1383 -22.1383
   -22.0847 -22.0847 -22.0847 -22.0847 -11.5896 -11.5896 -11.5565 -11.5565
   -11.4921 -11.4921 -11.4860 -11.4860  -7.0179  -7.0179  -6.9512  -6.9512
    -2.7593  -2.7593  -2.6508  -2.6508  -2.0778  -2.0778  -1.9170  -1.9170
    -1.8265  -1.8265  -1.5867  -1.5867  -1.2443  -1.2443  -1.1743  -1.1743
    -1.0743  -1.0743  -1.0011  -1.0011  -0.9179  -0.9179  -0.8228  -0.8228

     occupation numbers 
     1.0000   1.0000   1.0000   1.0000   1.0000   1.0000   1.0000   1.0000
     1.0000   1.0000   1.0000   1.0000   1.0000   1.0000   1.0000   1.0000
     1.0000   1.0000   1.0000   1.0000   1.0000   1.0000   1.0000   1.0000
     1.0000   1.0000   1.0000   1.0000   1.0000   1.0000   1.0000   1.0000
     1.0000   1.0000   1.0000   1.0000   1.0000   1.0000   1.0000   1.0000
     1.0000   1.0000   1.0000   1.0000   1.0000   1.0000   1.0000   1.0000
     1.0000   1.0000   1.0000   1.0000   1.0000   1.0000   1.0000   1.0000

          k = 0.0417 0.2083 0.4583 ( 43238 PWs)   bands (ev):

   -23.2732 -23.2732 -23.2732 -23.2732 -23.1409 -23.1409 -23.1409 -23.1409
   -22.2535 -22.2535 -22.2535 -22.2535 -22.1383 -22.1383 -22.1383 -22.1383
   -22.0847 -22.0847 -22.0847 -22.0847 -11.5790 -11.5790 -11.5668 -11.5668
   -11.4917 -11.4917 -11.4864 -11.4864  -6.9983  -6.9983  -6.9748  -6.9748
    -2.7601  -2.7601  -2.6530  -2.6530  -2.0694  -2.0694  -1.9029  -1.9029
    -1.8250  -1.8250  -1.5927  -1.5927  -1.2463  -1.2463  -1.1746  -1.1746
    -1.0832  -1.0832  -1.0081  -1.0081  -0.9178  -0.9178  -0.8249  -0.8249

     occupation numbers 
     1.0000   1.0000   1.0000   1.0000   1.0000   1.0000   1.0000   1.0000
     1.0000   1.0000   1.0000   1.0000   1.0000   1.0000   1.0000   1.0000
     1.0000   1.0000   1.0000   1.0000   1.0000   1.0000   1.0000   1.0000
     1.0000   1.0000   1.0000   1.0000   1.0000   1.0000   1.0000   1.0000
     1.0000   1.0000   1.0000   1.0000   1.0000   1.0000   1.0000   1.0000
     1.0000   1.0000   1.0000   1.0000   1.0000   1.0000   1.0000   1.0000
     1.0000   1.0000   1.0000   1.0000   1.0000   1.0000   1.0000   1.0000

          k = 0.0417 0.2917 0.2917 ( 43226 PWs)   bands (ev):

   -23.2732 -23.2732 -23.2732 -23.2732 -23.1409 -23.1409 -23.1409 -23.1409
   -22.2535 -22.2535 -22.2535 -22.2535 -22.1383 -22.1383 -22.1383 -22.1383
   -22.0847 -22.0847 -22.0847 -22.0847 -11.5888 -11.5888 -11.5439 -11.5439
   -11.5015 -11.5015 -11.4910 -11.4910  -7.0190  -7.0190  -6.9375  -6.9375
    -2.8292  -2.8292  -2.7394  -2.7394  -2.0694  -2.0694  -1.9289  -1.9289
    -1.7962  -1.7962  -1.5823  -1.5823  -1.2535  -1.2535  -1.1833  -1.1833
    -1.0155  -1.0155  -0.9513  -0.9513  -0.8511  -0.8511  -0.7104  -0.7104

     occupation numbers 
     1.0000   1.0000   1.0000   1.0000   1.0000   1.0000   1.0000   1.0000
     1.0000   1.0000   1.0000   1.0000   1.0000   1.0000   1.0000   1.0000
     1.0000   1.0000   1.0000   1.0000   1.0000   1.0000   1.0000   1.0000
     1.0000   1.0000   1.0000   1.0000   1.0000   1.0000   1.0000   1.0000
     1.0000   1.0000   1.0000   1.0000   1.0000   1.0000   1.0000   1.0000
     1.0000   1.0000   1.0000   1.0000   1.0000   1.0000   1.0000   1.0000
     1.0000   1.0000   1.0000   1.0000   1.0000   1.0000   1.0000   1.0000

          k = 0.0417 0.2917 0.3750 ( 43240 PWs)   bands (ev):

   -23.2732 -23.2732 -23.2732 -23.2732 -23.1409 -23.1409 -23.1409 -23.1409
   -22.2535 -22.2535 -22.2535 -22.2535 -22.1383 -22.1383 -22.1383 -22.1383
   -22.0847 -22.0847 -22.0847 -22.0847 -11.5802 -11.5802 -11.5513 -11.5513
   -11.5008 -11.5008 -11.4924 -11.4924  -7.0074  -7.0074  -6.9558  -6.9558
    -2.8355  -2.8355  -2.7460  -2.7460  -2.0459  -2.0459  -1.8993  -1.8993
    -1.8144  -1.8144  -1.5842  -1.5842  -1.2533  -1.2533  -1.1785  -1.1785
    -1.0159  -1.0159  -0.9661  -0.9661  -0.8417  -0.8417  -0.7109  -0.7109

     occupation numbers 
     1.0000   1.0000   1.0000   1.0000   1.0000   1.0000   1.0000   1.0000
     1.0000   1.0000   1.0000   1.0000   1.0000   1.0000   1.0000   1.0000
     1.0000   1.0000   1.0000   1.0000   1.0000   1.0000   1.0000   1.0000
     1.0000   1.0000   1.0000   1.0000   1.0000   1.0000   1.0000   1.0000
     1.0000   1.0000   1.0000   1.0000   1.0000   1.0000   1.0000   1.0000
     1.0000   1.0000   1.0000   1.0000   1.0000   1.0000   1.0000   1.0000
     1.0000   1.0000   1.0000   1.0000   1.0000   1.0000   1.0000   1.0000

          k = 0.0417 0.2917 0.4583 ( 43239 PWs)   bands (ev):

   -23.2732 -23.2732 -23.2732 -23.2732 -23.1409 -23.1409 -23.1409 -23.1409
   -22.2535 -22.2535 -22.2535 -22.2535 -22.1383 -22.1383 -22.1383 -22.1383
   -22.0847 -22.0847 -22.0847 -22.0847 -11.5711 -11.5711 -11.5597 -11.5597
   -11.5001 -11.5001 -11.4935 -11.4935  -6.9930  -6.9930  -6.9740  -6.9740
    -2.8389  -2.8389  -2.7495  -2.7495  -2.0361  -2.0361  -1.8717  -1.8717
    -1.8333  -1.8333  -1.5836  -1.5836  -1.2506  -1.2506  -1.1745  -1.1745
    -1.0244  -1.0244  -0.9715  -0.9715  -0.8344  -0.8344  -0.7113  -0.7113

     occupation numbers 
     1.0000   1.0000   1.0000   1.0000   1.0000   1.0000   1.0000   1.0000
     1.0000   1.0000   1.0000   1.0000   1.0000   1.0000   1.0000   1.0000
     1.0000   1.0000   1.0000   1.0000   1.0000   1.0000   1.0000   1.0000
     1.0000   1.0000   1.0000   1.0000   1.0000   1.0000   1.0000   1.0000
     1.0000   1.0000   1.0000   1.0000   1.0000   1.0000   1.0000   1.0000
     1.0000   1.0000   1.0000   1.0000   1.0000   1.0000   1.0000   1.0000
     1.0000   1.0000   1.0000   1.0000   1.0000   1.0000   1.0000   1.0000

          k = 0.0417 0.3750 0.3750 ( 43251 PWs)   bands (ev):

   -23.2732 -23.2732 -23.2732 -23.2732 -23.1409 -23.1409 -23.1409 -23.1409
   -22.2535 -22.2535 -22.2535 -22.2535 -22.1383 -22.1383 -22.1383 -22.1383
   -22.0847 -22.0847 -22.0847 -22.0847 -11.5689 -11.5689 -11.5473 -11.5473
   -11.5089 -11.5089 -11.5000 -11.5000  -6.9954  -6.9954  -6.9625  -6.9625
    -2.8854  -2.8854  -2.8234  -2.8234  -2.0248  -2.0248  -1.9095  -1.9095
    -1.7901  -1.7901  -1.5869  -1.5869  -1.2488  -1.2488  -1.1917  -1.1917
    -0.9876  -0.9876  -0.9449  -0.9449  -0.7265  -0.7265  -0.6148  -0.6148

     occupation numbers 
     1.0000   1.0000   1.0000   1.0000   1.0000   1.0000   1.0000   1.0000
     1.0000   1.0000   1.0000   1.0000   1.0000   1.0000   1.0000   1.0000
     1.0000   1.0000   1.0000   1.0000   1.0000   1.0000   1.0000   1.0000
     1.0000   1.0000   1.0000   1.0000   1.0000   1.0000   1.0000   1.0000
     1.0000   1.0000   1.0000   1.0000   1.0000   1.0000   1.0000   1.0000
     1.0000   1.0000   1.0000   1.0000   1.0000   1.0000   1.0000   1.0000
     1.0000   1.0000   1.0000   1.0000   1.0000   1.0000   1.0000   1.0000

          k = 0.0417 0.3750 0.4583 ( 43252 PWs)   bands (ev):

   -23.2732 -23.2732 -23.2732 -23.2732 -23.1409 -23.1409 -23.1409 -23.1409
   -22.2535 -22.2535 -22.2535 -22.2535 -22.1383 -22.1383 -22.1383 -22.1383
   -22.0847 -22.0847 -22.0847 -22.0847 -11.5618 -11.5618 -11.5526 -11.5526
   -11.5084 -11.5084 -11.5019 -11.5019  -6.9874  -6.9874  -6.9742  -6.9742
    -2.8902  -2.8902  -2.8279  -2.8279  -2.0163  -2.0163  -1.8922  -1.8922
    -1.8000  -1.8000  -1.5862  -1.5862  -1.2435  -1.2435  -1.1838  -1.1838
    -0.9830  -0.9830  -0.9495  -0.9495  -0.7211  -0.7211  -0.6117  -0.6117

     occupation numbers 
     1.0000   1.0000   1.0000   1.0000   1.0000   1.0000   1.0000   1.0000
     1.0000   1.0000   1.0000   1.0000   1.0000   1.0000   1.0000   1.0000
     1.0000   1.0000   1.0000   1.0000   1.0000   1.0000   1.0000   1.0000
     1.0000   1.0000   1.0000   1.0000   1.0000   1.0000   1.0000   1.0000
     1.0000   1.0000   1.0000   1.0000   1.0000   1.0000   1.0000   1.0000
     1.0000   1.0000   1.0000   1.0000   1.0000   1.0000   1.0000   1.0000
     1.0000   1.0000   1.0000   1.0000   1.0000   1.0000   1.0000   1.0000

          k = 0.0417 0.4583 0.4583 ( 43242 PWs)   bands (ev):

   -23.2732 -23.2732 -23.2732 -23.2732 -23.1409 -23.1409 -23.1409 -23.1409
   -22.2535 -22.2535 -22.2535 -22.2535 -22.1383 -22.1383 -22.1383 -22.1383
   -22.0847 -22.0847 -22.0847 -22.0847 -11.5533 -11.5533 -11.5492 -11.5492
   -11.5129 -11.5129 -11.5097 -11.5097  -6.9832  -6.9832  -6.9754  -6.9754
    -2.9114  -2.9114  -2.8748  -2.8748  -2.0076  -2.0076  -1.9048  -1.9048
    -1.7817  -1.7817  -1.5909  -1.5909  -1.2337  -1.2337  -1.1937  -1.1937
    -0.9620  -0.9620  -0.9408  -0.9408  -0.6202  -0.6202  -0.5713  -0.5713

     occupation numbers 
     1.0000   1.0000   1.0000   1.0000   1.0000   1.0000   1.0000   1.0000
     1.0000   1.0000   1.0000   1.0000   1.0000   1.0000   1.0000   1.0000
     1.0000   1.0000   1.0000   1.0000   1.0000   1.0000   1.0000   1.0000
     1.0000   1.0000   1.0000   1.0000   1.0000   1.0000   1.0000   1.0000
     1.0000   1.0000   1.0000   1.0000   1.0000   1.0000   1.0000   1.0000
     1.0000   1.0000   1.0000   1.0000   1.0000   1.0000   1.0000   1.0000
     1.0000   1.0000   1.0000   1.0000   1.0000   1.0000   1.0000   1.0000

          k = 0.1250 0.1250 0.1250 ( 43204 PWs)   bands (ev):

   -23.2732 -23.2732 -23.2732 -23.2732 -23.1409 -23.1409 -23.1409 -23.1409
   -22.2535 -22.2535 -22.2535 -22.2535 -22.1383 -22.1383 -22.1383 -22.1383
   -22.0847 -22.0847 -22.0846 -22.0846 -11.6179 -11.6179 -11.5354 -11.5354
   -11.4906 -11.4906 -11.4815 -11.4815  -7.0627  -7.0627  -6.8880  -6.8880
    -2.7490  -2.7490  -2.5458  -2.5458  -2.1348  -2.1348  -2.0090  -2.0090
    -1.8604  -1.8604  -1.5438  -1.5438  -1.2238  -1.2238  -1.1593  -1.1593
    -1.1242  -1.1242  -0.9723  -0.9723  -0.9156  -0.9156  -0.8239  -0.8239

     occupation numbers 
     1.0000   1.0000   1.0000   1.0000   1.0000   1.0000   1.0000   1.0000
     1.0000   1.0000   1.0000   1.0000   1.0000   1.0000   1.0000   1.0000
     1.0000   1.0000   1.0000   1.0000   1.0000   1.0000   1.0000   1.0000
     1.0000   1.0000   1.0000   1.0000   1.0000   1.0000   1.0000   1.0000
     1.0000   1.0000   1.0000   1.0000   1.0000   1.0000   1.0000   1.0000
     1.0000   1.0000   1.0000   1.0000   1.0000   1.0000   1.0000   1.0000
     1.0000   1.0000   1.0000   1.0000   1.0000   1.0000   1.0000   1.0000

          k = 0.1250 0.1250 0.2083 ( 43237 PWs)   bands (ev):

   -23.2732 -23.2732 -23.2732 -23.2732 -23.1409 -23.1409 -23.1409 -23.1409
   -22.2535 -22.2535 -22.2535 -22.2535 -22.1383 -22.1383 -22.1383 -22.1383
   -22.0847 -22.0847 -22.0847 -22.0847 -11.6119 -11.6119 -11.5408 -11.5408
   -11.4907 -11.4907 -11.4814 -11.4814  -7.0538  -7.0538  -6.9039  -6.9039
    -2.7520  -2.7520  -2.5389  -2.5389  -2.1281  -2.1281  -1.9885  -1.9885
    -1.8566  -1.8566  -1.5566  -1.5566  -1.2231  -1.2231  -1.1751  -1.1751
    -1.1348  -1.1348  -0.9810  -0.9810  -0.9180  -0.9180  -0.8275  -0.8275

     occupation numbers 
     1.0000   1.0000   1.0000   1.0000   1.0000   1.0000   1.0000   1.0000
     1.0000   1.0000   1.0000   1.0000   1.0000   1.0000   1.0000   1.0000
     1.0000   1.0000   1.0000   1.0000   1.0000   1.0000   1.0000   1.0000
     1.0000   1.0000   1.0000   1.0000   1.0000   1.0000   1.0000   1.0000
     1.0000   1.0000   1.0000   1.0000   1.0000   1.0000   1.0000   1.0000
     1.0000   1.0000   1.0000   1.0000   1.0000   1.0000   1.0000   1.0000
     1.0000   1.0000   1.0000   1.0000   1.0000   1.0000   1.0000   1.0000

          k = 0.1250 0.1250 0.2917 ( 43236 PWs)   bands (ev):

   -23.2732 -23.2732 -23.2732 -23.2732 -23.1409 -23.1409 -23.1409 -23.1409
   -22.2535 -22.2535 -22.2535 -22.2535 -22.1383 -22.1383 -22.1383 -22.1383
   -22.0847 -22.0847 -22.0847 -22.0847 -11.6036 -11.6036 -11.5486 -11.5486
   -11.4908 -11.4908 -11.4813 -11.4813  -7.0404  -7.0404  -6.9253  -6.9253
    -2.7551  -2.7551  -2.5310  -2.5310  -2.1257  -2.1257  -1.9622  -1.9622
    -1.8464  -1.8464  -1.5736  -1.5736  -1.2268  -1.2268  -1.1942  -1.1942
    -1.1355  -1.1355  -0.9958  -0.9958  -0.9235  -0.9235  -0.8313  -0.8313

     occupation numbers 
     1.0000   1.0000   1.0000   1.0000   1.0000   1.0000   1.0000   1.0000
     1.0000   1.0000   1.0000   1.0000   1.0000   1.0000   1.0000   1.0000
     1.0000   1.0000   1.0000   1.0000   1.0000   1.0000   1.0000   1.0000
     1.0000   1.0000   1.0000   1.0000   1.0000   1.0000   1.0000   1.0000
     1.0000   1.0000   1.0000   1.0000   1.0000   1.0000   1.0000   1.0000
     1.0000   1.0000   1.0000   1.0000   1.0000   1.0000   1.0000   1.0000
     1.0000   1.0000   1.0000   1.0000   1.0000   1.0000   1.0000   1.0000

          k = 0.1250 0.1250 0.3750 ( 43241 PWs)   bands (ev):

   -23.2732 -23.2732 -23.2732 -23.2732 -23.1409 -23.1409 -23.1409 -23.1409
   -22.2535 -22.2535 -22.2535 -22.2535 -22.1383 -22.1383 -22.1383 -22.1383
   -22.0847 -22.0847 -22.0847 -22.0847 -11.5935 -11.5935 -11.5583 -11.5583
   -11.4909 -11.4909 -11.4812 -11.4812  -7.0227  -7.0227  -6.9500  -6.9500
    -2.7574  -2.7574  -2.5242  -2.5242  -2.1266  -2.1266  -1.9427  -1.9427
    -1.8271  -1.8271  -1.5913  -1.5913  -1.2400  -1.2400  -1.2006  -1.2006
    -1.1300  -1.1300  -1.0136  -1.0136  -0.9318  -0.9318  -0.8341  -0.8341

     occupation numbers 
     1.0000   1.0000   1.0000   1.0000   1.0000   1.0000   1.0000   1.0000
     1.0000   1.0000   1.0000   1.0000   1.0000   1.0000   1.0000   1.0000
     1.0000   1.0000   1.0000   1.0000   1.0000   1.0000   1.0000   1.0000
     1.0000   1.0000   1.0000   1.0000   1.0000   1.0000   1.0000   1.0000
     1.0000   1.0000   1.0000   1.0000   1.0000   1.0000   1.0000   1.0000
     1.0000   1.0000   1.0000   1.0000   1.0000   1.0000   1.0000   1.0000
     1.0000   1.0000   1.0000   1.0000   1.0000   1.0000   1.0000   1.0000

          k = 0.1250 0.1250 0.4583 ( 43250 PWs)   bands (ev):

   -23.2732 -23.2732 -23.2732 -23.2732 -23.1409 -23.1409 -23.1409 -23.1409
   -22.2535 -22.2535 -22.2535 -22.2535 -22.1383 -22.1383 -22.1383 -22.1383
   -22.0847 -22.0847 -22.0847 -22.0847 -11.5831 -11.5831 -11.5685 -11.5685
   -11.4909 -11.4909 -11.4812 -11.4812  -7.0018  -7.0018  -6.9749  -6.9749
    -2.7586  -2.7586  -2.5203  -2.5203  -2.1280  -2.1280  -1.9348  -1.9348
    -1.8086  -1.8086  -1.6040  -1.6040  -1.2504  -1.2504  -1.2015  -1.2015
    -1.1233  -1.1233  -1.0271  -1.0271  -0.9383  -0.9383  -0.8354  -0.8354

     occupation numbers 
     1.0000   1.0000   1.0000   1.0000   1.0000   1.0000   1.0000   1.0000
     1.0000   1.0000   1.0000   1.0000   1.0000   1.0000   1.0000   1.0000
     1.0000   1.0000   1.0000   1.0000   1.0000   1.0000   1.0000   1.0000
     1.0000   1.0000   1.0000   1.0000   1.0000   1.0000   1.0000   1.0000
     1.0000   1.0000   1.0000   1.0000   1.0000   1.0000   1.0000   1.0000
     1.0000   1.0000   1.0000   1.0000   1.0000   1.0000   1.0000   1.0000
     1.0000   1.0000   1.0000   1.0000   1.0000   1.0000   1.0000   1.0000

          k = 0.1250 0.2083 0.2083 ( 43228 PWs)   bands (ev):

   -23.2732 -23.2732 -23.2732 -23.2732 -23.1409 -23.1409 -23.1409 -23.1409
   -22.2535 -22.2535 -22.2535 -22.2535 -22.1383 -22.1383 -22.1383 -22.1383
   -22.0847 -22.0847 -22.0847 -22.0847 -11.6046 -11.6046 -11.5390 -11.5390
   -11.4980 -11.4980 -11.4836 -11.4836  -7.0422  -7.0422  -6.9129  -6.9129
    -2.8190  -2.8190  -2.5739  -2.5739  -2.1182  -2.1182  -1.9624  -1.9624
    -1.8423  -1.8423  -1.5703  -1.5703  -1.2438  -1.2438  -1.1851  -1.1851
    -1.1107  -1.1107  -0.9666  -0.9666  -0.9064  -0.9064  -0.7188  -0.7188

     occupation numbers 
     1.0000   1.0000   1.0000   1.0000   1.0000   1.0000   1.0000   1.0000
     1.0000   1.0000   1.0000   1.0000   1.0000   1.0000   1.0000   1.0000
     1.0000   1.0000   1.0000   1.0000   1.0000   1.0000   1.0000   1.0000
     1.0000   1.0000   1.0000   1.0000   1.0000   1.0000   1.0000   1.0000
     1.0000   1.0000   1.0000   1.0000   1.0000   1.0000   1.0000   1.0000
     1.0000   1.0000   1.0000   1.0000   1.0000   1.0000   1.0000   1.0000
     1.0000   1.0000   1.0000   1.0000   1.0000   1.0000   1.0000   1.0000

          k = 0.1250 0.2083 0.2917 ( 43225 PWs)   bands (ev):

   -23.2732 -23.2732 -23.2732 -23.2732 -23.1409 -23.1409 -23.1409 -23.1409
   -22.2535 -22.2535 -22.2535 -22.2535 -22.1383 -22.1383 -22.1383 -22.1383
   -22.0847 -22.0847 -22.0847 -22.0847 -11.5970 -11.5970 -11.5456 -11.5456
   -11.4984 -11.4984 -11.4836 -11.4836  -7.0313  -7.0313  -6.9318  -6.9318
    -2.8273  -2.8273  -2.5688  -2.5688  -2.1077  -2.1077  -1.9329  -1.9329
    -1.8440  -1.8440  -1.5814  -1.5814  -1.2524  -1.2524  -1.1869  -1.1869
    -1.1149  -1.1149  -0.9736  -0.9736  -0.9066  -0.9066  -0.7184  -0.7184

     occupation numbers 
     1.0000   1.0000   1.0000   1.0000   1.0000   1.0000   1.0000   1.0000
     1.0000   1.0000   1.0000   1.0000   1.0000   1.0000   1.0000   1.0000
     1.0000   1.0000   1.0000   1.0000   1.0000   1.0000   1.0000   1.0000
     1.0000   1.0000   1.0000   1.0000   1.0000   1.0000   1.0000   1.0000
     1.0000   1.0000   1.0000   1.0000   1.0000   1.0000   1.0000   1.0000
     1.0000   1.0000   1.0000   1.0000   1.0000   1.0000   1.0000   1.0000
     1.0000   1.0000   1.0000   1.0000   1.0000   1.0000   1.0000   1.0000

          k = 0.1250 0.2083 0.3750 ( 43233 PWs)   bands (ev):

   -23.2732 -23.2732 -23.2732 -23.2732 -23.1409 -23.1409 -23.1409 -23.1409
   -22.2535 -22.2535 -22.2535 -22.2535 -22.1383 -22.1383 -22.1383 -22.1383
   -22.0847 -22.0847 -22.0847 -22.0847 -11.5880 -11.5880 -11.5539 -11.5539
   -11.4985 -11.4985 -11.4837 -11.4837  -7.0167  -7.0167  -6.9532  -6.9532
    -2.8337  -2.8337  -2.5647  -2.5647  -2.1035  -2.1035  -1.9056  -1.9056
    -1.8431  -1.8431  -1.5873  -1.5873  -1.2626  -1.2626  -1.1882  -1.1882
    -1.1151  -1.1151  -0.9829  -0.9829  -0.9082  -0.9082  -0.7180  -0.7180

     occupation numbers 
     1.0000   1.0000   1.0000   1.0000   1.0000   1.0000   1.0000   1.0000
     1.0000   1.0000   1.0000   1.0000   1.0000   1.0000   1.0000   1.0000
     1.0000   1.0000   1.0000   1.0000   1.0000   1.0000   1.0000   1.0000
     1.0000   1.0000   1.0000   1.0000   1.0000   1.0000   1.0000   1.0000
     1.0000   1.0000   1.0000   1.0000   1.0000   1.0000   1.0000   1.0000
     1.0000   1.0000   1.0000   1.0000   1.0000   1.0000   1.0000   1.0000
     1.0000   1.0000   1.0000   1.0000   1.0000   1.0000   1.0000   1.0000

          k = 0.1250 0.2083 0.4583 ( 43237 PWs)   bands (ev):

   -23.2732 -23.2732 -23.2732 -23.2732 -23.1409 -23.1409 -23.1409 -23.1409
   -22.2535 -22.2535 -22.2535 -22.2535 -22.1383 -22.1383 -22.1383 -22.1383
   -22.0847 -22.0847 -22.0847 -22.0847 -11.5795 -11.5795 -11.5621 -11.5621
   -11.4986 -11.4986 -11.4837 -11.4837  -6.9998  -6.9998  -6.9740  -6.9740
    -2.8371  -2.8371  -2.5623  -2.5623  -2.1026  -2.1026  -1.8923  -1.8923
    -1.8390  -1.8390  -1.5887  -1.5887  -1.2689  -1.2689  -1.1890  -1.1890
    -1.1147  -1.1147  -0.9897  -0.9897  -0.9098  -0.9098  -0.7176  -0.7176

     occupation numbers 
     1.0000   1.0000   1.0000   1.0000   1.0000   1.0000   1.0000   1.0000
     1.0000   1.0000   1.0000   1.0000   1.0000   1.0000   1.0000   1.0000
     1.0000   1.0000   1.0000   1.0000   1.0000   1.0000   1.0000   1.0000
     1.0000   1.0000   1.0000   1.0000   1.0000   1.0000   1.0000   1.0000
     1.0000   1.0000   1.0000   1.0000   1.0000   1.0000   1.0000   1.0000
     1.0000   1.0000   1.0000   1.0000   1.0000   1.0000   1.0000   1.0000
     1.0000   1.0000   1.0000   1.0000   1.0000   1.0000   1.0000   1.0000

          k = 0.1250 0.2917 0.2917 ( 43228 PWs)   bands (ev):

   -23.2732 -23.2732 -23.2732 -23.2732 -23.1409 -23.1409 -23.1409 -23.1409
   -22.2535 -22.2535 -22.2535 -22.2535 -22.1383 -22.1383 -22.1383 -22.1383
   -22.0847 -22.0847 -22.0847 -22.0847 -11.5877 -11.5877 -11.5431 -11.5431
   -11.5060 -11.5060 -11.4882 -11.4882  -7.0184  -7.0184  -6.9414  -6.9414
    -2.8739  -2.8739  -2.6507  -2.6507  -2.0786  -2.0786  -1.9295  -1.9295
    -1.8160  -1.8160  -1.5888  -1.5888  -1.2691  -1.2691  -1.1987  -1.1987
    -1.0504  -1.0504  -0.9540  -0.9540  -0.8838  -0.8838  -0.6226  -0.6226

     occupation numbers 
     1.0000   1.0000   1.0000   1.0000   1.0000   1.0000   1.0000   1.0000
     1.0000   1.0000   1.0000   1.0000   1.0000   1.0000   1.0000   1.0000
     1.0000   1.0000   1.0000   1.0000   1.0000   1.0000   1.0000   1.0000
     1.0000   1.0000   1.0000   1.0000   1.0000   1.0000   1.0000   1.0000
     1.0000   1.0000   1.0000   1.0000   1.0000   1.0000   1.0000   1.0000
     1.0000   1.0000   1.0000   1.0000   1.0000   1.0000   1.0000   1.0000
     1.0000   1.0000   1.0000   1.0000   1.0000   1.0000   1.0000   1.0000

          k = 0.1250 0.2917 0.3750 ( 43243 PWs)   bands (ev):

   -23.2732 -23.2732 -23.2732 -23.2732 -23.1409 -23.1409 -23.1409 -23.1409
   -22.2535 -22.2535 -22.2535 -22.2535 -22.1383 -22.1383 -22.1383 -22.1383
   -22.0847 -22.0847 -22.0847 -22.0847 -11.5802 -11.5802 -11.5490 -11.5490
   -11.5065 -11.5065 -11.4887 -11.4887  -7.0082  -7.0082  -6.9584  -6.9584
    -2.8824  -2.8824  -2.6523  -2.6523  -2.0671  -2.0671  -1.9034  -1.9034
    -1.8265  -1.8265  -1.5858  -1.5858  -1.2699  -1.2699  -1.1917  -1.1917
    -1.0571  -1.0571  -0.9565  -0.9565  -0.8782  -0.8782  -0.6180  -0.6180

     occupation numbers 
     1.0000   1.0000   1.0000   1.0000   1.0000   1.0000   1.0000   1.0000
     1.0000   1.0000   1.0000   1.0000   1.0000   1.0000   1.0000   1.0000
     1.0000   1.0000   1.0000   1.0000   1.0000   1.0000   1.0000   1.0000
     1.0000   1.0000   1.0000   1.0000   1.0000   1.0000   1.0000   1.0000
     1.0000   1.0000   1.0000   1.0000   1.0000   1.0000   1.0000   1.0000
     1.0000   1.0000   1.0000   1.0000   1.0000   1.0000   1.0000   1.0000
     1.0000   1.0000   1.0000   1.0000   1.0000   1.0000   1.0000   1.0000

          k = 0.1250 0.2917 0.4583 ( 43229 PWs)   bands (ev):

   -23.2732 -23.2732 -23.2732 -23.2732 -23.1409 -23.1409 -23.1409 -23.1409
   -22.2535 -22.2535 -22.2535 -22.2535 -22.1383 -22.1383 -22.1383 -22.1383
   -22.0847 -22.0847 -22.0847 -22.0847 -11.5736 -11.5736 -11.5547 -11.5547
   -11.5068 -11.5068 -11.4889 -11.4889  -6.9963  -6.9963  -6.9741  -6.9741
    -2.8870  -2.8870  -2.6531  -2.6531  -2.0630  -2.0630  -1.8870  -1.8870
    -1.8335  -1.8335  -1.5813  -1.5813  -1.2688  -1.2688  -1.1870  -1.1870
    -1.0652  -1.0652  -0.9572  -0.9572  -0.8745  -0.8745  -0.6151  -0.6151

     occupation numbers 
     1.0000   1.0000   1.0000   1.0000   1.0000   1.0000   1.0000   1.0000
     1.0000   1.0000   1.0000   1.0000   1.0000   1.0000   1.0000   1.0000
     1.0000   1.0000   1.0000   1.0000   1.0000   1.0000   1.0000   1.0000
     1.0000   1.0000   1.0000   1.0000   1.0000   1.0000   1.0000   1.0000
     1.0000   1.0000   1.0000   1.0000   1.0000   1.0000   1.0000   1.0000
     1.0000   1.0000   1.0000   1.0000   1.0000   1.0000   1.0000   1.0000
     1.0000   1.0000   1.0000   1.0000   1.0000   1.0000   1.0000   1.0000

          k = 0.1250 0.3750 0.3750 ( 43216 PWs)   bands (ev):

   -23.2732 -23.2732 -23.2732 -23.2732 -23.1409 -23.1409 -23.1409 -23.1409
   -22.2535 -22.2535 -22.2535 -22.2535 -22.1383 -22.1383 -22.1383 -22.1383
   -22.0847 -22.0847 -22.0847 -22.0847 -11.5706 -11.5706 -11.5469 -11.5469
   -11.5116 -11.5116 -11.4956 -11.4956  -6.9979  -6.9979  -6.9658  -6.9658
    -2.8981  -2.8981  -2.7458  -2.7458  -2.0421  -2.0421  -1.9188  -1.9188
    -1.7976  -1.7976  -1.5871  -1.5871  -1.2635  -1.2635  -1.2057  -1.2057
    -0.9909  -0.9909  -0.9352  -0.9352  -0.8206  -0.8206  -0.5805  -0.5805

     occupation numbers 
     1.0000   1.0000   1.0000   1.0000   1.0000   1.0000   1.0000   1.0000
     1.0000   1.0000   1.0000   1.0000   1.0000   1.0000   1.0000   1.0000
     1.0000   1.0000   1.0000   1.0000   1.0000   1.0000   1.0000   1.0000
     1.0000   1.0000   1.0000   1.0000   1.0000   1.0000   1.0000   1.0000
     1.0000   1.0000   1.0000   1.0000   1.0000   1.0000   1.0000   1.0000
     1.0000   1.0000   1.0000   1.0000   1.0000   1.0000   1.0000   1.0000
     1.0000   1.0000   1.0000   1.0000   1.0000   1.0000   1.0000   1.0000

          k = 0.1250 0.3750 0.4583 ( 43237 PWs)   bands (ev):

   -23.2732 -23.2732 -23.2732 -23.2732 -23.1409 -23.1409 -23.1409 -23.1409
   -22.2535 -22.2535 -22.2535 -22.2535 -22.1383 -22.1383 -22.1383 -22.1383
   -22.0847 -22.0847 -22.0847 -22.0847 -11.5660 -11.5660 -11.5495 -11.5495
   -11.5124 -11.5124 -11.4963 -11.4963  -6.9917  -6.9917  -6.9759  -6.9759
    -2.9032  -2.9032  -2.7489  -2.7489  -2.0379  -2.0379  -1.9077  -1.9077
    -1.8021  -1.8021  -1.5824  -1.5824  -1.2573  -1.2573  -1.1966  -1.1966
    -0.9929  -0.9929  -0.9347  -0.9347  -0.8160  -0.8160  -0.5759  -0.5759

     occupation numbers 
     1.0000   1.0000   1.0000   1.0000   1.0000   1.0000   1.0000   1.0000
     1.0000   1.0000   1.0000   1.0000   1.0000   1.0000   1.0000   1.0000
     1.0000   1.0000   1.0000   1.0000   1.0000   1.0000   1.0000   1.0000
     1.0000   1.0000   1.0000   1.0000   1.0000   1.0000   1.0000   1.0000
     1.0000   1.0000   1.0000   1.0000   1.0000   1.0000   1.0000   1.0000
     1.0000   1.0000   1.0000   1.0000   1.0000   1.0000   1.0000   1.0000
     1.0000   1.0000   1.0000   1.0000   1.0000   1.0000   1.0000   1.0000

          k = 0.1250 0.4583 0.4583 ( 43243 PWs)   bands (ev):

   -23.2732 -23.2732 -23.2732 -23.2732 -23.1409 -23.1409 -23.1409 -23.1409
   -22.2535 -22.2535 -22.2535 -22.2535 -22.1383 -22.1383 -22.1383 -22.1383
   -22.0847 -22.0847 -22.0847 -22.0847 -11.5577 -11.5577 -11.5508 -11.5508
   -11.5113 -11.5113 -11.5045 -11.5045  -6.9870  -6.9870  -6.9789  -6.9789
    -2.8863  -2.8863  -2.8262  -2.8262  -2.0276  -2.0276  -1.9201  -1.9201
    -1.7832  -1.7832  -1.5856  -1.5856  -1.2451  -1.2451  -1.2067  -1.2067
[...]
     1.0000   1.0000   1.0000   1.0000   1.0000   1.0000   1.0000   1.0000
     1.0000   1.0000   1.0000   1.0000   1.0000   1.0000   1.0000   1.0000
     1.0000   1.0000   1.0000   1.0000   1.0000   1.0000   1.0000   1.0000
     1.0000   1.0000   1.0000   1.0000   1.0000   1.0000   1.0000   1.0000
     1.0000   1.0000   1.0000   1.0000   1.0000   1.0000   1.0000   1.0000
     1.0000   1.0000   1.0000   1.0000   1.0000   1.0000   1.0000   1.0000

          k = 0.4583 0.2083 0.3750 ( 43229 PWs)   bands (ev):

   -23.2732 -23.2732 -23.2732 -23.2732 -23.1409 -23.1409 -23.1409 -23.1409
   -22.2535 -22.2535 -22.2535 -22.2535 -22.1383 -22.1383 -22.1383 -22.1383
   -22.0847 -22.0847 -22.0847 -22.0847 -11.5641 -11.5641 -11.5556 -11.5556
   -11.5055 -11.5055 -11.4983 -11.4983  -6.9930  -6.9930  -6.9817  -6.9817
    -2.8247  -2.8247  -2.7420  -2.7420  -2.0578  -2.0578  -1.9430  -1.9430
    -1.7981  -1.7981  -1.5921  -1.5921  -1.2757  -1.2757  -1.2426  -1.2426
    -0.9619  -0.9619  -0.9116  -0.9116  -0.8096  -0.8096  -0.7204  -0.7204

     occupation numbers 
     1.0000   1.0000   1.0000   1.0000   1.0000   1.0000   1.0000   1.0000
     1.0000   1.0000   1.0000   1.0000   1.0000   1.0000   1.0000   1.0000
     1.0000   1.0000   1.0000   1.0000   1.0000   1.0000   1.0000   1.0000
     1.0000   1.0000   1.0000   1.0000   1.0000   1.0000   1.0000   1.0000
     1.0000   1.0000   1.0000   1.0000   1.0000   1.0000   1.0000   1.0000
     1.0000   1.0000   1.0000   1.0000   1.0000   1.0000   1.0000   1.0000
     1.0000   1.0000   1.0000   1.0000   1.0000   1.0000   1.0000   1.0000

          k = 0.4583 0.4583 0.2083 ( 43206 PWs)   bands (ev):

   -23.2732 -23.2732 -23.2732 -23.2732 -23.1409 -23.1409 -23.1409 -23.1409
   -22.2535 -22.2535 -22.2535 -22.2535 -22.1383 -22.1383 -22.1383 -22.1383
   -22.0847 -22.0847 -22.0847 -22.0847 -11.5705 -11.5705 -11.5686 -11.5686
   -11.4921 -11.4921 -11.4910 -11.4910  -6.9974  -6.9974  -6.9941  -6.9941
    -2.5654  -2.5654  -2.5350  -2.5350  -2.0398  -2.0398  -1.9830  -1.9830
    -1.8428  -1.8428  -1.7625  -1.7625  -1.3958  -1.3958  -1.3923  -1.3923
    -1.1036  -1.1036  -1.0748  -1.0748  -0.8229  -0.8229  -0.8171  -0.8171

     occupation numbers 
     1.0000   1.0000   1.0000   1.0000   1.0000   1.0000   1.0000   1.0000
     1.0000   1.0000   1.0000   1.0000   1.0000   1.0000   1.0000   1.0000
     1.0000   1.0000   1.0000   1.0000   1.0000   1.0000   1.0000   1.0000
     1.0000   1.0000   1.0000   1.0000   1.0000   1.0000   1.0000   1.0000
     1.0000   1.0000   1.0000   1.0000   1.0000   1.0000   1.0000   1.0000
     1.0000   1.0000   1.0000   1.0000   1.0000   1.0000   1.0000   1.0000
     1.0000   1.0000   1.0000   1.0000   1.0000   1.0000   1.0000   1.0000

          k = 0.2917 0.3750 0.2917 ( 43232 PWs)   bands (ev):

   -23.2732 -23.2732 -23.2732 -23.2732 -23.1409 -23.1409 -23.1409 -23.1409
   -22.2535 -22.2535 -22.2535 -22.2535 -22.1383 -22.1383 -22.1383 -22.1383
   -22.0847 -22.0847 -22.0847 -22.0847 -11.5758 -11.5758 -11.5532 -11.5532
   -11.5050 -11.5050 -11.4893 -11.4893  -7.0062  -7.0062  -6.9721  -6.9721
    -2.8137  -2.8137  -2.5651  -2.5651  -2.0855  -2.0855  -1.9394  -1.9394
    -1.8566  -1.8566  -1.6271  -1.6271  -1.3312  -1.3312  -1.2748  -1.2748
    -1.0848  -1.0848  -0.9073  -0.9073  -0.8461  -0.8461  -0.7167  -0.7167

     occupation numbers 
     1.0000   1.0000   1.0000   1.0000   1.0000   1.0000   1.0000   1.0000
     1.0000   1.0000   1.0000   1.0000   1.0000   1.0000   1.0000   1.0000
     1.0000   1.0000   1.0000   1.0000   1.0000   1.0000   1.0000   1.0000
     1.0000   1.0000   1.0000   1.0000   1.0000   1.0000   1.0000   1.0000
     1.0000   1.0000   1.0000   1.0000   1.0000   1.0000   1.0000   1.0000
     1.0000   1.0000   1.0000   1.0000   1.0000   1.0000   1.0000   1.0000
     1.0000   1.0000   1.0000   1.0000   1.0000   1.0000   1.0000   1.0000

          k = 0.2917 0.4583 0.2917 ( 43220 PWs)   bands (ev):

   -23.2732 -23.2732 -23.2732 -23.2732 -23.1409 -23.1409 -23.1409 -23.1409
   -22.2535 -22.2535 -22.2535 -22.2535 -22.1383 -22.1383 -22.1383 -22.1383
   -22.0847 -22.0847 -22.0847 -22.0847 -11.5689 -11.5689 -11.5611 -11.5611
   -11.4993 -11.4993 -11.4937 -11.4937  -6.9969  -6.9969  -6.9847  -6.9847
    -2.7360  -2.7360  -2.6443  -2.6443  -2.0743  -2.0743  -1.9598  -1.9598
    -1.8237  -1.8237  -1.6323  -1.6323  -1.3248  -1.3248  -1.3001  -1.3001
    -1.0229  -1.0229  -0.9366  -0.9366  -0.8332  -0.8332  -0.7969  -0.7969

     occupation numbers 
     1.0000   1.0000   1.0000   1.0000   1.0000   1.0000   1.0000   1.0000
     1.0000   1.0000   1.0000   1.0000   1.0000   1.0000   1.0000   1.0000
     1.0000   1.0000   1.0000   1.0000   1.0000   1.0000   1.0000   1.0000
     1.0000   1.0000   1.0000   1.0000   1.0000   1.0000   1.0000   1.0000
     1.0000   1.0000   1.0000   1.0000   1.0000   1.0000   1.0000   1.0000
     1.0000   1.0000   1.0000   1.0000   1.0000   1.0000   1.0000   1.0000
     1.0000   1.0000   1.0000   1.0000   1.0000   1.0000   1.0000   1.0000

          k = 0.3750 0.3750 0.2917 ( 43236 PWs)   bands (ev):

   -23.2732 -23.2732 -23.2732 -23.2732 -23.1409 -23.1409 -23.1409 -23.1409
   -22.2535 -22.2535 -22.2535 -22.2535 -22.1383 -22.1383 -22.1383 -22.1383
   -22.0847 -22.0847 -22.0847 -22.0847 -11.5737 -11.5737 -11.5593 -11.5593
   -11.5000 -11.5000 -11.4894 -11.4894  -7.0050  -7.0050  -6.9830  -6.9830
    -2.7344  -2.7344  -2.5302  -2.5302  -2.0901  -2.0901  -1.9401  -1.9401
    -1.8821  -1.8821  -1.6538  -1.6538  -1.3524  -1.3524  -1.3056  -1.3056
    -1.0997  -1.0997  -0.9325  -0.9325  -0.8335  -0.8335  -0.7919  -0.7919

     occupation numbers 
     1.0000   1.0000   1.0000   1.0000   1.0000   1.0000   1.0000   1.0000
     1.0000   1.0000   1.0000   1.0000   1.0000   1.0000   1.0000   1.0000
     1.0000   1.0000   1.0000   1.0000   1.0000   1.0000   1.0000   1.0000
     1.0000   1.0000   1.0000   1.0000   1.0000   1.0000   1.0000   1.0000
     1.0000   1.0000   1.0000   1.0000   1.0000   1.0000   1.0000   1.0000
     1.0000   1.0000   1.0000   1.0000   1.0000   1.0000   1.0000   1.0000
     1.0000   1.0000   1.0000   1.0000   1.0000   1.0000   1.0000   1.0000

          k = 0.3750 0.4583 0.2917 ( 43242 PWs)   bands (ev):

   -23.2732 -23.2732 -23.2732 -23.2732 -23.1409 -23.1409 -23.1409 -23.1409
   -22.2535 -22.2535 -22.2535 -22.2535 -22.1383 -22.1383 -22.1383 -22.1383
   -22.0847 -22.0847 -22.0847 -22.0847 -11.5701 -11.5701 -11.5652 -11.5652
   -11.4951 -11.4951 -11.4914 -11.4914  -7.0008  -7.0008  -6.9929  -6.9929
    -2.6433  -2.6433  -2.5635  -2.5635  -2.0832  -2.0832  -1.9670  -1.9670
    -1.8565  -1.8565  -1.6803  -1.6803  -1.3555  -1.3555  -1.3332  -1.3332
    -1.0768  -1.0768  -1.0083  -1.0083  -0.8251  -0.8251  -0.8091  -0.8091

     occupation numbers 
     1.0000   1.0000   1.0000   1.0000   1.0000   1.0000   1.0000   1.0000
     1.0000   1.0000   1.0000   1.0000   1.0000   1.0000   1.0000   1.0000
     1.0000   1.0000   1.0000   1.0000   1.0000   1.0000   1.0000   1.0000
     1.0000   1.0000   1.0000   1.0000   1.0000   1.0000   1.0000   1.0000
     1.0000   1.0000   1.0000   1.0000   1.0000   1.0000   1.0000   1.0000
     1.0000   1.0000   1.0000   1.0000   1.0000   1.0000   1.0000   1.0000
     1.0000   1.0000   1.0000   1.0000   1.0000   1.0000   1.0000   1.0000

          k = 0.4583 0.2917 0.3750 ( 43242 PWs)   bands (ev):

   -23.2732 -23.2732 -23.2732 -23.2732 -23.1409 -23.1409 -23.1409 -23.1409
   -22.2535 -22.2535 -22.2535 -22.2535 -22.1383 -22.1383 -22.1383 -22.1383
   -22.0847 -22.0847 -22.0847 -22.0847 -11.5673 -11.5673 -11.5605 -11.5605
   -11.5003 -11.5003 -11.4941 -11.4941  -6.9991  -6.9991  -6.9898  -6.9898
    -2.7416  -2.7416  -2.6464  -2.6464  -2.0865  -2.0865  -1.9543  -1.9543
    -1.8317  -1.8317  -1.6112  -1.6112  -1.3077  -1.3077  -1.2680  -1.2680
    -1.0220  -1.0220  -0.9328  -0.9328  -0.8286  -0.8286  -0.7973  -0.7973

     occupation numbers 
     1.0000   1.0000   1.0000   1.0000   1.0000   1.0000   1.0000   1.0000
     1.0000   1.0000   1.0000   1.0000   1.0000   1.0000   1.0000   1.0000
     1.0000   1.0000   1.0000   1.0000   1.0000   1.0000   1.0000   1.0000
     1.0000   1.0000   1.0000   1.0000   1.0000   1.0000   1.0000   1.0000
     1.0000   1.0000   1.0000   1.0000   1.0000   1.0000   1.0000   1.0000
     1.0000   1.0000   1.0000   1.0000   1.0000   1.0000   1.0000   1.0000
     1.0000   1.0000   1.0000   1.0000   1.0000   1.0000   1.0000   1.0000

          k = 0.4583 0.4583 0.2917 ( 43228 PWs)   bands (ev):

   -23.2732 -23.2732 -23.2732 -23.2732 -23.1409 -23.1409 -23.1409 -23.1409
   -22.2535 -22.2535 -22.2535 -22.2535 -22.1383 -22.1383 -22.1383 -22.1383
   -22.0847 -22.0847 -22.0847 -22.0847 -11.5699 -11.5699 -11.5683 -11.5683
   -11.4922 -11.4922 -11.4909 -11.4909  -7.0017  -7.0017  -6.9989  -6.9989
    -2.5631  -2.5631  -2.5298  -2.5298  -2.0715  -2.0715  -2.0042  -2.0042
    -1.8413  -1.8413  -1.7448  -1.7448  -1.3690  -1.3690  -1.3583  -1.3583
    -1.0937  -1.0937  -1.0683  -1.0683  -0.8139  -0.8139  -0.8070  -0.8070

     occupation numbers 
     1.0000   1.0000   1.0000   1.0000   1.0000   1.0000   1.0000   1.0000
     1.0000   1.0000   1.0000   1.0000   1.0000   1.0000   1.0000   1.0000
     1.0000   1.0000   1.0000   1.0000   1.0000   1.0000   1.0000   1.0000
     1.0000   1.0000   1.0000   1.0000   1.0000   1.0000   1.0000   1.0000
     1.0000   1.0000   1.0000   1.0000   1.0000   1.0000   1.0000   1.0000
     1.0000   1.0000   1.0000   1.0000   1.0000   1.0000   1.0000   1.0000
     1.0000   1.0000   1.0000   1.0000   1.0000   1.0000   1.0000   1.0000

          k = 0.3750 0.4583 0.3750 ( 43224 PWs)   bands (ev):

   -23.2732 -23.2732 -23.2732 -23.2732 -23.1409 -23.1409 -23.1409 -23.1409
   -22.2535 -22.2535 -22.2535 -22.2535 -22.1383 -22.1383 -22.1383 -22.1383
   -22.0847 -22.0847 -22.0847 -22.0847 -11.5692 -11.5692 -11.5649 -11.5649
   -11.4955 -11.4955 -11.4914 -11.4914  -7.0037  -7.0037  -6.9976  -6.9976
    -2.6455  -2.6455  -2.5613  -2.5613  -2.1043  -2.1043  -1.9739  -1.9739
    -1.8605  -1.8605  -1.6605  -1.6605  -1.3351  -1.3351  -1.2954  -1.2954
    -1.0753  -1.0753  -1.0110  -1.0110  -0.8179  -0.8179  -0.8015  -0.8015

     occupation numbers 
     1.0000   1.0000   1.0000   1.0000   1.0000   1.0000   1.0000   1.0000
     1.0000   1.0000   1.0000   1.0000   1.0000   1.0000   1.0000   1.0000
     1.0000   1.0000   1.0000   1.0000   1.0000   1.0000   1.0000   1.0000
     1.0000   1.0000   1.0000   1.0000   1.0000   1.0000   1.0000   1.0000
     1.0000   1.0000   1.0000   1.0000   1.0000   1.0000   1.0000   1.0000
     1.0000   1.0000   1.0000   1.0000   1.0000   1.0000   1.0000   1.0000
     1.0000   1.0000   1.0000   1.0000   1.0000   1.0000   1.0000   1.0000

          k = 0.4583 0.4583 0.3750 ( 43234 PWs)   bands (ev):

   -23.2732 -23.2732 -23.2732 -23.2732 -23.1409 -23.1409 -23.1409 -23.1409
   -22.2535 -22.2535 -22.2535 -22.2535 -22.1383 -22.1383 -22.1383 -22.1383
   -22.0847 -22.0847 -22.0847 -22.0847 -11.5695 -11.5695 -11.5680 -11.5680
   -11.4922 -11.4922 -11.4908 -11.4908  -7.0053  -7.0053  -7.0030  -7.0030
    -2.5612  -2.5612  -2.5254  -2.5254  -2.0967  -2.0967  -2.0233  -2.0233
    -1.8385  -1.8385  -1.7315  -1.7315  -1.3420  -1.3420  -1.3208  -1.3208
    -1.0916  -1.0916  -1.0703  -1.0703  -0.8046  -0.8046  -0.7970  -0.7970

     occupation numbers 
     1.0000   1.0000   1.0000   1.0000   1.0000   1.0000   1.0000   1.0000
     1.0000   1.0000   1.0000   1.0000   1.0000   1.0000   1.0000   1.0000
     1.0000   1.0000   1.0000   1.0000   1.0000   1.0000   1.0000   1.0000
     1.0000   1.0000   1.0000   1.0000   1.0000   1.0000   1.0000   1.0000
     1.0000   1.0000   1.0000   1.0000   1.0000   1.0000   1.0000   1.0000
     1.0000   1.0000   1.0000   1.0000   1.0000   1.0000   1.0000   1.0000
     1.0000   1.0000   1.0000   1.0000   1.0000   1.0000   1.0000   1.0000

     highest occupied level (ev):    -0.5713

!    total energy              =   -2370.94219661 Ry
     Harris-Foulkes estimate   =   -2370.94219671 Ry
     estimated scf accuracy    <       0.00000027 Ry

     total all-electron energy =    -81634.464402 Ry

     The total energy is the sum of the following terms:

     one-electron contribution =    -248.68209313 Ry
     hartree contribution      =     145.43161337 Ry
     xc contribution           =    -157.08903529 Ry
     ewald contribution        =    -190.25175950 Ry
     one-center paw contrib.   =   -1920.35092207 Ry
      -> PAW hartree energy AE =     107.23103875 Ry
      -> PAW hartree energy PS =    -106.44642248 Ry
      -> PAW xc energy AE      =    -324.23274299 Ry
      -> PAW xc energy PS      =      46.59308325 Ry
      -> total E_H with PAW    =     146.21622964 Ry
      -> total E_XC with PAW   =    -434.72869502 Ry

     convergence has been achieved in   8 iterations

     Forces acting on atoms (cartesian axes, Ry/au):

     atom    1 type  1   force =     0.00000000    0.00000000    0.00000000
     atom    2 type  1   force =     0.00000000    0.00000000    0.00000000
     atom    3 type  2   force =    -0.01798933   -0.01798933    0.00000000
     atom    4 type  2   force =     0.01798933    0.01798933    0.00000000
     atom    5 type  2   force =    -0.01798933    0.01798933    0.00000000
     atom    6 type  2   force =     0.01798933   -0.01798933    0.00000000
     The non-local contrib.  to forces
     atom    1 type  1   force =     0.00000000    0.00000000    0.00000000
     atom    2 type  1   force =     0.00000000    0.00000000    0.00000000
     atom    3 type  2   force =    -0.04127558   -0.04127558   -0.00000000
     atom    4 type  2   force =     0.04127558    0.04127558   -0.00000000
     atom    5 type  2   force =    -0.04127558    0.04127558    0.00000000
     atom    6 type  2   force =     0.04127558   -0.04127558    0.00000000
     The ionic contribution  to forces
     atom    1 type  1   force =    -0.00000000   -0.00000000   -0.00000000
     atom    2 type  1   force =     0.00000000    0.00000000    0.00000000
     atom    3 type  2   force =     1.38633657    1.38633657    0.00000000
     atom    4 type  2   force =    -1.38633657   -1.38633657    0.00000000
     atom    5 type  2   force =     1.38633657   -1.38633657    0.00000000
     atom    6 type  2   force =    -1.38633657    1.38633657    0.00000000
     The local contribution  to forces
     atom    1 type  1   force =     0.00000000    0.00000000    0.00000000
     atom    2 type  1   force =     0.00000000    0.00000000    0.00000000
     atom    3 type  2   force =    -1.36679255   -1.36679255    0.00000000
     atom    4 type  2   force =     1.36679255    1.36679255    0.00000000
     atom    5 type  2   force =    -1.36679255    1.36679255    0.00000000
     atom    6 type  2   force =     1.36679255   -1.36679255    0.00000000
     The core correction contribution to forces
     atom    1 type  1   force =     0.00000000    0.00000000    0.00000000
     atom    2 type  1   force =     0.00000000    0.00000000    0.00000000
     atom    3 type  2   force =     0.00390315    0.00390315    0.00000000
     atom    4 type  2   force =    -0.00390315   -0.00390315    0.00000000
     atom    5 type  2   force =     0.00390315   -0.00390315    0.00000000
     atom    6 type  2   force =    -0.00390315    0.00390315    0.00000000
     The Hubbard contrib.    to forces
     atom    1 type  1   force =     0.00000000    0.00000000    0.00000000
     atom    2 type  1   force =     0.00000000    0.00000000    0.00000000
     atom    3 type  2   force =     0.00000000    0.00000000    0.00000000
     atom    4 type  2   force =     0.00000000    0.00000000    0.00000000
     atom    5 type  2   force =     0.00000000    0.00000000    0.00000000
     atom    6 type  2   force =     0.00000000    0.00000000    0.00000000
     The SCF correction term to forces
     atom    1 type  1   force =     0.00000000   -0.00000000    0.00000000
     atom    2 type  1   force =     0.00000000    0.00000000    0.00000000
     atom    3 type  2   force =    -0.00016092   -0.00016092   -0.00000000
     atom    4 type  2   force =     0.00016092    0.00016092   -0.00000000
     atom    5 type  2   force =    -0.00016092    0.00016092    0.00000000
     atom    6 type  2   force =     0.00016092   -0.00016092    0.00000000

     Total force =     0.050882     Total SCF correction =     0.000455


     Computing stress (Cartesian axis) and pressure

     Message from routine stres:
     noncollinear stress + GGA not implemented

     Writing output data file CsIsalt.save/
 
     init_run     :    135.03s CPU    213.15s WALL (       1 calls)
     electrons    :   3831.78s CPU   5886.37s WALL (       1 calls)
     forces       :     23.25s CPU     32.96s WALL (       1 calls)

     Called by init_run:
     wfcinit      :    132.18s CPU    208.93s WALL (       1 calls)
     wfcinit:atom :      0.46s CPU      0.49s WALL (     126 calls)
     wfcinit:wfcr :    129.19s CPU    204.60s WALL (     126 calls)
     potinit      :      1.16s CPU      1.96s WALL (       1 calls)
     hinit0       :      0.55s CPU      0.69s WALL (       1 calls)

     Called by electrons:
     c_bands      :   3109.29s CPU   4729.09s WALL (       8 calls)
     sum_band     :    708.25s CPU   1136.45s WALL (       8 calls)
     v_of_rho     :      1.66s CPU      2.44s WALL (       9 calls)
     v_h          :      0.12s CPU      0.13s WALL (       9 calls)
     v_xc         :      1.59s CPU      2.36s WALL (      10 calls)
     newd         :      8.36s CPU     11.29s WALL (       9 calls)
     PAW_pot      :      2.07s CPU      3.16s WALL (       9 calls)
     mix_rho      :      1.55s CPU      2.83s WALL (       8 calls)

     Called by c_bands:
     init_us_2    :      9.81s CPU     13.68s WALL (    2268 calls)
     cegterg      :   2978.34s CPU   4580.14s WALL (    1008 calls)

     Called by sum_band:
     sum_band:bec :     14.39s CPU     19.08s WALL (    1008 calls)
     addusdens    :      7.09s CPU      8.86s WALL (       8 calls)

     Called by *egterg:
     h_psi        :   2249.66s CPU   3470.78s WALL (    4359 calls)
     s_psi        :     34.38s CPU     38.17s WALL (    4359 calls)
     g_psi        :      3.29s CPU      3.41s WALL (    3225 calls)
     cdiaghg      :    174.48s CPU    283.52s WALL (    4233 calls)
     cegterg:over :    251.26s CPU    377.96s WALL (    3225 calls)
     cegterg:upda :    203.72s CPU    308.13s WALL (    3225 calls)
     cegterg:last :     39.70s CPU     59.55s WALL (    1008 calls)
     cdiaghg:chol :     11.62s CPU     18.05s WALL (    4233 calls)
     cdiaghg:inve :      8.03s CPU     13.85s WALL (    4233 calls)
     cdiaghg:para :     56.61s CPU     90.44s WALL (    8466 calls)

     Called by h_psi:
     h_psi:pot    :   2241.29s CPU   3461.54s WALL (    4359 calls)
     h_psi:calbec :     46.33s CPU     55.99s WALL (    4359 calls)
     vloc_psi     :   2157.10s CPU   3362.67s WALL (    4359 calls)
     add_vuspsi   :     37.84s CPU     42.84s WALL (    4359 calls)

     General routines
     calbec       :     74.37s CPU     93.58s WALL (    5871 calls)
     fft          :      4.21s CPU      6.81s WALL (     198 calls)
     ffts         :      1.01s CPU      1.88s WALL (      68 calls)
     fftw         :   2697.81s CPU   4308.92s WALL (  737800 calls)
     interpolate  :      1.60s CPU      2.49s WALL (      36 calls)
 
     Parallel routines
     fft_scatt_xy :     70.33s CPU     86.35s WALL (  738066 calls)
     fft_scatt_yz :   2290.88s CPU   3784.24s WALL (  738066 calls)

     PAW routines
     PAW_pot      :      2.07s CPU      3.16s WALL (       9 calls)
     PAW_symme    :      0.10s CPU      0.20s WALL (      17 calls)
 
     PWSCF        :      1h 6m CPU      1h42m WALL

 
   This run was terminated on:  19:34:16  24Jan2021            

=------------------------------------------------------------------------------=
   JOB DONE.
=------------------------------------------------------------------------------=
