
     Program PWSCF v.6.6 starts on 14Jan2021 at 12:46:32 

     This program is part of the open-source Quantum ESPRESSO suite
     for quantum simulation of materials; please cite
         "P. Giannozzi et al., J. Phys.:Condens. Matter 21 395502 (2009);
         "P. Giannozzi et al., J. Phys.:Condens. Matter 29 465901 (2017);
          URL http://www.quantum-espresso.org", 
     in publications or presentations arising from this work. More details at
     http://www.quantum-espresso.org/quote

     Parallel version (MPI), running on    64 processors

     MPI processes distributed on     2 nodes
     R & G space division:  proc/nbgrp/npool/nimage =      64
     Fft bands division:     nmany     =       1
     Waiting for input...
     Reading input from standard input

     Current dimensions of program PWSCF are:
     Max number of different atomic species (ntypx) = 10
     Max number of k-points (npk) =  40000
     Max angular momentum in pseudopotentials (lmaxx) =  3
     file Cs.pbe-spn-kjpaw_psl.1.0.0.UPF: wavefunction(s)  5S 6S renormalized
     file Sn.pbe-dn-kjpaw_psl.1.0.0.UPF: wavefunction(s)  5S 5P 4D renormalized
     file I.pbe-n-kjpaw_psl.1.0.0.UPF: wavefunction(s)  5S renormalized

     Subspace diagonalization in iterative solution of the eigenvalue problem:
     a serial algorithm will be used

 
     Parallelization info
     --------------------
     sticks:   dense  smooth     PW     G-vecs:    dense   smooth      PW
     Min         124      83     22                21086    11483    1612
     Max         125      84     23                21099    11492    1627
     Sum        7993    5329   1439              1350001   735059  103557
 

     Title: 
     CsSnI3                                                                     


     bravais-lattice index     =            8
     lattice parameter (alat)  =       9.1317  a.u.
     unit-cell volume          =    6370.5385 (a.u.)^3
     number of atoms/cell      =           20
     number of atomic types    =            3
     number of electrons       =       176.00
     number of Kohn-Sham states=           88
     kinetic-energy cutoff     =      90.0000  Ry
     charge density cutoff     =     540.0000  Ry
     convergence threshold     =      1.0E-06
     mixing beta               =       0.5000
     number of iterations used =            8  plain     mixing
     Exchange-correlation= SLA PW PBX PBC
                           (   1   4   3   4   0   0   0)

     celldm(1)=   9.131705  celldm(2)=   2.227728  celldm(3)=   3.755420
     celldm(4)=   0.000000  celldm(5)=   0.000000  celldm(6)=   0.000000

     crystal axes: (cart. coord. in units of alat)
               a(1) = (   1.000000   0.000000   0.000000 )  
               a(2) = (   0.000000   2.227728   0.000000 )  
               a(3) = (   0.000000   0.000000   3.755420 )  

     reciprocal axes: (cart. coord. in units 2 pi/alat)
               b(1) = (  1.000000  0.000000  0.000000 )  
               b(2) = (  0.000000  0.448888  0.000000 )  
               b(3) = (  0.000000  0.000000  0.266282 )  


     PseudoPot. # 1 for Cs read from file:
     /scratch/gtenti/degironcoli/pseudo/Cs.pbe-spn-kjpaw_psl.1.0.0.UPF
     MD5 check sum: b82c75cc2e1f4ff73b6412cffeb9c584
     Pseudo is Projector augmented-wave + core cor, Zval =  9.0
     Generated using "atomic" code by A. Dal Corso v.6.4.1
     Shape of augmentation charge: PSQ
     Using radial grid of 1251 points,  9 beta functions with: 
                l(1) =   0
                l(2) =   0
                l(3) =   0
                l(4) =   1
                l(5) =   1
                l(6) =   2
                l(7) =   2
                l(8) =   3
                l(9) =   3
     Q(r) pseudized with 0 coefficients 


     PseudoPot. # 2 for Sn read from file:
     /scratch/gtenti/degironcoli/pseudo/Sn.pbe-dn-kjpaw_psl.1.0.0.UPF
     MD5 check sum: 67f11dec737d427557dc41ea34975807
     Pseudo is Projector augmented-wave + core cor, Zval = 14.0
     Generated using "atomic" code by A. Dal Corso v.6.3
     Shape of augmentation charge: PSQ
     Using radial grid of 1243 points,  6 beta functions with: 
                l(1) =   0
                l(2) =   0
                l(3) =   1
                l(4) =   1
                l(5) =   2
                l(6) =   2
     Q(r) pseudized with 0 coefficients 


     PseudoPot. # 3 for I  read from file:
     /scratch/gtenti/degironcoli/pseudo/I.pbe-n-kjpaw_psl.1.0.0.UPF
     MD5 check sum: cd3d296c3308a581e1559a0c8a554cb5
     Pseudo is Projector augmented-wave + core cor, Zval =  7.0
     Generated using "atomic" code by A. Dal Corso v.6.3
     Shape of augmentation charge: PSQ
     Using radial grid of 1247 points,  6 beta functions with: 
                l(1) =   0
                l(2) =   0
                l(3) =   1
                l(4) =   1
                l(5) =   2
                l(6) =   2
     Q(r) pseudized with 0 coefficients 


     atomic species   valence    mass     pseudopotential
        Cs             9.00   132.90000     Cs( 1.00)
        Sn            14.00   118.70000     Sn( 1.00)
        I              7.00   126.90000     I ( 1.00)

      8 Sym. Ops., with inversion, found ( 6 have fractional translation)


                                    s                        frac. trans.

      isym =  1     identity                                     

 cryst.   s( 1) = (     1          0          0      )
                  (     0          1          0      )
                  (     0          0          1      )

 cart.    s( 1) = (  1.0000000  0.0000000  0.0000000 )
                  (  0.0000000  1.0000000  0.0000000 )
                  (  0.0000000  0.0000000  1.0000000 )


      isym =  2     180 deg rotation - cart. axis [0,0,1]        

 cryst.   s( 2) = (    -1          0          0      )    f =(  0.0000000 )
                  (     0         -1          0      )       (  0.5000000 )
                  (     0          0          1      )       (  0.5000000 )

 cart.    s( 2) = ( -1.0000000  0.0000000  0.0000000 )    f =(  0.0000000 )
                  (  0.0000000 -1.0000000  0.0000000 )       (  1.1138638 )
                  (  0.0000000  0.0000000  1.0000000 )       (  1.8777098 )


      isym =  3     180 deg rotation - cart. axis [0,1,0]        

 cryst.   s( 3) = (    -1          0          0      )    f =(  0.5000000 )
                  (     0          1          0      )       ( -0.5000000 )
                  (     0          0         -1      )       ( -0.5000000 )

 cart.    s( 3) = ( -1.0000000  0.0000000  0.0000000 )    f =(  0.5000000 )
                  (  0.0000000  1.0000000  0.0000000 )       ( -1.1138638 )
                  (  0.0000000  0.0000000 -1.0000000 )       ( -1.8777098 )


      isym =  4     180 deg rotation - cart. axis [1,0,0]        

 cryst.   s( 4) = (     1          0          0      )    f =( -0.5000000 )
                  (     0         -1          0      )       (  0.0000000 )
                  (     0          0         -1      )       (  0.0000000 )

 cart.    s( 4) = (  1.0000000  0.0000000  0.0000000 )    f =( -0.5000000 )
                  (  0.0000000 -1.0000000  0.0000000 )       (  0.0000000 )
                  (  0.0000000  0.0000000 -1.0000000 )       (  0.0000000 )


      isym =  5     inversion                                    

 cryst.   s( 5) = (    -1          0          0      )
                  (     0         -1          0      )
                  (     0          0         -1      )

 cart.    s( 5) = ( -1.0000000  0.0000000  0.0000000 )
                  (  0.0000000 -1.0000000  0.0000000 )
                  (  0.0000000  0.0000000 -1.0000000 )


      isym =  6     inv. 180 deg rotation - cart. axis [0,0,1]   

 cryst.   s( 6) = (     1          0          0      )    f =(  0.0000000 )
                  (     0          1          0      )       ( -0.5000000 )
                  (     0          0         -1      )       ( -0.5000000 )

 cart.    s( 6) = (  1.0000000  0.0000000  0.0000000 )    f =(  0.0000000 )
                  (  0.0000000  1.0000000  0.0000000 )       ( -1.1138638 )
                  (  0.0000000  0.0000000 -1.0000000 )       ( -1.8777098 )


      isym =  7     inv. 180 deg rotation - cart. axis [0,1,0]   

 cryst.   s( 7) = (     1          0          0      )    f =( -0.5000000 )
                  (     0         -1          0      )       (  0.5000000 )
                  (     0          0          1      )       (  0.5000000 )

 cart.    s( 7) = (  1.0000000  0.0000000  0.0000000 )    f =( -0.5000000 )
                  (  0.0000000 -1.0000000  0.0000000 )       (  1.1138638 )
                  (  0.0000000  0.0000000  1.0000000 )       (  1.8777098 )


      isym =  8     inv. 180 deg rotation - cart. axis [1,0,0]   

 cryst.   s( 8) = (    -1          0          0      )    f =(  0.5000000 )
                  (     0          1          0      )       (  0.0000000 )
                  (     0          0          1      )       (  0.0000000 )

 cart.    s( 8) = ( -1.0000000  0.0000000  0.0000000 )    f =(  0.5000000 )
                  (  0.0000000  1.0000000  0.0000000 )       (  0.0000000 )
                  (  0.0000000  0.0000000  1.0000000 )       (  0.0000000 )


     point group D_2h (mmm) 
     there are  8 classes
     the character table:

       E     C2    C2'   C2''  i     s_v   s_v'  s_v''
A_g    1.00  1.00  1.00  1.00  1.00  1.00  1.00  1.00
B_1g   1.00  1.00 -1.00 -1.00  1.00  1.00 -1.00 -1.00
B_2g   1.00 -1.00  1.00 -1.00  1.00 -1.00  1.00 -1.00
B_3g   1.00 -1.00 -1.00  1.00  1.00 -1.00 -1.00  1.00
A_u    1.00  1.00  1.00  1.00 -1.00 -1.00 -1.00 -1.00
B_1u   1.00  1.00 -1.00 -1.00 -1.00 -1.00  1.00  1.00
B_2u   1.00 -1.00  1.00 -1.00 -1.00  1.00 -1.00  1.00
B_3u   1.00 -1.00 -1.00  1.00 -1.00  1.00  1.00 -1.00

     the symmetry operations in each class and the name of the first element:

     E        1
          identity                                               
     C2       2
          180 deg rotation - cart. axis [0,0,1]                  
     C2'      4
          180 deg rotation - cart. axis [1,0,0]                  
     C2''     3
          180 deg rotation - cart. axis [0,1,0]                  
     i        5
          inversion                                              
     s_v      6
          inv. 180 deg rotation - cart. axis [0,0,1]             
     s_v'     8
          inv. 180 deg rotation - cart. axis [1,0,0]             
     s_v''    7
          inv. 180 deg rotation - cart. axis [0,1,0]             

   Cartesian axes

     site n.     atom                  positions (alat units)
         1           Cs  tau(   1) = (   0.2500000   0.1859640   2.5168147  )
         2           Cs  tau(   2) = (   0.7500000   2.0417636   1.2386050  )
         3           Cs  tau(   3) = (   0.2500000   1.2998278   3.1163149  )
         4           Cs  tau(   4) = (   0.7500000   0.9278998   0.6391048  )
         5           Sn  tau(   5) = (   0.2500000   0.7615710   1.6485466  )
         6           Sn  tau(   6) = (   0.7500000   1.4661567   2.1068731  )
         7           Sn  tau(   7) = (   0.2500000   1.8754348   0.2291632  )
         8           Sn  tau(   8) = (   0.7500000   0.3522928   3.5262565  )
         9           I   tau(   9) = (   0.7500000   0.0581437   0.4202578  )
        10           I   tau(  10) = (   0.2500000   2.1695839   3.3351619  )
        11           I   tau(  11) = (   0.7500000   1.1720075   1.4574521  )
        12           I   tau(  12) = (   0.2500000   1.0557201   2.2979676  )
        13           I   tau(  13) = (   0.7500000   0.6531118   2.9738192  )
        14           I   tau(  14) = (   0.2500000   1.5746158   0.7816005  )
        15           I   tau(  15) = (   0.7500000   1.7669756   2.6593103  )
        16           I   tau(  16) = (   0.2500000   0.4607520   1.0961094  )
        17           I   tau(  17) = (   0.7500000   0.3753632   1.8734812  )
        18           I   tau(  18) = (   0.2500000   1.8523644   1.8819384  )
        19           I   tau(  19) = (   0.7500000   1.4892270   0.0042286  )
        20           I   tau(  20) = (   0.2500000   0.7385006   3.7511911  )

   Crystallographic axes

     site n.     atom                  positions (cryst. coord.)
         1           Cs  tau(   1) = (  0.2500000  0.0834770  0.6701820  )
         2           Cs  tau(   2) = (  0.7500000  0.9165230  0.3298180  )
         3           Cs  tau(   3) = (  0.2500000  0.5834770  0.8298180  )
         4           Cs  tau(   4) = (  0.7500000  0.4165230  0.1701820  )
         5           Sn  tau(   5) = (  0.2500000  0.3418600  0.4389780  )
         6           Sn  tau(   6) = (  0.7500000  0.6581400  0.5610220  )
         7           Sn  tau(   7) = (  0.2500000  0.8418600  0.0610220  )
         8           Sn  tau(   8) = (  0.7500000  0.1581400  0.9389780  )
         9           I   tau(   9) = (  0.7500000  0.0261000  0.1119070  )
        10           I   tau(  10) = (  0.2500000  0.9739000  0.8880930  )
        11           I   tau(  11) = (  0.7500000  0.5261000  0.3880930  )
        12           I   tau(  12) = (  0.2500000  0.4739000  0.6119070  )
        13           I   tau(  13) = (  0.7500000  0.2931740  0.7918740  )
        14           I   tau(  14) = (  0.2500000  0.7068260  0.2081260  )
        15           I   tau(  15) = (  0.7500000  0.7931740  0.7081260  )
        16           I   tau(  16) = (  0.2500000  0.2068260  0.2918740  )
        17           I   tau(  17) = (  0.7500000  0.1684960  0.4988740  )
        18           I   tau(  18) = (  0.2500000  0.8315040  0.5011260  )
        19           I   tau(  19) = (  0.7500000  0.6684960  0.0011260  )
        20           I   tau(  20) = (  0.2500000  0.3315040  0.9988740  )

     number of k points=     8
                       cart. coord. in units 2pi/alat
        k(    1) = (   0.0000000   0.0000000   0.0000000), wk =   0.2500000
        k(    2) = (   0.0000000   0.0000000  -0.1331409), wk =   0.2500000
        k(    3) = (   0.0000000  -0.2244440   0.0000000), wk =   0.2500000
        k(    4) = (   0.0000000  -0.2244440  -0.1331409), wk =   0.2500000
        k(    5) = (  -0.5000000   0.0000000   0.0000000), wk =   0.2500000
        k(    6) = (  -0.5000000   0.0000000  -0.1331409), wk =   0.2500000
        k(    7) = (  -0.5000000  -0.2244440   0.0000000), wk =   0.2500000
        k(    8) = (  -0.5000000  -0.2244440  -0.1331409), wk =   0.2500000

                       cryst. coord.
        k(    1) = (   0.0000000   0.0000000   0.0000000), wk =   0.2500000
        k(    2) = (   0.0000000   0.0000000  -0.5000000), wk =   0.2500000
        k(    3) = (   0.0000000  -0.5000000   0.0000000), wk =   0.2500000
        k(    4) = (   0.0000000  -0.5000000  -0.5000000), wk =   0.2500000
        k(    5) = (  -0.5000000   0.0000000   0.0000000), wk =   0.2500000
        k(    6) = (  -0.5000000   0.0000000  -0.5000000), wk =   0.2500000
        k(    7) = (  -0.5000000  -0.5000000   0.0000000), wk =   0.2500000
        k(    8) = (  -0.5000000  -0.5000000  -0.5000000), wk =   0.2500000

     Dense  grid:  1350001 G-vectors     FFT dimensions: (  72, 160, 256)

     Smooth grid:   735059 G-vectors     FFT dimensions: (  60, 128, 216)

     Dynamical RAM for                 wfc:       1.93 MB

     Dynamical RAM for     wfc (w. buffer):      17.34 MB

     Dynamical RAM for           str. fact:       0.97 MB

     Dynamical RAM for           local pot:       0.00 MB

     Dynamical RAM for          nlocal pot:       9.20 MB

     Dynamical RAM for                qrad:      16.78 MB

     Dynamical RAM for          rho,v,vnew:       2.02 MB

     Dynamical RAM for               rhoin:       0.67 MB

     Dynamical RAM for            rho*nmix:       5.15 MB

     Dynamical RAM for           G-vectors:       1.29 MB

     Dynamical RAM for          h,s,v(r/c):       1.42 MB

     Dynamical RAM for          <psi|beta>:       0.56 MB

     Dynamical RAM for                 psi:       3.85 MB

     Dynamical RAM for                hpsi:       3.85 MB

     Dynamical RAM for                spsi:       3.85 MB

     Dynamical RAM for      wfcinit/wfcrot:       4.80 MB

     Dynamical RAM for           addusdens:     193.17 MB

     Dynamical RAM for          addusforce:     200.56 MB

     Dynamical RAM for         addusstress:     198.00 MB

     Estimated static dynamical RAM per process >      56.47 MB

     Estimated max dynamical RAM per process >     257.03 MB

     Estimated total dynamical RAM >      16.06 GB

     Initial potential from superposition of free atoms

     starting charge  175.83511, renormalised to  176.00000
     Starting wfcs are  104 randomized atomic wfcs
     Checking if some PAW data can be deallocated... 
       PAW data deallocated on   48 nodes for type:  1
       PAW data deallocated on   52 nodes for type:  2
       PAW data deallocated on   28 nodes for type:  3

     total cpu time spent up to now is       16.4 secs

     Self-consistent Calculation

     iteration #  1     ecut=    90.00 Ry     beta= 0.50
     Davidson diagonalization with overlap
     ethr =  1.00E-02,  avg # of iterations =  1.0

     Threshold (ethr) on eigenvalues was too large:
     Diagonalizing with lowered threshold

     Davidson diagonalization with overlap
     ethr =  3.22E-04,  avg # of iterations =  3.9

     total cpu time spent up to now is       47.3 secs

     total energy              =   -7979.48976732 Ry
     estimated scf accuracy    <       0.45639980 Ry

     iteration #  2     ecut=    90.00 Ry     beta= 0.50
     Davidson diagonalization with overlap
     ethr =  2.59E-04,  avg # of iterations =  3.9

     total cpu time spent up to now is       65.1 secs

     total energy              =   -7979.62951559 Ry
     estimated scf accuracy    <       0.11622195 Ry

     iteration #  3     ecut=    90.00 Ry     beta= 0.50
     Davidson diagonalization with overlap
     ethr =  6.60E-05,  avg # of iterations =  2.6

     total cpu time spent up to now is       81.3 secs

     total energy              =   -7979.64792114 Ry
     estimated scf accuracy    <       0.01145744 Ry

     iteration #  4     ecut=    90.00 Ry     beta= 0.50
     Davidson diagonalization with overlap
     ethr =  6.51E-06,  avg # of iterations =  7.4

     total cpu time spent up to now is      103.9 secs

     total energy              =   -7979.65517975 Ry
     estimated scf accuracy    <       0.01100849 Ry

     iteration #  5     ecut=    90.00 Ry     beta= 0.50
     Davidson diagonalization with overlap
     ethr =  6.25E-06,  avg # of iterations =  5.5

     total cpu time spent up to now is      122.1 secs

     total energy              =   -7979.65833783 Ry
     estimated scf accuracy    <       0.00122075 Ry

     iteration #  6     ecut=    90.00 Ry     beta= 0.50
     Davidson diagonalization with overlap
     ethr =  6.94E-07,  avg # of iterations =  4.9

     total cpu time spent up to now is      140.0 secs

     total energy              =   -7979.65836000 Ry
     estimated scf accuracy    <       0.00055413 Ry

     iteration #  7     ecut=    90.00 Ry     beta= 0.50
     Davidson diagonalization with overlap
     ethr =  3.15E-07,  avg # of iterations =  5.0

     total cpu time spent up to now is      157.8 secs

     total energy              =   -7979.65853589 Ry
     estimated scf accuracy    <       0.00006136 Ry

     iteration #  8     ecut=    90.00 Ry     beta= 0.50
     Davidson diagonalization with overlap
     ethr =  3.49E-08,  avg # of iterations =  4.5

     total cpu time spent up to now is      176.3 secs

     total energy              =   -7979.65854544 Ry
     estimated scf accuracy    <       0.00002518 Ry

     iteration #  9     ecut=    90.00 Ry     beta= 0.50
     Davidson diagonalization with overlap
     ethr =  1.43E-08,  avg # of iterations =  3.5

     total cpu time spent up to now is      193.0 secs

     total energy              =   -7979.65854758 Ry
     estimated scf accuracy    <       0.00000295 Ry

     iteration # 10     ecut=    90.00 Ry     beta= 0.50
     Davidson diagonalization with overlap
     ethr =  1.67E-09,  avg # of iterations =  6.0

     total cpu time spent up to now is      216.9 secs

     total energy              =   -7979.65854956 Ry
     estimated scf accuracy    <       0.00000200 Ry

     iteration # 11     ecut=    90.00 Ry     beta= 0.50
     Davidson diagonalization with overlap
     ethr =  1.14E-09,  avg # of iterations =  2.0

     total cpu time spent up to now is      232.0 secs

     End of self-consistent calculation

          k = 0.0000 0.0000 0.0000 ( 91941 PWs)   bands (ev):

   -17.8834 -17.8834 -17.8831 -17.8831 -17.8754 -17.8754 -17.8751 -17.8751
   -17.8722 -17.8722 -17.8715 -17.8715 -17.8604 -17.8604 -17.8590 -17.8590
   -17.8529 -17.8529 -17.8515 -17.8515 -17.7873 -17.7870 -17.7864 -17.7861
    -8.8014  -8.7770  -8.5949  -8.5329  -8.4454  -8.4354  -8.4153  -8.4049
    -8.2780  -8.2548  -8.2367  -8.1941  -4.6162  -4.6152  -4.6127  -4.6061
    -4.5974  -4.5706  -4.5539  -4.5522  -4.5457  -4.5441  -4.5423  -4.5394
    -2.8883  -2.8634  -2.8253  -2.7446   0.1238   0.3253   0.7540   0.8903
     0.9049   0.9866   1.1126   1.1239   1.2141   1.2802   1.3250   1.3333
     1.3345   1.5557   1.6345   1.7315   1.7805   1.7974   1.8143   1.8203
     1.8248   1.8392   1.9803   2.0647   2.0705   2.1749   2.2077   2.2228
     2.2354   2.2380   2.3132   2.3180   2.3830   2.4784   2.6261   2.9248

     occupation numbers 
     1.0000   1.0000   1.0000   1.0000   1.0000   1.0000   1.0000   1.0000
     1.0000   1.0000   1.0000   1.0000   1.0000   1.0000   1.0000   1.0000
     1.0000   1.0000   1.0000   1.0000   1.0000   1.0000   1.0000   1.0000
     1.0000   1.0000   1.0000   1.0000   1.0000   1.0000   1.0000   1.0000
     1.0000   1.0000   1.0000   1.0000   1.0000   1.0000   1.0000   1.0000
     1.0000   1.0000   1.0000   1.0000   1.0000   1.0000   1.0000   1.0000
     1.0000   1.0000   1.0000   1.0000   1.0000   1.0000   1.0000   1.0000
     1.0000   1.0000   1.0000   1.0000   1.0000   1.0000   1.0000   1.0000
     1.0000   1.0000   1.0000   1.0000   1.0000   1.0000   1.0000   1.0000
     1.0000   1.0000   1.0000   1.0000   1.0000   1.0000   1.0000   1.0000
     1.0000   1.0000   1.0000   1.0000   1.0000   1.0000   1.0000   1.0000

          k = 0.0000 0.0000-0.1331 ( 91900 PWs)   bands (ev):

   -17.8834 -17.8834 -17.8831 -17.8831 -17.8754 -17.8754 -17.8751 -17.8751
   -17.8722 -17.8722 -17.8715 -17.8715 -17.8604 -17.8604 -17.8590 -17.8590
   -17.8529 -17.8529 -17.8515 -17.8515 -17.7872 -17.7872 -17.7862 -17.7862
    -8.7904  -8.7904  -8.5644  -8.5644  -8.4405  -8.4405  -8.4086  -8.4086
    -8.2712  -8.2712  -8.2103  -8.2103  -4.6215  -4.6215  -4.6048  -4.6048
    -4.5836  -4.5836  -4.5531  -4.5531  -4.5448  -4.5448  -4.5401  -4.5401
    -2.8808  -2.8808  -2.7802  -2.7802   0.2135   0.2135   0.8433   0.8433
     0.8972   0.8972   1.1436   1.1436   1.2844   1.2844   1.3065   1.3065
     1.5228   1.5228   1.5822   1.5822   1.7965   1.7965   1.8206   1.8206
     1.8294   1.8294   1.9859   1.9859   2.1210   2.1210   2.2181   2.2181
     2.2263   2.2263   2.3552   2.3552   2.4583   2.4583   2.7651   2.7651

     occupation numbers 
     1.0000   1.0000   1.0000   1.0000   1.0000   1.0000   1.0000   1.0000
     1.0000   1.0000   1.0000   1.0000   1.0000   1.0000   1.0000   1.0000
     1.0000   1.0000   1.0000   1.0000   1.0000   1.0000   1.0000   1.0000
     1.0000   1.0000   1.0000   1.0000   1.0000   1.0000   1.0000   1.0000
     1.0000   1.0000   1.0000   1.0000   1.0000   1.0000   1.0000   1.0000
     1.0000   1.0000   1.0000   1.0000   1.0000   1.0000   1.0000   1.0000
     1.0000   1.0000   1.0000   1.0000   1.0000   1.0000   1.0000   1.0000
     1.0000   1.0000   1.0000   1.0000   1.0000   1.0000   1.0000   1.0000
     1.0000   1.0000   1.0000   1.0000   1.0000   1.0000   1.0000   1.0000
     1.0000   1.0000   1.0000   1.0000   1.0000   1.0000   1.0000   1.0000
     1.0000   1.0000   1.0000   1.0000   1.0000   1.0000   1.0000   1.0000

          k = 0.0000-0.2244 0.0000 ( 91902 PWs)   bands (ev):

   -17.8833 -17.8833 -17.8831 -17.8831 -17.8754 -17.8754 -17.8751 -17.8751
   -17.8722 -17.8722 -17.8715 -17.8715 -17.8604 -17.8604 -17.8590 -17.8590
   -17.8529 -17.8529 -17.8515 -17.8515 -17.7868 -17.7868 -17.7866 -17.7866
    -8.7676  -8.7676  -8.6072  -8.6072  -8.4867  -8.4867  -8.3439  -8.3439
    -8.2536  -8.2536  -8.2239  -8.2239  -4.6232  -4.6232  -4.6027  -4.6027
    -4.5763  -4.5763  -4.5588  -4.5588  -4.5498  -4.5498  -4.5482  -4.5482
    -2.8982  -2.8982  -2.7518  -2.7518   0.2529   0.2529   0.8178   0.8178
     0.9501   0.9501   1.1870   1.1870   1.2014   1.2014   1.3154   1.3154
     1.4154   1.4154   1.5578   1.5578   1.7451   1.7451   1.7827   1.7827
     1.9697   1.9697   2.0117   2.0117   2.0706   2.0706   2.2353   2.2353
     2.2632   2.2632   2.3126   2.3126   2.3956   2.3956   2.9390   2.9390

     occupation numbers 
     1.0000   1.0000   1.0000   1.0000   1.0000   1.0000   1.0000   1.0000
     1.0000   1.0000   1.0000   1.0000   1.0000   1.0000   1.0000   1.0000
     1.0000   1.0000   1.0000   1.0000   1.0000   1.0000   1.0000   1.0000
     1.0000   1.0000   1.0000   1.0000   1.0000   1.0000   1.0000   1.0000
     1.0000   1.0000   1.0000   1.0000   1.0000   1.0000   1.0000   1.0000
     1.0000   1.0000   1.0000   1.0000   1.0000   1.0000   1.0000   1.0000
     1.0000   1.0000   1.0000   1.0000   1.0000   1.0000   1.0000   1.0000
     1.0000   1.0000   1.0000   1.0000   1.0000   1.0000   1.0000   1.0000
     1.0000   1.0000   1.0000   1.0000   1.0000   1.0000   1.0000   1.0000
     1.0000   1.0000   1.0000   1.0000   1.0000   1.0000   1.0000   1.0000
     1.0000   1.0000   1.0000   1.0000   1.0000   1.0000   1.0000   1.0000

          k = 0.0000-0.2244-0.1331 ( 91796 PWs)   bands (ev):

   -17.8833 -17.8833 -17.8831 -17.8831 -17.8754 -17.8754 -17.8751 -17.8751
   -17.8722 -17.8722 -17.8715 -17.8715 -17.8604 -17.8604 -17.8590 -17.8590
   -17.8529 -17.8529 -17.8515 -17.8515 -17.7868 -17.7868 -17.7866 -17.7866
    -8.7677  -8.7677  -8.6075  -8.6075  -8.4845  -8.4845  -8.3495  -8.3495
    -8.2387  -8.2387  -8.2349  -8.2349  -4.6202  -4.6202  -4.6097  -4.6097
    -4.5716  -4.5716  -4.5595  -4.5595  -4.5498  -4.5498  -4.5482  -4.5482
    -2.8969  -2.8969  -2.7534  -2.7534   0.2586   0.2586   0.8077   0.8077
     0.9501   0.9501   1.2015   1.2015   1.2121   1.2121   1.3152   1.3152
     1.3583   1.3583   1.5674   1.5674   1.7465   1.7465   1.8251   1.8251
     1.9654   1.9654   1.9978   1.9978   2.0842   2.0842   2.2211   2.2211
     2.2875   2.2875   2.2912   2.2912   2.4097   2.4097   2.9223   2.9223

     occupation numbers 
     1.0000   1.0000   1.0000   1.0000   1.0000   1.0000   1.0000   1.0000
     1.0000   1.0000   1.0000   1.0000   1.0000   1.0000   1.0000   1.0000
     1.0000   1.0000   1.0000   1.0000   1.0000   1.0000   1.0000   1.0000
     1.0000   1.0000   1.0000   1.0000   1.0000   1.0000   1.0000   1.0000
     1.0000   1.0000   1.0000   1.0000   1.0000   1.0000   1.0000   1.0000
     1.0000   1.0000   1.0000   1.0000   1.0000   1.0000   1.0000   1.0000
     1.0000   1.0000   1.0000   1.0000   1.0000   1.0000   1.0000   1.0000
     1.0000   1.0000   1.0000   1.0000   1.0000   1.0000   1.0000   1.0000
     1.0000   1.0000   1.0000   1.0000   1.0000   1.0000   1.0000   1.0000
     1.0000   1.0000   1.0000   1.0000   1.0000   1.0000   1.0000   1.0000
     1.0000   1.0000   1.0000   1.0000   1.0000   1.0000   1.0000   1.0000

          k =-0.5000 0.0000 0.0000 ( 91880 PWs)   bands (ev):

   -17.8826 -17.8826 -17.8826 -17.8826 -17.8786 -17.8786 -17.8786 -17.8786
   -17.8718 -17.8718 -17.8718 -17.8718 -17.8564 -17.8564 -17.8564 -17.8564
   -17.8529 -17.8529 -17.8529 -17.8529 -17.7757 -17.7757 -17.7751 -17.7751
    -8.4830  -8.4830  -8.4807  -8.4807  -8.3065  -8.3065  -8.2970  -8.2970
    -8.2855  -8.2855  -8.2659  -8.2659  -4.7917  -4.7917  -4.7240  -4.7240
    -4.6086  -4.6086  -4.5994  -4.5994  -4.5851  -4.5851  -4.5565  -4.5565
    -3.2045  -3.2045  -3.1676  -3.1676   0.0779   0.0779   0.0793   0.0793
     0.5665   0.5665   0.6244   0.6244   0.8921   0.8921   0.9115   0.9115
     1.2452   1.2452   1.6369   1.6369   1.6779   1.6779   1.7848   1.7848
     1.7958   1.7958   1.8562   1.8562   1.9082   1.9082   1.9340   1.9340
     2.0645   2.0645   2.1023   2.1023   2.5335   2.5335   2.9134   2.9134

     occupation numbers 
     1.0000   1.0000   1.0000   1.0000   1.0000   1.0000   1.0000   1.0000
     1.0000   1.0000   1.0000   1.0000   1.0000   1.0000   1.0000   1.0000
     1.0000   1.0000   1.0000   1.0000   1.0000   1.0000   1.0000   1.0000
     1.0000   1.0000   1.0000   1.0000   1.0000   1.0000   1.0000   1.0000
     1.0000   1.0000   1.0000   1.0000   1.0000   1.0000   1.0000   1.0000
     1.0000   1.0000   1.0000   1.0000   1.0000   1.0000   1.0000   1.0000
     1.0000   1.0000   1.0000   1.0000   1.0000   1.0000   1.0000   1.0000
     1.0000   1.0000   1.0000   1.0000   1.0000   1.0000   1.0000   1.0000
     1.0000   1.0000   1.0000   1.0000   1.0000   1.0000   1.0000   1.0000
     1.0000   1.0000   1.0000   1.0000   1.0000   1.0000   1.0000   1.0000
     1.0000   1.0000   1.0000   1.0000   1.0000   1.0000   1.0000   1.0000

          k =-0.5000 0.0000-0.1331 ( 91888 PWs)   bands (ev):

   -17.8826 -17.8826 -17.8826 -17.8826 -17.8786 -17.8786 -17.8786 -17.8786
   -17.8718 -17.8718 -17.8718 -17.8718 -17.8564 -17.8564 -17.8564 -17.8564
   -17.8529 -17.8529 -17.8529 -17.8529 -17.7757 -17.7757 -17.7751 -17.7751
    -8.4836  -8.4836  -8.4801  -8.4801  -8.3059  -8.3059  -8.2980  -8.2980
    -8.2852  -8.2852  -8.2659  -8.2659  -4.7916  -4.7916  -4.7241  -4.7241
    -4.6088  -4.6088  -4.5994  -4.5994  -4.5848  -4.5848  -4.5566  -4.5566
    -3.1980  -3.1980  -3.1743  -3.1743   0.0650   0.0650   0.0976   0.0976
     0.5844   0.5844   0.6321   0.6321   0.8403   0.8403   0.8787   0.8787
     1.3337   1.3337   1.6054   1.6054   1.6887   1.6887   1.8004   1.8004
     1.8032   1.8032   1.8293   1.8293   1.8373   1.8373   1.9643   1.9643
     2.0587   2.0587   2.1326   2.1326   2.5929   2.5929   2.8547   2.8547

     occupation numbers 
     1.0000   1.0000   1.0000   1.0000   1.0000   1.0000   1.0000   1.0000
     1.0000   1.0000   1.0000   1.0000   1.0000   1.0000   1.0000   1.0000
     1.0000   1.0000   1.0000   1.0000   1.0000   1.0000   1.0000   1.0000
     1.0000   1.0000   1.0000   1.0000   1.0000   1.0000   1.0000   1.0000
     1.0000   1.0000   1.0000   1.0000   1.0000   1.0000   1.0000   1.0000
     1.0000   1.0000   1.0000   1.0000   1.0000   1.0000   1.0000   1.0000
     1.0000   1.0000   1.0000   1.0000   1.0000   1.0000   1.0000   1.0000
     1.0000   1.0000   1.0000   1.0000   1.0000   1.0000   1.0000   1.0000
     1.0000   1.0000   1.0000   1.0000   1.0000   1.0000   1.0000   1.0000
     1.0000   1.0000   1.0000   1.0000   1.0000   1.0000   1.0000   1.0000
     1.0000   1.0000   1.0000   1.0000   1.0000   1.0000   1.0000   1.0000

          k =-0.5000-0.2244 0.0000 ( 91856 PWs)   bands (ev):

   -17.8826 -17.8826 -17.8826 -17.8826 -17.8786 -17.8786 -17.8786 -17.8786
   -17.8718 -17.8718 -17.8718 -17.8718 -17.8564 -17.8564 -17.8564 -17.8564
   -17.8529 -17.8529 -17.8529 -17.8529 -17.7754 -17.7754 -17.7754 -17.7754
    -8.4819  -8.4819  -8.4819  -8.4819  -8.3028  -8.3028  -8.3028  -8.3028
    -8.2748  -8.2748  -8.2748  -8.2748  -4.7580  -4.7580  -4.7580  -4.7580
    -4.6019  -4.6019  -4.6019  -4.6019  -4.5727  -4.5727  -4.5727  -4.5727
    -3.1867  -3.1867  -3.1867  -3.1867   0.2236   0.2236   0.2236   0.2236
     0.4391   0.4391   0.4391   0.4391   0.8441   0.8441   0.8441   0.8441
     1.4590   1.4590   1.4590   1.4590   1.6403   1.6403   1.6403   1.6403
     1.8005   1.8005   1.8005   1.8005   1.9270   1.9270   1.9270   1.9270
     2.1549   2.1549   2.1549   2.1549   2.8759   2.8759   2.8759   2.8759

     occupation numbers 
     1.0000   1.0000   1.0000   1.0000   1.0000   1.0000   1.0000   1.0000
     1.0000   1.0000   1.0000   1.0000   1.0000   1.0000   1.0000   1.0000
     1.0000   1.0000   1.0000   1.0000   1.0000   1.0000   1.0000   1.0000
     1.0000   1.0000   1.0000   1.0000   1.0000   1.0000   1.0000   1.0000
     1.0000   1.0000   1.0000   1.0000   1.0000   1.0000   1.0000   1.0000
     1.0000   1.0000   1.0000   1.0000   1.0000   1.0000   1.0000   1.0000
     1.0000   1.0000   1.0000   1.0000   1.0000   1.0000   1.0000   1.0000
     1.0000   1.0000   1.0000   1.0000   1.0000   1.0000   1.0000   1.0000
     1.0000   1.0000   1.0000   1.0000   1.0000   1.0000   1.0000   1.0000
     1.0000   1.0000   1.0000   1.0000   1.0000   1.0000   1.0000   1.0000
     1.0000   1.0000   1.0000   1.0000   1.0000   1.0000   1.0000   1.0000

          k =-0.5000-0.2244-0.1331 ( 91896 PWs)   bands (ev):

   -17.8826 -17.8826 -17.8826 -17.8826 -17.8786 -17.8786 -17.8786 -17.8786
   -17.8718 -17.8718 -17.8718 -17.8718 -17.8564 -17.8564 -17.8564 -17.8564
   -17.8529 -17.8529 -17.8529 -17.8529 -17.7754 -17.7754 -17.7754 -17.7754
    -8.4819  -8.4819  -8.4819  -8.4819  -8.3028  -8.3028  -8.3028  -8.3028
    -8.2748  -8.2748  -8.2748  -8.2748  -4.7579  -4.7579  -4.7579  -4.7579
    -4.6018  -4.6018  -4.6018  -4.6018  -4.5728  -4.5728  -4.5728  -4.5728
    -3.1867  -3.1867  -3.1867  -3.1867   0.2172   0.2172   0.2172   0.2172
     0.4423   0.4423   0.4423   0.4423   0.8697   0.8697   0.8697   0.8697
     1.3742   1.3742   1.3742   1.3742   1.7119   1.7119   1.7119   1.7119
     1.8028   1.8028   1.8028   1.8028   1.9475   1.9475   1.9475   1.9475
     2.1160   2.1160   2.1160   2.1160   2.8848   2.8848   2.8848   2.8848

     occupation numbers 
     1.0000   1.0000   1.0000   1.0000   1.0000   1.0000   1.0000   1.0000
     1.0000   1.0000   1.0000   1.0000   1.0000   1.0000   1.0000   1.0000
     1.0000   1.0000   1.0000   1.0000   1.0000   1.0000   1.0000   1.0000
     1.0000   1.0000   1.0000   1.0000   1.0000   1.0000   1.0000   1.0000
     1.0000   1.0000   1.0000   1.0000   1.0000   1.0000   1.0000   1.0000
     1.0000   1.0000   1.0000   1.0000   1.0000   1.0000   1.0000   1.0000
     1.0000   1.0000   1.0000   1.0000   1.0000   1.0000   1.0000   1.0000
     1.0000   1.0000   1.0000   1.0000   1.0000   1.0000   1.0000   1.0000
     1.0000   1.0000   1.0000   1.0000   1.0000   1.0000   1.0000   1.0000
     1.0000   1.0000   1.0000   1.0000   1.0000   1.0000   1.0000   1.0000
     1.0000   1.0000   1.0000   1.0000   1.0000   1.0000   1.0000   1.0000

     highest occupied level (ev):     2.9390

!    total energy              =   -7979.65854904 Ry

     total all-electron energy =   -282510.813262 Ry
     estimated scf accuracy    <       0.00000076 Ry

     The total energy is the sum of the following terms:
     one-electron contribution =    -463.67497393 Ry
     hartree contribution      =     316.62984537 Ry
     xc contribution           =    -465.90768702 Ry
     ewald contribution        =    -633.56960439 Ry
     one-center paw contrib.   =   -6733.13612908 Ry
      -> PAW hartree energy AE =      25.62949912 Ry
      -> PAW hartree energy PS =     -25.51994652 Ry
      -> PAW xc energy AE      =    -383.52956935 Ry
      -> PAW xc energy PS      =      20.51429913 Ry
      -> total E_H with PAW    =     316.73939797 Ry
      -> total E_XC with PAW   =    -828.92295724 Ry

     convergence has been achieved in  11 iterations

     Forces acting on atoms (cartesian axes, Ry/au):

     atom    1 type  1   force =     0.00000000   -0.00063455    0.00063790
     atom    2 type  1   force =     0.00000000    0.00063455   -0.00063790
     atom    3 type  1   force =     0.00000000   -0.00063455   -0.00063790
     atom    4 type  1   force =     0.00000000    0.00063455    0.00063790
     atom    5 type  2   force =     0.00000000   -0.00074549   -0.00004783
     atom    6 type  2   force =     0.00000000    0.00074549    0.00004783
     atom    7 type  2   force =     0.00000000   -0.00074549    0.00004783
     atom    8 type  2   force =     0.00000000    0.00074549   -0.00004783
     atom    9 type  3   force =     0.00000000   -0.00346479   -0.00195477
     atom   10 type  3   force =     0.00000000    0.00346479    0.00195477
     atom   11 type  3   force =     0.00000000   -0.00346479    0.00195477
     atom   12 type  3   force =     0.00000000    0.00346479   -0.00195477
     atom   13 type  3   force =     0.00000000   -0.00064866    0.00050960
     atom   14 type  3   force =     0.00000000    0.00064866   -0.00050960
     atom   15 type  3   force =    -0.00000000   -0.00064866   -0.00050960
     atom   16 type  3   force =     0.00000000    0.00064866    0.00050960
     atom   17 type  3   force =     0.00000000    0.00332026   -0.00179866
     atom   18 type  3   force =     0.00000000   -0.00332026    0.00179866
     atom   19 type  3   force =     0.00000000    0.00332026    0.00179866
     atom   20 type  3   force =     0.00000000   -0.00332026   -0.00179866
     The non-local contrib.  to forces
     atom    1 type  1   force =     0.00000000    0.00201312   -0.00104455
     atom    2 type  1   force =     0.00000000   -0.00201312    0.00104455
     atom    3 type  1   force =     0.00000000    0.00201312    0.00104455
     atom    4 type  1   force =    -0.00000000   -0.00201312   -0.00104455
     atom    5 type  2   force =     0.00000000   -0.08830009   -0.13101683
     atom    6 type  2   force =     0.00000000    0.08830009    0.13101683
     atom    7 type  2   force =     0.00000000   -0.08830009    0.13101683
     atom    8 type  2   force =     0.00000000    0.08830009   -0.13101683
     atom    9 type  3   force =     0.00000000   -0.04816216   -0.04708549
     atom   10 type  3   force =     0.00000000    0.04816216    0.04708549
     atom   11 type  3   force =     0.00000000   -0.04816216    0.04708549
     atom   12 type  3   force =    -0.00000000    0.04816216   -0.04708549
     atom   13 type  3   force =     0.00000000   -0.03305789    0.05611944
     atom   14 type  3   force =     0.00000000    0.03305789   -0.05611944
     atom   15 type  3   force =     0.00000000   -0.03305789   -0.05611944
     atom   16 type  3   force =    -0.00000000    0.03305789    0.05611944
     atom   17 type  3   force =     0.00000000    0.05609600   -0.01695108
     atom   18 type  3   force =     0.00000000   -0.05609600    0.01695108
     atom   19 type  3   force =     0.00000000    0.05609600    0.01695108
     atom   20 type  3   force =     0.00000000   -0.05609600   -0.01695108
     The ionic contribution  to forces
     atom    1 type  1   force =    -0.00000000    0.02273773    0.42856976
     atom    2 type  1   force =    -0.00000000   -0.02273773   -0.42856976
     atom    3 type  1   force =    -0.00000000    0.02273773   -0.42856976
     atom    4 type  1   force =     0.00000000   -0.02273773    0.42856976
     atom    5 type  2   force =    -0.00000000   -2.44382135   -1.60292983
     atom    6 type  2   force =     0.00000000    2.44382135    1.60292983
     atom    7 type  2   force =    -0.00000000   -2.44382135    1.60292983
     atom    8 type  2   force =     0.00000000    2.44382135   -1.60292983
     atom    9 type  3   force =    -0.00000000    3.00608891    5.13288893
     atom   10 type  3   force =     0.00000000   -3.00608891   -5.13288893
     atom   11 type  3   force =    -0.00000000    3.00608891   -5.13288893
     atom   12 type  3   force =    -0.00000000   -3.00608891    5.13288893
     atom   13 type  3   force =     0.00000000    2.02422849   -3.75281499
     atom   14 type  3   force =     0.00000000   -2.02422849    3.75281499
     atom   15 type  3   force =    -0.00000000    2.02422849    3.75281499
     atom   16 type  3   force =     0.00000000   -2.02422849   -3.75281499
     atom   17 type  3   force =     0.00000000   -4.20564473    2.10270404
     atom   18 type  3   force =    -0.00000000    4.20564473   -2.10270404
     atom   19 type  3   force =     0.00000000   -4.20564473   -2.10270404
     atom   20 type  3   force =    -0.00000000    4.20564473    2.10270404
     The local contribution  to forces
     atom    1 type  1   force =     0.00000000   -0.02522826   -0.42688301
     atom    2 type  1   force =    -0.00000000    0.02522826    0.42688301
     atom    3 type  1   force =    -0.00000000   -0.02522826    0.42688301
     atom    4 type  1   force =     0.00000000    0.02522826   -0.42688301
     atom    5 type  2   force =    -0.00000000    2.53230175    1.73427138
     atom    6 type  2   force =    -0.00000000   -2.53230175   -1.73427138
     atom    7 type  2   force =    -0.00000000    2.53230175   -1.73427138
     atom    8 type  2   force =    -0.00000000   -2.53230175    1.73427138
     atom    9 type  3   force =     0.00000000   -2.96806668   -5.09484599
     atom   10 type  3   force =    -0.00000000    2.96806668    5.09484599
     atom   11 type  3   force =     0.00000000   -2.96806668    5.09484599
     atom   12 type  3   force =     0.00000000    2.96806668   -5.09484599
     atom   13 type  3   force =    -0.00000000   -1.99640300    3.70504514
     atom   14 type  3   force =    -0.00000000    1.99640300   -3.70504514
     atom   15 type  3   force =    -0.00000000   -1.99640300   -3.70504514
     atom   16 type  3   force =     0.00000000    1.99640300    3.70504514
     atom   17 type  3   force =    -0.00000000    4.16109433   -2.09026572
     atom   18 type  3   force =     0.00000000   -4.16109433    2.09026572
     atom   19 type  3   force =    -0.00000000    4.16109433    2.09026572
     atom   20 type  3   force =     0.00000000   -4.16109433   -2.09026572
     The core correction contribution to forces
     atom    1 type  1   force =    -0.00000000   -0.00015013    0.00004169
     atom    2 type  1   force =     0.00000000    0.00015013   -0.00004169
     atom    3 type  1   force =    -0.00000000   -0.00015013   -0.00004169
     atom    4 type  1   force =     0.00000000    0.00015013    0.00004169
     atom    5 type  2   force =    -0.00000000    0.00021004    0.00004810
     atom    6 type  2   force =    -0.00000000   -0.00021004   -0.00004810
     atom    7 type  2   force =    -0.00000000    0.00021004   -0.00004810
     atom    8 type  2   force =    -0.00000000   -0.00021004    0.00004810
     atom    9 type  3   force =     0.00000000    0.00641083    0.00648921
     atom   10 type  3   force =    -0.00000000   -0.00641083   -0.00648921
     atom   11 type  3   force =     0.00000000    0.00641083   -0.00648921
     atom   12 type  3   force =    -0.00000000   -0.00641083    0.00648921
     atom   13 type  3   force =    -0.00000000    0.00436004   -0.00747879
     atom   14 type  3   force =    -0.00000000   -0.00436004    0.00747879
     atom   15 type  3   force =     0.00000000    0.00436004    0.00747879
     atom   16 type  3   force =    -0.00000000   -0.00436004   -0.00747879
     atom   17 type  3   force =     0.00000000   -0.00769663    0.00252846
     atom   18 type  3   force =    -0.00000000    0.00769663   -0.00252846
     atom   19 type  3   force =     0.00000000   -0.00769663   -0.00252846
     atom   20 type  3   force =    -0.00000000    0.00769663    0.00252846
     The Hubbard contrib.    to forces
     atom    1 type  1   force =     0.00000000    0.00000000    0.00000000
     atom    2 type  1   force =     0.00000000    0.00000000    0.00000000
     atom    3 type  1   force =     0.00000000    0.00000000    0.00000000
     atom    4 type  1   force =     0.00000000    0.00000000    0.00000000
     atom    5 type  2   force =     0.00000000    0.00000000    0.00000000
     atom    6 type  2   force =     0.00000000    0.00000000    0.00000000
     atom    7 type  2   force =     0.00000000    0.00000000    0.00000000
     atom    8 type  2   force =     0.00000000    0.00000000    0.00000000
     atom    9 type  3   force =     0.00000000    0.00000000    0.00000000
     atom   10 type  3   force =     0.00000000    0.00000000    0.00000000
     atom   11 type  3   force =     0.00000000    0.00000000    0.00000000
     atom   12 type  3   force =     0.00000000    0.00000000    0.00000000
     atom   13 type  3   force =     0.00000000    0.00000000    0.00000000
     atom   14 type  3   force =     0.00000000    0.00000000    0.00000000
     atom   15 type  3   force =     0.00000000    0.00000000    0.00000000
     atom   16 type  3   force =     0.00000000    0.00000000    0.00000000
     atom   17 type  3   force =     0.00000000    0.00000000    0.00000000
     atom   18 type  3   force =     0.00000000    0.00000000    0.00000000
     atom   19 type  3   force =     0.00000000    0.00000000    0.00000000
     atom   20 type  3   force =     0.00000000    0.00000000    0.00000000
     The SCF correction term to forces
     atom    1 type  1   force =    -0.00000000   -0.00000701   -0.00004600
     atom    2 type  1   force =    -0.00000000    0.00000701    0.00004600
     atom    3 type  1   force =     0.00000000   -0.00000701    0.00004600
     atom    4 type  1   force =    -0.00000000    0.00000701   -0.00004600
     atom    5 type  2   force =     0.00000000   -0.00113584   -0.00042064
     atom    6 type  2   force =    -0.00000000    0.00113584    0.00042064
     atom    7 type  2   force =     0.00000000   -0.00113584    0.00042064
     atom    8 type  2   force =    -0.00000000    0.00113584   -0.00042064
     atom    9 type  3   force =    -0.00000000    0.00026431    0.00059856
     atom   10 type  3   force =     0.00000000   -0.00026431   -0.00059856
     atom   11 type  3   force =    -0.00000000    0.00026431   -0.00059856
     atom   12 type  3   force =    -0.00000000   -0.00026431    0.00059856
     atom   13 type  3   force =    -0.00000000    0.00022370   -0.00036120
     atom   14 type  3   force =    -0.00000000   -0.00022370    0.00036120
     atom   15 type  3   force =     0.00000000    0.00022370    0.00036120
     atom   16 type  3   force =     0.00000000   -0.00022370   -0.00036120
     atom   17 type  3   force =     0.00000000   -0.00052870    0.00018564
     atom   18 type  3   force =    -0.00000000    0.00052870   -0.00018564
     atom   19 type  3   force =     0.00000000   -0.00052870   -0.00018564
     atom   20 type  3   force =     0.00000000    0.00052870    0.00018564

     Total force =     0.011337     Total SCF correction =     0.003093
     SCF correction compared to forces is large: reduce conv_thr to get better values


     Computing stress (Cartesian axis) and pressure

          total   stress  (Ry/bohr**3)                   (kbar)     P=        0.02
   0.00002674   0.00000000   0.00000000            3.93        0.00        0.00
   0.00000000  -0.00001777   0.00000000            0.00       -2.61        0.00
   0.00000000   0.00000000  -0.00000863            0.00        0.00       -1.27

     kinetic stress (kbar)   5529.51      0.00      0.00
                                0.00   5530.37      0.00
                                0.00      0.00   5526.29

     local   stress (kbar)  -4523.85      0.00     -0.00
                                0.00  -1881.75      0.00
                               -0.00      0.00   -989.85

     nonloc. stress (kbar)   1143.79      0.00      0.00
                                0.00   1139.36      0.00
                                0.00      0.00   1142.55

     hartree stress (kbar)   3405.18      0.00      0.00
                                0.00   2187.72     -0.00
                                0.00     -0.00   1718.55

     exc-cor stress (kbar)   5446.64      0.00      0.00
                                0.00   5446.22      0.00
                                0.00      0.00   5446.69

     corecor stress (kbar)  -7212.53      0.00     -0.00
                                0.00  -7212.38     -0.00
                               -0.00     -0.00  -7212.41

     ewald   stress (kbar)  -3784.80      0.00     -0.00
                                0.00  -5212.16      0.00
                               -0.00      0.00  -5633.09

     hubbard stress (kbar)      0.00      0.00      0.00
                                0.00      0.00      0.00
                                0.00      0.00      0.00

     DFT-D   stress (kbar)      0.00      0.00      0.00
                                0.00      0.00      0.00
                                0.00      0.00      0.00

     XDM     stress (kbar)      0.00      0.00      0.00
                                0.00      0.00      0.00
                                0.00      0.00      0.00

     dft-nl  stress (kbar)      0.00      0.00      0.00
                                0.00      0.00      0.00
                                0.00      0.00      0.00

     TS-vdW  stress (kbar)      0.00      0.00      0.00
                                0.00      0.00      0.00
                                0.00      0.00      0.00



     Writing output data file ./CsSnI3.save/
 
     init_run     :      9.55s CPU     10.01s WALL (       1 calls)
     electrons    :    207.54s CPU    215.68s WALL (       1 calls)
     forces       :      5.09s CPU      5.35s WALL (       1 calls)
     stress       :     31.95s CPU     32.83s WALL (       1 calls)

     Called by init_run:
     wfcinit      :      4.56s CPU      4.63s WALL (       1 calls)
     wfcinit:atom :      0.05s CPU      0.05s WALL (       8 calls)
     wfcinit:wfcr :      4.26s CPU      4.32s WALL (       8 calls)
     potinit      :      1.08s CPU      1.11s WALL (       1 calls)
     hinit0       :      1.32s CPU      1.40s WALL (       1 calls)

     Called by electrons:
     c_bands      :    150.07s CPU    151.31s WALL (      12 calls)
     sum_band     :     38.55s CPU     42.66s WALL (      12 calls)
     v_of_rho     :      1.56s CPU      1.58s WALL (      12 calls)
     v_h          :      0.13s CPU      0.13s WALL (      12 calls)
     v_xc         :      1.67s CPU      1.69s WALL (      14 calls)
     newd         :     12.77s CPU     15.63s WALL (      12 calls)
     PAW_pot      :      5.47s CPU      5.52s WALL (      12 calls)
     mix_rho      :      0.41s CPU      0.41s WALL (      12 calls)

     Called by c_bands:
     init_us_2    :      3.70s CPU      3.71s WALL (     216 calls)
     cegterg      :    137.56s CPU    138.72s WALL (      96 calls)

     Called by sum_band:
     sum_band:wei :      0.00s CPU      0.00s WALL (      12 calls)
     sum_band:loo :     22.44s CPU     22.62s WALL (      12 calls)
     sum_band:buf :      0.39s CPU      0.41s WALL (      96 calls)
     sum_band:ini :      1.64s CPU      1.64s WALL (      96 calls)
     sum_band:cal :      3.70s CPU      3.70s WALL (      96 calls)
     sum_band:bec :      0.11s CPU      0.12s WALL (      96 calls)
     addusdens    :     14.91s CPU     18.83s WALL (      12 calls)
     addusd:skk   :      0.07s CPU      0.08s WALL (      36 calls)
     addusd:dgemm :      5.42s CPU      9.24s WALL (      36 calls)
     addusd:qvan2 :      8.94s CPU      8.96s WALL (      36 calls)

     Called by *egterg:
     cdiaghg      :      6.32s CPU      6.43s WALL (     489 calls)
     cegterg:over :      7.22s CPU      7.24s WALL (     401 calls)
     cegterg:upda :      3.90s CPU      3.91s WALL (     401 calls)
     cegterg:last :      6.93s CPU      6.95s WALL (     218 calls)
     h_psi        :    101.60s CPU    102.62s WALL (     505 calls)
     s_psi        :     11.24s CPU     11.27s WALL (     505 calls)
     g_psi        :      0.28s CPU      0.28s WALL (     401 calls)

     Called by h_psi:
     h_psi:calbec :     12.54s CPU     12.57s WALL (     505 calls)
     vloc_psi     :     76.63s CPU     77.59s WALL (     505 calls)
     add_vuspsi   :     11.43s CPU     11.46s WALL (     505 calls)

     General routines
     calbec       :     17.73s CPU     17.76s WALL (     641 calls)
     fft          :      1.60s CPU      1.68s WALL (     180 calls)
     ffts         :      0.10s CPU      0.10s WALL (      24 calls)
     fftw         :     83.31s CPU     84.31s WALL (   58130 calls)
     interpolate  :      0.17s CPU      0.17s WALL (      12 calls)
 
     Parallel routines
     fft_scatt_xy :      7.09s CPU      7.14s WALL (   58334 calls)
     fft_scatt_yz :     47.94s CPU     48.64s WALL (   58334 calls)

     PAW routines
     PAW_pot      :      5.47s CPU      5.52s WALL (      12 calls)
     PAW_symme    :      0.08s CPU      0.08s WALL (      24 calls)
 
     PWSCF        :   4m22.22s CPU   4m33.95s WALL

 
   This run was terminated on:  12:51: 6  14Jan2021            

=------------------------------------------------------------------------------=
   JOB DONE.
=------------------------------------------------------------------------------=
