
     Program PWSCF v.6.7MaX starts on  1Mar2021 at 19:34:22 

     This program is part of the open-source Quantum ESPRESSO suite
     for quantum simulation of materials; please cite
         "P. Giannozzi et al., J. Phys.:Condens. Matter 21 395502 (2009);
         "P. Giannozzi et al., J. Phys.:Condens. Matter 29 465901 (2017);
          URL http://www.quantum-espresso.org", 
     in publications or presentations arising from this work. More details at
     http://www.quantum-espresso.org/quote

     Parallel version (MPI & OpenMP), running on      32 processor cores
     Number of MPI processes:                32
     Threads/MPI process:                     1

     MPI processes distributed on     1 nodes
     R & G space division:  proc/nbgrp/npool/nimage =      32
     Waiting for input...
     Reading input from standard input
Warning: card  &CELL ignored
Warning: card     CELL_DYNAMICS = 'BFGS', ignored
Warning: card / ignored

     Current dimensions of program PWSCF are:
     Max number of different atomic species (ntypx) = 10
     Max number of k-points (npk) =  40000
     Max angular momentum in pseudopotentials (lmaxx) =  3
     file Sn.rel-pbe-dn-rrkjus_psl.1.0.0.UPF: wavefunction(s)  5S 4D 4D renormalized
     file I.rel-pbe-n-rrkjus_psl.1.0.0.UPF: wavefunction(s)  5S renormalized
     file Cs.rel-pbe-spn-rrkjus_psl.1.0.0.UPF: wavefunction(s)  5S 6S renormalized

     Subspace diagonalization in iterative solution of the eigenvalue problem:
     one sub-group per band group will be used
     scalapack distributed-memory algorithm (size of sub-group:  5*  5 procs)

     Found symmetry operation: I + (  0.5000  0.5000 -0.5000)
     This is a supercell, fractional translations are disabled
     Message from routine setup:
     using ibrav=0 with symmetry is DISCOURAGED, use correct ibrav instead
 
     Parallelization info
     --------------------
     sticks:   dense  smooth     PW     G-vecs:    dense   smooth      PW
     Min         579     464    122                58542    41898    5645
     Max         581     465    124                58547    41901    5648
     Sum       18545   14849   3909              1873423  1340783  180705
 

     Title: 
     perovskite                                                                 


     bravais-lattice index     =            0
     lattice parameter (alat)  =      24.1450  a.u.
     unit-cell volume          =   13868.2441 (a.u.)^3
     number of atoms/cell      =           20
     number of atomic types    =            3
     number of electrons       =       176.00
     number of Kohn-Sham states=          200
     kinetic-energy cutoff     =      80.0000  Ry
     charge density cutoff     =     400.0000  Ry
     scf convergence threshold =      1.0E-06
     mixing beta               =       0.5000
     number of iterations used =            8  plain     mixing
     energy convergence thresh.=      1.0E-04
     force convergence thresh. =      1.0E-02
     Exchange-correlation= PBE
                           (   1   4   3   4   0   0   0)
     nstep                     =           50

     Non magnetic calculation with spin-orbit


     celldm(1)=  24.145000  celldm(2)=   0.000000  celldm(3)=   0.000000
     celldm(4)=   0.000000  celldm(5)=   0.000000  celldm(6)=   0.000000

     crystal axes: (cart. coord. in units of alat)
               a(1) = (   1.000000   0.000000   0.000000 )  
               a(2) = (   0.000000   1.000000   0.000000 )  
               a(3) = (   0.000000   0.000000   0.985235 )  

     reciprocal axes: (cart. coord. in units 2 pi/alat)
               b(1) = (  1.000000  0.000000  0.000000 )  
               b(2) = (  0.000000  1.000000  0.000000 )  
               b(3) = (  0.000000  0.000000  1.014986 )  


     PseudoPot. # 1 for Sn read from file:
     ./Sn.rel-pbe-dn-rrkjus_psl.1.0.0.UPF
     MD5 check sum: e9415cc9ba1036dfb73502962f03961a
     Pseudo is Ultrasoft + core correction, Zval = 14.0
     Generated using &quot;atomic&quot; code by A. Dal Corso  v.6.3
     Using radial grid of 1243 points, 10 beta functions with: 
                l(1) =   0
                l(2) =   0
                l(3) =   1
                l(4) =   1
                l(5) =   1
                l(6) =   1
                l(7) =   2
                l(8) =   2
                l(9) =   2
               l(10) =   2
     Q(r) pseudized with 0 coefficients 


     PseudoPot. # 2 for I  read from file:
     ./I.rel-pbe-n-rrkjus_psl.1.0.0.UPF
     MD5 check sum: 6d021d2aa93960f239bd8adb25ac3fd1
     Pseudo is Ultrasoft + core correction, Zval =  7.0
     Generated using &quot;atomic&quot; code by A. Dal Corso  v.6.3
     Using radial grid of 1247 points, 10 beta functions with: 
                l(1) =   0
                l(2) =   0
                l(3) =   1
                l(4) =   1
                l(5) =   1
                l(6) =   1
                l(7) =   2
                l(8) =   2
                l(9) =   2
               l(10) =   2
     Q(r) pseudized with 0 coefficients 


     PseudoPot. # 3 for Cs read from file:
     ./Cs.rel-pbe-spn-rrkjus_psl.1.0.0.UPF
     MD5 check sum: 92f45d5fced885c1284380ec35df8368
     Pseudo is Ultrasoft + core correction, Zval =  9.0
     Generated using &quot;atomic&quot; code by A. Dal Corso  v.6.4.1
     Using radial grid of 1251 points, 15 beta functions with: 
                l(1) =   0
                l(2) =   0
                l(3) =   0
                l(4) =   1
                l(5) =   1
                l(6) =   1
                l(7) =   1
                l(8) =   2
                l(9) =   2
               l(10) =   2
               l(11) =   2
               l(12) =   3
               l(13) =   3
               l(14) =   3
               l(15) =   3
     Q(r) pseudized with 0 coefficients 


     atomic species   valence    mass     pseudopotential
        Sn            14.00   118.70000     Sn( 1.00)
        I              7.00   126.90000     I ( 1.00)
        Cs             9.00   132.90000     Cs( 1.00)

     16 Sym. Ops., with inversion, found


                                    s                        frac. trans.

      isym =  1     identity                                     

 cryst.   s( 1) = (     1          0          0      )
                  (     0          1          0      )
                  (     0          0          1      )

 cart.    s( 1) = (  1.0000000  0.0000000  0.0000000 )
                  (  0.0000000  1.0000000  0.0000000 )
                  (  0.0000000  0.0000000  1.0000000 )


      isym =  2     180 deg rotation - cart. axis [0,0,1]        

 cryst.   s( 2) = (    -1          0          0      )
                  (     0         -1          0      )
                  (     0          0          1      )

 cart.    s( 2) = ( -1.0000000  0.0000000  0.0000000 )
                  (  0.0000000 -1.0000000  0.0000000 )
                  (  0.0000000  0.0000000  1.0000000 )


      isym =  3     180 deg rotation - cart. axis [0,1,0]        

 cryst.   s( 3) = (    -1          0          0      )
                  (     0          1          0      )
                  (     0          0         -1      )

 cart.    s( 3) = ( -1.0000000  0.0000000  0.0000000 )
                  (  0.0000000  1.0000000  0.0000000 )
                  (  0.0000000  0.0000000 -1.0000000 )


      isym =  4     180 deg rotation - cart. axis [1,0,0]        

 cryst.   s( 4) = (     1          0          0      )
                  (     0         -1          0      )
                  (     0          0         -1      )

 cart.    s( 4) = (  1.0000000  0.0000000  0.0000000 )
                  (  0.0000000 -1.0000000  0.0000000 )
                  (  0.0000000  0.0000000 -1.0000000 )


      isym =  5     180 deg rotation - cart. axis [1,1,0]        

 cryst.   s( 5) = (     0          1          0      )
                  (     1          0          0      )
                  (     0          0         -1      )

 cart.    s( 5) = (  0.0000000  1.0000000  0.0000000 )
                  (  1.0000000  0.0000000  0.0000000 )
                  (  0.0000000  0.0000000 -1.0000000 )


      isym =  6     180 deg rotation - cart. axis [1,-1,0]       

 cryst.   s( 6) = (     0         -1          0      )
                  (    -1          0          0      )
                  (     0          0         -1      )

 cart.    s( 6) = (  0.0000000 -1.0000000  0.0000000 )
                  ( -1.0000000  0.0000000  0.0000000 )
                  (  0.0000000  0.0000000 -1.0000000 )


      isym =  7      90 deg rotation - cart. axis [0,0,-1]       

 cryst.   s( 7) = (     0         -1          0      )
                  (     1          0          0      )
                  (     0          0          1      )

 cart.    s( 7) = (  0.0000000  1.0000000  0.0000000 )
                  ( -1.0000000  0.0000000  0.0000000 )
                  (  0.0000000  0.0000000  1.0000000 )


      isym =  8      90 deg rotation - cart. axis [0,0,1]        

 cryst.   s( 8) = (     0          1          0      )
                  (    -1          0          0      )
                  (     0          0          1      )

 cart.    s( 8) = (  0.0000000 -1.0000000  0.0000000 )
                  (  1.0000000  0.0000000  0.0000000 )
                  (  0.0000000  0.0000000  1.0000000 )


      isym =  9     inversion                                    

 cryst.   s( 9) = (    -1          0          0      )
                  (     0         -1          0      )
                  (     0          0         -1      )

 cart.    s( 9) = ( -1.0000000  0.0000000  0.0000000 )
                  (  0.0000000 -1.0000000  0.0000000 )
                  (  0.0000000  0.0000000 -1.0000000 )


      isym = 10     inv. 180 deg rotation - cart. axis [0,0,1]   

 cryst.   s(10) = (     1          0          0      )
                  (     0          1          0      )
                  (     0          0         -1      )

 cart.    s(10) = (  1.0000000  0.0000000  0.0000000 )
                  (  0.0000000  1.0000000  0.0000000 )
                  (  0.0000000  0.0000000 -1.0000000 )


      isym = 11     inv. 180 deg rotation - cart. axis [0,1,0]   

 cryst.   s(11) = (     1          0          0      )
                  (     0         -1          0      )
                  (     0          0          1      )

 cart.    s(11) = (  1.0000000  0.0000000  0.0000000 )
                  (  0.0000000 -1.0000000  0.0000000 )
                  (  0.0000000  0.0000000  1.0000000 )


      isym = 12     inv. 180 deg rotation - cart. axis [1,0,0]   

 cryst.   s(12) = (    -1          0          0      )
                  (     0          1          0      )
                  (     0          0          1      )

 cart.    s(12) = ( -1.0000000  0.0000000  0.0000000 )
                  (  0.0000000  1.0000000  0.0000000 )
                  (  0.0000000  0.0000000  1.0000000 )


      isym = 13     inv. 180 deg rotation - cart. axis [1,1,0]   

 cryst.   s(13) = (     0         -1          0      )
                  (    -1          0          0      )
                  (     0          0          1      )

 cart.    s(13) = (  0.0000000 -1.0000000  0.0000000 )
                  ( -1.0000000  0.0000000  0.0000000 )
                  (  0.0000000  0.0000000  1.0000000 )


      isym = 14     inv. 180 deg rotation - cart. axis [1,-1,0]  

 cryst.   s(14) = (     0          1          0      )
                  (     1          0          0      )
                  (     0          0          1      )

 cart.    s(14) = (  0.0000000  1.0000000  0.0000000 )
                  (  1.0000000  0.0000000  0.0000000 )
                  (  0.0000000  0.0000000  1.0000000 )


      isym = 15     inv.  90 deg rotation - cart. axis [0,0,-1]  

 cryst.   s(15) = (     0          1          0      )
                  (    -1          0          0      )
                  (     0          0         -1      )

 cart.    s(15) = (  0.0000000 -1.0000000  0.0000000 )
                  (  1.0000000  0.0000000  0.0000000 )
                  (  0.0000000  0.0000000 -1.0000000 )


      isym = 16     inv.  90 deg rotation - cart. axis [0,0,1]   

 cryst.   s(16) = (     0         -1          0      )
                  (     1          0          0      )
                  (     0          0         -1      )

 cart.    s(16) = (  0.0000000  1.0000000  0.0000000 )
                  ( -1.0000000  0.0000000  0.0000000 )
                  (  0.0000000  0.0000000 -1.0000000 )


   Cartesian axes

     site n.     atom                  positions (alat units)
         1           Cs  tau(   1) = (   0.5000000   0.5000000   0.1513981  )
         2           Cs  tau(   2) = (   0.5000000   0.5000000   0.8338369  )
         3           Cs  tau(   3) = (   0.0000000   0.0000000   0.3412194  )
         4           Cs  tau(   4) = (   0.0000000   0.0000000   0.6440156  )
         5           Sn  tau(   5) = (   0.5000000   0.5000000   0.3123008  )
         6           Sn  tau(   6) = (   0.5000000   0.5000000   0.6729343  )
         7           Sn  tau(   7) = (   0.0000000   0.0000000   0.1803167  )
         8           Sn  tau(   8) = (   0.0000000   0.0000000   0.8049183  )
         9           I   tau(   9) = (   0.5616010   0.5616010   0.4926175  )
        10           I   tau(  10) = (   0.5616010   0.4383990   0.4926175  )
        11           I   tau(  11) = (   0.4383990   0.5616010   0.4926175  )
        12           I   tau(  12) = (   0.4383990   0.4383990   0.4926175  )
        13           I   tau(  13) = (   0.9383990   0.9383990   0.0000000  )
        14           I   tau(  14) = (   0.9383990   0.0616010   0.0000000  )
        15           I   tau(  15) = (   0.0616010   0.9383990   0.0000000  )
        16           I   tau(  16) = (   0.0616010   0.0616010   0.0000000  )
        17           I   tau(  17) = (   0.5000000   0.0000000   0.0000000  )
        18           I   tau(  18) = (   0.0000000   0.5000000   0.0000000  )
        19           I   tau(  19) = (   0.0000000   0.5000000   0.4926175  )
        20           I   tau(  20) = (   0.5000000   0.0000000   0.4926175  )

   Crystallographic axes

     site n.     atom                  positions (cryst. coord.)
         1           Cs  tau(   1) = (  0.5000000  0.5000000  0.1536670  )
         2           Cs  tau(   2) = (  0.5000000  0.5000000  0.8463330  )
         3           Cs  tau(   3) = (  0.0000000  0.0000000  0.3463330  )
         4           Cs  tau(   4) = (  0.0000000  0.0000000  0.6536670  )
         5           Sn  tau(   5) = (  0.5000000  0.5000000  0.3169810  )
         6           Sn  tau(   6) = (  0.5000000  0.5000000  0.6830190  )
         7           Sn  tau(   7) = (  0.0000000  0.0000000  0.1830190  )
         8           Sn  tau(   8) = (  0.0000000  0.0000000  0.8169810  )
         9           I   tau(   9) = (  0.5616010  0.5616010  0.5000000  )
        10           I   tau(  10) = (  0.5616010  0.4383990  0.5000000  )
        11           I   tau(  11) = (  0.4383990  0.5616010  0.5000000  )
        12           I   tau(  12) = (  0.4383990  0.4383990  0.5000000  )
        13           I   tau(  13) = (  0.9383990  0.9383990  0.0000000  )
        14           I   tau(  14) = (  0.9383990  0.0616010  0.0000000  )
        15           I   tau(  15) = (  0.0616010  0.9383990  0.0000000  )
        16           I   tau(  16) = (  0.0616010  0.0616010  0.0000000  )
        17           I   tau(  17) = (  0.5000000  0.0000000  0.0000000  )
        18           I   tau(  18) = (  0.0000000  0.5000000  0.0000000  )
        19           I   tau(  19) = (  0.0000000  0.5000000  0.5000000  )
        20           I   tau(  20) = (  0.5000000  0.0000000  0.5000000  )

     number of k points=     6  Marzari-Vanderbilt smearing, width (Ry)=  0.0200
                       cart. coord. in units 2pi/alat
        k(    1) = (   0.0000000   0.0000000   0.0000000), wk =   0.1250000
        k(    2) = (   0.0000000   0.0000000  -0.5074931), wk =   0.1250000
        k(    3) = (   0.0000000  -0.5000000   0.0000000), wk =   0.2500000
        k(    4) = (   0.0000000  -0.5000000  -0.5074931), wk =   0.2500000
        k(    5) = (  -0.5000000  -0.5000000   0.0000000), wk =   0.1250000
        k(    6) = (  -0.5000000  -0.5000000  -0.5074931), wk =   0.1250000

                       cryst. coord.
        k(    1) = (   0.0000000   0.0000000   0.0000000), wk =   0.1250000
        k(    2) = (   0.0000000   0.0000000  -0.5000000), wk =   0.1250000
        k(    3) = (   0.0000000  -0.5000000   0.0000000), wk =   0.2500000
        k(    4) = (   0.0000000  -0.5000000  -0.5000000), wk =   0.2500000
        k(    5) = (  -0.5000000  -0.5000000   0.0000000), wk =   0.1250000
        k(    6) = (  -0.5000000  -0.5000000  -0.5000000), wk =   0.1250000

     Dense  grid:  1873423 G-vectors     FFT dimensions: ( 160, 160, 160)

     Smooth grid:  1340783 G-vectors     FFT dimensions: ( 144, 144, 135)

     Dynamical RAM for                 wfc:      31.96 MB

     Dynamical RAM for     wfc (w. buffer):     223.71 MB

     Dynamical RAM for           str. fact:       2.68 MB

     Dynamical RAM for           local pot:       0.00 MB

     Dynamical RAM for          nlocal pot:      63.60 MB

     Dynamical RAM for                qrad:      38.53 MB

     Dynamical RAM for          rho,v,vnew:      22.44 MB

     Dynamical RAM for               rhoin:       7.48 MB

     Dynamical RAM for            rho*nmix:      57.17 MB

     Dynamical RAM for           G-vectors:       3.67 MB

     Dynamical RAM for          h,s,v(r/c):       0.29 MB

     Dynamical RAM for          <psi|beta>:       4.86 MB

     Dynamical RAM for                 psi:      63.92 MB

     Dynamical RAM for                hpsi:      63.92 MB

     Dynamical RAM for                spsi:      63.92 MB

     Dynamical RAM for      wfcinit/wfcrot:      50.85 MB

     Dynamical RAM for           addusdens:    1835.85 MB

     Dynamical RAM for          addusforce:    1856.50 MB

     Dynamical RAM for         addusstress:    1851.93 MB

     Estimated static dynamical RAM per process >     430.66 MB

     Estimated max dynamical RAM per process >       2.23 GB

     Estimated total dynamical RAM >      71.47 GB

     Initial potential from superposition of free atoms

     starting charge  175.83606, renormalised to  176.00000
     Starting wfcs are  208 randomized atomic wfcs

     total cpu time spent up to now is       30.4 secs

     Self-consistent Calculation

     iteration #  1     ecut=    80.00 Ry     beta= 0.50
     Davidson diagonalization with overlap
     ethr =  1.00E-02,  avg # of iterations =  4.2

     negative rho (up, down):  4.796E-01 0.000E+00

     total cpu time spent up to now is      127.5 secs

     total energy              =   -1234.28702043 Ry
     estimated scf accuracy    <       5.16117644 Ry

     iteration #  2     ecut=    80.00 Ry     beta= 0.50
     Davidson diagonalization with overlap
     ethr =  2.93E-03,  avg # of iterations = 14.5

     negative rho (up, down):  2.402E+00 0.000E+00

     total cpu time spent up to now is      246.0 secs

     total energy              =   -1080.57295127 Ry
     estimated scf accuracy    < 8030398.03294626 Ry

     iteration #  3     ecut=    80.00 Ry     beta= 0.50
     Davidson diagonalization with overlap
     ethr =  2.93E-03,  avg # of iterations =  9.8

     negative rho (up, down):  7.310E-01 0.000E+00

     total cpu time spent up to now is      331.2 secs

     total energy              =   -1233.43596900 Ry
     estimated scf accuracy    <      20.74266716 Ry

     iteration #  4     ecut=    80.00 Ry     beta= 0.50
     Davidson diagonalization with overlap
     ethr =  2.93E-03,  avg # of iterations =  5.0

     negative rho (up, down):  1.882E-01 0.000E+00

     total cpu time spent up to now is      412.5 secs

     total energy              =   -1236.38995332 Ry
     estimated scf accuracy    <       2.14597273 Ry

     iteration #  5     ecut=    80.00 Ry     beta= 0.50
     Davidson diagonalization with overlap
     ethr =  1.22E-03,  avg # of iterations =  4.3

     negative rho (up, down):  3.297E-02 0.000E+00

     total cpu time spent up to now is      489.5 secs

     total energy              =   -1236.52744693 Ry
     estimated scf accuracy    <       3.40638965 Ry

     iteration #  6     ecut=    80.00 Ry     beta= 0.50
     Davidson diagonalization with overlap
     ethr =  1.22E-03,  avg # of iterations =  2.0

     negative rho (up, down):  3.605E-03 0.000E+00

     total cpu time spent up to now is      562.0 secs

     total energy              =   -1236.63915716 Ry
     estimated scf accuracy    <       2.89062083 Ry

     iteration #  7     ecut=    80.00 Ry     beta= 0.50
     Davidson diagonalization with overlap
     ethr =  1.22E-03,  avg # of iterations = 15.5

     negative rho (up, down):  4.276E-01 0.000E+00

     total cpu time spent up to now is      666.2 secs

     total energy              =   -1208.62890531 Ry
     estimated scf accuracy    < 1198284.55448726 Ry

     iteration #  8     ecut=    80.00 Ry     beta= 0.50
     Davidson diagonalization with overlap
     ethr =  1.22E-03,  avg # of iterations =  8.2

     negative rho (up, down):  1.109E-01 0.000E+00

     total cpu time spent up to now is      744.5 secs

     total energy              =   -1236.56534842 Ry
     estimated scf accuracy    <       0.69012180 Ry

     iteration #  9     ecut=    80.00 Ry     beta= 0.50
     Davidson diagonalization with overlap
     ethr =  3.92E-04,  avg # of iterations =  5.5

     negative rho (up, down):  2.020E-02 0.000E+00

     total cpu time spent up to now is      819.8 secs

     total energy              =   -1236.62380478 Ry
     estimated scf accuracy    <       0.42226896 Ry

     iteration # 10     ecut=    80.00 Ry     beta= 0.50
     Davidson diagonalization with overlap
     ethr =  2.40E-04,  avg # of iterations =  3.2

     negative rho (up, down):  1.790E-03 0.000E+00

     total cpu time spent up to now is      894.0 secs

     total energy              =   -1236.65469421 Ry
     estimated scf accuracy    <       0.52472045 Ry

     iteration # 11     ecut=    80.00 Ry     beta= 0.50
     Davidson diagonalization with overlap
     ethr =  2.40E-04,  avg # of iterations =  2.0

     negative rho (up, down):  1.124E-05 0.000E+00

     total cpu time spent up to now is      966.1 secs

     total energy              =   -1236.71263649 Ry
     estimated scf accuracy    <       0.26917442 Ry

     iteration # 12     ecut=    80.00 Ry     beta= 0.50
     Davidson diagonalization with overlap
     ethr =  1.53E-04,  avg # of iterations = 17.7

     negative rho (up, down):  1.344E+00 0.000E+00

     total cpu time spent up to now is     1075.2 secs

     total energy              =   -1159.16227818 Ry
     estimated scf accuracy    < 3604149.74218864 Ry

     iteration # 13     ecut=    80.00 Ry     beta= 0.50
     Davidson diagonalization with overlap
     c_bands:  4 eigenvalues not converged
     c_bands:  3 eigenvalues not converged
     ethr =  1.53E-04,  avg # of iterations = 18.3

     negative rho (up, down):  4.260E-01 0.000E+00

     total cpu time spent up to now is     1186.5 secs

     total energy              =   -1236.33408244 Ry
     estimated scf accuracy    <       9.44126794 Ry

     iteration # 14     ecut=    80.00 Ry     beta= 0.50
     Davidson diagonalization with overlap
     ethr =  1.53E-04,  avg # of iterations =  5.7

     negative rho (up, down):  1.065E-01 0.000E+00

     total cpu time spent up to now is     1267.0 secs

     total energy              =   -1236.47962486 Ry
     estimated scf accuracy    <       1.09286975 Ry

     iteration # 15     ecut=    80.00 Ry     beta= 0.50
     Davidson diagonalization with overlap
     ethr =  1.53E-04,  avg # of iterations =  6.2

     negative rho (up, down):  2.026E-02 0.000E+00

     total cpu time spent up to now is     1349.3 secs

     total energy              =   -1236.59313900 Ry
     estimated scf accuracy    <       0.33147882 Ry

     iteration # 16     ecut=    80.00 Ry     beta= 0.50
     Davidson diagonalization with overlap
     ethr =  1.53E-04,  avg # of iterations =  2.8

     negative rho (up, down):  1.688E-03 0.000E+00

     total cpu time spent up to now is     1423.4 secs

     total energy              =   -1236.60029487 Ry
     estimated scf accuracy    <       1.39716395 Ry

     iteration # 17     ecut=    80.00 Ry     beta= 0.50
     Davidson diagonalization with overlap
     ethr =  1.53E-04,  avg # of iterations =  4.5

     negative rho (up, down):  3.861E-05 0.000E+00

     total cpu time spent up to now is     1497.9 secs

     total energy              =   -1236.68188352 Ry
     estimated scf accuracy    <       0.41754478 Ry

     iteration # 18     ecut=    80.00 Ry     beta= 0.50
     Davidson diagonalization with overlap
     ethr =  1.53E-04,  avg # of iterations =  1.7

     total cpu time spent up to now is     1568.3 secs

     total energy              =   -1236.68502570 Ry
     estimated scf accuracy    <       0.36886688 Ry

     iteration # 19     ecut=    80.00 Ry     beta= 0.50
     Davidson diagonalization with overlap
     ethr =  1.53E-04,  avg # of iterations =  1.2

     total cpu time spent up to now is     1636.8 secs

     total energy              =   -1236.68919076 Ry
     estimated scf accuracy    <       0.25263968 Ry

     iteration # 20     ecut=    80.00 Ry     beta= 0.50
     Davidson diagonalization with overlap
     ethr =  1.44E-04,  avg # of iterations =  1.7

     total cpu time spent up to now is     1707.2 secs

     total energy              =   -1236.69183632 Ry
     estimated scf accuracy    <       0.23353243 Ry

     iteration # 21     ecut=    80.00 Ry     beta= 0.50
     Davidson diagonalization with overlap
     ethr =  1.33E-04,  avg # of iterations =  1.7

     negative rho (up, down):  1.336E-04 0.000E+00

     total cpu time spent up to now is     1777.6 secs

     total energy              =   -1236.69480249 Ry
     estimated scf accuracy    <       0.21824624 Ry

     iteration # 22     ecut=    80.00 Ry     beta= 0.50
     Davidson diagonalization with overlap
     c_bands:  1 eigenvalues not converged
     c_bands:  1 eigenvalues not converged
     c_bands:  1 eigenvalues not converged
     ethr =  1.24E-04,  avg # of iterations = 19.8

     negative rho (up, down):  1.413E+00 0.000E+00

     total cpu time spent up to now is     1890.5 secs

     total energy              =   -1155.76100239 Ry
     estimated scf accuracy    < 3835355.49178426 Ry

     iteration # 23     ecut=    80.00 Ry     beta= 0.50
     Davidson diagonalization with overlap
     c_bands:  1 eigenvalues not converged
     c_bands:  3 eigenvalues not converged
     ethr =  1.24E-04,  avg # of iterations = 16.8

     negative rho (up, down):  4.756E-01 0.000E+00

     total cpu time spent up to now is     2005.2 secs

     total energy              =   -1236.45306241 Ry
     estimated scf accuracy    <       1.07570798 Ry

     iteration # 24     ecut=    80.00 Ry     beta= 0.50
     Davidson diagonalization with overlap
     ethr =  1.24E-04,  avg # of iterations =  2.0

     negative rho (up, down):  1.333E-01 0.000E+00

     total cpu time spent up to now is     2080.5 secs

     total energy              =   -1236.54031433 Ry
     estimated scf accuracy    <       0.32828214 Ry

     iteration # 25     ecut=    80.00 Ry     beta= 0.50
     Davidson diagonalization with overlap
     ethr =  1.24E-04,  avg # of iterations =  5.7

     negative rho (up, down):  2.904E-02 0.000E+00

     total cpu time spent up to now is     2160.8 secs

     WARNING: integrated charge=   176.00507408, expected=   176.00000000

     total energy              =   -1236.60969185 Ry
     estimated scf accuracy    <       0.15087068 Ry

     iteration # 26     ecut=    80.00 Ry     beta= 0.50
     Davidson diagonalization with overlap
     ethr =  8.57E-05,  avg # of iterations =  7.0

     negative rho (up, down):  3.646E-03 0.000E+00

     total cpu time spent up to now is     2240.8 secs

     WARNING: integrated charge=   176.00854383, expected=   176.00000000

     total energy              =   -1236.65928418 Ry
     estimated scf accuracy    <       0.13199617 Ry

     iteration # 27     ecut=    80.00 Ry     beta= 0.50
     Davidson diagonalization with overlap
     ethr =  7.50E-05,  avg # of iterations =  5.0

     negative rho (up, down):  1.677E-04 0.000E+00

     total cpu time spent up to now is     2317.1 secs

     WARNING: integrated charge=   176.00359607, expected=   176.00000000

     total energy              =   -1236.67758121 Ry
     estimated scf accuracy    <       0.17166019 Ry

     iteration # 28     ecut=    80.00 Ry     beta= 0.50
     Davidson diagonalization with overlap
     ethr =  7.50E-05,  avg # of iterations =  3.2

     negative rho (up, down):  3.985E-07 0.000E+00

     total cpu time spent up to now is     2390.8 secs

     WARNING: integrated charge=   176.00312219, expected=   176.00000000

     total energy              =   -1236.68576755 Ry
     estimated scf accuracy    <       0.17683733 Ry

     iteration # 29     ecut=    80.00 Ry     beta= 0.50
     Davidson diagonalization with overlap
     ethr =  7.50E-05,  avg # of iterations =  2.0

     total cpu time spent up to now is     2463.0 secs

     WARNING: integrated charge=   176.00451586, expected=   176.00000000

     total energy              =   -1236.68997728 Ry
     estimated scf accuracy    <       0.18628548 Ry

     iteration # 30     ecut=    80.00 Ry     beta= 0.50
     Davidson diagonalization with overlap
     ethr =  7.50E-05,  avg # of iterations =  1.7

     total cpu time spent up to now is     2533.5 secs

     WARNING: integrated charge=   176.00686253, expected=   176.00000000

     total energy              =   -1236.69190873 Ry
     estimated scf accuracy    <       0.18285993 Ry

     iteration # 31     ecut=    80.00 Ry     beta= 0.50
     Davidson diagonalization with overlap
     ethr =  7.50E-05,  avg # of iterations =  1.7

     negative rho (up, down):  3.747E-03 0.000E+00

     total cpu time spent up to now is     2604.0 secs

     WARNING: integrated charge=   176.01199139, expected=   176.00000000

     total energy              =   -1236.65470532 Ry
     estimated scf accuracy    <       0.25611084 Ry

     iteration # 32     ecut=    80.00 Ry     beta= 0.50
     Davidson diagonalization with overlap
     c_bands:  3 eigenvalues not converged
     c_bands:  3 eigenvalues not converged
     c_bands:  3 eigenvalues not converged
     c_bands:  2 eigenvalues not converged
     c_bands:  3 eigenvalues not converged
     c_bands:  3 eigenvalues not converged
     ethr =  7.50E-05,  avg # of iterations = 20.0

     negative rho (up, down):  1.445E+00 0.000E+00

     total cpu time spent up to now is     2715.7 secs

     WARNING: integrated charge=   176.00470941, expected=   176.00000000

     total energy              =   -1153.99993030 Ry
     estimated scf accuracy    < 3906095.21901649 Ry

     iteration # 33     ecut=    80.00 Ry     beta= 0.50
     Davidson diagonalization with overlap
     c_bands:  1 eigenvalues not converged
     c_bands:  1 eigenvalues not converged
     c_bands:  3 eigenvalues not converged
     c_bands:  2 eigenvalues not converged
     ethr =  7.50E-05,  avg # of iterations = 18.2

     negative rho (up, down):  4.765E-01 0.000E+00

     total cpu time spent up to now is     2839.3 secs

     WARNING: integrated charge=   176.00548840, expected=   176.00000000

     total energy              =   -1236.44733234 Ry
     estimated scf accuracy    <       1.14123355 Ry

     iteration # 34     ecut=    80.00 Ry     beta= 0.50
     Davidson diagonalization with overlap
     ethr =  7.50E-05,  avg # of iterations =  3.8

     negative rho (up, down):  1.362E-01 0.000E+00

     total cpu time spent up to now is     2920.7 secs

     WARNING: integrated charge=   176.00258103, expected=   176.00000000

     total energy              =   -1236.54299763 Ry
     estimated scf accuracy    <       0.36562409 Ry

     iteration # 35     ecut=    80.00 Ry     beta= 0.50
     Davidson diagonalization with overlap
     ethr =  7.50E-05,  avg # of iterations =  6.7

     negative rho (up, down):  2.931E-02 0.000E+00

     total cpu time spent up to now is     3006.2 secs

     WARNING: integrated charge=   176.00226494, expected=   176.00000000

     total energy              =   -1236.61164092 Ry
     estimated scf accuracy    <       0.18262084 Ry

     iteration # 36     ecut=    80.00 Ry     beta= 0.50
     Davidson diagonalization with overlap
     ethr =  7.50E-05,  avg # of iterations =  6.5

     negative rho (up, down):  3.682E-03 0.000E+00

     total cpu time spent up to now is     3085.8 secs

     WARNING: integrated charge=   176.00679227, expected=   176.00000000

     total energy              =   -1236.65987177 Ry
     estimated scf accuracy    <       0.14175088 Ry

     iteration # 37     ecut=    80.00 Ry     beta= 0.50
     Davidson diagonalization with overlap
     ethr =  7.50E-05,  avg # of iterations =  3.0

     negative rho (up, down):  1.458E-04 0.000E+00

     total cpu time spent up to now is     3160.0 secs

     WARNING: integrated charge=   176.01722734, expected=   176.00000000

     total energy              =   -1236.67733357 Ry
     estimated scf accuracy    <       0.16806386 Ry

     iteration # 38     ecut=    80.00 Ry     beta= 0.50
     Davidson diagonalization with overlap
     ethr =  7.50E-05,  avg # of iterations =  3.0

     negative rho (up, down):  4.252E-07 0.000E+00

     total cpu time spent up to now is     3233.6 secs

     WARNING: integrated charge=   176.01203211, expected=   176.00000000

     total energy              =   -1236.68507413 Ry
     estimated scf accuracy    <       0.22566154 Ry

     iteration # 39     ecut=    80.00 Ry     beta= 0.50
     Davidson diagonalization with overlap
     ethr =  7.50E-05,  avg # of iterations =  2.0

     total cpu time spent up to now is     3305.8 secs

     WARNING: integrated charge=   176.02146987, expected=   176.00000000

     total energy              =   -1236.68961667 Ry
     estimated scf accuracy    <       0.18949670 Ry

     iteration # 40     ecut=    80.00 Ry     beta= 0.50
     Davidson diagonalization with overlap
     ethr =  7.50E-05,  avg # of iterations =  5.7

     total cpu time spent up to now is     3380.4 secs

     WARNING: integrated charge=   176.01841071, expected=   176.00000000

     total energy              =   -1236.69141664 Ry
     estimated scf accuracy    <       0.21093998 Ry

     iteration # 41     ecut=    80.00 Ry     beta= 0.50
     Davidson diagonalization with overlap
     ethr =  7.50E-05,  avg # of iterations =  1.5

     negative rho (up, down):  5.675E-03 0.000E+00

     total cpu time spent up to now is     3450.1 secs

     WARNING: integrated charge=   176.08648641, expected=   176.00000000

     total energy              =   -1236.65334257 Ry
     estimated scf accuracy    <       0.20252124 Ry

     iteration # 42     ecut=    80.00 Ry     beta= 0.50
     Davidson diagonalization with overlap
     c_bands:  2 eigenvalues not converged
     c_bands:  2 eigenvalues not converged
     c_bands:  1 eigenvalues not converged
     c_bands:  2 eigenvalues not converged
     c_bands:  1 eigenvalues not converged
     c_bands:  1 eigenvalues not converged
     ethr =  7.50E-05,  avg # of iterations = 20.0

     negative rho (up, down):  1.439E+00 0.000E+00

     total cpu time spent up to now is     3561.3 secs

     WARNING: integrated charge=   176.01517236, expected=   176.00000000

     total energy              =   -1153.75414200 Ry
     estimated scf accuracy    < 3915898.86366521 Ry

     iteration # 43     ecut=    80.00 Ry     beta= 0.50
     Davidson diagonalization with overlap
     c_bands:  1 eigenvalues not converged
     c_bands:  1 eigenvalues not converged
     c_bands:  2 eigenvalues not converged
     c_bands:  1 eigenvalues not converged
     ethr =  7.50E-05,  avg # of iterations = 18.5

     negative rho (up, down):  4.723E-01 0.000E+00

     total cpu time spent up to now is     3684.5 secs

     WARNING: integrated charge=   176.01635987, expected=   176.00000000

     total energy              =   -1236.44784370 Ry
     estimated scf accuracy    <       1.13147779 Ry

     iteration # 44     ecut=    80.00 Ry     beta= 0.50
     Davidson diagonalization with overlap
     ethr =  7.50E-05,  avg # of iterations =  5.0

     negative rho (up, down):  1.341E-01 0.000E+00

     total cpu time spent up to now is     3767.0 secs

     WARNING: integrated charge=   176.01716885, expected=   176.00000000

     total energy              =   -1236.54264180 Ry
     estimated scf accuracy    <       0.38270781 Ry

     iteration # 45     ecut=    80.00 Ry     beta= 0.50
     Davidson diagonalization with overlap
     ethr =  7.50E-05,  avg # of iterations =  6.0

     negative rho (up, down):  2.922E-02 0.000E+00

     total cpu time spent up to now is     3851.8 secs

     WARNING: integrated charge=   176.00771809, expected=   176.00000000

     total energy              =   -1236.61054020 Ry
     estimated scf accuracy    <       0.18823800 Ry

     iteration # 46     ecut=    80.00 Ry     beta= 0.50
     Davidson diagonalization with overlap
     ethr =  7.50E-05,  avg # of iterations =  4.2

     negative rho (up, down):  3.724E-03 0.000E+00

     total cpu time spent up to now is     3929.3 secs

     WARNING: integrated charge=   176.00777023, expected=   176.00000000

     total energy              =   -1236.65820474 Ry
     estimated scf accuracy    <       0.15168894 Ry

     iteration # 47     ecut=    80.00 Ry     beta= 0.50
     Davidson diagonalization with overlap
     ethr =  7.50E-05,  avg # of iterations =  2.0

     negative rho (up, down):  1.684E-04 0.000E+00

     total cpu time spent up to now is     4003.0 secs

     WARNING: integrated charge=   176.00715043, expected=   176.00000000

     total energy              =   -1236.67579164 Ry
     estimated scf accuracy    <       0.20539493 Ry

     iteration # 48     ecut=    80.00 Ry     beta= 0.50
     Davidson diagonalization with overlap
     ethr =  7.50E-05,  avg # of iterations =  2.7

     negative rho (up, down):  5.428E-07 0.000E+00

     total cpu time spent up to now is     4076.6 secs

     WARNING: integrated charge=   176.00731546, expected=   176.00000000

     total energy              =   -1236.68260628 Ry
     estimated scf accuracy    <       0.38041119 Ry

     iteration # 49     ecut=    80.00 Ry     beta= 0.50
     Davidson diagonalization with overlap
     ethr =  7.50E-05,  avg # of iterations =  2.0

     total cpu time spent up to now is     4149.0 secs

     WARNING: integrated charge=   176.00672278, expected=   176.00000000

     total energy              =   -1236.68927287 Ry
     estimated scf accuracy    <       0.22324479 Ry

     iteration # 50     ecut=    80.00 Ry     beta= 0.50
     Davidson diagonalization with overlap
     ethr =  7.50E-05,  avg # of iterations =  2.0

     total cpu time spent up to now is     4221.2 secs

     WARNING: integrated charge=   176.00594987, expected=   176.00000000

     total energy              =   -1236.69110108 Ry
     estimated scf accuracy    <       0.19801833 Ry

     iteration # 51     ecut=    80.00 Ry     beta= 0.50
     Davidson diagonalization with overlap
     ethr =  7.50E-05,  avg # of iterations =  1.7

     negative rho (up, down):  1.939E-02 0.000E+00

     total cpu time spent up to now is     4291.6 secs

     WARNING: integrated charge=   176.00841646, expected=   176.00000000

     total energy              =   -1236.64136998 Ry
     estimated scf accuracy    <       0.26725247 Ry

     iteration # 52     ecut=    80.00 Ry     beta= 0.50
     Davidson diagonalization with overlap
     c_bands:  3 eigenvalues not converged
     c_bands:  2 eigenvalues not converged
     c_bands:  3 eigenvalues not converged
     c_bands:  2 eigenvalues not converged
     c_bands:  4 eigenvalues not converged
     c_bands:  2 eigenvalues not converged
     ethr =  7.50E-05,  avg # of iterations = 20.0

     negative rho (up, down):  1.449E+00 0.000E+00

     total cpu time spent up to now is     4402.7 secs

     WARNING: integrated charge=   176.00501685, expected=   176.00000000

     total energy              =   -1152.32786416 Ry
     estimated scf accuracy    < 3952672.81779641 Ry

     iteration # 53     ecut=    80.00 Ry     beta= 0.50
     Davidson diagonalization with overlap
     c_bands:  4 eigenvalues not converged
     ethr =  7.50E-05,  avg # of iterations = 16.3

     negative rho (up, down):  4.766E-01 0.000E+00

     total cpu time spent up to now is     4522.1 secs

     WARNING: integrated charge=   176.00421586, expected=   176.00000000

     total energy              =   -1236.44790732 Ry
     estimated scf accuracy    <       1.17859212 Ry

     iteration # 54     ecut=    80.00 Ry     beta= 0.50
     Davidson diagonalization with overlap
     ethr =  7.50E-05,  avg # of iterations =  3.3

     negative rho (up, down):  1.358E-01 0.000E+00

     total cpu time spent up to now is     4603.4 secs

     WARNING: integrated charge=   176.00343683, expected=   176.00000000

     total energy              =   -1236.54174372 Ry
     estimated scf accuracy    <       0.40050981 Ry

     iteration # 55     ecut=    80.00 Ry     beta= 0.50
     Davidson diagonalization with overlap
     ethr =  7.50E-05,  avg # of iterations =  6.3

     negative rho (up, down):  2.977E-02 0.000E+00

     total cpu time spent up to now is     4689.0 secs

     WARNING: integrated charge=   176.00272962, expected=   176.00000000

     total energy              =   -1236.61049994 Ry
     estimated scf accuracy    <       0.20215183 Ry

     iteration # 56     ecut=    80.00 Ry     beta= 0.50
     Davidson diagonalization with overlap
     ethr =  7.50E-05,  avg # of iterations =  5.0

     negative rho (up, down):  3.796E-03 0.000E+00

     total cpu time spent up to now is     4767.0 secs

     WARNING: integrated charge=   176.00861664, expected=   176.00000000

     total energy              =   -1236.65803357 Ry
     estimated scf accuracy    <       0.16932082 Ry

     iteration # 57     ecut=    80.00 Ry     beta= 0.50
     Davidson diagonalization with overlap
     ethr =  7.50E-05,  avg # of iterations =  3.0

     negative rho (up, down):  1.701E-04 0.000E+00

     total cpu time spent up to now is     4840.8 secs

     WARNING: integrated charge=   176.00854358, expected=   176.00000000

     total energy              =   -1236.67586254 Ry
     estimated scf accuracy    <       0.21380371 Ry

     iteration # 58     ecut=    80.00 Ry     beta= 0.50
     Davidson diagonalization with overlap
     ethr =  7.50E-05,  avg # of iterations =  4.0

     negative rho (up, down):  6.630E-07 0.000E+00

     total cpu time spent up to now is     4915.0 secs

     WARNING: integrated charge=   176.00790599, expected=   176.00000000

     total energy              =   -1236.68387701 Ry
     estimated scf accuracy    <       0.31911390 Ry

     iteration # 59     ecut=    80.00 Ry     beta= 0.50
     Davidson diagonalization with overlap
     ethr =  7.50E-05,  avg # of iterations =  2.0

     total cpu time spent up to now is     4987.8 secs

     WARNING: integrated charge=   176.00967794, expected=   176.00000000

     total energy              =   -1236.68784649 Ry
     estimated scf accuracy    <       0.27138985 Ry

     iteration # 60     ecut=    80.00 Ry     beta= 0.50
     Davidson diagonalization with overlap
     ethr =  7.50E-05,  avg # of iterations =  2.0

     total cpu time spent up to now is     5060.7 secs

     WARNING: integrated charge=   176.01158112, expected=   176.00000000

     total energy              =   -1236.68735369 Ry
     estimated scf accuracy    <       0.33782294 Ry

     iteration # 61     ecut=    80.00 Ry     beta= 0.50
     Davidson diagonalization with overlap
     ethr =  7.50E-05,  avg # of iterations =  1.0

     negative rho (up, down):  1.946E-02 0.000E+00

     total cpu time spent up to now is     5128.5 secs

     WARNING: integrated charge=   176.01355688, expected=   176.00000000

     total energy              =   -1236.64248267 Ry
     estimated scf accuracy    <       0.23659565 Ry

     iteration # 62     ecut=    80.00 Ry     beta= 0.50
     Davidson diagonalization with overlap
     c_bands:  3 eigenvalues not converged
     c_bands:  3 eigenvalues not converged
     c_bands:  1 eigenvalues not converged
     c_bands:  3 eigenvalues not converged
     c_bands:  2 eigenvalues not converged
     c_bands:  3 eigenvalues not converged
     ethr =  7.50E-05,  avg # of iterations = 20.0

     negative rho (up, down):  1.448E+00 0.000E+00

     total cpu time spent up to now is     5239.6 secs

     WARNING: integrated charge=   176.00965704, expected=   176.00000000

     total energy              =   -1152.43042217 Ry
     estimated scf accuracy    < 3952896.27910727 Ry

     iteration # 63     ecut=    80.00 Ry     beta= 0.50
     Davidson diagonalization with overlap
     c_bands:  3 eigenvalues not converged
     ethr =  7.50E-05,  avg # of iterations = 15.2

     negative rho (up, down):  4.764E-01 0.000E+00

     total cpu time spent up to now is     5358.1 secs

     WARNING: integrated charge=   176.01031499, expected=   176.00000000

     total energy              =   -1236.44961446 Ry
     estimated scf accuracy    <       1.13160512 Ry

     iteration # 64     ecut=    80.00 Ry     beta= 0.50
     Davidson diagonalization with overlap
     ethr =  7.50E-05,  avg # of iterations =  3.5

     negative rho (up, down):  1.354E-01 0.000E+00

     total cpu time spent up to now is     5439.9 secs

     WARNING: integrated charge=   176.01269733, expected=   176.00000000

     total energy              =   -1236.54001438 Ry
     estimated scf accuracy    <       0.41050567 Ry

     iteration # 65     ecut=    80.00 Ry     beta= 0.50
     Davidson diagonalization with overlap
     ethr =  7.50E-05,  avg # of iterations =  6.7

     negative rho (up, down):  2.980E-02 0.000E+00

     total cpu time spent up to now is     5526.1 secs

     WARNING: integrated charge=   176.00549505, expected=   176.00000000

     total energy              =   -1236.61039236 Ry
     estimated scf accuracy    <       0.21393794 Ry

     iteration # 66     ecut=    80.00 Ry     beta= 0.50
     Davidson diagonalization with overlap
     ethr =  7.50E-05,  avg # of iterations =  5.5

     negative rho (up, down):  3.852E-03 0.000E+00

     total cpu time spent up to now is     5604.2 secs

     WARNING: integrated charge=   176.00513796, expected=   176.00000000

     total energy              =   -1236.65797235 Ry
     estimated scf accuracy    <       0.16398722 Ry

     iteration # 67     ecut=    80.00 Ry     beta= 0.50
     Davidson diagonalization with overlap
     ethr =  7.50E-05,  avg # of iterations =  3.2

     negative rho (up, down):  1.744E-04 0.000E+00

     total cpu time spent up to now is     5678.2 secs

     WARNING: integrated charge=   176.00491184, expected=   176.00000000

     total energy              =   -1236.67434724 Ry
     estimated scf accuracy    <       0.26634842 Ry

     iteration # 68     ecut=    80.00 Ry     beta= 0.50
     Davidson diagonalization with overlap
     ethr =  7.50E-05,  avg # of iterations =  2.3

     negative rho (up, down):  7.060E-07 0.000E+00

     total cpu time spent up to now is     5751.4 secs

     WARNING: integrated charge=   176.00492678, expected=   176.00000000

     total energy              =   -1236.67893434 Ry
     estimated scf accuracy    <       0.60347055 Ry

     iteration # 69     ecut=    80.00 Ry     beta= 0.50
     Davidson diagonalization with overlap
     ethr =  7.50E-05,  avg # of iterations =  3.7

     total cpu time spent up to now is     5827.2 secs

     WARNING: integrated charge=   176.00464905, expected=   176.00000000

     total energy              =   -1236.67363107 Ry
     estimated scf accuracy    <       1.59654637 Ry

     iteration # 70     ecut=    80.00 Ry     beta= 0.50
     Davidson diagonalization with overlap
     ethr =  7.50E-05,  avg # of iterations =  5.3

     total cpu time spent up to now is     5905.4 secs

     WARNING: integrated charge=   176.00416148, expected=   176.00000000

     total energy              =   -1236.69007361 Ry
     estimated scf accuracy    <       0.22507672 Ry

     iteration # 71     ecut=    80.00 Ry     beta= 0.50
     Davidson diagonalization with overlap
     ethr =  7.50E-05,  avg # of iterations =  1.0

     negative rho (up, down):  1.795E-02 0.000E+00

     total cpu time spent up to now is     5973.1 secs

     WARNING: integrated charge=   176.00390764, expected=   176.00000000

     total energy              =   -1236.64259818 Ry
     estimated scf accuracy    <       0.28299588 Ry

     iteration # 72     ecut=    80.00 Ry     beta= 0.50
     Davidson diagonalization with overlap
     c_bands:  2 eigenvalues not converged
     c_bands:  3 eigenvalues not converged
     c_bands:  1 eigenvalues not converged
     c_bands:  3 eigenvalues not converged
     c_bands:  1 eigenvalues not converged
     c_bands:  2 eigenvalues not converged
     ethr =  7.50E-05,  avg # of iterations = 20.0

     negative rho (up, down):  1.446E+00 0.000E+00

     total cpu time spent up to now is     6084.4 secs

     WARNING: integrated charge=   176.00352095, expected=   176.00000000

     total energy              =   -1152.69980456 Ry
     estimated scf accuracy    < 3949922.62783760 Ry

     iteration # 73     ecut=    80.00 Ry     beta= 0.50
     Davidson diagonalization with overlap
     c_bands:  3 eigenvalues not converged
     ethr =  7.50E-05,  avg # of iterations = 15.8

     negative rho (up, down):  4.767E-01 0.000E+00

     total cpu time spent up to now is     6203.8 secs

     WARNING: integrated charge=   176.00367262, expected=   176.00000000

     total energy              =   -1236.45038105 Ry
     estimated scf accuracy    <       1.05332282 Ry

     iteration # 74     ecut=    80.00 Ry     beta= 0.50
     Davidson diagonalization with overlap
     ethr =  7.50E-05,  avg # of iterations =  3.8

     negative rho (up, down):  1.355E-01 0.000E+00

     total cpu time spent up to now is     6285.4 secs

     WARNING: integrated charge=   176.00240197, expected=   176.00000000

     total energy              =   -1236.53819172 Ry
     estimated scf accuracy    <       0.37497226 Ry

     iteration # 75     ecut=    80.00 Ry     beta= 0.50
     Davidson diagonalization with overlap
     ethr =  7.50E-05,  avg # of iterations =  6.3

     negative rho (up, down):  3.034E-02 0.000E+00

     total cpu time spent up to now is     6371.3 secs

     WARNING: integrated charge=   176.00166269, expected=   176.00000000

     total energy              =   -1236.60914275 Ry
     estimated scf accuracy    <       0.19905321 Ry

     iteration # 76     ecut=    80.00 Ry     beta= 0.50
     Davidson diagonalization with overlap
     ethr =  7.50E-05,  avg # of iterations =  3.3

     negative rho (up, down):  4.022E-03 0.000E+00

     total cpu time spent up to now is     6447.7 secs

     WARNING: integrated charge=   176.00147577, expected=   176.00000000

     total energy              =   -1236.65670545 Ry
     estimated scf accuracy    <       0.18150334 Ry

     iteration # 77     ecut=    80.00 Ry     beta= 0.50
     Davidson diagonalization with overlap
     ethr =  7.50E-05,  avg # of iterations =  2.0

     negative rho (up, down):  1.875E-04 0.000E+00

     total cpu time spent up to now is     6520.9 secs

     WARNING: integrated charge=   176.00136195, expected=   176.00000000

     total energy              =   -1236.67389505 Ry
     estimated scf accuracy    <       0.34577294 Ry

     iteration # 78     ecut=    80.00 Ry     beta= 0.50
     Davidson diagonalization with overlap
     c_bands:  1 eigenvalues not converged
     ethr =  7.50E-05,  avg # of iterations =  7.2

     negative rho (up, down):  6.008E-07 0.000E+00

     total cpu time spent up to now is     6598.0 secs

     WARNING: integrated charge=   176.00148343, expected=   176.00000000

     total energy              =   -1236.68055155 Ry
     estimated scf accuracy    <       0.51946966 Ry

     iteration # 79     ecut=    80.00 Ry     beta= 0.50
     Davidson diagonalization with overlap
     ethr =  7.50E-05,  avg # of iterations =  2.0

     total cpu time spent up to now is     6671.0 secs

     WARNING: integrated charge=   176.00099311, expected=   176.00000000

     total energy              =   -1236.68751783 Ry
     estimated scf accuracy    <       0.27868729 Ry

     iteration # 80     ecut=    80.00 Ry     beta= 0.50
     Davidson diagonalization with overlap
     ethr =  7.50E-05,  avg # of iterations =  2.0

     total cpu time spent up to now is     6743.6 secs

     WARNING: integrated charge=   176.00089895, expected=   176.00000000

     total energy              =   -1236.68557480 Ry
     estimated scf accuracy    <       0.39991608 Ry

     iteration # 81     ecut=    80.00 Ry     beta= 0.50
     Davidson diagonalization with overlap
     ethr =  7.50E-05,  avg # of iterations =  1.0

     negative rho (up, down):  1.765E-02 0.000E+00

     total cpu time spent up to now is     6811.3 secs

     WARNING: integrated charge=   176.00147881, expected=   176.00000000

     total energy              =   -1236.64380006 Ry
     estimated scf accuracy    <       0.25861318 Ry

     iteration # 82     ecut=    80.00 Ry     beta= 0.50
     Davidson diagonalization with overlap
     c_bands:  3 eigenvalues not converged
     c_bands:  4 eigenvalues not converged
     c_bands:  4 eigenvalues not converged
     c_bands:  3 eigenvalues not converged
     c_bands:  3 eigenvalues not converged
     c_bands:  3 eigenvalues not converged
     ethr =  7.50E-05,  avg # of iterations = 20.0

     negative rho (up, down):  1.444E+00 0.000E+00

     total cpu time spent up to now is     6922.6 secs

     WARNING: integrated charge=   176.00080038, expected=   176.00000000

     total energy              =   -1152.83409580 Ry
     estimated scf accuracy    < 3949403.28592235 Ry

     iteration # 83     ecut=    80.00 Ry     beta= 0.50
     Davidson diagonalization with overlap
     c_bands:  3 eigenvalues not converged
     ethr =  7.50E-05,  avg # of iterations = 16.5

     negative rho (up, down):  4.767E-01 0.000E+00

     total cpu time spent up to now is     7042.2 secs

     WARNING: integrated charge=   176.00088891, expected=   176.00000000

     total energy              =   -1236.45115980 Ry
     estimated scf accuracy    <       1.02219087 Ry

     iteration # 84     ecut=    80.00 Ry     beta= 0.50
     Davidson diagonalization with overlap
     ethr =  7.50E-05,  avg # of iterations =  3.3

     negative rho (up, down):  1.353E-01 0.000E+00

     total cpu time spent up to now is     7123.3 secs

     WARNING: integrated charge=   176.00062321, expected=   176.00000000

     total energy              =   -1236.53557384 Ry
     estimated scf accuracy    <       0.36824955 Ry

     iteration # 85     ecut=    80.00 Ry     beta= 0.50
     Davidson diagonalization with overlap
     ethr =  7.50E-05,  avg # of iterations =  6.3

     negative rho (up, down):  3.047E-02 0.000E+00

     total cpu time spent up to now is     7209.4 secs

     WARNING: integrated charge=   176.00044928, expected=   176.00000000

     total energy              =   -1236.60912621 Ry
     estimated scf accuracy    <       0.21161000 Ry

     iteration # 86     ecut=    80.00 Ry     beta= 0.50
     Davidson diagonalization with overlap
     ethr =  7.50E-05,  avg # of iterations =  3.8

     negative rho (up, down):  4.071E-03 0.000E+00

     total cpu time spent up to now is     7286.0 secs

     WARNING: integrated charge=   176.00041810, expected=   176.00000000

     total energy              =   -1236.65733268 Ry
     estimated scf accuracy    <       0.17214479 Ry

     iteration # 87     ecut=    80.00 Ry     beta= 0.50
     Davidson diagonalization with overlap
     ethr =  7.50E-05,  avg # of iterations =  5.5

     negative rho (up, down):  1.974E-04 0.000E+00

     total cpu time spent up to now is     7361.7 secs

     WARNING: integrated charge=   176.00038529, expected=   176.00000000

     total energy              =   -1236.67349140 Ry
     estimated scf accuracy    <       0.34914527 Ry

     iteration # 88     ecut=    80.00 Ry     beta= 0.50
     Davidson diagonalization with overlap
     ethr =  7.50E-05,  avg # of iterations =  4.3

     negative rho (up, down):  7.123E-07 0.000E+00

     total cpu time spent up to now is     7436.4 secs

     WARNING: integrated charge=   176.00033885, expected=   176.00000000

     total energy              =   -1236.67873237 Ry
     estimated scf accuracy    <       0.60817143 Ry

     iteration # 89     ecut=    80.00 Ry     beta= 0.50
     Davidson diagonalization with overlap
     ethr =  7.50E-05,  avg # of iterations =  2.8

     total cpu time spent up to now is     7511.0 secs

     WARNING: integrated charge=   176.00028727, expected=   176.00000000

     total energy              =   -1236.68428775 Ry
     estimated scf accuracy    <       0.54687318 Ry

     iteration # 90     ecut=    80.00 Ry     beta= 0.50
     Davidson diagonalization with overlap
     ethr =  7.50E-05,  avg # of iterations =  3.0

     total cpu time spent up to now is     7585.2 secs

     WARNING: integrated charge=   176.00026385, expected=   176.00000000

     total energy              =   -1236.69061593 Ry
     estimated scf accuracy    <       0.24278722 Ry

     iteration # 91     ecut=    80.00 Ry     beta= 0.50
     Davidson diagonalization with overlap
     ethr =  7.50E-05,  avg # of iterations =  1.0

     negative rho (up, down):  1.720E-02 0.000E+00

     total cpu time spent up to now is     7652.9 secs

     WARNING: integrated charge=   176.00038931, expected=   176.00000000

     total energy              =   -1236.64500722 Ry
     estimated scf accuracy    <       0.25197397 Ry

     iteration # 92     ecut=    80.00 Ry     beta= 0.50
     Davidson diagonalization with overlap
     c_bands:  1 eigenvalues not converged
     c_bands:  2 eigenvalues not converged
     c_bands:  2 eigenvalues not converged
     c_bands:  2 eigenvalues not converged
     c_bands:  3 eigenvalues not converged
     c_bands:  3 eigenvalues not converged
     ethr =  7.50E-05,  avg # of iterations = 20.0

     negative rho (up, down):  1.442E+00 0.000E+00

     total cpu time spent up to now is     7764.1 secs

     WARNING: integrated charge=   176.00021855, expected=   176.00000000

     total energy              =   -1153.03433478 Ry
     estimated scf accuracy    < 3948250.77001942 Ry

     iteration # 93     ecut=    80.00 Ry     beta= 0.50
     Davidson diagonalization with overlap
     c_bands:  2 eigenvalues not converged
     ethr =  7.50E-05,  avg # of iterations = 16.5

     negative rho (up, down):  4.770E-01 0.000E+00

     total cpu time spent up to now is     7884.0 secs

     WARNING: integrated charge=   176.00023980, expected=   176.00000000

     total energy              =   -1236.45195502 Ry
     estimated scf accuracy    <       0.94161246 Ry

     iteration # 94     ecut=    80.00 Ry     beta= 0.50
     Davidson diagonalization with overlap
     ethr =  7.50E-05,  avg # of iterations =  3.5

     negative rho (up, down):  1.356E-01 0.000E+00

     total cpu time spent up to now is     7965.2 secs

     WARNING: integrated charge=   176.00017351, expected=   176.00000000

     total energy              =   -1236.53437559 Ry
     estimated scf accuracy    <       0.32390838 Ry

     iteration # 95     ecut=    80.00 Ry     beta= 0.50
     Davidson diagonalization with overlap
     ethr =  7.50E-05,  avg # of iterations =  6.5

     negative rho (up, down):  3.072E-02 0.000E+00

     total cpu time spent up to now is     8051.7 secs

     WARNING: integrated charge=   176.00011508, expected=   176.00000000

     total energy              =   -1236.60896408 Ry
     estimated scf accuracy    <       0.19613361 Ry

     iteration # 96     ecut=    80.00 Ry     beta= 0.50
     Davidson diagonalization with overlap
     ethr =  7.50E-05,  avg # of iterations =  3.2

     negative rho (up, down):  4.062E-03 0.000E+00

     total cpu time spent up to now is     8127.8 secs

     WARNING: integrated charge=   176.00010485, expected=   176.00000000

     total energy              =   -1236.65780780 Ry
     estimated scf accuracy    <       0.16911813 Ry

     iteration # 97     ecut=    80.00 Ry     beta= 0.50
     Davidson diagonalization with overlap
     ethr =  7.50E-05,  avg # of iterations =  4.2

     negative rho (up, down):  2.007E-04 0.000E+00

     total cpu time spent up to now is     8202.7 secs

     WARNING: integrated charge=   176.00009701, expected=   176.00000000

     total energy              =   -1236.67510759 Ry
     estimated scf accuracy    <       0.32101963 Ry

     iteration # 98     ecut=    80.00 Ry     beta= 0.50
     Davidson diagonalization with overlap
     ethr =  7.50E-05,  avg # of iterations =  3.3

     negative rho (up, down):  7.072E-07 0.000E+00

     total cpu time spent up to now is     8276.9 secs

     WARNING: integrated charge=   176.00009692, expected=   176.00000000

     total energy              =   -1236.68267000 Ry
     estimated scf accuracy    <       0.42421948 Ry

     iteration # 99     ecut=    80.00 Ry     beta= 0.50
     Davidson diagonalization with overlap
     ethr =  7.50E-05,  avg # of iterations =  2.0

     total cpu time spent up to now is     8349.2 secs

     WARNING: integrated charge=   176.00008050, expected=   176.00000000

     total energy              =   -1236.68907243 Ry
     estimated scf accuracy    <       0.22428218 Ry

     iteration #100     ecut=    80.00 Ry     beta= 0.50
     Davidson diagonalization with overlap
     ethr =  7.50E-05,  avg # of iterations =  2.0

     total cpu time spent up to now is     8421.3 secs

     WARNING: integrated charge=   176.00007131, expected=   176.00000000

     total energy              =   -1236.68846267 Ry
     estimated scf accuracy    <       0.33632004 Ry

     End of self-consistent calculation

     convergence NOT achieved after 100 iterations: stopping

     Writing output data file ./CsSnI3.save/
 
     init_run     :     27.28s CPU     28.66s WALL (       1 calls)
     electrons    :   8168.55s CPU   8391.13s WALL (       1 calls)

     Called by init_run:
     wfcinit      :     18.72s CPU     19.12s WALL (       1 calls)
     wfcinit:atom :      0.14s CPU      0.16s WALL (       6 calls)
     wfcinit:wfcr :     17.77s CPU     18.06s WALL (       6 calls)
     potinit      :      0.96s CPU      1.00s WALL (       1 calls)
     hinit0       :      1.72s CPU      1.86s WALL (       1 calls)

     Called by electrons:
     c_bands      :   6163.87s CPU   6217.02s WALL (     100 calls)
     sum_band     :   1457.34s CPU   1554.44s WALL (     100 calls)
     v_of_rho     :     11.60s CPU     12.13s WALL (     101 calls)
     v_h          :      0.97s CPU      0.98s WALL (     101 calls)
     v_xc         :     10.63s CPU     11.14s WALL (     101 calls)
     newd         :    518.31s CPU    588.89s WALL (     101 calls)
     mix_rho      :     16.14s CPU     17.65s WALL (     100 calls)

     Called by c_bands:
     init_us_2    :     32.71s CPU     32.96s WALL (    1206 calls)
     cegterg      :   5237.58s CPU   5287.38s WALL (     600 calls)

     Called by sum_band:
     sum_band:wei :      0.15s CPU      0.18s WALL (     100 calls)
     sum_band:loo :    969.27s CPU    977.72s WALL (     100 calls)
     sum_band:buf :      9.48s CPU      9.71s WALL (     600 calls)
     sum_band:ini :     16.19s CPU     16.29s WALL (     600 calls)
     sum_band:cal :    142.00s CPU    143.50s WALL (     600 calls)
     sum_band:bec :     34.10s CPU     34.28s WALL (     600 calls)
     addusdens    :    484.06s CPU    572.41s WALL (     100 calls)
     addusd:skk   :      0.52s CPU      0.96s WALL (     300 calls)
     addusd:dgemm :     92.97s CPU    177.80s WALL (     300 calls)
     addusd:qvan2 :    386.39s CPU    387.92s WALL (     300 calls)

     Called by *egterg:
     cdiaghg      :    123.27s CPU    127.42s WALL (    4532 calls)
     cegterg:over :    261.92s CPU    263.01s WALL (    3932 calls)
     cegterg:upda :    342.91s CPU    346.95s WALL (    3932 calls)
     cegterg:last :    500.79s CPU    503.22s WALL (    1288 calls)
     cdiaghg:chol :     14.44s CPU     15.85s WALL (    4532 calls)
     cdiaghg:inve :      6.12s CPU      6.15s WALL (    4532 calls)
     cdiaghg:para :      6.27s CPU      6.94s WALL (    9064 calls)
     h_psi        :   3442.30s CPU   3473.84s WALL (    4538 calls)
     s_psi        :    466.29s CPU    468.08s WALL (    4538 calls)
     g_psi        :     10.39s CPU     10.44s WALL (    3932 calls)

     Called by h_psi:
     h_psi:calbec :    381.16s CPU    385.00s WALL (    4538 calls)
     vloc_psi     :   2572.32s CPU   2595.77s WALL (    4538 calls)
     add_vuspsi   :    469.84s CPU    472.02s WALL (    4538 calls)

     General routines
     calbec       :    523.14s CPU    528.48s WALL (    5138 calls)
     fft          :     14.43s CPU     14.73s WALL (    2219 calls)
     ffts         :      3.51s CPU      3.57s WALL (     804 calls)
     fftw         :   2407.12s CPU   2429.09s WALL ( 1432168 calls)
     interpolate  :      5.28s CPU      5.36s WALL (     404 calls)
     davcio       :      0.01s CPU      0.53s WALL (      24 calls)
 
     Parallel routines
     fft_scatt_xy :    433.94s CPU    437.94s WALL ( 1435191 calls)
     fft_scatt_yz :    679.27s CPU    685.86s WALL ( 1435191 calls)
 
     PWSCF        :      2h16m CPU      2h20m WALL

 
   This run was terminated on:  21:54:44   1Mar2021            

=------------------------------------------------------------------------------=
   JOB DONE.
=------------------------------------------------------------------------------=
