
     Program PWSCF v.6.3 starts on 15Feb2021 at 11:28:59 

     This program is part of the open-source Quantum ESPRESSO suite
     for quantum simulation of materials; please cite
         "P. Giannozzi et al., J. Phys.:Condens. Matter 21 395502 (2009);
         "P. Giannozzi et al., J. Phys.:Condens. Matter 29 465901 (2017);
          URL http://www.quantum-espresso.org", 
     in publications or presentations arising from this work. More details at
     http://www.quantum-espresso.org/quote

     Parallel version (MPI & OpenMP), running on      32 processor cores
     Number of MPI processes:                32
     Threads/MPI process:                     1

     MPI processes distributed on     1 nodes
     R & G space division:  proc/nbgrp/npool/nimage =      32
     Waiting for input...
     Reading input from standard input

     Current dimensions of program PWSCF are:
     Max number of different atomic species (ntypx) = 10
     Max number of k-points (npk) =  40000
     Max angular momentum in pseudopotentials (lmaxx) =  3
               file Sn.rel-pbe-dn-rrkjus_psl.1.0.0.UPF: wavefunction(s)  5S 4D 4D renormalized
               file Cs.rel-pbe-spn-rrkjus_psl.1.0.0.UPF: wavefunction(s)  5S 6S renormalized

     Subspace diagonalization in iterative solution of the eigenvalue problem:
     one sub-group per band group will be used
     scalapack distributed-memory algorithm (size of sub-group:  4*  4 procs)

     Found symmetry operation: I + ( -0.5000 -0.5000 -0.5000)
     This is a supercell, fractional translations are disabled
 
     Parallelization info
     --------------------
     sticks:   dense  smooth     PW     G-vecs:    dense   smooth      PW
     Min         219     219     57                19705    19705    2647
     Max         220     220     58                19712    19712    2654
     Sum        7017    7017   1853               630631   630631   84809
 

     Title: 
     perovskite                                                                 


     bravais-lattice index     =            0
     lattice parameter (alat)  =      16.5857  a.u.
     unit-cell volume          =    6523.1011 (a.u.)^3
     number of atoms/cell      =           20
     number of atomic types    =            3
     number of electrons       =       176.00
     number of Kohn-Sham states=          176
     kinetic-energy cutoff     =      80.0000  Ry
     charge density cutoff     =     320.0000  Ry
     convergence threshold     =      1.0E-07
     mixing beta               =       0.6000
     number of iterations used =            8  plain     mixing
     Exchange-correlation      = PBE ( 1  4  3  4 0 0)
     nstep                     =           50

     Non magnetic calculation with spin-orbit


     celldm(1)=  16.585700  celldm(2)=   0.000000  celldm(3)=   0.000000
     celldm(4)=   0.000000  celldm(5)=   0.000000  celldm(6)=   0.000000

     crystal axes: (cart. coord. in units of alat)
               a(1) = (   1.000000   0.000000   0.000000 )  
               a(2) = (   0.000000   1.000000   0.000000 )  
               a(3) = (   0.000000   0.000000   1.429726 )  

     reciprocal axes: (cart. coord. in units 2 pi/alat)
               b(1) = (  1.000000  0.000000  0.000000 )  
               b(2) = (  0.000000  1.000000  0.000000 )  
               b(3) = (  0.000000  0.000000  0.699435 )  


     PseudoPot. # 1 for Sn read from file:
     ./Sn.rel-pbe-dn-rrkjus_psl.1.0.0.UPF
     MD5 check sum: e9415cc9ba1036dfb73502962f03961a
     Pseudo is Ultrasoft + core correction, Zval = 14.0
     Generated using "atomic" code by A. Dal Corso v.6.3
     Using radial grid of 1243 points, 10 beta functions with: 
                l(1) =   0
                l(2) =   0
                l(3) =   1
                l(4) =   1
                l(5) =   1
                l(6) =   1
                l(7) =   2
                l(8) =   2
                l(9) =   2
               l(10) =   2
     Q(r) pseudized with 0 coefficients 


     PseudoPot. # 2 for I  read from file:
     ./I.rel-pbe-n-rrkjus_psl.0.2.2.UPF
     MD5 check sum: b9024a078df971004264c9bcc9ff756e
     Pseudo is Ultrasoft + core correction, Zval =  7.0
     Generated using "atomic" code by A. Dal Corso v.5.0.2 svn rev. 9415
     Using radial grid of 1247 points,  6 beta functions with: 
                l(1) =   0
                l(2) =   0
                l(3) =   1
                l(4) =   1
                l(5) =   1
                l(6) =   1
     Q(r) pseudized with 0 coefficients 


     PseudoPot. # 3 for Cs read from file:
     ./Cs.rel-pbe-spn-rrkjus_psl.1.0.0.UPF
     MD5 check sum: 92f45d5fced885c1284380ec35df8368
     Pseudo is Ultrasoft + core correction, Zval =  9.0
     Generated using "atomic" code by A. Dal Corso v.6.4.1
     Using radial grid of 1251 points, 15 beta functions with: 
                l(1) =   0
                l(2) =   0
                l(3) =   0
                l(4) =   1
                l(5) =   1
                l(6) =   1
                l(7) =   1
                l(8) =   2
                l(9) =   2
               l(10) =   2
               l(11) =   2
               l(12) =   3
               l(13) =   3
               l(14) =   3
               l(15) =   3
     Q(r) pseudized with 0 coefficients 


     atomic species   valence    mass     pseudopotential
        Sn            14.00   118.70000     Sn( 1.00)
        I              7.00   126.90000     I ( 1.00)
        Cs             9.00   132.90000     Cs( 1.00)

      8 Sym. Ops. (no inversion) found


                                    s                        frac. trans.

      isym =  1     identity                                     

 cryst.   s( 1) = (     1          0          0      )
                  (     0          1          0      )
                  (     0          0          1      )

 cart.    s( 1) = (  1.0000000  0.0000000  0.0000000 )
                  (  0.0000000  1.0000000  0.0000000 )
                  (  0.0000000  0.0000000  1.0000000 )


      isym =  2     180 deg rotation - cart. axis [0,0,1]        

 cryst.   s( 2) = (    -1          0          0      )
                  (     0         -1          0      )
                  (     0          0          1      )

 cart.    s( 2) = ( -1.0000000  0.0000000  0.0000000 )
                  (  0.0000000 -1.0000000  0.0000000 )
                  (  0.0000000  0.0000000  1.0000000 )


      isym =  3     180 deg rotation - cart. axis [0,1,0]        

 cryst.   s( 3) = (    -1          0          0      )
                  (     0          1          0      )
                  (     0          0         -1      )

 cart.    s( 3) = ( -1.0000000  0.0000000  0.0000000 )
                  (  0.0000000  1.0000000  0.0000000 )
                  (  0.0000000  0.0000000 -1.0000000 )


      isym =  4     180 deg rotation - cart. axis [1,0,0]        

 cryst.   s( 4) = (     1          0          0      )
                  (     0         -1          0      )
                  (     0          0         -1      )

 cart.    s( 4) = (  1.0000000  0.0000000  0.0000000 )
                  (  0.0000000 -1.0000000  0.0000000 )
                  (  0.0000000  0.0000000 -1.0000000 )


      isym =  5     inv. 180 deg rotation - cart. axis [1,1,0]   

 cryst.   s( 5) = (     0         -1          0      )
                  (    -1          0          0      )
                  (     0          0          1      )

 cart.    s( 5) = (  0.0000000 -1.0000000  0.0000000 )
                  ( -1.0000000  0.0000000  0.0000000 )
                  (  0.0000000  0.0000000  1.0000000 )


      isym =  6     inv. 180 deg rotation - cart. axis [1,-1,0]  

 cryst.   s( 6) = (     0          1          0      )
                  (     1          0          0      )
                  (     0          0          1      )

 cart.    s( 6) = (  0.0000000  1.0000000  0.0000000 )
                  (  1.0000000  0.0000000  0.0000000 )
                  (  0.0000000  0.0000000  1.0000000 )


      isym =  7     inv.  90 deg rotation - cart. axis [0,0,-1]  

 cryst.   s( 7) = (     0          1          0      )
                  (    -1          0          0      )
                  (     0          0         -1      )

 cart.    s( 7) = (  0.0000000 -1.0000000  0.0000000 )
                  (  1.0000000  0.0000000  0.0000000 )
                  (  0.0000000  0.0000000 -1.0000000 )


      isym =  8     inv.  90 deg rotation - cart. axis [0,0,1]   

 cryst.   s( 8) = (     0         -1          0      )
                  (     1          0          0      )
                  (     0          0         -1      )

 cart.    s( 8) = (  0.0000000  1.0000000  0.0000000 )
                  ( -1.0000000  0.0000000  0.0000000 )
                  (  0.0000000  0.0000000 -1.0000000 )


   Cartesian axes

     site n.     atom                  positions (alat units)
         1           Cs  tau(   1) = (   0.0000000   0.0000000   0.3574314  )
         2           Cs  tau(   2) = (   0.5000000   0.5000000   1.0722942  )
         3           Cs  tau(   3) = (   0.0000000   0.0000000   1.0722942  )
         4           Cs  tau(   4) = (   0.5000000   0.5000000   0.3574314  )
         5           Sn  tau(   5) = (   0.0000000   0.0000000   0.0000000  )
         6           Sn  tau(   6) = (   0.5000000   0.5000000   0.7148628  )
         7           Sn  tau(   7) = (   0.0000000   0.0000000   0.7148628  )
         8           Sn  tau(   8) = (   0.5000000   0.5000000   0.0000000  )
         9           I   tau(   9) = (   0.2012640   0.2012640   1.0722942  )
        10           I   tau(  10) = (   0.7012640   0.7012640   0.3574314  )
        11           I   tau(  11) = (   0.2987360   0.2987360   0.3574314  )
        12           I   tau(  12) = (   0.7987360   0.7987360   1.0722942  )
        13           I   tau(  13) = (   0.7987360   0.2012640   0.3574314  )
        14           I   tau(  14) = (   0.2987360   0.7012640   1.0722942  )
        15           I   tau(  15) = (   0.2012640   0.7987360   0.3574314  )
        16           I   tau(  16) = (   0.7012640   0.2987360   1.0722942  )
        17           I   tau(  17) = (   0.0000000   0.5000000   0.0000000  )
        18           I   tau(  18) = (   0.5000000   0.0000000   0.7148628  )
        19           I   tau(  19) = (   0.5000000   0.0000000   1.4297256  )
        20           I   tau(  20) = (   0.0000000   0.5000000   0.7148628  )

   Crystallographic axes

     site n.     atom                  positions (cryst. coord.)
         1           Cs  tau(   1) = (  0.0000000  0.0000000  0.2500000  )
         2           Cs  tau(   2) = (  0.5000000  0.5000000  0.7500000  )
         3           Cs  tau(   3) = (  0.0000000  0.0000000  0.7500000  )
         4           Cs  tau(   4) = (  0.5000000  0.5000000  0.2500000  )
         5           Sn  tau(   5) = (  0.0000000  0.0000000  0.0000000  )
         6           Sn  tau(   6) = (  0.5000000  0.5000000  0.5000000  )
         7           Sn  tau(   7) = (  0.0000000  0.0000000  0.5000000  )
         8           Sn  tau(   8) = (  0.5000000  0.5000000  0.0000000  )
         9           I   tau(   9) = (  0.2012640  0.2012640  0.7500000  )
        10           I   tau(  10) = (  0.7012640  0.7012640  0.2500000  )
        11           I   tau(  11) = (  0.2987360  0.2987360  0.2500000  )
        12           I   tau(  12) = (  0.7987360  0.7987360  0.7500000  )
        13           I   tau(  13) = (  0.7987360  0.2012640  0.2500000  )
        14           I   tau(  14) = (  0.2987360  0.7012640  0.7500000  )
        15           I   tau(  15) = (  0.2012640  0.7987360  0.2500000  )
        16           I   tau(  16) = (  0.7012640  0.2987360  0.7500000  )
        17           I   tau(  17) = (  0.0000000  0.5000000  0.0000000  )
        18           I   tau(  18) = (  0.5000000  0.0000000  0.5000000  )
        19           I   tau(  19) = (  0.5000000  0.0000000  1.0000000  )
        20           I   tau(  20) = (  0.0000000  0.5000000  0.5000000  )

     number of k points=     6
                       cart. coord. in units 2pi/alat
        k(    1) = (   0.0000000   0.0000000   0.0000000), wk =   0.0555556
        k(    2) = (   0.0000000   0.0000000  -0.3497175), wk =   0.0555556
        k(    3) = (   0.0000000   0.3333333   0.0000000), wk =   0.2222222
        k(    4) = (   0.0000000   0.3333333  -0.3497175), wk =   0.2222222
        k(    5) = (   0.3333333   0.3333333   0.0000000), wk =   0.2222222
        k(    6) = (   0.3333333   0.3333333  -0.3497175), wk =   0.2222222

                       cryst. coord.
        k(    1) = (   0.0000000   0.0000000   0.0000000), wk =   0.0555556
        k(    2) = (   0.0000000   0.0000000  -0.5000000), wk =   0.0555556
        k(    3) = (   0.0000000   0.3333333   0.0000000), wk =   0.2222222
        k(    4) = (   0.0000000   0.3333333  -0.5000000), wk =   0.2222222
        k(    5) = (   0.3333333   0.3333333   0.0000000), wk =   0.2222222
        k(    6) = (   0.3333333   0.3333333  -0.5000000), wk =   0.2222222

     Dense  grid:   630631 G-vectors     FFT dimensions: (  96,  96, 135)

     Dynamical RAM for                 wfc:      13.23 MB

     Dynamical RAM for     wfc (w. buffer):      92.60 MB

     Dynamical RAM for           str. fact:       0.90 MB

     Dynamical RAM for           local pot:       0.00 MB

     Dynamical RAM for          nlocal pot:      20.90 MB

     Dynamical RAM for                qrad:     181.72 MB

     Dynamical RAM for          rho,v,vnew:       7.83 MB

     Dynamical RAM for               rhoin:       2.61 MB

     Dynamical RAM for            rho*nmix:      19.25 MB

     Dynamical RAM for           G-vectors:       1.28 MB

     Dynamical RAM for          h,s,v(r/c):       1.42 MB

     Dynamical RAM for          <psi|beta>:       2.99 MB

     Dynamical RAM for                 psi:      52.92 MB

     Dynamical RAM for                hpsi:      52.92 MB

     Dynamical RAM for                spsi:      52.92 MB

     Dynamical RAM for      wfcinit/wfcrot:      24.44 MB

     Dynamical RAM for           addusdens:     617.95 MB

     Dynamical RAM for          addusforce:     632.85 MB

     Dynamical RAM for         addusstress:     623.36 MB

     Estimated static dynamical RAM per process >     331.10 MB

     Estimated max dynamical RAM per process >     963.95 MB

     Estimated total dynamical RAM >      30.12 GB

     Initial potential from superposition of free atoms

     starting charge  175.83607, renormalised to  176.00000
     Starting wfcs are  208 randomized atomic wfcs

     total cpu time spent up to now is       18.9 secs

     Self-consistent Calculation

     iteration #  1     ecut=    80.00 Ry     beta= 0.60
     Davidson diagonalization with overlap
     ethr =  1.00E-02,  avg # of iterations =  2.5

     Threshold (ethr) on eigenvalues was too large:
     Diagonalizing with lowered threshold

     Davidson diagonalization with overlap
     ethr =  8.06E-04,  avg # of iterations =  3.2

     total cpu time spent up to now is       62.5 secs

     total energy              =   -1572.52999823 Ry
     Harris-Foulkes estimate   =   -1573.53519965 Ry
     estimated scf accuracy    <       1.41130927 Ry

     iteration #  2     ecut=    80.00 Ry     beta= 0.60
     Davidson diagonalization with overlap
     ethr =  8.02E-04,  avg # of iterations =  5.8

     total cpu time spent up to now is       96.0 secs

     total energy              =   -1571.55254324 Ry
     Harris-Foulkes estimate   =   -1574.54352507 Ry
     estimated scf accuracy    <      12.35736209 Ry

     iteration #  3     ecut=    80.00 Ry     beta= 0.60
     Davidson diagonalization with overlap
     ethr =  8.02E-04,  avg # of iterations =  7.0

     total cpu time spent up to now is      127.0 secs

     total energy              =   -1573.21503547 Ry
     Harris-Foulkes estimate   =   -1573.38085274 Ry
     estimated scf accuracy    <       0.66929178 Ry

     iteration #  4     ecut=    80.00 Ry     beta= 0.60
     Davidson diagonalization with overlap
     ethr =  3.80E-04,  avg # of iterations =  4.2

     total cpu time spent up to now is      148.9 secs

     total energy              =   -1573.13165682 Ry
     Harris-Foulkes estimate   =   -1573.23739793 Ry
     estimated scf accuracy    <       0.31198901 Ry

     iteration #  5     ecut=    80.00 Ry     beta= 0.60
     Davidson diagonalization with overlap
     ethr =  1.77E-04,  avg # of iterations =  8.2

     total cpu time spent up to now is      186.6 secs

     total energy              =   -1528.47367450 Ry
     Harris-Foulkes estimate   =   -1575.85813787 Ry
     estimated scf accuracy    < 2066340.82337255 Ry

     iteration #  6     ecut=    80.00 Ry     beta= 0.60
     Davidson diagonalization with overlap
     ethr =  1.77E-04,  avg # of iterations =  8.0

     total cpu time spent up to now is      223.9 secs

     total energy              =   -1524.87622340 Ry
     Harris-Foulkes estimate   =   -1578.20777905 Ry
     estimated scf accuracy    < 2417548.74968404 Ry

     iteration #  7     ecut=    80.00 Ry     beta= 0.60
     Davidson diagonalization with overlap
     c_bands:  4 eigenvalues not converged
     c_bands:  3 eigenvalues not converged
     c_bands:  4 eigenvalues not converged
     c_bands:  4 eigenvalues not converged
     c_bands:  4 eigenvalues not converged
     c_bands:  4 eigenvalues not converged
     ethr =  1.77E-04,  avg # of iterations = 20.0

     total cpu time spent up to now is      256.1 secs

     total energy              =   -1573.26087231 Ry
     Harris-Foulkes estimate   =   -1573.29496342 Ry
     estimated scf accuracy    <       0.40475541 Ry

     iteration #  8     ecut=    80.00 Ry     beta= 0.60
     Davidson diagonalization with overlap
     c_bands:  1 eigenvalues not converged
     c_bands:  2 eigenvalues not converged
     c_bands:  1 eigenvalues not converged
     c_bands:  4 eigenvalues not converged
     ethr =  1.77E-04,  avg # of iterations = 18.7

     total cpu time spent up to now is      287.2 secs

     total energy              =   -1573.24073291 Ry
     Harris-Foulkes estimate   =   -1573.34914235 Ry
     estimated scf accuracy    <       0.55431270 Ry

     iteration #  9     ecut=    80.00 Ry     beta= 0.60
     Davidson diagonalization with overlap
     c_bands:  4 eigenvalues not converged
     c_bands:  2 eigenvalues not converged
     ethr =  1.77E-04,  avg # of iterations = 13.8

     total cpu time spent up to now is      314.8 secs

     total energy              =   -1573.21737276 Ry
     Harris-Foulkes estimate   =   -1573.26236245 Ry
     estimated scf accuracy    <       0.31225668 Ry

     iteration # 10     ecut=    80.00 Ry     beta= 0.60
     Davidson diagonalization with overlap
     c_bands:  1 eigenvalues not converged
     ethr =  1.77E-04,  avg # of iterations =  7.0

     total cpu time spent up to now is      338.4 secs

     total energy              =   -1573.20955627 Ry
     Harris-Foulkes estimate   =   -1573.23022211 Ry
     estimated scf accuracy    <       0.16425977 Ry

     iteration # 11     ecut=    80.00 Ry     beta= 0.60
     Davidson diagonalization with overlap
     c_bands:  1 eigenvalues not converged
     c_bands:  2 eigenvalues not converged
     c_bands:  5 eigenvalues not converged
     ethr =  9.33E-05,  avg # of iterations = 16.3

     total cpu time spent up to now is      369.2 secs

     total energy              =   -1573.27699278 Ry
     Harris-Foulkes estimate   =   -1573.25671781 Ry
     estimated scf accuracy    <       0.09667731 Ry

     iteration # 12     ecut=    80.00 Ry     beta= 0.60
     Davidson diagonalization with overlap
     ethr =  5.49E-05,  avg # of iterations = 10.5

     total cpu time spent up to now is      401.0 secs

     total energy              =   -1573.23583075 Ry
     Harris-Foulkes estimate   =   -1573.34896565 Ry
     estimated scf accuracy    <       0.70415527 Ry

     iteration # 13     ecut=    80.00 Ry     beta= 0.60
     Davidson diagonalization with overlap
     c_bands:  2 eigenvalues not converged
     ethr =  5.49E-05,  avg # of iterations = 14.0

     total cpu time spent up to now is      430.9 secs

     WARNING: integrated charge=   176.00256945, expected=   176.00000000

     total energy              =   -1573.20290572 Ry
     Harris-Foulkes estimate   =   -1573.25700184 Ry
     estimated scf accuracy    <       0.25132796 Ry

     iteration # 14     ecut=    80.00 Ry     beta= 0.60
     Davidson diagonalization with overlap
     c_bands:  1 eigenvalues not converged
     c_bands:  2 eigenvalues not converged
     c_bands:  2 eigenvalues not converged
     ethr =  5.49E-05,  avg # of iterations = 18.3

     total cpu time spent up to now is      465.0 secs

     WARNING: integrated charge=   176.00234606, expected=   176.00000000

     total energy              =   -1573.23595927 Ry
     Harris-Foulkes estimate   =   -1573.23973502 Ry
     estimated scf accuracy    <       0.02602384 Ry

     iteration # 15     ecut=    80.00 Ry     beta= 0.60
     Davidson diagonalization with overlap
     ethr =  1.48E-05,  avg # of iterations = 10.0

     total cpu time spent up to now is      504.2 secs

     WARNING: integrated charge=   176.00245074, expected=   176.00000000

     total energy              =   -1572.13891390 Ry
     Harris-Foulkes estimate   =   -1573.29902696 Ry
     estimated scf accuracy    <    1664.48171934 Ry

     iteration # 16     ecut=    80.00 Ry     beta= 0.60
     Davidson diagonalization with overlap
     ethr =  1.48E-05,  avg # of iterations = 11.2

     total cpu time spent up to now is      543.3 secs

     WARNING: integrated charge=   176.00202621, expected=   176.00000000

     total energy              =   -1573.24024548 Ry
     Harris-Foulkes estimate   =   -1573.24995011 Ry
     estimated scf accuracy    <       0.34637460 Ry

     iteration # 17     ecut=    80.00 Ry     beta= 0.60
     Davidson diagonalization with overlap
     ethr =  1.48E-05,  avg # of iterations =  3.2

     total cpu time spent up to now is      567.1 secs

     WARNING: integrated charge=   176.00052036, expected=   176.00000000

     total energy              =   -1573.24062334 Ry
     Harris-Foulkes estimate   =   -1573.24641646 Ry
     estimated scf accuracy    <       0.04083562 Ry

     iteration # 18     ecut=    80.00 Ry     beta= 0.60
     Davidson diagonalization with overlap
     c_bands:  2 eigenvalues not converged
     ethr =  1.48E-05,  avg # of iterations = 12.3

     total cpu time spent up to now is      594.1 secs

     total energy              =   -1573.24161843 Ry
     Harris-Foulkes estimate   =   -1573.24229797 Ry
     estimated scf accuracy    <       0.00946949 Ry

     iteration # 19     ecut=    80.00 Ry     beta= 0.60
     Davidson diagonalization with overlap
     c_bands:  4 eigenvalues not converged
     ethr =  5.38E-06,  avg # of iterations =  9.7

     total cpu time spent up to now is      619.9 secs

     WARNING: integrated charge=   175.99939356, expected=   176.00000000

     total energy              =   -1573.24239904 Ry
     Harris-Foulkes estimate   =   -1573.24254326 Ry
     estimated scf accuracy    <       0.00270463 Ry

     iteration # 20     ecut=    80.00 Ry     beta= 0.60
     Davidson diagonalization with overlap
     c_bands:  4 eigenvalues not converged
     ethr =  1.54E-06,  avg # of iterations = 14.5

     total cpu time spent up to now is      649.1 secs

     WARNING: integrated charge=   175.99957566, expected=   176.00000000

     total energy              =   -1573.24276914 Ry
     Harris-Foulkes estimate   =   -1573.24293815 Ry
     estimated scf accuracy    <       0.00289073 Ry

     iteration # 21     ecut=    80.00 Ry     beta= 0.60
     Davidson diagonalization with overlap
     ethr =  1.54E-06,  avg # of iterations =  1.3

     total cpu time spent up to now is      669.3 secs

     WARNING: integrated charge=   175.99947977, expected=   176.00000000

     total energy              =   -1573.24269274 Ry
     Harris-Foulkes estimate   =   -1573.24279772 Ry
     estimated scf accuracy    <       0.00260725 Ry

     iteration # 22     ecut=    80.00 Ry     beta= 0.60
     Davidson diagonalization with overlap
     ethr =  1.48E-06,  avg # of iterations =  8.7

     total cpu time spent up to now is      693.6 secs

     WARNING: integrated charge=   175.99986431, expected=   176.00000000

     total energy              =   -1573.24271666 Ry
     Harris-Foulkes estimate   =   -1573.24279765 Ry
     estimated scf accuracy    <       0.00188502 Ry

     iteration # 23     ecut=    80.00 Ry     beta= 0.60
     Davidson diagonalization with overlap
     ethr =  1.07E-06,  avg # of iterations = 13.8

     total cpu time spent up to now is      722.3 secs

     WARNING: integrated charge=   175.99989694, expected=   176.00000000

     total energy              =   -1573.24268360 Ry
     Harris-Foulkes estimate   =   -1573.24322411 Ry
     estimated scf accuracy    <       0.00956231 Ry

     iteration # 24     ecut=    80.00 Ry     beta= 0.60
     Davidson diagonalization with overlap
     c_bands:  2 eigenvalues not converged
     ethr =  1.07E-06,  avg # of iterations = 11.8

     total cpu time spent up to now is      749.2 secs

     WARNING: integrated charge=   175.99985655, expected=   176.00000000

     total energy              =   -1573.24178926 Ry
     Harris-Foulkes estimate   =   -1573.24285172 Ry
     estimated scf accuracy    <       0.00269302 Ry

     iteration # 25     ecut=    80.00 Ry     beta= 0.60
     Davidson diagonalization with overlap
     ethr =  1.07E-06,  avg # of iterations = 10.0

     total cpu time spent up to now is      789.4 secs

     WARNING: integrated charge=   175.99992684, expected=   176.00000000

     total energy              =   -1573.21924540 Ry
     Harris-Foulkes estimate   =   -1573.25233540 Ry
     estimated scf accuracy    <       1.92489484 Ry

     iteration # 26     ecut=    80.00 Ry     beta= 0.60
     Davidson diagonalization with overlap
     ethr =  1.07E-06,  avg # of iterations =  9.7

     total cpu time spent up to now is      828.5 secs

     WARNING: integrated charge=   175.99995008, expected=   176.00000000

     total energy              =   -1573.24282340 Ry
     Harris-Foulkes estimate   =   -1573.24289838 Ry
     estimated scf accuracy    <       0.00210832 Ry

     iteration # 27     ecut=    80.00 Ry     beta= 0.60
     Davidson diagonalization with overlap
     ethr =  1.07E-06,  avg # of iterations =  1.3

     total cpu time spent up to now is      848.8 secs

     WARNING: integrated charge=   175.99995236, expected=   176.00000000

     total energy              =   -1573.24283672 Ry
     Harris-Foulkes estimate   =   -1573.24283573 Ry
     estimated scf accuracy    <       0.00149675 Ry

     iteration # 28     ecut=    80.00 Ry     beta= 0.60
     Davidson diagonalization with overlap
     ethr =  8.50E-07,  avg # of iterations =  1.0

     total cpu time spent up to now is      868.8 secs

     WARNING: integrated charge=   176.00004206, expected=   176.00000000

     total energy              =   -1573.24281667 Ry
     Harris-Foulkes estimate   =   -1573.24284150 Ry
     estimated scf accuracy    <       0.00161898 Ry

     iteration # 29     ecut=    80.00 Ry     beta= 0.60
     Davidson diagonalization with overlap
     ethr =  8.50E-07,  avg # of iterations = 13.0

     total cpu time spent up to now is      896.4 secs

     WARNING: integrated charge=   175.99997631, expected=   176.00000000

     total energy              =   -1573.24262312 Ry
     Harris-Foulkes estimate   =   -1573.24309129 Ry
     estimated scf accuracy    <       0.00696509 Ry

     iteration # 30     ecut=    80.00 Ry     beta= 0.60
     Davidson diagonalization with overlap
     c_bands:  2 eigenvalues not converged
     ethr =  8.50E-07,  avg # of iterations = 16.5

     total cpu time spent up to now is      926.7 secs

     WARNING: integrated charge=   175.99991994, expected=   176.00000000

     total energy              =   -1573.24280509 Ry
     Harris-Foulkes estimate   =   -1573.24294681 Ry
     estimated scf accuracy    <       0.00287541 Ry

     iteration # 31     ecut=    80.00 Ry     beta= 0.60
     Davidson diagonalization with overlap
     ethr =  8.50E-07,  avg # of iterations =  4.5

     total cpu time spent up to now is      948.7 secs

     WARNING: integrated charge=   175.99995804, expected=   176.00000000

     total energy              =   -1573.24271676 Ry
     Harris-Foulkes estimate   =   -1573.24282001 Ry
     estimated scf accuracy    <       0.00214759 Ry

     iteration # 32     ecut=    80.00 Ry     beta= 0.60
     Davidson diagonalization with overlap
     ethr =  8.50E-07,  avg # of iterations =  8.8

     total cpu time spent up to now is      973.6 secs

     WARNING: integrated charge=   175.99997691, expected=   176.00000000

     total energy              =   -1573.24280003 Ry
     Harris-Foulkes estimate   =   -1573.24283924 Ry
     estimated scf accuracy    <       0.00089659 Ry

     iteration # 33     ecut=    80.00 Ry     beta= 0.60
     Davidson diagonalization with overlap
     ethr =  5.09E-07,  avg # of iterations =  6.7

     total cpu time spent up to now is      996.7 secs

     WARNING: integrated charge=   175.99993219, expected=   176.00000000

     total energy              =   -1573.24280371 Ry
     Harris-Foulkes estimate   =   -1573.24281468 Ry
     estimated scf accuracy    <       0.00072198 Ry

     iteration # 34     ecut=    80.00 Ry     beta= 0.60
     Davidson diagonalization with overlap
     ethr =  4.10E-07,  avg # of iterations = 14.0

     total cpu time spent up to now is     1030.2 secs

     WARNING: integrated charge=   175.99994397, expected=   176.00000000

     total energy              =   -1573.24077077 Ry
     Harris-Foulkes estimate   =   -1573.24396375 Ry
     estimated scf accuracy    <       0.02406467 Ry

     iteration # 35     ecut=    80.00 Ry     beta= 0.60
     Davidson diagonalization with overlap
     ethr =  4.10E-07,  avg # of iterations = 10.0

     total cpu time spent up to now is     1066.1 secs

     WARNING: integrated charge=   175.99997487, expected=   176.00000000

     total energy              =   -1573.24220929 Ry
     Harris-Foulkes estimate   =   -1573.24338306 Ry
     estimated scf accuracy    <       0.01691801 Ry

     iteration # 36     ecut=    80.00 Ry     beta= 0.60
     Davidson diagonalization with overlap
     ethr =  4.10E-07,  avg # of iterations = 12.5

     total cpu time spent up to now is     1100.4 secs

     WARNING: integrated charge=   175.99997430, expected=   176.00000000

     total energy              =   -1573.24285388 Ry
     Harris-Foulkes estimate   =   -1573.24285086 Ry
     estimated scf accuracy    <       0.00028519 Ry

     iteration # 37     ecut=    80.00 Ry     beta= 0.60
     Davidson diagonalization with overlap
     ethr =  1.62E-07,  avg # of iterations =  1.3

     total cpu time spent up to now is     1120.6 secs

     WARNING: integrated charge=   175.99997997, expected=   176.00000000

     total energy              =   -1573.24283425 Ry
     Harris-Foulkes estimate   =   -1573.24285603 Ry
     estimated scf accuracy    <       0.00031012 Ry

     iteration # 38     ecut=    80.00 Ry     beta= 0.60
     Davidson diagonalization with overlap
     ethr =  1.62E-07,  avg # of iterations =  3.7

     total cpu time spent up to now is     1142.1 secs

     total energy              =   -1573.24279046 Ry
     Harris-Foulkes estimate   =   -1573.24283765 Ry
     estimated scf accuracy    <       0.00022766 Ry

     iteration # 39     ecut=    80.00 Ry     beta= 0.60
     Davidson diagonalization with overlap
     ethr =  1.29E-07,  avg # of iterations = 18.5

     total cpu time spent up to now is     1174.4 secs

     total energy              =   -1573.24278110 Ry
     Harris-Foulkes estimate   =   -1573.24289123 Ry
     estimated scf accuracy    <       0.00122233 Ry

     iteration # 40     ecut=    80.00 Ry     beta= 0.60
     Davidson diagonalization with overlap
     c_bands:  2 eigenvalues not converged
     c_bands:  1 eigenvalues not converged
     c_bands:  2 eigenvalues not converged
     ethr =  1.29E-07,  avg # of iterations = 17.7

     total cpu time spent up to now is     1205.4 secs

     total energy              =   -1573.24282766 Ry
     Harris-Foulkes estimate   =   -1573.24283182 Ry
     estimated scf accuracy    <       0.00006093 Ry

     iteration # 41     ecut=    80.00 Ry     beta= 0.60
     Davidson diagonalization with overlap
     c_bands:  2 eigenvalues not converged
     c_bands:  2 eigenvalues not converged
     c_bands:  3 eigenvalues not converged
     c_bands:  2 eigenvalues not converged
     c_bands:  1 eigenvalues not converged
     ethr =  3.46E-08,  avg # of iterations = 19.7

     total cpu time spent up to now is     1238.5 secs

     total energy              =   -1573.24283340 Ry
     Harris-Foulkes estimate   =   -1573.24284264 Ry
     estimated scf accuracy    <       0.00013799 Ry

     iteration # 42     ecut=    80.00 Ry     beta= 0.60
     Davidson diagonalization with overlap
     c_bands:  1 eigenvalues not converged
     ethr =  3.46E-08,  avg # of iterations =  8.3

     total cpu time spent up to now is     1262.8 secs

     total energy              =   -1573.24282058 Ry
     Harris-Foulkes estimate   =   -1573.24283544 Ry
     estimated scf accuracy    <       0.00008212 Ry

     iteration # 43     ecut=    80.00 Ry     beta= 0.60
     Davidson diagonalization with overlap
     ethr =  3.46E-08,  avg # of iterations = 16.3

     total cpu time spent up to now is     1293.9 secs

     total energy              =   -1573.24283178 Ry
     Harris-Foulkes estimate   =   -1573.24284097 Ry
     estimated scf accuracy    <       0.00013468 Ry

     iteration # 44     ecut=    80.00 Ry     beta= 0.60
     Davidson diagonalization with overlap
     c_bands:  2 eigenvalues not converged
     ethr =  3.46E-08,  avg # of iterations =  8.0

     total cpu time spent up to now is     1318.0 secs

     total energy              =   -1573.24283526 Ry
     Harris-Foulkes estimate   =   -1573.24283354 Ry
     estimated scf accuracy    <       0.00008328 Ry

     iteration # 45     ecut=    80.00 Ry     beta= 0.60
     Davidson diagonalization with overlap
     ethr =  3.46E-08,  avg # of iterations =  3.2

     total cpu time spent up to now is     1339.2 secs

     total energy              =   -1573.24282979 Ry
     Harris-Foulkes estimate   =   -1573.24283562 Ry
     estimated scf accuracy    <       0.00008648 Ry

     iteration # 46     ecut=    80.00 Ry     beta= 0.60
     Davidson diagonalization with overlap
     c_bands:  3 eigenvalues not converged
     c_bands:  1 eigenvalues not converged
     ethr =  3.46E-08,  avg # of iterations = 17.3

     total cpu time spent up to now is     1369.8 secs

     total energy              =   -1573.24283762 Ry
     Harris-Foulkes estimate   =   -1573.24284004 Ry
     estimated scf accuracy    <       0.00012976 Ry

     iteration # 47     ecut=    80.00 Ry     beta= 0.60
     Davidson diagonalization with overlap
     ethr =  3.46E-08,  avg # of iterations =  1.5

     total cpu time spent up to now is     1390.1 secs

     total energy              =   -1573.24283394 Ry
     Harris-Foulkes estimate   =   -1573.24283800 Ry
     estimated scf accuracy    <       0.00012592 Ry

     iteration # 48     ecut=    80.00 Ry     beta= 0.60
     Davidson diagonalization with overlap
     ethr =  3.46E-08,  avg # of iterations = 10.7

     total cpu time spent up to now is     1416.2 secs

     total energy              =   -1573.24283020 Ry
     Harris-Foulkes estimate   =   -1573.24283830 Ry
     estimated scf accuracy    <       0.00011529 Ry

     iteration # 49     ecut=    80.00 Ry     beta= 0.60
     Davidson diagonalization with overlap
     c_bands:  1 eigenvalues not converged
     ethr =  3.46E-08,  avg # of iterations = 10.0

     total cpu time spent up to now is     1441.3 secs

     total energy              =   -1573.24283133 Ry
     Harris-Foulkes estimate   =   -1573.24283247 Ry
     estimated scf accuracy    <       0.00003106 Ry

     iteration # 50     ecut=    80.00 Ry     beta= 0.60
     Davidson diagonalization with overlap
     ethr =  1.76E-08,  avg # of iterations = 14.8

     total cpu time spent up to now is     1469.4 secs

     total energy              =   -1573.24283339 Ry
     Harris-Foulkes estimate   =   -1573.24283364 Ry
     estimated scf accuracy    <       0.00000865 Ry

     iteration # 51     ecut=    80.00 Ry     beta= 0.60
     Davidson diagonalization with overlap
     c_bands:  1 eigenvalues not converged
     ethr =  4.92E-09,  avg # of iterations = 12.2

     total cpu time spent up to now is     1499.3 secs

     WARNING: integrated charge=   175.99991946, expected=   176.00000000

     total energy              =   -1573.24283253 Ry
     Harris-Foulkes estimate   =   -1573.24283458 Ry
     estimated scf accuracy    <       0.00216556 Ry

     iteration # 52     ecut=    80.00 Ry     beta= 0.60
     Davidson diagonalization with overlap
     ethr =  4.92E-09,  avg # of iterations =  3.5

     total cpu time spent up to now is     1523.9 secs

     WARNING: integrated charge=   175.99993150, expected=   176.00000000

     total energy              =   -1573.24283452 Ry
     Harris-Foulkes estimate   =   -1573.24283479 Ry
     estimated scf accuracy    <       0.00000666 Ry

     iteration # 53     ecut=    80.00 Ry     beta= 0.60
     Davidson diagonalization with overlap
     ethr =  3.78E-09,  avg # of iterations =  1.2

     total cpu time spent up to now is     1544.6 secs

     WARNING: integrated charge=   175.99997534, expected=   176.00000000

     total energy              =   -1573.24283386 Ry
     Harris-Foulkes estimate   =   -1573.24283456 Ry
     estimated scf accuracy    <       0.00000615 Ry

     iteration # 54     ecut=    80.00 Ry     beta= 0.60
     Davidson diagonalization with overlap
     c_bands:  3 eigenvalues not converged
     ethr =  3.49E-09,  avg # of iterations = 14.3

     total cpu time spent up to now is     1573.4 secs

     total energy              =   -1573.24283462 Ry
     Harris-Foulkes estimate   =   -1573.24283461 Ry
     estimated scf accuracy    <       0.00000475 Ry

     iteration # 55     ecut=    80.00 Ry     beta= 0.60
     Davidson diagonalization with overlap
     c_bands:  2 eigenvalues not converged
     ethr =  2.70E-09,  avg # of iterations =  6.5

     total cpu time spent up to now is     1596.7 secs

     total energy              =   -1573.24283454 Ry
     Harris-Foulkes estimate   =   -1573.24283476 Ry
     estimated scf accuracy    <       0.00000653 Ry

     iteration # 56     ecut=    80.00 Ry     beta= 0.60
     Davidson diagonalization with overlap
     ethr =  2.70E-09,  avg # of iterations =  3.8

     total cpu time spent up to now is     1618.3 secs

     total energy              =   -1573.24283426 Ry
     Harris-Foulkes estimate   =   -1573.24283468 Ry
     estimated scf accuracy    <       0.00000735 Ry

     iteration # 57     ecut=    80.00 Ry     beta= 0.60
     Davidson diagonalization with overlap
     c_bands:  2 eigenvalues not converged
     ethr =  2.70E-09,  avg # of iterations = 14.5

     total cpu time spent up to now is     1646.7 secs

     WARNING: integrated charge=   175.99987006, expected=   176.00000000

     total energy              =   -1573.24283397 Ry
     Harris-Foulkes estimate   =   -1573.24283476 Ry
     estimated scf accuracy    <       0.00000672 Ry

     iteration # 58     ecut=    80.00 Ry     beta= 0.60
     Davidson diagonalization with overlap
     c_bands:  4 eigenvalues not converged
     ethr =  2.70E-09,  avg # of iterations = 13.0

     total cpu time spent up to now is     1674.6 secs

     WARNING: integrated charge=   175.99995820, expected=   176.00000000

     total energy              =   -1573.24283437 Ry
     Harris-Foulkes estimate   =   -1573.24283445 Ry
     estimated scf accuracy    <       0.00000023 Ry

     iteration # 59     ecut=    80.00 Ry     beta= 0.60
     Davidson diagonalization with overlap
     ethr =  1.28E-10,  avg # of iterations = 12.8

     total cpu time spent up to now is     1708.8 secs

     WARNING: integrated charge=   175.99997746, expected=   176.00000000

     total energy              =   -1573.24283438 Ry
     Harris-Foulkes estimate   =   -1573.24283458 Ry
     estimated scf accuracy    <       0.00000170 Ry

     iteration # 60     ecut=    80.00 Ry     beta= 0.60
     Davidson diagonalization with overlap
     ethr =  1.28E-10,  avg # of iterations = 12.7

     total cpu time spent up to now is     1740.7 secs

     WARNING: integrated charge=   175.99997552, expected=   176.00000000

     total energy              =   -1573.24283436 Ry
     Harris-Foulkes estimate   =   -1573.24283459 Ry
     estimated scf accuracy    <       0.00000363 Ry

     iteration # 61     ecut=    80.00 Ry     beta= 0.60
     Davidson diagonalization with overlap
     c_bands:  4 eigenvalues not converged
     c_bands:  3 eigenvalues not converged
     ethr =  1.28E-10,  avg # of iterations = 16.8

     total cpu time spent up to now is     1772.4 secs

     total energy              =   -1573.24283447 Ry
     Harris-Foulkes estimate   =   -1573.24283448 Ry
     estimated scf accuracy    <       0.00000023 Ry

     iteration # 62     ecut=    80.00 Ry     beta= 0.60
     Davidson diagonalization with overlap
     ethr =  1.28E-10,  avg # of iterations =  1.7

     total cpu time spent up to now is     1792.8 secs

     WARNING: integrated charge=   176.00002537, expected=   176.00000000

     total energy              =   -1573.24283442 Ry
     Harris-Foulkes estimate   =   -1573.24283447 Ry
     estimated scf accuracy    <       0.00000019 Ry

     iteration # 63     ecut=    80.00 Ry     beta= 0.60
     Davidson diagonalization with overlap
     ethr =  1.07E-10,  avg # of iterations = 15.0

     total cpu time spent up to now is     1825.6 secs

     total energy              =   -1573.24283438 Ry
     Harris-Foulkes estimate   =   -1573.24283460 Ry
     estimated scf accuracy    <       0.00000323 Ry

     iteration # 64     ecut=    80.00 Ry     beta= 0.60
     Davidson diagonalization with overlap
     c_bands:  3 eigenvalues not converged
     c_bands:  3 eigenvalues not converged
     c_bands:  1 eigenvalues not converged
     ethr =  1.07E-10,  avg # of iterations = 18.2

     total cpu time spent up to now is     1858.2 secs

     End of self-consistent calculation

          k = 0.0000 0.0000 0.0000 ( 78943 PWs)   bands (ev):

   -19.5411 -19.5411 -19.5359 -19.5359 -19.4316 -19.4316 -19.4315 -19.4315
   -19.4315 -19.4315 -19.4314 -19.4314 -19.4173 -19.4173 -19.4173 -19.4173
   -19.3736 -19.3736 -19.3616 -19.3616 -19.2747 -19.2747 -19.2683 -19.2683
   -18.3950 -18.3950 -18.3950 -18.3950 -18.3949 -18.3949 -18.3949 -18.3949
   -18.3832 -18.3832 -18.3832 -18.3832 -18.3766 -18.3766 -18.3765 -18.3765
   -18.3763 -18.3763 -18.3763 -18.3763 -18.3467 -18.3467 -18.3462 -18.3462
   -11.2997 -11.2997 -11.2979 -11.2979 -11.2733 -11.2733 -11.2724 -11.2724
    -9.1941  -9.1941  -9.1837  -9.1837  -9.1632  -9.1632  -9.1613  -9.1613
    -7.6891  -7.6891  -7.6643  -7.6643  -7.6594  -7.6594  -7.6585  -7.6585
    -7.1983  -7.1983  -7.0709  -7.0709  -7.0304  -7.0304  -6.8038  -6.8038
    -6.1513  -6.1513  -5.9444  -5.9444  -5.8577  -5.8577  -5.8372  -5.8372
    -5.4909  -5.4909  -5.3690  -5.3690  -4.9350  -4.9350  -4.9274  -4.9274
    -3.6008  -3.6008  -3.5917  -3.5917  -2.3565  -2.3565  -2.3324  -2.3324
    -0.4284  -0.4284  -0.3358  -0.3358  -0.2100  -0.2100  -0.0739  -0.0739
     0.1774   0.1774   0.4598   0.4598   0.4706   0.4706   0.4786   0.4786
     0.5796   0.5796   0.6450   0.6450   0.6551   0.6551   0.8408   0.8408
     0.8822   0.8822   0.8851   0.8851   1.3445   1.3445   1.3685   1.3685
     1.3960   1.3960   1.3979   1.3979   1.5449   1.5449   1.6001   1.6001
     1.6079   1.6079   1.6158   1.6158   1.8672   1.8672   1.9555   1.9555
     1.9584   1.9584   2.3000   2.3000   2.3135   2.3135   2.4896   2.4896
     2.5502   2.5502   2.5577   2.5577   2.6031   2.6031   2.8536   2.8536
     2.8931   2.8931   2.9781   2.9781   3.6346   3.6346   3.7789   3.7797

     occupation numbers 
     1.0000   1.0000   1.0000   1.0000   1.0000   1.0000   1.0000   1.0000
     1.0000   1.0000   1.0000   1.0000   1.0000   1.0000   1.0000   1.0000
     1.0000   1.0000   1.0000   1.0000   1.0000   1.0000   1.0000   1.0000
     1.0000   1.0000   1.0000   1.0000   1.0000   1.0000   1.0000   1.0000
     1.0000   1.0000   1.0000   1.0000   1.0000   1.0000   1.0000   1.0000
     1.0000   1.0000   1.0000   1.0000   1.0000   1.0000   1.0000   1.0000
     1.0000   1.0000   1.0000   1.0000   1.0000   1.0000   1.0000   1.0000
     1.0000   1.0000   1.0000   1.0000   1.0000   1.0000   1.0000   1.0000
     1.0000   1.0000   1.0000   1.0000   1.0000   1.0000   1.0000   1.0000
     1.0000   1.0000   1.0000   1.0000   1.0000   1.0000   1.0000   1.0000
     1.0000   1.0000   1.0000   1.0000   1.0000   1.0000   1.0000   1.0000
     1.0000   1.0000   1.0000   1.0000   1.0000   1.0000   1.0000   1.0000
     1.0000   1.0000   1.0000   1.0000   1.0000   1.0000   1.0000   1.0000
     1.0000   1.0000   1.0000   1.0000   1.0000   1.0000   1.0000   1.0000
     1.0000   1.0000   1.0000   1.0000   1.0000   1.0000   1.0000   1.0000
     1.0000   1.0000   1.0000   1.0000   1.0000   1.0000   1.0000   1.0000
     1.0000   1.0000   1.0000   1.0000   1.0000   1.0000   1.0000   1.0000
     1.0000   1.0000   1.0000   1.0000   1.0000   1.0000   1.0000   1.0000
     1.0000   1.0000   1.0000   1.0000   1.0000   1.0000   1.0000   1.0000
     1.0000   1.0000   1.0000   1.0000   1.0000   1.0000   1.0000   1.0000
     1.0000   1.0000   1.0000   1.0000   1.0000   1.0000   1.0000   1.0000
     1.0000   1.0000   1.0000   1.0000   1.0000   1.0000   1.0000   1.0000

          k = 0.0000 0.0000-0.3497 ( 78844 PWs)   bands (ev):

   -19.4977 -19.4977 -19.4977 -19.4977 -19.4930 -19.4930 -19.4930 -19.4930
   -19.4315 -19.4315 -19.4315 -19.4315 -19.4314 -19.4314 -19.4314 -19.4314
   -19.3057 -19.3057 -19.3057 -19.3057 -19.2987 -19.2987 -19.2986 -19.2986
   -18.3950 -18.3950 -18.3950 -18.3950 -18.3949 -18.3949 -18.3949 -18.3949
   -18.3765 -18.3765 -18.3764 -18.3764 -18.3764 -18.3764 -18.3764 -18.3764
   -18.3649 -18.3649 -18.3649 -18.3649 -18.3646 -18.3646 -18.3646 -18.3646
   -11.2988 -11.2988 -11.2988 -11.2988 -11.2728 -11.2728 -11.2728 -11.2728
    -9.1890  -9.1890  -9.1890  -9.1890  -9.1623  -9.1623  -9.1623  -9.1623
    -7.6730  -7.6730  -7.6730  -7.6730  -7.6619  -7.6619  -7.6618  -7.6618
    -7.1350  -7.1350  -7.1350  -7.1350  -6.9226  -6.9226  -6.9226  -6.9226
    -6.0684  -6.0684  -6.0684  -6.0684  -5.8482  -5.8482  -5.8482  -5.8482
    -5.4473  -5.4473  -5.4473  -5.4473  -4.9315  -4.9315  -4.9315  -4.9315
    -3.0168  -3.0168  -3.0168  -3.0168  -2.9967  -2.9967  -2.9967  -2.9967
    -0.3782  -0.3782  -0.3782  -0.3782  -0.1384  -0.1384  -0.1384  -0.1384
     0.3220   0.3220   0.3220   0.3220   0.4882   0.4882   0.4882   0.4882
     0.5439   0.5439   0.5439   0.5439   0.7402   0.7402   0.7402   0.7402
     0.8887   0.8887   0.8887   0.8887   1.3771   1.3771   1.3771   1.3771
     1.4292   1.4292   1.4292   1.4292   1.5697   1.5697   1.5697   1.5697
     1.6195   1.6195   1.6195   1.6195   1.8536   1.8536   1.8536   1.8536
     2.1568   2.1568   2.1568   2.1568   2.5303   2.5303   2.5303   2.5303
     2.7101   2.7101   2.7101   2.7101   2.7740   2.7740   2.7740   2.7740
     3.6221   3.6221   3.6221   3.6221   3.6712   3.6712   3.6712   3.6712

     occupation numbers 
     1.0000   1.0000   1.0000   1.0000   1.0000   1.0000   1.0000   1.0000
     1.0000   1.0000   1.0000   1.0000   1.0000   1.0000   1.0000   1.0000
     1.0000   1.0000   1.0000   1.0000   1.0000   1.0000   1.0000   1.0000
     1.0000   1.0000   1.0000   1.0000   1.0000   1.0000   1.0000   1.0000
     1.0000   1.0000   1.0000   1.0000   1.0000   1.0000   1.0000   1.0000
     1.0000   1.0000   1.0000   1.0000   1.0000   1.0000   1.0000   1.0000
     1.0000   1.0000   1.0000   1.0000   1.0000   1.0000   1.0000   1.0000
     1.0000   1.0000   1.0000   1.0000   1.0000   1.0000   1.0000   1.0000
     1.0000   1.0000   1.0000   1.0000   1.0000   1.0000   1.0000   1.0000
     1.0000   1.0000   1.0000   1.0000   1.0000   1.0000   1.0000   1.0000
     1.0000   1.0000   1.0000   1.0000   1.0000   1.0000   1.0000   1.0000
     1.0000   1.0000   1.0000   1.0000   1.0000   1.0000   1.0000   1.0000
     1.0000   1.0000   1.0000   1.0000   1.0000   1.0000   1.0000   1.0000
     1.0000   1.0000   1.0000   1.0000   1.0000   1.0000   1.0000   1.0000
     1.0000   1.0000   1.0000   1.0000   1.0000   1.0000   1.0000   1.0000
     1.0000   1.0000   1.0000   1.0000   1.0000   1.0000   1.0000   1.0000
     1.0000   1.0000   1.0000   1.0000   1.0000   1.0000   1.0000   1.0000
     1.0000   1.0000   1.0000   1.0000   1.0000   1.0000   1.0000   1.0000
     1.0000   1.0000   1.0000   1.0000   1.0000   1.0000   1.0000   1.0000
     1.0000   1.0000   1.0000   1.0000   1.0000   1.0000   1.0000   1.0000
     1.0000   1.0000   1.0000   1.0000   1.0000   1.0000   1.0000   1.0000
     1.0000   1.0000   1.0000   1.0000   1.0000   1.0000   1.0000   1.0000

          k = 0.0000 0.3333 0.0000 ( 78787 PWs)   bands (ev):

   -19.5398 -19.5398 -19.5372 -19.5372 -19.4316 -19.4316 -19.4315 -19.4315
   -19.4315 -19.4315 -19.4314 -19.4314 -19.4173 -19.4173 -19.4173 -19.4173
   -19.3706 -19.3706 -19.3646 -19.3646 -19.2732 -19.2732 -19.2700 -19.2700
   -18.3950 -18.3950 -18.3950 -18.3950 -18.3949 -18.3949 -18.3949 -18.3949
   -18.3832 -18.3832 -18.3832 -18.3832 -18.3766 -18.3766 -18.3765 -18.3765
   -18.3763 -18.3763 -18.3763 -18.3763 -18.3466 -18.3466 -18.3463 -18.3463
   -11.2910 -11.2910 -11.2899 -11.2899 -11.2775 -11.2775 -11.2773 -11.2773
    -9.1999  -9.1999  -9.1942  -9.1942  -9.1841  -9.1841  -9.1836  -9.1836
    -7.6786  -7.6786  -7.6658  -7.6658  -7.6638  -7.6638  -7.6626  -7.6626
    -7.1408  -7.1408  -7.0605  -7.0605  -6.9808  -6.9808  -6.8495  -6.8495
    -6.0145  -6.0145  -5.8299  -5.8299  -5.7242  -5.7242  -5.6338  -5.6338
    -5.5990  -5.5990  -5.5342  -5.5342  -5.1824  -5.1824  -5.1742  -5.1742
    -3.6056  -3.6056  -3.6009  -3.6009  -2.3611  -2.3611  -2.3496  -2.3496
    -0.2740  -0.2740  -0.2146  -0.2146  -0.1423  -0.1423  -0.0697  -0.0697
     0.3491   0.3491   0.5346   0.5346   0.5610   0.5610   0.6108   0.6108
     0.6345   0.6345   0.6705   0.6705   0.7056   0.7056   0.7783   0.7783
     0.8832   0.8832   0.9007   0.9007   1.0303   1.0303   1.0898   1.0898
     1.4379   1.4379   1.4642   1.4642   1.5621   1.5621   1.6209   1.6209
     1.6622   1.6622   1.8042   1.8042   1.8931   1.8931   1.9930   1.9930
     2.2064   2.2064   2.3779   2.3779   2.4684   2.4684   2.4888   2.4888
     2.5272   2.5272   2.6317   2.6317   2.6863   2.6863   2.8655   2.8655
     2.8734   2.8734   2.9223   2.9223   3.4355   3.4355   3.5226   3.5226

     occupation numbers 
     1.0000   1.0000   1.0000   1.0000   1.0000   1.0000   1.0000   1.0000
     1.0000   1.0000   1.0000   1.0000   1.0000   1.0000   1.0000   1.0000
     1.0000   1.0000   1.0000   1.0000   1.0000   1.0000   1.0000   1.0000
     1.0000   1.0000   1.0000   1.0000   1.0000   1.0000   1.0000   1.0000
     1.0000   1.0000   1.0000   1.0000   1.0000   1.0000   1.0000   1.0000
     1.0000   1.0000   1.0000   1.0000   1.0000   1.0000   1.0000   1.0000
     1.0000   1.0000   1.0000   1.0000   1.0000   1.0000   1.0000   1.0000
     1.0000   1.0000   1.0000   1.0000   1.0000   1.0000   1.0000   1.0000
     1.0000   1.0000   1.0000   1.0000   1.0000   1.0000   1.0000   1.0000
     1.0000   1.0000   1.0000   1.0000   1.0000   1.0000   1.0000   1.0000
     1.0000   1.0000   1.0000   1.0000   1.0000   1.0000   1.0000   1.0000
     1.0000   1.0000   1.0000   1.0000   1.0000   1.0000   1.0000   1.0000
     1.0000   1.0000   1.0000   1.0000   1.0000   1.0000   1.0000   1.0000
     1.0000   1.0000   1.0000   1.0000   1.0000   1.0000   1.0000   1.0000
     1.0000   1.0000   1.0000   1.0000   1.0000   1.0000   1.0000   1.0000
     1.0000   1.0000   1.0000   1.0000   1.0000   1.0000   1.0000   1.0000
     1.0000   1.0000   1.0000   1.0000   1.0000   1.0000   1.0000   1.0000
     1.0000   1.0000   1.0000   1.0000   1.0000   1.0000   1.0000   1.0000
     1.0000   1.0000   1.0000   1.0000   1.0000   1.0000   1.0000   1.0000
     1.0000   1.0000   1.0000   1.0000   1.0000   1.0000   1.0000   1.0000
     1.0000   1.0000   1.0000   1.0000   1.0000   1.0000   1.0000   1.0000
     1.0000   1.0000   1.0000   1.0000   1.0000   1.0000   1.0000   1.0000

          k = 0.0000 0.3333-0.3497 ( 78796 PWs)   bands (ev):

   -19.4965 -19.4965 -19.4965 -19.4965 -19.4942 -19.4942 -19.4941 -19.4941
   -19.4315 -19.4315 -19.4315 -19.4315 -19.4314 -19.4314 -19.4314 -19.4314
   -19.3040 -19.3040 -19.3040 -19.3040 -19.3005 -19.3005 -19.3005 -19.3005
   -18.3950 -18.3950 -18.3950 -18.3950 -18.3949 -18.3949 -18.3949 -18.3949
   -18.3765 -18.3765 -18.3764 -18.3764 -18.3764 -18.3764 -18.3764 -18.3764
   -18.3649 -18.3649 -18.3648 -18.3648 -18.3647 -18.3647 -18.3647 -18.3647
   -11.2905 -11.2905 -11.2905 -11.2905 -11.2774 -11.2774 -11.2774 -11.2774
    -9.1971  -9.1971  -9.1971  -9.1971  -9.1839  -9.1839  -9.1839  -9.1839
    -7.6701  -7.6701  -7.6701  -7.6701  -7.6647  -7.6647  -7.6647  -7.6647
    -7.0621  -7.0621  -7.0621  -7.0621  -6.9592  -6.9592  -6.9592  -6.9592
    -5.9424  -5.9424  -5.9424  -5.9424  -5.6783  -5.6783  -5.6783  -5.6783
    -5.5858  -5.5858  -5.5858  -5.5858  -5.1785  -5.1785  -5.1785  -5.1785
    -3.0200  -3.0199  -3.0199  -3.0199  -3.0101  -3.0101  -3.0101  -3.0100
    -0.2415  -0.2415  -0.2415  -0.2415  -0.1049  -0.1049  -0.1049  -0.1049
     0.4397   0.4397   0.4397   0.4397   0.5867   0.5867   0.5867   0.5867
     0.6683   0.6683   0.6683   0.6683   0.7220   0.7220   0.7220   0.7220
     0.8681   0.8681   0.8681   0.8681   1.0673   1.0673   1.0673   1.0673
     1.4716   1.4716   1.4716   1.4716   1.5510   1.5510   1.5510   1.5510
     1.8055   1.8055   1.8055   1.8055   1.8800   1.8800   1.8800   1.8800
     2.3361   2.3361   2.3361   2.3361   2.5223   2.5223   2.5223   2.5223
     2.7766   2.7766   2.7766   2.7766   2.8325   2.8325   2.8325   2.8325
     3.4044   3.4044   3.4044   3.4044   3.5365   3.5365   3.5366   3.5366

     occupation numbers 
     1.0000   1.0000   1.0000   1.0000   1.0000   1.0000   1.0000   1.0000
     1.0000   1.0000   1.0000   1.0000   1.0000   1.0000   1.0000   1.0000
     1.0000   1.0000   1.0000   1.0000   1.0000   1.0000   1.0000   1.0000
     1.0000   1.0000   1.0000   1.0000   1.0000   1.0000   1.0000   1.0000
     1.0000   1.0000   1.0000   1.0000   1.0000   1.0000   1.0000   1.0000
     1.0000   1.0000   1.0000   1.0000   1.0000   1.0000   1.0000   1.0000
     1.0000   1.0000   1.0000   1.0000   1.0000   1.0000   1.0000   1.0000
     1.0000   1.0000   1.0000   1.0000   1.0000   1.0000   1.0000   1.0000
     1.0000   1.0000   1.0000   1.0000   1.0000   1.0000   1.0000   1.0000
     1.0000   1.0000   1.0000   1.0000   1.0000   1.0000   1.0000   1.0000
     1.0000   1.0000   1.0000   1.0000   1.0000   1.0000   1.0000   1.0000
     1.0000   1.0000   1.0000   1.0000   1.0000   1.0000   1.0000   1.0000
     1.0000   1.0000   1.0000   1.0000   1.0000   1.0000   1.0000   1.0000
     1.0000   1.0000   1.0000   1.0000   1.0000   1.0000   1.0000   1.0000
     1.0000   1.0000   1.0000   1.0000   1.0000   1.0000   1.0000   1.0000
     1.0000   1.0000   1.0000   1.0000   1.0000   1.0000   1.0000   1.0000
     1.0000   1.0000   1.0000   1.0000   1.0000   1.0000   1.0000   1.0000
     1.0000   1.0000   1.0000   1.0000   1.0000   1.0000   1.0000   1.0000
     1.0000   1.0000   1.0000   1.0000   1.0000   1.0000   1.0000   1.0000
     1.0000   1.0000   1.0000   1.0000   1.0000   1.0000   1.0000   1.0000
     1.0000   1.0000   1.0000   1.0000   1.0000   1.0000   1.0000   1.0000
     1.0000   1.0000   1.0000   1.0000   1.0000   1.0000   1.0000   1.0000

          k = 0.3333 0.3333 0.0000 ( 78806 PWs)   bands (ev):

   -19.5391 -19.5391 -19.5378 -19.5378 -19.4316 -19.4316 -19.4315 -19.4315
   -19.4315 -19.4315 -19.4314 -19.4314 -19.4173 -19.4173 -19.4173 -19.4173
   -19.3691 -19.3691 -19.3661 -19.3661 -19.2724 -19.2724 -19.2708 -19.2708
   -18.3950 -18.3950 -18.3950 -18.3950 -18.3949 -18.3949 -18.3949 -18.3949
   -18.3832 -18.3832 -18.3832 -18.3832 -18.3766 -18.3766 -18.3765 -18.3765
   -18.3763 -18.3763 -18.3763 -18.3763 -18.3465 -18.3465 -18.3464 -18.3464
   -11.2898 -11.2898 -11.2886 -11.2886 -11.2824 -11.2824 -11.2819 -11.2819
    -9.1899  -9.1899  -9.1894  -9.1894  -9.1732  -9.1732  -9.1705  -9.1705
    -7.6724  -7.6724  -7.6684  -7.6684  -7.6669  -7.6669  -7.6644  -7.6644
    -7.1335  -7.1335  -7.0903  -7.0903  -6.9673  -6.9673  -6.8959  -6.8959
    -6.0625  -6.0625  -5.9301  -5.9301  -5.8863  -5.8863  -5.7698  -5.7698
    -5.3610  -5.3610  -5.3381  -5.3381  -5.1311  -5.1311  -5.1130  -5.1130
    -3.6144  -3.6144  -3.6120  -3.6120  -2.3668  -2.3668  -2.3608  -2.3608
    -0.2461  -0.2461  -0.2181  -0.2181  -0.1455  -0.1455  -0.1221  -0.1221
     0.4751   0.4751   0.5650   0.5650   0.5839   0.5839   0.5929   0.5929
     0.6023   0.6023   0.6695   0.6695   0.7333   0.7333   0.7491   0.7491
     0.8866   0.8866   0.8896   0.8896   0.9335   0.9335   1.0015   1.0015
     1.2291   1.2291   1.3870   1.3870   1.5482   1.5482   1.5760   1.5760
     1.7506   1.7506   1.8176   1.8176   1.9522   1.9522   2.0053   2.0053
     2.3897   2.3897   2.4613   2.4613   2.5164   2.5164   2.5829   2.5829
     2.6183   2.6183   2.7033   2.7033   2.7428   2.7428   2.8192   2.8192
     2.8937   2.8937   2.9109   2.9109   3.4742   3.4742   3.4829   3.4829

     occupation numbers 
     1.0000   1.0000   1.0000   1.0000   1.0000   1.0000   1.0000   1.0000
     1.0000   1.0000   1.0000   1.0000   1.0000   1.0000   1.0000   1.0000
     1.0000   1.0000   1.0000   1.0000   1.0000   1.0000   1.0000   1.0000
     1.0000   1.0000   1.0000   1.0000   1.0000   1.0000   1.0000   1.0000
     1.0000   1.0000   1.0000   1.0000   1.0000   1.0000   1.0000   1.0000
     1.0000   1.0000   1.0000   1.0000   1.0000   1.0000   1.0000   1.0000
     1.0000   1.0000   1.0000   1.0000   1.0000   1.0000   1.0000   1.0000
     1.0000   1.0000   1.0000   1.0000   1.0000   1.0000   1.0000   1.0000
     1.0000   1.0000   1.0000   1.0000   1.0000   1.0000   1.0000   1.0000
     1.0000   1.0000   1.0000   1.0000   1.0000   1.0000   1.0000   1.0000
     1.0000   1.0000   1.0000   1.0000   1.0000   1.0000   1.0000   1.0000
     1.0000   1.0000   1.0000   1.0000   1.0000   1.0000   1.0000   1.0000
     1.0000   1.0000   1.0000   1.0000   1.0000   1.0000   1.0000   1.0000
     1.0000   1.0000   1.0000   1.0000   1.0000   1.0000   1.0000   1.0000
     1.0000   1.0000   1.0000   1.0000   1.0000   1.0000   1.0000   1.0000
     1.0000   1.0000   1.0000   1.0000   1.0000   1.0000   1.0000   1.0000
     1.0000   1.0000   1.0000   1.0000   1.0000   1.0000   1.0000   1.0000
     1.0000   1.0000   1.0000   1.0000   1.0000   1.0000   1.0000   1.0000
     1.0000   1.0000   1.0000   1.0000   1.0000   1.0000   1.0000   1.0000
     1.0000   1.0000   1.0000   1.0000   1.0000   1.0000   1.0000   1.0000
     1.0000   1.0000   1.0000   1.0000   1.0000   1.0000   1.0000   1.0000
     1.0000   1.0000   1.0000   1.0000   1.0000   1.0000   1.0000   1.0000

          k = 0.3333 0.3333-0.3497 ( 78768 PWs)   bands (ev):

   -19.4959 -19.4959 -19.4959 -19.4959 -19.4947 -19.4947 -19.4947 -19.4947
   -19.4315 -19.4315 -19.4315 -19.4315 -19.4314 -19.4314 -19.4314 -19.4314
   -19.3031 -19.3031 -19.3031 -19.3031 -19.3014 -19.3014 -19.3013 -19.3013
   -18.3950 -18.3950 -18.3950 -18.3950 -18.3949 -18.3949 -18.3949 -18.3949
   -18.3765 -18.3765 -18.3764 -18.3764 -18.3764 -18.3764 -18.3764 -18.3764
   -18.3648 -18.3648 -18.3648 -18.3648 -18.3647 -18.3647 -18.3647 -18.3647
   -11.2891 -11.2891 -11.2891 -11.2891 -11.2822 -11.2822 -11.2822 -11.2822
    -9.1896  -9.1896  -9.1896  -9.1896  -9.1719  -9.1719  -9.1719  -9.1719
    -7.6692  -7.6692  -7.6692  -7.6692  -7.6665  -7.6665  -7.6665  -7.6665
    -7.0517  -7.0517  -7.0517  -7.0517  -6.9951  -6.9951  -6.9951  -6.9951
    -6.0028  -6.0028  -6.0028  -6.0028  -5.8534  -5.8534  -5.8534  -5.8534
    -5.3546  -5.3546  -5.3546  -5.3546  -5.1269  -5.1269  -5.1269  -5.1269
    -3.0264  -3.0264  -3.0264  -3.0264  -3.0206  -3.0206  -3.0206  -3.0206
    -0.2302  -0.2302  -0.2302  -0.2302  -0.1318  -0.1318  -0.1318  -0.1318
     0.5188   0.5188   0.5188   0.5188   0.6007   0.6007   0.6007   0.6007
     0.6362   0.6362   0.6362   0.6362   0.7608   0.7608   0.7608   0.7608
     0.8480   0.8480   0.8480   0.8480   0.9645   0.9645   0.9645   0.9645
     1.3578   1.3578   1.3578   1.3578   1.4248   1.4248   1.4248   1.4248
     1.9075   1.9075   1.9075   1.9075   1.9526   1.9526   1.9526   1.9526
     2.4938   2.4938   2.4938   2.4938   2.6144   2.6144   2.6144   2.6144
     2.7956   2.7956   2.7956   2.7956   2.8469   2.8469   2.8469   2.8469
     3.4347   3.4347   3.4347   3.4347   3.4717   3.4717   3.4717   3.4717

     occupation numbers 
     1.0000   1.0000   1.0000   1.0000   1.0000   1.0000   1.0000   1.0000
     1.0000   1.0000   1.0000   1.0000   1.0000   1.0000   1.0000   1.0000
     1.0000   1.0000   1.0000   1.0000   1.0000   1.0000   1.0000   1.0000
     1.0000   1.0000   1.0000   1.0000   1.0000   1.0000   1.0000   1.0000
     1.0000   1.0000   1.0000   1.0000   1.0000   1.0000   1.0000   1.0000
     1.0000   1.0000   1.0000   1.0000   1.0000   1.0000   1.0000   1.0000
     1.0000   1.0000   1.0000   1.0000   1.0000   1.0000   1.0000   1.0000
     1.0000   1.0000   1.0000   1.0000   1.0000   1.0000   1.0000   1.0000
     1.0000   1.0000   1.0000   1.0000   1.0000   1.0000   1.0000   1.0000
     1.0000   1.0000   1.0000   1.0000   1.0000   1.0000   1.0000   1.0000
     1.0000   1.0000   1.0000   1.0000   1.0000   1.0000   1.0000   1.0000
     1.0000   1.0000   1.0000   1.0000   1.0000   1.0000   1.0000   1.0000
     1.0000   1.0000   1.0000   1.0000   1.0000   1.0000   1.0000   1.0000
     1.0000   1.0000   1.0000   1.0000   1.0000   1.0000   1.0000   1.0000
     1.0000   1.0000   1.0000   1.0000   1.0000   1.0000   1.0000   1.0000
     1.0000   1.0000   1.0000   1.0000   1.0000   1.0000   1.0000   1.0000
     1.0000   1.0000   1.0000   1.0000   1.0000   1.0000   1.0000   1.0000
     1.0000   1.0000   1.0000   1.0000   1.0000   1.0000   1.0000   1.0000
     1.0000   1.0000   1.0000   1.0000   1.0000   1.0000   1.0000   1.0000
     1.0000   1.0000   1.0000   1.0000   1.0000   1.0000   1.0000   1.0000
     1.0000   1.0000   1.0000   1.0000   1.0000   1.0000   1.0000   1.0000
     1.0000   1.0000   1.0000   1.0000   1.0000   1.0000   1.0000   1.0000

     highest occupied level (ev):     3.7797

!    total energy              =   -1573.24283444 Ry
     Harris-Foulkes estimate   =   -1573.24283448 Ry
     estimated scf accuracy    <       0.00000004 Ry

     The total energy is the sum of the following terms:

     one-electron contribution =    -500.14703135 Ry
     hartree contribution      =     321.74220487 Ry
     xc contribution           =    -777.68622501 Ry
     ewald contribution        =    -617.15178294 Ry

     convergence has been achieved in  64 iterations

     Forces acting on atoms (cartesian axes, Ry/au):

     atom    1 type  3   force =     0.00000000    0.00000000   -0.00000816
     atom    2 type  3   force =     0.00000000    0.00000000    0.00008040
     atom    3 type  3   force =     0.00000000    0.00000000    0.00000816
     atom    4 type  3   force =     0.00000000    0.00000000   -0.00008040
     atom    5 type  1   force =     0.00000000    0.00000000    0.00000000
     atom    6 type  1   force =     0.00000000    0.00000000    0.00000000
     atom    7 type  1   force =     0.00000000    0.00000000    0.00000000
     atom    8 type  1   force =     0.00000000    0.00000000    0.00000000
     atom    9 type  2   force =     0.20582242    0.20582242    0.00000809
     atom   10 type  2   force =     0.20582836    0.20582836   -0.00001291
     atom   11 type  2   force =    -0.20582836   -0.20582836   -0.00001291
     atom   12 type  2   force =    -0.20582242   -0.20582242    0.00000809
     atom   13 type  2   force =    -0.20582242    0.20582242   -0.00000809
     atom   14 type  2   force =    -0.20582836    0.20582836    0.00001291
     atom   15 type  2   force =     0.20582242   -0.20582242   -0.00000809
     atom   16 type  2   force =     0.20582836   -0.20582836    0.00001291
     atom   17 type  2   force =     0.00000000    0.00000000    0.00000000
     atom   18 type  2   force =     0.00000000    0.00000000    0.00000000
     atom   19 type  2   force =     0.00000000    0.00000000    0.00000000
     atom   20 type  2   force =     0.00000000    0.00000000    0.00000000
     The non-local contrib.  to forces
     atom    1 type  3   force =     0.00000000    0.00000000   -0.00000546
     atom    2 type  3   force =     0.00000000    0.00000000    0.00004444
     atom    3 type  3   force =     0.00000000    0.00000000    0.00000546
     atom    4 type  3   force =     0.00000000    0.00000000   -0.00004444
     atom    5 type  1   force =     0.00000000    0.00000000    0.00000000
     atom    6 type  1   force =     0.00000000    0.00000000    0.00000000
     atom    7 type  1   force =     0.00000000    0.00000000    0.00000000
     atom    8 type  1   force =     0.00000000    0.00000000    0.00000000
     atom    9 type  2   force =    -0.05303373   -0.05303373    0.00000469
     atom   10 type  2   force =    -0.05303129   -0.05303129   -0.00000800
     atom   11 type  2   force =     0.05303129    0.05303129   -0.00000800
     atom   12 type  2   force =     0.05303373    0.05303373    0.00000469
     atom   13 type  2   force =     0.05303373   -0.05303373   -0.00000469
     atom   14 type  2   force =     0.05303129   -0.05303129    0.00000800
     atom   15 type  2   force =    -0.05303373    0.05303373   -0.00000469
     atom   16 type  2   force =    -0.05303129    0.05303129    0.00000800
     atom   17 type  2   force =     0.00000000    0.00000000    0.00000000
     atom   18 type  2   force =     0.00000000    0.00000000    0.00000000
     atom   19 type  2   force =     0.00000000    0.00000000    0.00000000
     atom   20 type  2   force =     0.00000000    0.00000000    0.00000000
     The ionic contribution  to forces
     atom    1 type  3   force =    -0.00000000   -0.00000000   -0.00000000
     atom    2 type  3   force =    -0.00000000   -0.00000000    0.00000000
     atom    3 type  3   force =    -0.00000000   -0.00000000    0.00000000
     atom    4 type  3   force =     0.00000000    0.00000000    0.00000000
     atom    5 type  1   force =    -0.00000000   -0.00000000    0.00000000
     atom    6 type  1   force =     0.00000000    0.00000000   -0.00000000
     atom    7 type  1   force =     0.00000000    0.00000000   -0.00000000
     atom    8 type  1   force =    -0.00000000   -0.00000000   -0.00000000
     atom    9 type  2   force =     2.88941435    2.88941435    0.00000000
     atom   10 type  2   force =     2.88941435    2.88941435    0.00000000
     atom   11 type  2   force =    -2.88941435   -2.88941435   -0.00000000
     atom   12 type  2   force =    -2.88941435   -2.88941435    0.00000000
     atom   13 type  2   force =    -2.88941435    2.88941435   -0.00000000
     atom   14 type  2   force =    -2.88941435    2.88941435    0.00000000
     atom   15 type  2   force =     2.88941435   -2.88941435   -0.00000000
     atom   16 type  2   force =     2.88941435   -2.88941435    0.00000000
     atom   17 type  2   force =     0.00000000   -0.00000000    0.00000000
     atom   18 type  2   force =    -0.00000000    0.00000000   -0.00000000
     atom   19 type  2   force =     0.00000000    0.00000000   -0.00000000
     atom   20 type  2   force =     0.00000000    0.00000000   -0.00000000
     The local contribution  to forces
     atom    1 type  3   force =    -0.00000000   -0.00000000   -0.00003265
     atom    2 type  3   force =     0.00000000    0.00000000    0.00027314
     atom    3 type  3   force =     0.00000000    0.00000000    0.00003265
     atom    4 type  3   force =     0.00000000    0.00000000   -0.00027314
     atom    5 type  1   force =    -0.00000000   -0.00000000    0.00000000
     atom    6 type  1   force =     0.00000000    0.00000000    0.00000000
     atom    7 type  1   force =    -0.00000000    0.00000000    0.00000000
     atom    8 type  1   force =     0.00000000    0.00000000    0.00000000
     atom    9 type  2   force =    -2.61010953   -2.61010953    0.00006768
     atom   10 type  2   force =    -2.61014524   -2.61014524   -0.00010820
     atom   11 type  2   force =     2.61014524    2.61014524   -0.00010820
     atom   12 type  2   force =     2.61010953    2.61010953    0.00006768
     atom   13 type  2   force =     2.61010953   -2.61010953   -0.00006768
     atom   14 type  2   force =     2.61014524   -2.61014524    0.00010820
     atom   15 type  2   force =    -2.61010953    2.61010953   -0.00006768
     atom   16 type  2   force =    -2.61014524    2.61014524    0.00010820
     atom   17 type  2   force =    -0.00000000   -0.00000000    0.00000000
     atom   18 type  2   force =    -0.00000000   -0.00000000    0.00000000
     atom   19 type  2   force =    -0.00000000   -0.00000000    0.00000000
     atom   20 type  2   force =    -0.00000000   -0.00000000    0.00000000
     The core correction contribution to forces
     atom    1 type  3   force =     0.00000000    0.00000000   -0.00000112
     atom    2 type  3   force =     0.00000000    0.00000000    0.00000326
     atom    3 type  3   force =     0.00000000    0.00000000    0.00000112
     atom    4 type  3   force =    -0.00000000   -0.00000000   -0.00000326
     atom    5 type  1   force =     0.00000000    0.00000000   -0.00000000
     atom    6 type  1   force =    -0.00000000   -0.00000000    0.00000000
     atom    7 type  1   force =    -0.00000000   -0.00000000    0.00000000
     atom    8 type  1   force =     0.00000000    0.00000000    0.00000000
     atom    9 type  2   force =    -0.02043491   -0.02043491    0.00000043
     atom   10 type  2   force =    -0.02043741   -0.02043741   -0.00000059
     atom   11 type  2   force =     0.02043741    0.02043741   -0.00000059
     atom   12 type  2   force =     0.02043491    0.02043491    0.00000043
     atom   13 type  2   force =     0.02043491   -0.02043491   -0.00000043
     atom   14 type  2   force =     0.02043741   -0.02043741    0.00000059
     atom   15 type  2   force =    -0.02043491    0.02043491   -0.00000043
     atom   16 type  2   force =    -0.02043741    0.02043741    0.00000059
     atom   17 type  2   force =    -0.00000000    0.00000000   -0.00000000
     atom   18 type  2   force =     0.00000000   -0.00000000   -0.00000000
     atom   19 type  2   force =    -0.00000000   -0.00000000    0.00000000
     atom   20 type  2   force =    -0.00000000   -0.00000000    0.00000000
     The Hubbard contrib.    to forces
     atom    1 type  3   force =     0.00000000    0.00000000    0.00000000
     atom    2 type  3   force =     0.00000000    0.00000000    0.00000000
     atom    3 type  3   force =     0.00000000    0.00000000    0.00000000
     atom    4 type  3   force =     0.00000000    0.00000000    0.00000000
     atom    5 type  1   force =     0.00000000    0.00000000    0.00000000
     atom    6 type  1   force =     0.00000000    0.00000000    0.00000000
     atom    7 type  1   force =     0.00000000    0.00000000    0.00000000
     atom    8 type  1   force =     0.00000000    0.00000000    0.00000000
     atom    9 type  2   force =     0.00000000    0.00000000    0.00000000
     atom   10 type  2   force =     0.00000000    0.00000000    0.00000000
     atom   11 type  2   force =     0.00000000    0.00000000    0.00000000
     atom   12 type  2   force =     0.00000000    0.00000000    0.00000000
     atom   13 type  2   force =     0.00000000    0.00000000    0.00000000
     atom   14 type  2   force =     0.00000000    0.00000000    0.00000000
     atom   15 type  2   force =     0.00000000    0.00000000    0.00000000
     atom   16 type  2   force =     0.00000000    0.00000000    0.00000000
     atom   17 type  2   force =     0.00000000    0.00000000    0.00000000
     atom   18 type  2   force =     0.00000000    0.00000000    0.00000000
     atom   19 type  2   force =     0.00000000    0.00000000    0.00000000
     atom   20 type  2   force =     0.00000000    0.00000000    0.00000000
     The SCF correction term to forces
     atom    1 type  3   force =     0.00000000    0.00000000    0.00003107
     atom    2 type  3   force =    -0.00000000   -0.00000000   -0.00024043
     atom    3 type  3   force =     0.00000000   -0.00000000   -0.00003107
     atom    4 type  3   force =     0.00000000    0.00000000    0.00024043
     atom    5 type  1   force =     0.00000000   -0.00000000   -0.00000000
     atom    6 type  1   force =     0.00000000   -0.00000000   -0.00000000
     atom    7 type  1   force =    -0.00000000    0.00000000   -0.00000000
     atom    8 type  1   force =     0.00000000   -0.00000000   -0.00000000
     atom    9 type  2   force =    -0.00001376   -0.00001376   -0.00006472
     atom   10 type  2   force =     0.00002795    0.00002795    0.00010388
     atom   11 type  2   force =    -0.00002795   -0.00002795    0.00010388
     atom   12 type  2   force =     0.00001376    0.00001376   -0.00006472
     atom   13 type  2   force =     0.00001376   -0.00001376    0.00006472
     atom   14 type  2   force =    -0.00002795    0.00002795   -0.00010388
     atom   15 type  2   force =    -0.00001376    0.00001376    0.00006472
     atom   16 type  2   force =     0.00002795   -0.00002795   -0.00010388
     atom   17 type  2   force =     0.00000000   -0.00000000   -0.00000000
     atom   18 type  2   force =     0.00000000   -0.00000000    0.00000000
     atom   19 type  2   force =     0.00000000    0.00000000   -0.00000000
     atom   20 type  2   force =     0.00000000    0.00000000    0.00000000

     Total force =     0.823302     Total SCF correction =     0.000430


     Computing stress (Cartesian axis) and pressure

     Message from routine stres:
     noncollinear stress + GGA not implemented

     BFGS Geometry Optimization

     number of scf cycles    =   1
     number of bfgs steps    =   0

     enthalpy new            =   -1573.2428344384 Ry

     new trust radius        =       0.2910852612 bohr
     new conv_thr            =       0.0000001000 Ry

     new unit-cell volume =   6523.10115 a.u.^3 (   966.62385 Ang^3 )
     density =      4.34485 g/cm^3

CELL_PARAMETERS (bohr)
  16.585700000   0.000000000   0.000000000
   0.000000000  16.585700000   0.000000000
   0.000000000   0.000000000  23.713000000

ATOMIC_POSITIONS (crystal)
Cs       0.000000000   0.000000000   0.249999656
Cs       0.500000000   0.500000000   0.750003390
Cs       0.000000000   0.000000000   0.750000344
Cs       0.500000000   0.500000000   0.249996610
Sn       0.000000000   0.000000000   0.000000000
Sn       0.500000000   0.500000000   0.500000000
Sn       0.000000000   0.000000000   0.500000000
Sn       0.500000000   0.500000000   0.000000000
I        0.213673631   0.213673631   0.750000341
I        0.713673989   0.713673989   0.249999456
I        0.286326011   0.286326011   0.249999456
I        0.786326369   0.786326369   0.750000341
I        0.786326369   0.213673631   0.249999659
I        0.286326011   0.713673989   0.750000544
I        0.213673631   0.786326369   0.249999659
I        0.713673989   0.286326011   0.750000544
I        0.000000000   0.500000000   0.000000000
I        0.500000000   0.000000000   0.500000000
I        0.500000000   0.000000000   1.000000000
I        0.000000000   0.500000000   0.500000000



     Writing output data file CsSnI3.save/
     NEW-OLD atomic charge density approx. for the potential

     total cpu time spent up to now is     1880.1 secs

     Self-consistent Calculation

     iteration #  1     ecut=    80.00 Ry     beta= 0.60
     Davidson diagonalization with overlap
     c_bands:  1 eigenvalues not converged
     c_bands:  4 eigenvalues not converged
     c_bands:  2 eigenvalues not converged
     c_bands:  4 eigenvalues not converged
     ethr =  1.00E-06,  avg # of iterations = 17.8

     total cpu time spent up to now is     1941.9 secs

     total energy              =   -1573.62933950 Ry
     Harris-Foulkes estimate   =   -1573.86919053 Ry
     estimated scf accuracy    <       0.33101352 Ry

     iteration #  2     ecut=    80.00 Ry     beta= 0.60
     Davidson diagonalization with overlap
     ethr =  1.88E-04,  avg # of iterations =  7.7

     total cpu time spent up to now is     1975.6 secs

     total energy              =   -1573.56389289 Ry
     Harris-Foulkes estimate   =   -1574.14330164 Ry
     estimated scf accuracy    <       2.12801424 Ry

     iteration #  3     ecut=    80.00 Ry     beta= 0.60
     Davidson diagonalization with overlap
     ethr =  1.88E-04,  avg # of iterations =  9.5

     total cpu time spent up to now is     2006.3 secs

     total energy              =   -1573.76716114 Ry
     Harris-Foulkes estimate   =   -1573.77433530 Ry
     estimated scf accuracy    <       0.02667410 Ry

     iteration #  4     ecut=    80.00 Ry     beta= 0.60
     Davidson diagonalization with overlap
     ethr =  1.52E-05,  avg # of iterations =  9.2

     total cpu time spent up to now is     2035.7 secs

     total energy              =   -1573.79896371 Ry
     Harris-Foulkes estimate   =   -1573.80334229 Ry
     estimated scf accuracy    <       0.02625567 Ry

     iteration #  5     ecut=    80.00 Ry     beta= 0.60
     Davidson diagonalization with overlap
     ethr =  1.49E-05,  avg # of iterations =  5.2

     total cpu time spent up to now is     2058.0 secs

     total energy              =   -1573.79806308 Ry
     Harris-Foulkes estimate   =   -1573.79978887 Ry
     estimated scf accuracy    <       0.01410665 Ry

     iteration #  6     ecut=    80.00 Ry     beta= 0.60
     Davidson diagonalization with overlap
     ethr =  8.02E-06,  avg # of iterations =  9.2

     total cpu time spent up to now is     2083.1 secs

     total energy              =   -1573.79755599 Ry
     Harris-Foulkes estimate   =   -1573.79923001 Ry
     estimated scf accuracy    <       0.00603055 Ry

     iteration #  7     ecut=    80.00 Ry     beta= 0.60
     Davidson diagonalization with overlap
     c_bands:  4 eigenvalues not converged
     ethr =  3.43E-06,  avg # of iterations = 14.2

     total cpu time spent up to now is     2114.7 secs

     total energy              =   -1573.79920546 Ry
     Harris-Foulkes estimate   =   -1573.79949933 Ry
     estimated scf accuracy    <       0.00560881 Ry

     iteration #  8     ecut=    80.00 Ry     beta= 0.60
     Davidson diagonalization with overlap
     c_bands:  2 eigenvalues not converged
     ethr =  3.19E-06,  avg # of iterations =  4.5

     total cpu time spent up to now is     2137.0 secs

     total energy              =   -1573.79933051 Ry
     Harris-Foulkes estimate   =   -1573.79933446 Ry
     estimated scf accuracy    <       0.00460154 Ry

     iteration #  9     ecut=    80.00 Ry     beta= 0.60
     Davidson diagonalization with overlap
     c_bands:  1 eigenvalues not converged
     ethr =  2.61E-06,  avg # of iterations =  4.2

[...]
     1.0000   1.0000   1.0000   1.0000   1.0000   1.0000   1.0000   1.0000
     1.0000   1.0000   1.0000   1.0000   1.0000   1.0000   1.0000   1.0000
     1.0000   1.0000   1.0000   1.0000   1.0000   1.0000   1.0000   1.0000
     1.0000   1.0000   1.0000   1.0000   1.0000   1.0000   1.0000   1.0000
     1.0000   1.0000   1.0000   1.0000   1.0000   1.0000   1.0000   1.0000
     1.0000   1.0000   1.0000   1.0000   1.0000   1.0000   1.0000   1.0000
     1.0000   1.0000   1.0000   1.0000   1.0000   1.0000   1.0000   1.0000
     1.0000   1.0000   1.0000   1.0000   1.0000   1.0000   1.0000   1.0000
     1.0000   1.0000   1.0000   1.0000   1.0000   1.0000   1.0000   1.0000
     1.0000   1.0000   1.0000   1.0000   1.0000   1.0000   1.0000   1.0000
     1.0000   1.0000   1.0000   1.0000   1.0000   1.0000   1.0000   1.0000
     1.0000   1.0000   1.0000   1.0000   1.0000   1.0000   1.0000   1.0000
     1.0000   1.0000   1.0000   1.0000   1.0000   1.0000   1.0000   1.0000
     1.0000   1.0000   1.0000   1.0000   1.0000   1.0000   1.0000   1.0000
     1.0000   1.0000   1.0000   1.0000   1.0000   1.0000   1.0000   1.0000
     1.0000   1.0000   1.0000   1.0000   1.0000   1.0000   1.0000   1.0000
     1.0000   1.0000   1.0000   1.0000   1.0000   1.0000   1.0000   1.0000
     1.0000   1.0000   1.0000   1.0000   1.0000   1.0000   1.0000   1.0000
     1.0000   1.0000   1.0000   1.0000   1.0000   1.0000   1.0000   1.0000
     1.0000   1.0000   1.0000   1.0000   1.0000   1.0000   1.0000   1.0000

          k = 0.3333 0.3333-0.3497 ( 78768 PWs)   bands (ev):

   -20.4631 -20.4631 -20.4631 -20.4631 -20.4631 -20.4631 -20.4631 -20.4631
   -20.4591 -20.4591 -20.4591 -20.4591 -20.4591 -20.4591 -20.4590 -20.4590
   -19.4349 -19.4349 -19.4349 -19.4349 -19.4349 -19.4349 -19.4348 -19.4348
   -19.4179 -19.4179 -19.4179 -19.4179 -19.4179 -19.4179 -19.4178 -19.4178
   -19.4133 -19.4133 -19.4132 -19.4132 -19.4132 -19.4132 -19.4132 -19.4132
   -18.1409 -18.1409 -18.1409 -18.1409 -18.1372 -18.1372 -18.1372 -18.1372
    -8.9451  -8.9451  -8.9451  -8.9451  -8.8522  -8.8522  -8.8522  -8.8522
    -8.6115  -8.6115  -8.6115  -8.6115  -8.4834  -8.4834  -8.4834  -8.4834
    -8.1622  -8.1622  -8.1622  -8.1622  -8.1575  -8.1575  -8.1575  -8.1575
    -6.6654  -6.6654  -6.6653  -6.6653  -6.5844  -6.5844  -6.5844  -6.5844
    -5.5668  -5.5668  -5.5668  -5.5668  -5.3462  -5.3462  -5.3462  -5.3462
    -4.5812  -4.5812  -4.5812  -4.5812  -4.2553  -4.2553  -4.2553  -4.2553
    -3.4724  -3.4724  -3.4723  -3.4723  -3.4511  -3.4511  -3.4511  -3.4511
     0.4534   0.4534   0.4534   0.4534   0.7298   0.7298   0.7299   0.7299
     0.8590   0.8590   0.8590   0.8590   0.9403   0.9403   0.9403   0.9403
     0.9825   0.9825   0.9825   0.9825   1.2369   1.2369   1.2369   1.2369
     1.2418   1.2418   1.2418   1.2418   1.4728   1.4728   1.4728   1.4728
     1.6696   1.6696   1.6696   1.6696   1.6791   1.6791   1.6791   1.6791
     2.0636   2.0636   2.0636   2.0636   2.0755   2.0755   2.0755   2.0755
     2.3148   2.3148   2.3148   2.3148   2.3399   2.3399   2.3399   2.3399
     2.5195   2.5195   2.5195   2.5195   2.6014   2.6014   2.6014   2.6014
     2.7279   2.7279   2.7279   2.7279   2.9062   2.9062   2.9062   2.9062

     occupation numbers 
     1.0000   1.0000   1.0000   1.0000   1.0000   1.0000   1.0000   1.0000
     1.0000   1.0000   1.0000   1.0000   1.0000   1.0000   1.0000   1.0000
     1.0000   1.0000   1.0000   1.0000   1.0000   1.0000   1.0000   1.0000
     1.0000   1.0000   1.0000   1.0000   1.0000   1.0000   1.0000   1.0000
     1.0000   1.0000   1.0000   1.0000   1.0000   1.0000   1.0000   1.0000
     1.0000   1.0000   1.0000   1.0000   1.0000   1.0000   1.0000   1.0000
     1.0000   1.0000   1.0000   1.0000   1.0000   1.0000   1.0000   1.0000
     1.0000   1.0000   1.0000   1.0000   1.0000   1.0000   1.0000   1.0000
     1.0000   1.0000   1.0000   1.0000   1.0000   1.0000   1.0000   1.0000
     1.0000   1.0000   1.0000   1.0000   1.0000   1.0000   1.0000   1.0000
     1.0000   1.0000   1.0000   1.0000   1.0000   1.0000   1.0000   1.0000
     1.0000   1.0000   1.0000   1.0000   1.0000   1.0000   1.0000   1.0000
     1.0000   1.0000   1.0000   1.0000   1.0000   1.0000   1.0000   1.0000
     1.0000   1.0000   1.0000   1.0000   1.0000   1.0000   1.0000   1.0000
     1.0000   1.0000   1.0000   1.0000   1.0000   1.0000   1.0000   1.0000
     1.0000   1.0000   1.0000   1.0000   1.0000   1.0000   1.0000   1.0000
     1.0000   1.0000   1.0000   1.0000   1.0000   1.0000   1.0000   1.0000
     1.0000   1.0000   1.0000   1.0000   1.0000   1.0000   1.0000   1.0000
     1.0000   1.0000   1.0000   1.0000   1.0000   1.0000   1.0000   1.0000
     1.0000   1.0000   1.0000   1.0000   1.0000   1.0000   1.0000   1.0000
     1.0000   1.0000   1.0000   1.0000   1.0000   1.0000   1.0000   1.0000
     1.0000   1.0000   1.0000   1.0000   1.0000   1.0000   1.0000   1.0000

     highest occupied level (ev):     3.1900

!    total energy              =   -1574.40910846 Ry
     Harris-Foulkes estimate   =   -1574.40910846 Ry
     estimated scf accuracy    <          2.0E-09 Ry

     The total energy is the sum of the following terms:

     one-electron contribution =    -467.93365531 Ry
     hartree contribution      =     305.37570734 Ry
     xc contribution           =    -776.72874675 Ry
     ewald contribution        =    -635.12241374 Ry

     convergence has been achieved in  53 iterations

     Forces acting on atoms (cartesian axes, Ry/au):

     atom    1 type  3   force =     0.00000000    0.00000000    0.00000941
     atom    2 type  3   force =     0.00000000    0.00000000    0.00000462
     atom    3 type  3   force =     0.00000000    0.00000000   -0.00000941
     atom    4 type  3   force =     0.00000000    0.00000000   -0.00000462
     atom    5 type  1   force =     0.00000000    0.00000000    0.00000000
     atom    6 type  1   force =     0.00000000    0.00000000    0.00000000
     atom    7 type  1   force =     0.00000000    0.00000000    0.00000000
     atom    8 type  1   force =     0.00000000    0.00000000    0.00000000
     atom    9 type  2   force =     0.00000906    0.00000906   -0.00000367
     atom   10 type  2   force =     0.00000156    0.00000156    0.00000436
     atom   11 type  2   force =    -0.00000156   -0.00000156    0.00000436
     atom   12 type  2   force =    -0.00000906   -0.00000906   -0.00000367
     atom   13 type  2   force =    -0.00000906    0.00000906    0.00000367
     atom   14 type  2   force =    -0.00000156    0.00000156   -0.00000436
     atom   15 type  2   force =     0.00000906   -0.00000906    0.00000367
     atom   16 type  2   force =     0.00000156   -0.00000156   -0.00000436
     atom   17 type  2   force =     0.00000000    0.00000000    0.00000000
     atom   18 type  2   force =     0.00000000    0.00000000    0.00000000
     atom   19 type  2   force =     0.00000000    0.00000000    0.00000000
     atom   20 type  2   force =     0.00000000    0.00000000    0.00000000
     The non-local contrib.  to forces
     atom    1 type  3   force =     0.00000000    0.00000000    0.00002870
     atom    2 type  3   force =     0.00000000    0.00000000   -0.00001540
     atom    3 type  3   force =     0.00000000    0.00000000   -0.00002870
     atom    4 type  3   force =     0.00000000    0.00000000    0.00001540
     atom    5 type  1   force =     0.00000000    0.00000000    0.00000000
     atom    6 type  1   force =     0.00000000    0.00000000    0.00000000
     atom    7 type  1   force =     0.00000000    0.00000000    0.00000000
     atom    8 type  1   force =     0.00000000    0.00000000    0.00000000
     atom    9 type  2   force =     0.00000189    0.00000189   -0.00000282
     atom   10 type  2   force =    -0.00000212   -0.00000212    0.00000284
     atom   11 type  2   force =     0.00000212    0.00000212    0.00000284
     atom   12 type  2   force =    -0.00000189   -0.00000189   -0.00000282
     atom   13 type  2   force =    -0.00000189    0.00000189    0.00000282
     atom   14 type  2   force =     0.00000212   -0.00000212   -0.00000284
     atom   15 type  2   force =     0.00000189   -0.00000189    0.00000282
     atom   16 type  2   force =    -0.00000212    0.00000212   -0.00000284
     atom   17 type  2   force =     0.00000000    0.00000000    0.00000000
     atom   18 type  2   force =     0.00000000    0.00000000    0.00000000
     atom   19 type  2   force =     0.00000000    0.00000000    0.00000000
     atom   20 type  2   force =     0.00000000    0.00000000    0.00000000
     The ionic contribution  to forces
     atom    1 type  3   force =    -0.00000000   -0.00000000   -0.00014538
     atom    2 type  3   force =     0.00000000    0.00000000    0.00042357
     atom    3 type  3   force =    -0.00000000   -0.00000000    0.00014538
     atom    4 type  3   force =     0.00000000    0.00000000   -0.00042357
     atom    5 type  1   force =    -0.00000000   -0.00000000   -0.00000000
     atom    6 type  1   force =     0.00000000    0.00000000    0.00000000
     atom    7 type  1   force =     0.00000000   -0.00000000    0.00000000
     atom    8 type  1   force =     0.00000000    0.00000000   -0.00000000
     atom    9 type  2   force =     0.00017366    0.00017366    0.00013357
     atom   10 type  2   force =     0.00000923    0.00000923   -0.00013525
     atom   11 type  2   force =    -0.00000923   -0.00000923   -0.00013525
     atom   12 type  2   force =    -0.00017366   -0.00017366    0.00013357
     atom   13 type  2   force =    -0.00017366    0.00017366   -0.00013357
     atom   14 type  2   force =    -0.00000923    0.00000923    0.00013525
     atom   15 type  2   force =     0.00017366   -0.00017366   -0.00013357
     atom   16 type  2   force =     0.00000923   -0.00000923    0.00013525
     atom   17 type  2   force =     0.00000000   -0.00000000   -0.00000000
     atom   18 type  2   force =     0.00000000   -0.00000000    0.00000000
     atom   19 type  2   force =    -0.00000000    0.00000000    0.00000000
     atom   20 type  2   force =    -0.00000000    0.00000000    0.00000000
     The local contribution  to forces
     atom    1 type  3   force =     0.00000000    0.00000000    0.00015175
     atom    2 type  3   force =     0.00000000    0.00000000   -0.00040793
     atom    3 type  3   force =     0.00000000    0.00000000   -0.00015175
     atom    4 type  3   force =     0.00000000    0.00000000    0.00040793
     atom    5 type  1   force =    -0.00000000   -0.00000000    0.00000000
     atom    6 type  1   force =     0.00000000    0.00000000    0.00000000
     atom    7 type  1   force =    -0.00000000    0.00000000    0.00000000
     atom    8 type  1   force =     0.00000000    0.00000000    0.00000000
     atom    9 type  2   force =    -0.00015643   -0.00015643   -0.00013576
     atom   10 type  2   force =    -0.00001378   -0.00001378    0.00013807
     atom   11 type  2   force =     0.00001378    0.00001378    0.00013807
     atom   12 type  2   force =     0.00015643    0.00015643   -0.00013576
     atom   13 type  2   force =     0.00015643   -0.00015643    0.00013576
     atom   14 type  2   force =     0.00001378   -0.00001378   -0.00013807
     atom   15 type  2   force =    -0.00015643    0.00015643    0.00013576
     atom   16 type  2   force =    -0.00001378    0.00001378   -0.00013807
     atom   17 type  2   force =    -0.00000000   -0.00000000    0.00000000
     atom   18 type  2   force =    -0.00000000   -0.00000000    0.00000000
     atom   19 type  2   force =     0.00000000   -0.00000000    0.00000000
     atom   20 type  2   force =    -0.00000000   -0.00000000    0.00000000
     The core correction contribution to forces
     atom    1 type  3   force =     0.00000000    0.00000000   -0.00000209
     atom    2 type  3   force =    -0.00000000   -0.00000000    0.00000136
     atom    3 type  3   force =     0.00000000    0.00000000    0.00000209
     atom    4 type  3   force =    -0.00000000   -0.00000000   -0.00000136
     atom    5 type  1   force =     0.00000000    0.00000000    0.00000000
     atom    6 type  1   force =     0.00000000    0.00000000    0.00000000
     atom    7 type  1   force =    -0.00000000    0.00000000    0.00000000
     atom    8 type  1   force =     0.00000000    0.00000000    0.00000000
     atom    9 type  2   force =    -0.00000113   -0.00000113   -0.00000174
     atom   10 type  2   force =    -0.00000110   -0.00000110    0.00000165
     atom   11 type  2   force =     0.00000110    0.00000110    0.00000165
     atom   12 type  2   force =     0.00000113    0.00000113   -0.00000174
     atom   13 type  2   force =     0.00000113   -0.00000113    0.00000174
     atom   14 type  2   force =     0.00000110   -0.00000110   -0.00000165
     atom   15 type  2   force =    -0.00000113    0.00000113    0.00000174
     atom   16 type  2   force =    -0.00000110    0.00000110   -0.00000165
     atom   17 type  2   force =    -0.00000000    0.00000000   -0.00000000
     atom   18 type  2   force =    -0.00000000   -0.00000000   -0.00000000
     atom   19 type  2   force =     0.00000000   -0.00000000   -0.00000000
     atom   20 type  2   force =     0.00000000   -0.00000000   -0.00000000
     The Hubbard contrib.    to forces
     atom    1 type  3   force =     0.00000000    0.00000000    0.00000000
     atom    2 type  3   force =     0.00000000    0.00000000    0.00000000
     atom    3 type  3   force =     0.00000000    0.00000000    0.00000000
     atom    4 type  3   force =     0.00000000    0.00000000    0.00000000
     atom    5 type  1   force =     0.00000000    0.00000000    0.00000000
     atom    6 type  1   force =     0.00000000    0.00000000    0.00000000
     atom    7 type  1   force =     0.00000000    0.00000000    0.00000000
     atom    8 type  1   force =     0.00000000    0.00000000    0.00000000
     atom    9 type  2   force =     0.00000000    0.00000000    0.00000000
     atom   10 type  2   force =     0.00000000    0.00000000    0.00000000
     atom   11 type  2   force =     0.00000000    0.00000000    0.00000000
     atom   12 type  2   force =     0.00000000    0.00000000    0.00000000
     atom   13 type  2   force =     0.00000000    0.00000000    0.00000000
     atom   14 type  2   force =     0.00000000    0.00000000    0.00000000
     atom   15 type  2   force =     0.00000000    0.00000000    0.00000000
     atom   16 type  2   force =     0.00000000    0.00000000    0.00000000
     atom   17 type  2   force =     0.00000000    0.00000000    0.00000000
     atom   18 type  2   force =     0.00000000    0.00000000    0.00000000
     atom   19 type  2   force =     0.00000000    0.00000000    0.00000000
     atom   20 type  2   force =     0.00000000    0.00000000    0.00000000
     The SCF correction term to forces
     atom    1 type  3   force =     0.00000000    0.00000000   -0.00002357
     atom    2 type  3   force =    -0.00000000    0.00000000    0.00000301
     atom    3 type  3   force =     0.00000000    0.00000000    0.00002357
     atom    4 type  3   force =    -0.00000000    0.00000000   -0.00000301
     atom    5 type  1   force =    -0.00000000   -0.00000000   -0.00000000
     atom    6 type  1   force =    -0.00000000    0.00000000   -0.00000000
     atom    7 type  1   force =    -0.00000000   -0.00000000    0.00000000
     atom    8 type  1   force =     0.00000000    0.00000000   -0.00000000
     atom    9 type  2   force =    -0.00000894   -0.00000894    0.00000308
     atom   10 type  2   force =     0.00000933    0.00000933   -0.00000295
     atom   11 type  2   force =    -0.00000933   -0.00000933   -0.00000295
     atom   12 type  2   force =     0.00000894    0.00000894    0.00000308
     atom   13 type  2   force =     0.00000894   -0.00000894   -0.00000308
     atom   14 type  2   force =    -0.00000933    0.00000933    0.00000295
     atom   15 type  2   force =    -0.00000894    0.00000894   -0.00000308
     atom   16 type  2   force =     0.00000933   -0.00000933    0.00000295
     atom   17 type  2   force =    -0.00000000    0.00000000   -0.00000000
     atom   18 type  2   force =    -0.00000000   -0.00000000   -0.00000000
     atom   19 type  2   force =     0.00000000   -0.00000000   -0.00000000
     atom   20 type  2   force =    -0.00000000   -0.00000000   -0.00000000

     Total force =     0.000032     Total SCF correction =     0.000050
     SCF correction compared to forces is large: reduce conv_thr to get better values


     Computing stress (Cartesian axis) and pressure

     Message from routine stres:
     noncollinear stress + GGA not implemented

     Writing output data file CsSnI3.save/
 
     init_run     :     21.51s CPU     22.86s WALL (       2 calls)
     electrons    :   7574.32s CPU   7819.66s WALL (       7 calls)
     update_pot   :     11.97s CPU     12.03s WALL (       5 calls)
     forces       :    115.92s CPU    118.42s WALL (       7 calls)

     Called by init_run:
     wfcinit      :     12.27s CPU     12.62s WALL (       2 calls)
     wfcinit:atom :      0.13s CPU      0.15s WALL (      12 calls)
     wfcinit:wfcr :     11.43s CPU     11.68s WALL (      12 calls)
     potinit      :      0.96s CPU      0.99s WALL (       2 calls)
     hinit0       :      2.97s CPU      3.48s WALL (       2 calls)

     Called by electrons:
     c_bands      :   5907.22s CPU   6017.87s WALL (     282 calls)
     sum_band     :   1094.82s CPU   1172.06s WALL (     282 calls)
     v_of_rho     :      8.51s CPU      9.19s WALL (     287 calls)
     v_h          :      0.66s CPU      0.68s WALL (     287 calls)
     v_xc         :      8.04s CPU      8.71s WALL (     294 calls)
     newd         :    565.48s CPU    622.01s WALL (     287 calls)
     mix_rho      :     10.54s CPU     11.52s WALL (     282 calls)

     Called by c_bands:
     init_us_2    :     30.50s CPU     30.83s WALL (    3438 calls)
     cegterg      :   5078.11s CPU   5185.46s WALL (    1700 calls)

     Called by sum_band:
     sum_band:bec :     70.42s CPU     70.83s WALL (    1692 calls)
     addusdens    :    374.78s CPU    442.82s WALL (     282 calls)

     Called by *egterg:
     h_psi        :   2687.22s CPU   2725.40s WALL (   16079 calls)
     s_psi        :    458.47s CPU    460.44s WALL (   16079 calls)
     g_psi        :     12.80s CPU     12.88s WALL (   14367 calls)
     cdiaghg      :    749.21s CPU    792.63s WALL (   16019 calls)
     cegterg:over :    421.25s CPU    423.78s WALL (   14367 calls)
     cegterg:upda :    497.24s CPU    509.08s WALL (   14367 calls)
     cegterg:last :    143.21s CPU    144.55s WALL (    1755 calls)
     cdiaghg:chol :     70.07s CPU     76.72s WALL (   16019 calls)
     cdiaghg:inve :     43.44s CPU     46.62s WALL (   16019 calls)
     cdiaghg:para :     57.50s CPU     69.05s WALL (   32038 calls)

     Called by h_psi:
     h_psi:pot    :   2664.99s CPU   2700.12s WALL (   16079 calls)
     h_psi:calbec :    347.89s CPU    354.01s WALL (   16079 calls)
     vloc_psi     :   1863.12s CPU   1889.96s WALL (   16079 calls)
     add_vuspsi   :    453.92s CPU    456.04s WALL (   16079 calls)

     General routines
     calbec       :    483.68s CPU    492.66s WALL (   17939 calls)
     fft          :      6.92s CPU      7.27s WALL (    4094 calls)
     ffts         :      1.60s CPU      1.63s WALL (    1128 calls)
     fftw         :   1988.46s CPU   2009.10s WALL ( 3666904 calls)
     davcio       :      0.00s CPU      0.19s WALL (      12 calls)
 
     Parallel routines
     fft_scatt_xy :    369.85s CPU    374.99s WALL ( 3672126 calls)
     fft_scatt_yz :    815.58s CPU    827.17s WALL ( 3672126 calls)
 
     PWSCF        :     2h 9m CPU        9h 2m WALL

      13h
 
   This run was terminated on:  13:42:11  15Feb2021            

=------------------------------------------------------------------------------=
   JOB DONE.
=------------------------------------------------------------------------------=
