
     Program PWSCF v.6.7MaX starts on 31Jan2021 at 10:28:19 

     This program is part of the open-source Quantum ESPRESSO suite
     for quantum simulation of materials; please cite
         "P. Giannozzi et al., J. Phys.:Condens. Matter 21 395502 (2009);
         "P. Giannozzi et al., J. Phys.:Condens. Matter 29 465901 (2017);
          URL http://www.quantum-espresso.org", 
     in publications or presentations arising from this work. More details at
     http://www.quantum-espresso.org/quote

     Parallel version (MPI & OpenMP), running on      96 processor cores
     Number of MPI processes:                48
     Threads/MPI process:                     2

     MPI processes distributed on     2 nodes
     R & G space division:  proc/nbgrp/npool/nimage =      48
     Waiting for input...
     Reading input from standard input

     Current dimensions of program PWSCF are:
     Max number of different atomic species (ntypx) = 10
     Max number of k-points (npk) =  40000
     Max angular momentum in pseudopotentials (lmaxx) =  3
     file Sn.rel-pbesol-dn-rrkjus_psl.1.0.0.UPF: wavefunction(s)  5S 4D 4D renormalized
     file I.rel-pbesol-n-rrkjus_psl.1.0.0.UPF: wavefunction(s)  5S renormalized

     Subspace diagonalization in iterative solution of the eigenvalue problem:
     a serial algorithm will be used


     Parallelization info
     --------------------
     sticks:   dense  smooth     PW     G-vecs:    dense   smooth      PW
     Min          85      69     18                 4170     2985     420
     Max          87      70     19                 4173     2991     427
     Sum        4149    3313    885               200237   143473   20341


     Title: 
     SnI2                                                                       


     bravais-lattice index     =            1
     lattice parameter (alat)  =      14.4199  a.u.
     unit-cell volume          =    2998.4083 (a.u.)^3
     number of atoms/cell      =            6
     number of atomic types    =            2
     number of electrons       =        56.00
     number of Kohn-Sham states=           56
     kinetic-energy cutoff     =      50.0000  Ry
     charge density cutoff     =     250.0000  Ry
     scf convergence threshold =      1.0E-06
     mixing beta               =       0.3500
     number of iterations used =            8  plain     mixing
     Exchange-correlation= PBESOL
                           (   1   4  10   8   0   0   0)
     Non magnetic calculation with spin-orbit


     celldm(1)=  14.419944  celldm(2)=   0.000000  celldm(3)=   0.000000
     celldm(4)=   0.000000  celldm(5)=   0.000000  celldm(6)=   0.000000

     crystal axes: (cart. coord. in units of alat)
               a(1) = (   1.000000   0.000000   0.000000 )  
               a(2) = (   0.000000   1.000000   0.000000 )  
               a(3) = (   0.000000   0.000000   1.000000 )  

     reciprocal axes: (cart. coord. in units 2 pi/alat)
               b(1) = (  1.000000  0.000000  0.000000 )  
               b(2) = (  0.000000  1.000000  0.000000 )  
               b(3) = (  0.000000  0.000000  1.000000 )  


     PseudoPot. # 1 for Sn read from file:
     /scratch/cmalosso/degironcoli/pseudo/pseudo-usp/Sn.rel-pbesol-dn-rrkjus_psl.1.0.0.UPF
     MD5 check sum: c1cf6ea56b96a3656bdf0d1db379e093
     Pseudo is Ultrasoft + core correction, Zval = 14.0
     Generated using &quot;atomic&quot; code by A. Dal Corso  v.6.3
     Using radial grid of 1243 points, 10 beta functions with: 
                l(1) =   0
                l(2) =   0
                l(3) =   1
                l(4) =   1
                l(5) =   1
                l(6) =   1
                l(7) =   2
                l(8) =   2
                l(9) =   2
               l(10) =   2
     Q(r) pseudized with 0 coefficients 


     PseudoPot. # 2 for I  read from file:
     /scratch/cmalosso/degironcoli/pseudo/pseudo-usp/I.rel-pbesol-n-rrkjus_psl.1.0.0.UPF
     MD5 check sum: 0f96c6bfb1b448f280658f96eb466b08
     Pseudo is Ultrasoft + core correction, Zval =  7.0
     Generated using &quot;atomic&quot; code by A. Dal Corso  v.6.3
     Using radial grid of 1247 points, 10 beta functions with: 
                l(1) =   0
                l(2) =   0
                l(3) =   1
                l(4) =   1
                l(5) =   1
                l(6) =   1
                l(7) =   2
                l(8) =   2
                l(9) =   2
               l(10) =   2
     Q(r) pseudized with 0 coefficients 


     atomic species   valence    mass     pseudopotential
        Sn            14.00   118.70000     Sn( 1.00)
        I              7.00   126.90000     I ( 1.00)

     16 Sym. Ops., with inversion, found ( 8 have fractional translation)


                                    s                        frac. trans.

      isym =  1     identity                                     

 cryst.   s( 1) = (     1          0          0      )
                  (     0          1          0      )
                  (     0          0          1      )

 cart.    s( 1) = (  1.0000000  0.0000000  0.0000000 )
                  (  0.0000000  1.0000000  0.0000000 )
                  (  0.0000000  0.0000000  1.0000000 )


      isym =  2     180 deg rotation - cart. axis [0,0,1]        

 cryst.   s( 2) = (    -1          0          0      )
                  (     0         -1          0      )
                  (     0          0          1      )

 cart.    s( 2) = ( -1.0000000  0.0000000  0.0000000 )
                  (  0.0000000 -1.0000000  0.0000000 )
                  (  0.0000000  0.0000000  1.0000000 )


      isym =  3     180 deg rotation - cart. axis [0,1,0]        

 cryst.   s( 3) = (    -1          0          0      )    f =(  0.5000000 )
                  (     0          1          0      )       ( -0.5000000 )
                  (     0          0         -1      )       (  0.5000000 )

 cart.    s( 3) = ( -1.0000000  0.0000000  0.0000000 )    f =(  0.5000000 )
                  (  0.0000000  1.0000000  0.0000000 )       ( -0.5000000 )
                  (  0.0000000  0.0000000 -1.0000000 )       (  0.5000000 )


      isym =  4     180 deg rotation - cart. axis [1,0,0]        

 cryst.   s( 4) = (     1          0          0      )    f =( -0.5000000 )
                  (     0         -1          0      )       (  0.5000000 )
                  (     0          0         -1      )       (  0.5000000 )

 cart.    s( 4) = (  1.0000000  0.0000000  0.0000000 )    f =( -0.5000000 )
                  (  0.0000000 -1.0000000  0.0000000 )       (  0.5000000 )
                  (  0.0000000  0.0000000 -1.0000000 )       (  0.5000000 )


      isym =  5     180 deg rotation - cart. axis [1,1,0]        

 cryst.   s( 5) = (     0          1          0      )
                  (     1          0          0      )
                  (     0          0         -1      )

 cart.    s( 5) = (  0.0000000  1.0000000  0.0000000 )
                  (  1.0000000  0.0000000  0.0000000 )
                  (  0.0000000  0.0000000 -1.0000000 )


      isym =  6     180 deg rotation - cart. axis [1,-1,0]       

 cryst.   s( 6) = (     0         -1          0      )
                  (    -1          0          0      )
                  (     0          0         -1      )

 cart.    s( 6) = (  0.0000000 -1.0000000  0.0000000 )
                  ( -1.0000000  0.0000000  0.0000000 )
                  (  0.0000000  0.0000000 -1.0000000 )


      isym =  7      90 deg rotation - cart. axis [0,0,-1]       

 cryst.   s( 7) = (     0         -1          0      )    f =( -0.5000000 )
                  (     1          0          0      )       (  0.5000000 )
                  (     0          0          1      )       ( -0.5000000 )

 cart.    s( 7) = (  0.0000000  1.0000000  0.0000000 )    f =( -0.5000000 )
                  ( -1.0000000  0.0000000  0.0000000 )       (  0.5000000 )
                  (  0.0000000  0.0000000  1.0000000 )       ( -0.5000000 )


      isym =  8      90 deg rotation - cart. axis [0,0,1]        

 cryst.   s( 8) = (     0          1          0      )    f =(  0.5000000 )
                  (    -1          0          0      )       ( -0.5000000 )
                  (     0          0          1      )       ( -0.5000000 )

 cart.    s( 8) = (  0.0000000 -1.0000000  0.0000000 )    f =(  0.5000000 )
                  (  1.0000000  0.0000000  0.0000000 )       ( -0.5000000 )
                  (  0.0000000  0.0000000  1.0000000 )       ( -0.5000000 )


      isym =  9     inversion                                    

 cryst.   s( 9) = (    -1          0          0      )
                  (     0         -1          0      )
                  (     0          0         -1      )

 cart.    s( 9) = ( -1.0000000  0.0000000  0.0000000 )
                  (  0.0000000 -1.0000000  0.0000000 )
                  (  0.0000000  0.0000000 -1.0000000 )


      isym = 10     inv. 180 deg rotation - cart. axis [0,0,1]   

 cryst.   s(10) = (     1          0          0      )
                  (     0          1          0      )
                  (     0          0         -1      )

 cart.    s(10) = (  1.0000000  0.0000000  0.0000000 )
                  (  0.0000000  1.0000000  0.0000000 )
                  (  0.0000000  0.0000000 -1.0000000 )


      isym = 11     inv. 180 deg rotation - cart. axis [0,1,0]   

 cryst.   s(11) = (     1          0          0      )    f =( -0.5000000 )
                  (     0         -1          0      )       (  0.5000000 )
                  (     0          0          1      )       ( -0.5000000 )

 cart.    s(11) = (  1.0000000  0.0000000  0.0000000 )    f =( -0.5000000 )
                  (  0.0000000 -1.0000000  0.0000000 )       (  0.5000000 )
                  (  0.0000000  0.0000000  1.0000000 )       ( -0.5000000 )


      isym = 12     inv. 180 deg rotation - cart. axis [1,0,0]   

 cryst.   s(12) = (    -1          0          0      )    f =(  0.5000000 )
                  (     0          1          0      )       ( -0.5000000 )
                  (     0          0          1      )       ( -0.5000000 )

 cart.    s(12) = ( -1.0000000  0.0000000  0.0000000 )    f =(  0.5000000 )
                  (  0.0000000  1.0000000  0.0000000 )       ( -0.5000000 )
                  (  0.0000000  0.0000000  1.0000000 )       ( -0.5000000 )


      isym = 13     inv. 180 deg rotation - cart. axis [1,1,0]   

 cryst.   s(13) = (     0         -1          0      )
                  (    -1          0          0      )
                  (     0          0          1      )

 cart.    s(13) = (  0.0000000 -1.0000000  0.0000000 )
                  ( -1.0000000  0.0000000  0.0000000 )
                  (  0.0000000  0.0000000  1.0000000 )


      isym = 14     inv. 180 deg rotation - cart. axis [1,-1,0]  

 cryst.   s(14) = (     0          1          0      )
                  (     1          0          0      )
                  (     0          0          1      )

 cart.    s(14) = (  0.0000000  1.0000000  0.0000000 )
                  (  1.0000000  0.0000000  0.0000000 )
                  (  0.0000000  0.0000000  1.0000000 )


      isym = 15     inv.  90 deg rotation - cart. axis [0,0,-1]  

 cryst.   s(15) = (     0          1          0      )    f =(  0.5000000 )
                  (    -1          0          0      )       ( -0.5000000 )
                  (     0          0         -1      )       (  0.5000000 )

 cart.    s(15) = (  0.0000000 -1.0000000  0.0000000 )    f =(  0.5000000 )
                  (  1.0000000  0.0000000  0.0000000 )       ( -0.5000000 )
                  (  0.0000000  0.0000000 -1.0000000 )       (  0.5000000 )


      isym = 16     inv.  90 deg rotation - cart. axis [0,0,1]   

 cryst.   s(16) = (     0         -1          0      )    f =( -0.5000000 )
                  (     1          0          0      )       (  0.5000000 )
                  (     0          0         -1      )       (  0.5000000 )

 cart.    s(16) = (  0.0000000  1.0000000  0.0000000 )    f =( -0.5000000 )
                  ( -1.0000000  0.0000000  0.0000000 )       (  0.5000000 )
                  (  0.0000000  0.0000000 -1.0000000 )       (  0.5000000 )


     double point group D_4h(4/mmm)
     there are 14 classes and  4 irreducible representations
     the character table:

       E     -E    2C4   -2C4   C2    2C2' 2C2'' i     -i    2S4   -2S4   s_h 
                               -C2   -2C2' -2C2'                         -s_h 
G_6+   2.00 -2.00  1.41 -1.41  0.00  0.00  0.00  2.00 -2.00  1.41 -1.41  0.00
G_7+   2.00 -2.00 -1.41  1.41  0.00  0.00  0.00  2.00 -2.00 -1.41  1.41  0.00
G_6-   2.00 -2.00  1.41 -1.41  0.00  0.00  0.00 -2.00  2.00 -1.41  1.41  0.00
G_7-   2.00 -2.00 -1.41  1.41  0.00  0.00  0.00 -2.00  2.00  1.41 -1.41  0.00

        2s_v  2s_d
       -2s_v -2s_d
G_6+   0.00  0.00
G_7+   0.00  0.00
G_6-   0.00  0.00
G_7-   0.00  0.00

     the symmetry operations in each class and the name of the first element:

     E             1
          identity                                               
     -E           -1
          identity E                                             
     2C4           7    8
           90 deg rotation - cart. axis [0,0,-1]                 
     -2C4         -7   -8
           90 deg rotation - cart. axis [0,0,-1] E               
      C2  -C2      2   -2
          180 deg rotation - cart. axis [0,0,1]                  
      2C2'-2C2'    3   -3    4   -4
          180 deg rotation - cart. axis [0,1,0]                  
     2C2''-2C2'    5   -5   -6    6
          180 deg rotation - cart. axis [1,1,0]                  
     i             9
          inversion                                              
     -i           -9
          inversion E                                            
     2S4          15   16
          inv.  90 deg rotation - cart. axis [0,0,-1]            
     -2S4        -15  -16
          inv.  90 deg rotation - cart. axis [0,0,-1] E          
      s_h -s_h    10  -10
          inv. 180 deg rotation - cart. axis [0,0,1]             
      2s_v-2s_v   11  -11   12  -12
          inv. 180 deg rotation - cart. axis [0,1,0]             
      2s_d-2s_d   13  -13  -14   14
          inv. 180 deg rotation - cart. axis [1,1,0]             

   Cartesian axes

     site n.     atom                  positions (alat units)
         1           Sn  tau(   1) = (   0.0000000   0.0000000   0.0000000  )
         2           Sn  tau(   2) = (   0.5000000   0.5000000   0.5000000  )
         3           I   tau(   3) = (   0.2985210   0.2985210   0.0000000  )
         4           I   tau(   4) = (   0.7014790   0.7014790   0.0000000  )
         5           I   tau(   5) = (   0.7985210   0.2014790   0.5000000  )
         6           I   tau(   6) = (   0.2014790   0.7985210   0.5000000  )

   Crystallographic axes

     site n.     atom                  positions (cryst. coord.)
         1           Sn  tau(   1) = (  0.0000000  0.0000000  0.0000000  )
         2           Sn  tau(   2) = (  0.5000000  0.5000000  0.5000000  )
         3           I   tau(   3) = (  0.2985210  0.2985210  0.0000000  )
         4           I   tau(   4) = (  0.7014790  0.7014790  0.0000000  )
         5           I   tau(   5) = (  0.7985210  0.2014790  0.5000000  )
         6           I   tau(   6) = (  0.2014790  0.7985210  0.5000000  )

     number of k points=    18
                       cart. coord. in units 2pi/alat
        k(    1) = (   0.0833333   0.0833333   0.0833333), wk =   0.0370370
        k(    2) = (   0.0833333   0.0833333   0.2500000), wk =   0.0370370
        k(    3) = (   0.0833333   0.0833333   0.4166667), wk =   0.0370370
        k(    4) = (   0.0833333   0.2500000   0.2500000), wk =   0.0740741
        k(    5) = (   0.0833333   0.2500000   0.4166667), wk =   0.0740741
        k(    6) = (   0.0833333   0.4166667   0.4166667), wk =   0.0740741
        k(    7) = (   0.2500000   0.2500000   0.2500000), wk =   0.0370370
        k(    8) = (   0.2500000   0.2500000   0.4166667), wk =   0.0370370
        k(    9) = (   0.2500000   0.4166667   0.4166667), wk =   0.0740741
        k(   10) = (   0.4166667   0.4166667   0.4166667), wk =   0.0370370
        k(   11) = (   0.0833333   0.2500000   0.0833333), wk =   0.0740741
        k(   12) = (   0.0833333   0.4166667   0.0833333), wk =   0.0740741
        k(   13) = (   0.2500000   0.2500000   0.0833333), wk =   0.0370370
        k(   14) = (   0.2500000   0.4166667   0.0833333), wk =   0.0740741
        k(   15) = (   0.4166667   0.0833333   0.2500000), wk =   0.0740741
        k(   16) = (   0.4166667   0.4166667   0.0833333), wk =   0.0370370
        k(   17) = (   0.2500000   0.4166667   0.2500000), wk =   0.0740741
        k(   18) = (   0.4166667   0.4166667   0.2500000), wk =   0.0370370

                       cryst. coord.
        k(    1) = (   0.0833333   0.0833333   0.0833333), wk =   0.0370370
        k(    2) = (   0.0833333   0.0833333   0.2500000), wk =   0.0370370
        k(    3) = (   0.0833333   0.0833333   0.4166667), wk =   0.0370370
        k(    4) = (   0.0833333   0.2500000   0.2500000), wk =   0.0740741
        k(    5) = (   0.0833333   0.2500000   0.4166667), wk =   0.0740741
        k(    6) = (   0.0833333   0.4166667   0.4166667), wk =   0.0740741
        k(    7) = (   0.2500000   0.2500000   0.2500000), wk =   0.0370370
        k(    8) = (   0.2500000   0.2500000   0.4166667), wk =   0.0370370
        k(    9) = (   0.2500000   0.4166667   0.4166667), wk =   0.0740741
        k(   10) = (   0.4166667   0.4166667   0.4166667), wk =   0.0370370
        k(   11) = (   0.0833333   0.2500000   0.0833333), wk =   0.0740741
        k(   12) = (   0.0833333   0.4166667   0.0833333), wk =   0.0740741
        k(   13) = (   0.2500000   0.2500000   0.0833333), wk =   0.0370370
        k(   14) = (   0.2500000   0.4166667   0.0833333), wk =   0.0740741
        k(   15) = (   0.4166667   0.0833333   0.2500000), wk =   0.0740741
        k(   16) = (   0.4166667   0.4166667   0.0833333), wk =   0.0370370
        k(   17) = (   0.2500000   0.4166667   0.2500000), wk =   0.0740741
        k(   18) = (   0.4166667   0.4166667   0.2500000), wk =   0.0370370

     Dense  grid:   200237 G-vectors     FFT dimensions: (  80,  80,  80)

     Smooth grid:   143473 G-vectors     FFT dimensions: (  72,  72,  72)

     Dynamical RAM for                 wfc:       0.64 MB

     Dynamical RAM for     wfc (w. buffer):      12.08 MB

     Dynamical RAM for           str. fact:       0.13 MB

     Dynamical RAM for           local pot:       0.00 MB

     Dynamical RAM for          nlocal pot:       1.16 MB

     Dynamical RAM for                qrad:       6.65 MB

     Dynamical RAM for          rho,v,vnew:       1.94 MB

     Dynamical RAM for               rhoin:       0.65 MB

     Dynamical RAM for            rho*nmix:       4.08 MB

     Dynamical RAM for           G-vectors:       0.26 MB

     Dynamical RAM for          h,s,v(r/c):       0.57 MB

     Dynamical RAM for          <psi|beta>:       0.35 MB

     Dynamical RAM for                 psi:       1.27 MB

     Dynamical RAM for                hpsi:       1.27 MB

     Dynamical RAM for                spsi:       1.27 MB

     Dynamical RAM for      wfcinit/wfcrot:       1.26 MB

     Dynamical RAM for           addusdens:      39.10 MB

     Dynamical RAM for          addusforce:      39.56 MB

     Dynamical RAM for         addusstress:      39.99 MB

     Estimated static dynamical RAM per process >      27.91 MB

     Estimated max dynamical RAM per process >      67.89 MB

     Estimated total dynamical RAM >       3.18 GB

     Check: negative core charge=   -0.000001

     Initial potential from superposition of free atoms

     starting charge   55.99772, renormalised to   56.00000
     Starting wfcs are   68 randomized atomic wfcs

     total cpu time spent up to now is        4.5 secs

     Self-consistent Calculation

     iteration #  1     ecut=    50.00 Ry     beta= 0.35
     Davidson diagonalization with overlap
     ethr =  1.00E-02,  avg # of iterations =  1.0

     total cpu time spent up to now is       11.0 secs

     total energy              =    -458.28221481 Ry
     estimated scf accuracy    <       0.58736952 Ry

     iteration #  2     ecut=    50.00 Ry     beta= 0.35
     Davidson diagonalization with overlap
     ethr =  1.05E-03,  avg # of iterations =  3.0

     total cpu time spent up to now is       19.3 secs

     total energy              =    -458.35891680 Ry
     estimated scf accuracy    <       0.06202571 Ry

     iteration #  3     ecut=    50.00 Ry     beta= 0.35
     Davidson diagonalization with overlap
     ethr =  1.11E-04,  avg # of iterations =  5.4

     total cpu time spent up to now is       30.4 secs

     total energy              =    -458.37284590 Ry
     estimated scf accuracy    <       0.04556824 Ry

     iteration #  4     ecut=    50.00 Ry     beta= 0.35
     Davidson diagonalization with overlap
     ethr =  8.14E-05,  avg # of iterations =  5.2

     total cpu time spent up to now is       40.5 secs

     total energy              =    -458.38346097 Ry
     estimated scf accuracy    <       0.03248818 Ry

     iteration #  5     ecut=    50.00 Ry     beta= 0.35
     Davidson diagonalization with overlap
     ethr =  5.80E-05,  avg # of iterations =  3.4

     total cpu time spent up to now is       48.7 secs

     total energy              =    -458.38781419 Ry
     estimated scf accuracy    <       0.00120035 Ry

     iteration #  6     ecut=    50.00 Ry     beta= 0.35
     Davidson diagonalization with overlap
     ethr =  2.14E-06,  avg # of iterations = 10.9

     total cpu time spent up to now is       64.4 secs

     total energy              =    -458.38705216 Ry
     estimated scf accuracy    <       0.01322233 Ry

     iteration #  7     ecut=    50.00 Ry     beta= 0.35
     Davidson diagonalization with overlap
     ethr =  2.14E-06,  avg # of iterations =  6.9

     total cpu time spent up to now is       76.0 secs

     total energy              =    -458.38968340 Ry
     estimated scf accuracy    <       0.00008371 Ry

     iteration #  8     ecut=    50.00 Ry     beta= 0.35
     Davidson diagonalization with overlap
     ethr =  1.49E-07,  avg # of iterations =  4.3

     total cpu time spent up to now is       84.3 secs

     total energy              =    -458.38967426 Ry
     estimated scf accuracy    <       0.00004582 Ry

     iteration #  9     ecut=    50.00 Ry     beta= 0.35
     Davidson diagonalization with overlap
     ethr =  8.18E-08,  avg # of iterations =  4.9

     total cpu time spent up to now is       93.6 secs

     total energy              =    -458.38968822 Ry
     estimated scf accuracy    <       0.00000164 Ry

     iteration # 10     ecut=    50.00 Ry     beta= 0.35
     Davidson diagonalization with overlap
     ethr =  2.94E-09,  avg # of iterations =  6.9

     total cpu time spent up to now is      104.8 secs

     total energy              =    -458.38968870 Ry
     estimated scf accuracy    <       0.00000374 Ry

     iteration # 11     ecut=    50.00 Ry     beta= 0.35
     Davidson diagonalization with overlap
     ethr =  2.94E-09,  avg # of iterations =  4.8

     total cpu time spent up to now is      114.2 secs

     End of self-consistent calculation

          k = 0.0833 0.0833 0.0833 ( 17869 PWs)   bands (ev):

   -23.2553 -23.2553 -23.2553 -23.2553 -23.1302 -23.1302 -23.1301 -23.1301
   -22.2358 -22.2358 -22.2357 -22.2357 -22.1267 -22.1267 -22.1267 -22.1267
   -22.0756 -22.0756 -22.0755 -22.0755 -11.6196 -11.6196 -11.5290 -11.5290
   -11.4793 -11.4793 -11.4750 -11.4750  -7.0727  -7.0727  -6.8732  -6.8732
    -2.6868  -2.6868  -2.5252  -2.5252  -2.1387  -2.1387  -2.0275  -2.0275
    -1.8801  -1.8801  -1.5283  -1.5283  -1.2246  -1.2246  -1.1315  -1.1315
    -1.1068  -1.1068  -0.9944  -0.9944  -0.9228  -0.9228  -0.8821  -0.8821

     occupation numbers 
     1.0000   1.0000   1.0000   1.0000   1.0000   1.0000   1.0000   1.0000
     1.0000   1.0000   1.0000   1.0000   1.0000   1.0000   1.0000   1.0000
     1.0000   1.0000   1.0000   1.0000   1.0000   1.0000   1.0000   1.0000
     1.0000   1.0000   1.0000   1.0000   1.0000   1.0000   1.0000   1.0000
     1.0000   1.0000   1.0000   1.0000   1.0000   1.0000   1.0000   1.0000
     1.0000   1.0000   1.0000   1.0000   1.0000   1.0000   1.0000   1.0000
     1.0000   1.0000   1.0000   1.0000   1.0000   1.0000   1.0000   1.0000

          k = 0.0833 0.0833 0.2500 ( 17894 PWs)   bands (ev):

   -23.2553 -23.2553 -23.2553 -23.2553 -23.1301 -23.1301 -23.1301 -23.1301
   -22.2358 -22.2358 -22.2357 -22.2357 -22.1267 -22.1267 -22.1267 -22.1267
   -22.0756 -22.0756 -22.0755 -22.0755 -11.6072 -11.6072 -11.5407 -11.5407
   -11.4792 -11.4792 -11.4748 -11.4748  -7.0527  -7.0527  -6.9070  -6.9070
    -2.6741  -2.6741  -2.5225  -2.5225  -2.1273  -2.1273  -2.0060  -2.0060
    -1.8545  -1.8545  -1.5528  -1.5528  -1.2224  -1.2224  -1.1726  -1.1726
    -1.1300  -1.1300  -1.0223  -1.0223  -0.9330  -0.9330  -0.8956  -0.8956

     occupation numbers 
     1.0000   1.0000   1.0000   1.0000   1.0000   1.0000   1.0000   1.0000
     1.0000   1.0000   1.0000   1.0000   1.0000   1.0000   1.0000   1.0000
     1.0000   1.0000   1.0000   1.0000   1.0000   1.0000   1.0000   1.0000
     1.0000   1.0000   1.0000   1.0000   1.0000   1.0000   1.0000   1.0000
     1.0000   1.0000   1.0000   1.0000   1.0000   1.0000   1.0000   1.0000
     1.0000   1.0000   1.0000   1.0000   1.0000   1.0000   1.0000   1.0000
     1.0000   1.0000   1.0000   1.0000   1.0000   1.0000   1.0000   1.0000

          k = 0.0833 0.0833 0.4167 ( 17910 PWs)   bands (ev):

   -23.2553 -23.2553 -23.2553 -23.2553 -23.1301 -23.1301 -23.1301 -23.1301
   -22.2358 -22.2358 -22.2357 -22.2357 -22.1267 -22.1267 -22.1267 -22.1267
   -22.0756 -22.0756 -22.0756 -22.0756 -11.5860 -11.5860 -11.5614 -11.5614
   -11.4791 -11.4791 -11.4746 -11.4746  -7.0133  -7.0133  -6.9599  -6.9599
    -2.6619  -2.6619  -2.5185  -2.5185  -2.1260  -2.1260  -1.9886  -1.9886
    -1.7881  -1.7881  -1.6097  -1.6097  -1.2213  -1.2213  -1.2014  -1.2014
    -1.1337  -1.1337  -1.0569  -1.0569  -0.9599  -0.9599  -0.9096  -0.9096

     occupation numbers 
     1.0000   1.0000   1.0000   1.0000   1.0000   1.0000   1.0000   1.0000
     1.0000   1.0000   1.0000   1.0000   1.0000   1.0000   1.0000   1.0000
     1.0000   1.0000   1.0000   1.0000   1.0000   1.0000   1.0000   1.0000
     1.0000   1.0000   1.0000   1.0000   1.0000   1.0000   1.0000   1.0000
     1.0000   1.0000   1.0000   1.0000   1.0000   1.0000   1.0000   1.0000
     1.0000   1.0000   1.0000   1.0000   1.0000   1.0000   1.0000   1.0000
     1.0000   1.0000   1.0000   1.0000   1.0000   1.0000   1.0000   1.0000

          k = 0.0833 0.2500 0.2500 ( 17893 PWs)   bands (ev):

   -23.2553 -23.2553 -23.2553 -23.2553 -23.1301 -23.1301 -23.1301 -23.1301
   -22.2358 -22.2358 -22.2357 -22.2357 -22.1267 -22.1267 -22.1267 -22.1267
   -22.0756 -22.0756 -22.0755 -22.0755 -11.5922 -11.5922 -11.5359 -11.5359
   -11.4938 -11.4938 -11.4809 -11.4809  -7.0296  -7.0296  -6.9222  -6.9222
    -2.8214  -2.8214  -2.6473  -2.6473  -2.0972  -2.0972  -1.9398  -1.9398
    -1.8125  -1.8125  -1.5747  -1.5747  -1.2478  -1.2478  -1.1803  -1.1803
    -1.0508  -1.0508  -0.9623  -0.9623  -0.8975  -0.8975  -0.7135  -0.7135

     occupation numbers 
     1.0000   1.0000   1.0000   1.0000   1.0000   1.0000   1.0000   1.0000
     1.0000   1.0000   1.0000   1.0000   1.0000   1.0000   1.0000   1.0000
     1.0000   1.0000   1.0000   1.0000   1.0000   1.0000   1.0000   1.0000
     1.0000   1.0000   1.0000   1.0000   1.0000   1.0000   1.0000   1.0000
     1.0000   1.0000   1.0000   1.0000   1.0000   1.0000   1.0000   1.0000
     1.0000   1.0000   1.0000   1.0000   1.0000   1.0000   1.0000   1.0000
     1.0000   1.0000   1.0000   1.0000   1.0000   1.0000   1.0000   1.0000

          k = 0.0833 0.2500 0.4167 ( 17902 PWs)   bands (ev):

   -23.2553 -23.2553 -23.2553 -23.2553 -23.1301 -23.1301 -23.1301 -23.1301
   -22.2358 -22.2358 -22.2357 -22.2357 -22.1267 -22.1267 -22.1267 -22.1267
   -22.0756 -22.0756 -22.0756 -22.0756 -11.5747 -11.5747 -11.5517 -11.5517
   -11.4936 -11.4936 -11.4818 -11.4818  -7.0027  -7.0027  -6.9621  -6.9621
    -2.8340  -2.8340  -2.6513  -2.6513  -2.0633  -2.0633  -1.8853  -1.8853
    -1.8329  -1.8329  -1.5828  -1.5828  -1.2548  -1.2548  -1.1760  -1.1760
    -1.0661  -1.0661  -0.9783  -0.9783  -0.8908  -0.8908  -0.7128  -0.7128

     occupation numbers 
     1.0000   1.0000   1.0000   1.0000   1.0000   1.0000   1.0000   1.0000
     1.0000   1.0000   1.0000   1.0000   1.0000   1.0000   1.0000   1.0000
     1.0000   1.0000   1.0000   1.0000   1.0000   1.0000   1.0000   1.0000
     1.0000   1.0000   1.0000   1.0000   1.0000   1.0000   1.0000   1.0000
     1.0000   1.0000   1.0000   1.0000   1.0000   1.0000   1.0000   1.0000
     1.0000   1.0000   1.0000   1.0000   1.0000   1.0000   1.0000   1.0000
     1.0000   1.0000   1.0000   1.0000   1.0000   1.0000   1.0000   1.0000

          k = 0.0833 0.4167 0.4167 ( 17901 PWs)   bands (ev):

   -23.2553 -23.2553 -23.2553 -23.2553 -23.1301 -23.1301 -23.1301 -23.1301
   -22.2358 -22.2358 -22.2357 -22.2357 -22.1267 -22.1267 -22.1267 -22.1267
   -22.0756 -22.0756 -22.0756 -22.0756 -11.5559 -11.5559 -11.5427 -11.5427
   -11.5068 -11.5068 -11.4971 -11.4971  -6.9865  -6.9865  -6.9700  -6.9700
    -2.9012  -2.9012  -2.8243  -2.8243  -2.0181  -2.0181  -1.9081  -1.9081
    -1.7842  -1.7842  -1.5846  -1.5846  -1.2423  -1.2423  -1.1957  -1.1957
    -0.9669  -0.9669  -0.9336  -0.9336  -0.7167  -0.7167  -0.5737  -0.5737

     occupation numbers 
     1.0000   1.0000   1.0000   1.0000   1.0000   1.0000   1.0000   1.0000
     1.0000   1.0000   1.0000   1.0000   1.0000   1.0000   1.0000   1.0000
     1.0000   1.0000   1.0000   1.0000   1.0000   1.0000   1.0000   1.0000
     1.0000   1.0000   1.0000   1.0000   1.0000   1.0000   1.0000   1.0000
     1.0000   1.0000   1.0000   1.0000   1.0000   1.0000   1.0000   1.0000
     1.0000   1.0000   1.0000   1.0000   1.0000   1.0000   1.0000   1.0000
     1.0000   1.0000   1.0000   1.0000   1.0000   1.0000   1.0000   1.0000

          k = 0.2500 0.2500 0.2500 ( 17911 PWs)   bands (ev):

   -23.2553 -23.2553 -23.2553 -23.2553 -23.1302 -23.1302 -23.1301 -23.1301
   -22.2358 -22.2358 -22.2357 -22.2357 -22.1267 -22.1267 -22.1267 -22.1267
   -22.0756 -22.0756 -22.0755 -22.0755 -11.5837 -11.5837 -11.5359 -11.5359
   -11.5029 -11.5029 -11.4798 -11.4798  -7.0195  -7.0195  -6.9389  -6.9389
    -2.8797  -2.8797  -2.5344  -2.5344  -2.0946  -2.0946  -1.9255  -1.9255
    -1.8712  -1.8712  -1.6022  -1.6022  -1.2940  -1.2940  -1.2266  -1.2266
    -1.1200  -1.1200  -0.9319  -0.9319  -0.8768  -0.8768  -0.5869  -0.5869

     occupation numbers 
     1.0000   1.0000   1.0000   1.0000   1.0000   1.0000   1.0000   1.0000
     1.0000   1.0000   1.0000   1.0000   1.0000   1.0000   1.0000   1.0000
     1.0000   1.0000   1.0000   1.0000   1.0000   1.0000   1.0000   1.0000
     1.0000   1.0000   1.0000   1.0000   1.0000   1.0000   1.0000   1.0000
     1.0000   1.0000   1.0000   1.0000   1.0000   1.0000   1.0000   1.0000
     1.0000   1.0000   1.0000   1.0000   1.0000   1.0000   1.0000   1.0000
     1.0000   1.0000   1.0000   1.0000   1.0000   1.0000   1.0000   1.0000

          k = 0.2500 0.2500 0.4167 ( 17903 PWs)   bands (ev):

   -23.2553 -23.2553 -23.2553 -23.2553 -23.1301 -23.1301 -23.1301 -23.1301
   -22.2358 -22.2358 -22.2357 -22.2357 -22.1267 -22.1267 -22.1267 -22.1267
   -22.0756 -22.0756 -22.0756 -22.0756 -11.5725 -11.5725 -11.5430 -11.5430
   -11.5060 -11.5060 -11.4796 -11.4796  -7.0037  -7.0037  -6.9681  -6.9681
    -2.8976  -2.8976  -2.5198  -2.5198  -2.1152  -2.1152  -1.8859  -1.8859
    -1.8721  -1.8721  -1.5818  -1.5818  -1.3065  -1.3065  -1.2047  -1.2047
    -1.1194  -1.1194  -0.9262  -0.9262  -0.8665  -0.8665  -0.5765  -0.5765

     occupation numbers 
     1.0000   1.0000   1.0000   1.0000   1.0000   1.0000   1.0000   1.0000
     1.0000   1.0000   1.0000   1.0000   1.0000   1.0000   1.0000   1.0000
     1.0000   1.0000   1.0000   1.0000   1.0000   1.0000   1.0000   1.0000
     1.0000   1.0000   1.0000   1.0000   1.0000   1.0000   1.0000   1.0000
     1.0000   1.0000   1.0000   1.0000   1.0000   1.0000   1.0000   1.0000
     1.0000   1.0000   1.0000   1.0000   1.0000   1.0000   1.0000   1.0000
     1.0000   1.0000   1.0000   1.0000   1.0000   1.0000   1.0000   1.0000

          k = 0.2500 0.4167 0.4167 ( 17891 PWs)   bands (ev):

   -23.2553 -23.2553 -23.2553 -23.2553 -23.1301 -23.1301 -23.1301 -23.1301
   -22.2357 -22.2357 -22.2357 -22.2357 -22.1267 -22.1267 -22.1267 -22.1267
   -22.0756 -22.0756 -22.0756 -22.0756 -11.5630 -11.5630 -11.5486 -11.5486
   -11.5013 -11.5013 -11.4874 -11.4874  -6.9971  -6.9971  -6.9818  -6.9818
    -2.8230  -2.8230  -2.6463  -2.6463  -2.0780  -2.0780  -1.9385  -1.9385
    -1.8214  -1.8214  -1.5877  -1.5877  -1.2909  -1.2909  -1.2342  -1.2342
    -1.0281  -1.0281  -0.8967  -0.8967  -0.8304  -0.8304  -0.7205  -0.7205

     occupation numbers 
     1.0000   1.0000   1.0000   1.0000   1.0000   1.0000   1.0000   1.0000
     1.0000   1.0000   1.0000   1.0000   1.0000   1.0000   1.0000   1.0000
     1.0000   1.0000   1.0000   1.0000   1.0000   1.0000   1.0000   1.0000
     1.0000   1.0000   1.0000   1.0000   1.0000   1.0000   1.0000   1.0000
     1.0000   1.0000   1.0000   1.0000   1.0000   1.0000   1.0000   1.0000
     1.0000   1.0000   1.0000   1.0000   1.0000   1.0000   1.0000   1.0000
     1.0000   1.0000   1.0000   1.0000   1.0000   1.0000   1.0000   1.0000

          k = 0.4167 0.4167 0.4167 ( 17898 PWs)   bands (ev):

   -23.2553 -23.2553 -23.2553 -23.2553 -23.1301 -23.1301 -23.1301 -23.1301
   -22.2357 -22.2357 -22.2357 -22.2357 -22.1267 -22.1267 -22.1267 -22.1267
   -22.0756 -22.0756 -22.0755 -22.0755 -11.5646 -11.5646 -11.5589 -11.5589
   -11.4902 -11.4902 -11.4845 -11.4845  -7.0040  -7.0040  -6.9972  -6.9972
    -2.6436  -2.6436  -2.5213  -2.5213  -2.1137  -2.1137  -1.9803  -1.9803
    -1.8657  -1.8657  -1.6628  -1.6628  -1.3311  -1.3311  -1.2796  -1.2796
    -1.0921  -1.0921  -1.0099  -1.0099  -0.8089  -0.8089  -0.7941  -0.7941

     occupation numbers 
     1.0000   1.0000   1.0000   1.0000   1.0000   1.0000   1.0000   1.0000
     1.0000   1.0000   1.0000   1.0000   1.0000   1.0000   1.0000   1.0000
     1.0000   1.0000   1.0000   1.0000   1.0000   1.0000   1.0000   1.0000
     1.0000   1.0000   1.0000   1.0000   1.0000   1.0000   1.0000   1.0000
     1.0000   1.0000   1.0000   1.0000   1.0000   1.0000   1.0000   1.0000
     1.0000   1.0000   1.0000   1.0000   1.0000   1.0000   1.0000   1.0000
     1.0000   1.0000   1.0000   1.0000   1.0000   1.0000   1.0000   1.0000

          k = 0.0833 0.2500 0.0833 ( 17894 PWs)   bands (ev):

   -23.2553 -23.2553 -23.2553 -23.2553 -23.1302 -23.1302 -23.1301 -23.1301
   -22.2358 -22.2358 -22.2358 -22.2358 -22.1267 -22.1267 -22.1267 -22.1267
   -22.0756 -22.0756 -22.0755 -22.0755 -11.6029 -11.6029 -11.5276 -11.5276
   -11.4933 -11.4933 -11.4801 -11.4801  -7.0427  -7.0427  -6.8960  -6.8960
    -2.8058  -2.8058  -2.6423  -2.6423  -2.1544  -2.1544  -1.9701  -1.9701
    -1.8009  -1.8009  -1.5535  -1.5535  -1.2409  -1.2409  -1.1844  -1.1844
    -1.0371  -1.0371  -0.9545  -0.9545  -0.9001  -0.9001  -0.7134  -0.7134

     occupation numbers 
     1.0000   1.0000   1.0000   1.0000   1.0000   1.0000   1.0000   1.0000
     1.0000   1.0000   1.0000   1.0000   1.0000   1.0000   1.0000   1.0000
     1.0000   1.0000   1.0000   1.0000   1.0000   1.0000   1.0000   1.0000
     1.0000   1.0000   1.0000   1.0000   1.0000   1.0000   1.0000   1.0000
     1.0000   1.0000   1.0000   1.0000   1.0000   1.0000   1.0000   1.0000
     1.0000   1.0000   1.0000   1.0000   1.0000   1.0000   1.0000   1.0000
     1.0000   1.0000   1.0000   1.0000   1.0000   1.0000   1.0000   1.0000

          k = 0.0833 0.4167 0.0833 ( 17910 PWs)   bands (ev):

   -23.2553 -23.2553 -23.2553 -23.2553 -23.1301 -23.1301 -23.1301 -23.1301
   -22.2358 -22.2358 -22.2358 -22.2358 -22.1267 -22.1267 -22.1267 -22.1267
   -22.0756 -22.0756 -22.0756 -22.0756 -11.5739 -11.5739 -11.5425 -11.5425
   -11.4987 -11.4987 -11.4898 -11.4898  -6.9926  -6.9926  -6.9387  -6.9387
    -2.8586  -2.8586  -2.7917  -2.7917  -2.0992  -2.0992  -2.0114  -2.0114
    -1.7042  -1.7042  -1.6043  -1.6043  -1.2669  -1.2669  -1.2427  -1.2427
    -0.9954  -0.9954  -0.9469  -0.9469  -0.7227  -0.7227  -0.5946  -0.5946

     occupation numbers 
     1.0000   1.0000   1.0000   1.0000   1.0000   1.0000   1.0000   1.0000
     1.0000   1.0000   1.0000   1.0000   1.0000   1.0000   1.0000   1.0000
     1.0000   1.0000   1.0000   1.0000   1.0000   1.0000   1.0000   1.0000
     1.0000   1.0000   1.0000   1.0000   1.0000   1.0000   1.0000   1.0000
     1.0000   1.0000   1.0000   1.0000   1.0000   1.0000   1.0000   1.0000
     1.0000   1.0000   1.0000   1.0000   1.0000   1.0000   1.0000   1.0000
     1.0000   1.0000   1.0000   1.0000   1.0000   1.0000   1.0000   1.0000

          k = 0.2500 0.2500 0.0833 ( 17893 PWs)   bands (ev):

   -23.2553 -23.2553 -23.2553 -23.2553 -23.1301 -23.1301 -23.1301 -23.1301
   -22.2358 -22.2358 -22.2357 -22.2357 -22.1267 -22.1267 -22.1267 -22.1267
   -22.0756 -22.0756 -22.0755 -22.0755 -11.5918 -11.5918 -11.5322 -11.5322
   -11.4994 -11.4994 -11.4799 -11.4799  -7.0268  -7.0268  -6.9182  -6.9182
    -2.8581  -2.8581  -2.5506  -2.5506  -2.0838  -2.0838  -1.9787  -1.9787
    -1.8676  -1.8676  -1.5852  -1.5852  -1.2933  -1.2933  -1.2478  -1.2478
    -1.1201  -1.1201  -0.9311  -0.9311  -0.8962  -0.8962  -0.5961  -0.5961

     occupation numbers 
     1.0000   1.0000   1.0000   1.0000   1.0000   1.0000   1.0000   1.0000
     1.0000   1.0000   1.0000   1.0000   1.0000   1.0000   1.0000   1.0000
     1.0000   1.0000   1.0000   1.0000   1.0000   1.0000   1.0000   1.0000
     1.0000   1.0000   1.0000   1.0000   1.0000   1.0000   1.0000   1.0000
     1.0000   1.0000   1.0000   1.0000   1.0000   1.0000   1.0000   1.0000
     1.0000   1.0000   1.0000   1.0000   1.0000   1.0000   1.0000   1.0000
     1.0000   1.0000   1.0000   1.0000   1.0000   1.0000   1.0000   1.0000

          k = 0.2500 0.4167 0.0833 ( 17902 PWs)   bands (ev):

   -23.2553 -23.2553 -23.2553 -23.2553 -23.1301 -23.1301 -23.1301 -23.1301
   -22.2358 -22.2358 -22.2358 -22.2358 -22.1267 -22.1267 -22.1267 -22.1267
   -22.0756 -22.0756 -22.0756 -22.0756 -11.5725 -11.5725 -11.5499 -11.5499
   -11.4949 -11.4949 -11.4859 -11.4859  -6.9959  -6.9959  -6.9557  -6.9557
    -2.7889  -2.7889  -2.6384  -2.6384  -2.0638  -2.0638  -2.0057  -2.0057
    -1.7654  -1.7654  -1.6389  -1.6389  -1.3476  -1.3476  -1.3199  -1.3199
    -1.0322  -1.0322  -0.9306  -0.9306  -0.8562  -0.8562  -0.7066  -0.7066

     occupation numbers 
     1.0000   1.0000   1.0000   1.0000   1.0000   1.0000   1.0000   1.0000
     1.0000   1.0000   1.0000   1.0000   1.0000   1.0000   1.0000   1.0000
     1.0000   1.0000   1.0000   1.0000   1.0000   1.0000   1.0000   1.0000
     1.0000   1.0000   1.0000   1.0000   1.0000   1.0000   1.0000   1.0000
     1.0000   1.0000   1.0000   1.0000   1.0000   1.0000   1.0000   1.0000
     1.0000   1.0000   1.0000   1.0000   1.0000   1.0000   1.0000   1.0000
     1.0000   1.0000   1.0000   1.0000   1.0000   1.0000   1.0000   1.0000

          k = 0.4167 0.0833 0.2500 ( 17902 PWs)   bands (ev):

   -23.2553 -23.2553 -23.2553 -23.2553 -23.1301 -23.1301 -23.1301 -23.1301
   -22.2358 -22.2358 -22.2357 -22.2357 -22.1267 -22.1267 -22.1267 -22.1267
   -22.0756 -22.0756 -22.0756 -22.0756 -11.5667 -11.5667 -11.5411 -11.5411
   -11.5029 -11.5029 -11.4930 -11.4930  -6.9919  -6.9919  -6.9520  -6.9520
    -2.8820  -2.8820  -2.8091  -2.8091  -2.0469  -2.0469  -1.9588  -1.9588
    -1.7542  -1.7542  -1.5916  -1.5916  -1.2577  -1.2577  -1.2232  -1.2232
    -0.9969  -0.9969  -0.9253  -0.9253  -0.7235  -0.7235  -0.5871  -0.5871

     occupation numbers 
     1.0000   1.0000   1.0000   1.0000   1.0000   1.0000   1.0000   1.0000
     1.0000   1.0000   1.0000   1.0000   1.0000   1.0000   1.0000   1.0000
     1.0000   1.0000   1.0000   1.0000   1.0000   1.0000   1.0000   1.0000
     1.0000   1.0000   1.0000   1.0000   1.0000   1.0000   1.0000   1.0000
     1.0000   1.0000   1.0000   1.0000   1.0000   1.0000   1.0000   1.0000
     1.0000   1.0000   1.0000   1.0000   1.0000   1.0000   1.0000   1.0000
     1.0000   1.0000   1.0000   1.0000   1.0000   1.0000   1.0000   1.0000

          k = 0.4167 0.4167 0.0833 ( 17901 PWs)   bands (ev):

   -23.2553 -23.2553 -23.2553 -23.2553 -23.1301 -23.1301 -23.1301 -23.1301
   -22.2358 -22.2358 -22.2358 -22.2358 -22.1267 -22.1267 -22.1267 -22.1267
   -22.0756 -22.0756 -22.0756 -22.0756 -11.5680 -11.5680 -11.5598 -11.5598
   -11.4887 -11.4887 -11.4849 -11.4849  -6.9933  -6.9933  -6.9784  -6.9784
    -2.6338  -2.6338  -2.5403  -2.5403  -2.0214  -2.0214  -1.9592  -1.9592
    -1.8475  -1.8475  -1.7212  -1.7212  -1.4085  -1.4085  -1.3989  -1.3989
    -1.1200  -1.1200  -1.0255  -1.0255  -0.8387  -0.8387  -0.8146  -0.8146

     occupation numbers 
     1.0000   1.0000   1.0000   1.0000   1.0000   1.0000   1.0000   1.0000
     1.0000   1.0000   1.0000   1.0000   1.0000   1.0000   1.0000   1.0000
     1.0000   1.0000   1.0000   1.0000   1.0000   1.0000   1.0000   1.0000
     1.0000   1.0000   1.0000   1.0000   1.0000   1.0000   1.0000   1.0000
     1.0000   1.0000   1.0000   1.0000   1.0000   1.0000   1.0000   1.0000
     1.0000   1.0000   1.0000   1.0000   1.0000   1.0000   1.0000   1.0000
     1.0000   1.0000   1.0000   1.0000   1.0000   1.0000   1.0000   1.0000

          k = 0.2500 0.4167 0.2500 ( 17903 PWs)   bands (ev):

   -23.2553 -23.2553 -23.2553 -23.2553 -23.1301 -23.1301 -23.1301 -23.1301
   -22.2358 -22.2358 -22.2357 -22.2357 -22.1267 -22.1267 -22.1267 -22.1267
   -22.0756 -22.0756 -22.0756 -22.0756 -11.5681 -11.5681 -11.5490 -11.5490
   -11.4979 -11.4979 -11.4867 -11.4867  -6.9978  -6.9978  -6.9675  -6.9675
    -2.8076  -2.8076  -2.6426  -2.6426  -2.0646  -2.0646  -1.9603  -1.9603
    -1.8053  -1.8053  -1.6237  -1.6237  -1.3179  -1.3179  -1.2818  -1.2818
    -1.0260  -1.0260  -0.9144  -0.9144  -0.8442  -0.8442  -0.7121  -0.7121

     occupation numbers 
     1.0000   1.0000   1.0000   1.0000   1.0000   1.0000   1.0000   1.0000
     1.0000   1.0000   1.0000   1.0000   1.0000   1.0000   1.0000   1.0000
     1.0000   1.0000   1.0000   1.0000   1.0000   1.0000   1.0000   1.0000
     1.0000   1.0000   1.0000   1.0000   1.0000   1.0000   1.0000   1.0000
     1.0000   1.0000   1.0000   1.0000   1.0000   1.0000   1.0000   1.0000
     1.0000   1.0000   1.0000   1.0000   1.0000   1.0000   1.0000   1.0000
     1.0000   1.0000   1.0000   1.0000   1.0000   1.0000   1.0000   1.0000

          k = 0.4167 0.4167 0.2500 ( 17891 PWs)   bands (ev):

   -23.2553 -23.2553 -23.2553 -23.2553 -23.1301 -23.1301 -23.1301 -23.1301
   -22.2357 -22.2357 -22.2357 -22.2357 -22.1267 -22.1267 -22.1267 -22.1267
   -22.0756 -22.0756 -22.0756 -22.0756 -11.5663 -11.5663 -11.5593 -11.5593
   -11.4895 -11.4895 -11.4847 -11.4847  -6.9990  -6.9990  -6.9875  -6.9875
    -2.6393  -2.6393  -2.5304  -2.5304  -2.0681  -2.0681  -1.9610  -1.9610
    -1.8621  -1.8621  -1.6991  -1.6991  -1.3709  -1.3709  -1.3511  -1.3511
    -1.0971  -1.0971  -1.0072  -1.0072  -0.8246  -0.8246  -0.8079  -0.8079

     occupation numbers 
     1.0000   1.0000   1.0000   1.0000   1.0000   1.0000   1.0000   1.0000
     1.0000   1.0000   1.0000   1.0000   1.0000   1.0000   1.0000   1.0000
     1.0000   1.0000   1.0000   1.0000   1.0000   1.0000   1.0000   1.0000
     1.0000   1.0000   1.0000   1.0000   1.0000   1.0000   1.0000   1.0000
     1.0000   1.0000   1.0000   1.0000   1.0000   1.0000   1.0000   1.0000
     1.0000   1.0000   1.0000   1.0000   1.0000   1.0000   1.0000   1.0000
     1.0000   1.0000   1.0000   1.0000   1.0000   1.0000   1.0000   1.0000

     highest occupied level (ev):    -0.5737

!    total energy              =    -458.38968916 Ry
     estimated scf accuracy    <       0.00000008 Ry

     The total energy is the sum of the following terms:
     one-electron contribution =    -256.45337499 Ry
     hartree contribution      =     145.39515569 Ry
     xc contribution           =    -157.07970952 Ry
     ewald contribution        =    -190.25176034 Ry

     convergence has been achieved in  11 iterations

     Forces acting on atoms (cartesian axes, Ry/au):

     atom    1 type  1   force =     0.00000000    0.00000000    0.00000000
     atom    2 type  1   force =     0.00000000    0.00000000    0.00000000
     atom    3 type  2   force =    -0.01797957   -0.01797957   -0.00000000
     atom    4 type  2   force =     0.01797957    0.01797957   -0.00000000
     atom    5 type  2   force =    -0.01797957    0.01797957    0.00000000
     atom    6 type  2   force =     0.01797957   -0.01797957    0.00000000
     The non-local contrib.  to forces
     atom    1 type  1   force =     0.00000000    0.00000000    0.00000000
     atom    2 type  1   force =     0.00000000    0.00000000    0.00000000
     atom    3 type  2   force =    -0.04132768   -0.04132768    0.00000000
     atom    4 type  2   force =     0.04132768    0.04132768    0.00000000
     atom    5 type  2   force =    -0.04132768    0.04132768    0.00000000
     atom    6 type  2   force =     0.04132768   -0.04132768    0.00000000
     The ionic contribution  to forces
     atom    1 type  1   force =    -0.00000000   -0.00000000    0.00000000
     atom    2 type  1   force =    -0.00000000   -0.00000000    0.00000000
     atom    3 type  2   force =     1.38633658    1.38633658    0.00000000
     atom    4 type  2   force =    -1.38633658   -1.38633658   -0.00000000
     atom    5 type  2   force =     1.38633658   -1.38633658    0.00000000
     atom    6 type  2   force =    -1.38633658    1.38633658    0.00000000
     The local contribution  to forces
     atom    1 type  1   force =    -0.00000000   -0.00000000   -0.00000000
     atom    2 type  1   force =     0.00000000    0.00000000    0.00000000
     atom    3 type  2   force =    -1.36685120   -1.36685120   -0.00000000
     atom    4 type  2   force =     1.36685120    1.36685120   -0.00000000
     atom    5 type  2   force =    -1.36685120    1.36685120    0.00000000
     atom    6 type  2   force =     1.36685120   -1.36685120    0.00000000
     The core correction contribution to forces
     atom    1 type  1   force =    -0.00000000   -0.00000000    0.00000000
     atom    2 type  1   force =     0.00000000    0.00000000    0.00000000
     atom    3 type  2   force =     0.00390711    0.00390711   -0.00000000
     atom    4 type  2   force =    -0.00390711   -0.00390711    0.00000000
     atom    5 type  2   force =     0.00390711   -0.00390711   -0.00000000
     atom    6 type  2   force =    -0.00390711    0.00390711   -0.00000000
     The Hubbard contrib.    to forces
     atom    1 type  1   force =     0.00000000    0.00000000    0.00000000
     atom    2 type  1   force =     0.00000000    0.00000000    0.00000000
     atom    3 type  2   force =     0.00000000    0.00000000    0.00000000
     atom    4 type  2   force =     0.00000000    0.00000000    0.00000000
     atom    5 type  2   force =     0.00000000    0.00000000    0.00000000
     atom    6 type  2   force =     0.00000000    0.00000000    0.00000000
     The SCF correction term to forces
     atom    1 type  1   force =    -0.00000000   -0.00000000   -0.00000000
     atom    2 type  1   force =     0.00000000   -0.00000000    0.00000000
     atom    3 type  2   force =    -0.00004438   -0.00004438    0.00000000
     atom    4 type  2   force =     0.00004438    0.00004438    0.00000000
     atom    5 type  2   force =    -0.00004438    0.00004438   -0.00000000
     atom    6 type  2   force =     0.00004438   -0.00004438   -0.00000000

     Total force =     0.050854     Total SCF correction =     0.000126


     Computing stress (Cartesian axis) and pressure

          total   stress  (Ry/bohr**3)                   (kbar)     P=      -27.04
  -0.00018607   0.00000000   0.00000000          -27.37        0.00        0.00
   0.00000000  -0.00018607   0.00000000            0.00      -27.37        0.00
   0.00000000   0.00000000  -0.00017922            0.00        0.00      -26.36

     kinetic stress (kbar)   4479.19      0.00      0.00
                                0.00   4479.19      0.00
                                0.00      0.00   4473.99

     local   stress (kbar)  -2713.60      0.00     -0.00
                                0.00  -2713.60     -0.00
                               -0.00     -0.00  -2197.97

     nonloc. stress (kbar)     67.63      0.00      0.00
                                0.00     67.63      0.00
                                0.00      0.00     52.38

     hartree stress (kbar)   2422.10     -0.00      0.00
                               -0.00   2422.10     -0.00
                                0.00     -0.00   2289.05

     exc-cor stress (kbar)   3792.57      0.00     -0.00
                                0.00   3792.57     -0.00
                               -0.00     -0.00   3791.57

     corecor stress (kbar)  -5084.27     -0.00     -0.00
                               -0.00  -5084.27     -0.00
                               -0.00     -0.00  -5083.41

     ewald   stress (kbar)  -2990.99      0.00     -0.00
                                0.00  -2990.99     -0.00
                               -0.00     -0.00  -3351.97

     hubbard stress (kbar)      0.00      0.00      0.00
                                0.00      0.00      0.00
                                0.00      0.00      0.00

     DFT-D   stress (kbar)      0.00      0.00      0.00
                                0.00      0.00      0.00
                                0.00      0.00      0.00

     XDM     stress (kbar)      0.00      0.00      0.00
                                0.00      0.00      0.00
                                0.00      0.00      0.00

     dft-nl  stress (kbar)      0.00      0.00      0.00
                                0.00      0.00      0.00
                                0.00      0.00      0.00

     TS-vdW  stress (kbar)      0.00      0.00      0.00
                                0.00      0.00      0.00
                                0.00      0.00      0.00



     Writing output data file ./SnI2.save/

     init_run     :      6.17s CPU      3.67s WALL (       1 calls)
     electrons    :    202.86s CPU    109.82s WALL (       1 calls)
     forces       :      3.24s CPU      2.51s WALL (       1 calls)
     stress       :      9.77s CPU      5.39s WALL (       1 calls)

     Called by init_run:
     wfcinit      :      4.96s CPU      2.69s WALL (       1 calls)
     wfcinit:atom :      0.04s CPU      0.02s WALL (      18 calls)
     wfcinit:wfcr :      4.76s CPU      2.55s WALL (      18 calls)
     potinit      :      0.14s CPU      0.08s WALL (       1 calls)
     hinit0       :      0.46s CPU      0.40s WALL (       1 calls)

     Called by electrons:
     c_bands      :    166.52s CPU     88.76s WALL (      11 calls)
     sum_band     :     29.85s CPU     16.44s WALL (      11 calls)
     v_of_rho     :      0.51s CPU      0.28s WALL (      12 calls)
     v_h          :      0.05s CPU      0.03s WALL (      12 calls)
     v_xc         :      0.54s CPU      0.30s WALL (      14 calls)
     newd         :      5.34s CPU      3.86s WALL (      12 calls)
     mix_rho      :      0.45s CPU      0.27s WALL (      11 calls)

     Called by c_bands:
     init_us_2    :      0.75s CPU      0.40s WALL (     450 calls)
     cegterg      :    160.30s CPU     85.29s WALL (     198 calls)

     Called by sum_band:
     sum_band:wei :      0.00s CPU      0.00s WALL (      11 calls)
     sum_band:loo :     25.99s CPU     13.51s WALL (      11 calls)
     sum_band:buf :      0.11s CPU      0.07s WALL (     198 calls)
     sum_band:ini :      0.26s CPU      0.14s WALL (     198 calls)
     sum_band:cal :      1.74s CPU      0.89s WALL (     198 calls)
     sum_band:bec :      5.44s CPU      2.76s WALL (     198 calls)
     addusdens    :      3.53s CPU      2.71s WALL (      11 calls)
     addusd:skk   :      0.00s CPU      0.00s WALL (      22 calls)
     addusd:dgemm :      1.25s CPU      1.55s WALL (      22 calls)
     addusd:qvan2 :      2.19s CPU      1.11s WALL (      22 calls)

     Called by *egterg:
     cdiaghg      :      8.63s CPU      4.63s WALL (    1220 calls)
     cegterg:over :      7.21s CPU      4.04s WALL (    1022 calls)
     cegterg:upda :      2.08s CPU      1.06s WALL (    1022 calls)
     cegterg:last :      3.64s CPU      1.84s WALL (     547 calls)
     h_psi        :    128.05s CPU     67.12s WALL (    1238 calls)
     s_psi        :      9.01s CPU      5.33s WALL (    1238 calls)
     g_psi        :      0.28s CPU      0.14s WALL (    1022 calls)

     Called by h_psi:
     h_psi:calbec :      6.24s CPU      3.19s WALL (    1238 calls)
     vloc_psi     :    114.75s CPU     59.94s WALL (    1238 calls)
     add_vuspsi   :      6.75s CPU      3.83s WALL (    1238 calls)

     General routines
     calbec       :     10.06s CPU      5.74s WALL (    1526 calls)
     fft          :      1.00s CPU      0.58s WALL (     281 calls)
     ffts         :      0.27s CPU      0.15s WALL (      92 calls)
     fftw         :    121.32s CPU     63.50s WALL (  168432 calls)
     interpolate  :      0.26s CPU      0.14s WALL (      48 calls)

     Parallel routines
     fft_scatt_xy :      5.75s CPU      2.92s WALL (  168805 calls)
     fft_scatt_yz :     82.64s CPU     43.73s WALL (  168805 calls)

     PWSCF        :   3m44.54s CPU   2m 4.84s WALL


   This run was terminated on:  10:30:24  31Jan2021            

=------------------------------------------------------------------------------=
   JOB DONE.
=------------------------------------------------------------------------------=
