
     Program PWSCF v.6.4.1 starts on 24Jan2021 at 17:56:52 

     This program is part of the open-source Quantum ESPRESSO suite
     for quantum simulation of materials; please cite
         "P. Giannozzi et al., J. Phys.:Condens. Matter 21 395502 (2009);
         "P. Giannozzi et al., J. Phys.:Condens. Matter 29 465901 (2017);
          URL http://www.quantum-espresso.org", 
     in publications or presentations arising from this work. More details at
     http://www.quantum-espresso.org/quote

     Parallel version (MPI & OpenMP), running on      48 processor cores
     Number of MPI processes:                24
     Threads/MPI process:                     2

     MPI processes distributed on     1 nodes
     R & G space division:  proc/nbgrp/npool/nimage =      24
     Waiting for input...
     Reading input from standard input

     Current dimensions of program PWSCF are:
     Max number of different atomic species (ntypx) = 10
     Max number of k-points (npk) =  40000
     Max angular momentum in pseudopotentials (lmaxx) =  3
               file Cs.rel-pbesol-spn-kjpaw_psl.1.0.0.UPF: wavefunction(s)  5S 6S renormalized
               file I.rel-pbesol-n-kjpaw_psl.1.0.0.UPF: wavefunction(s)  5S renormalized

     Subspace diagonalization in iterative solution of the eigenvalue problem:
     one sub-group per band group will be used
     scalapack distributed-memory algorithm (size of sub-group:  3*  3 procs)

     Found symmetry operation: I + (  0.0000 -0.5000 -0.5000)
     This is a supercell, fractional translations are disabled
 
     Parallelization info
     --------------------
     sticks:   dense  smooth     PW     G-vecs:    dense   smooth      PW
     Min         123      82     23                 5061     2762     417
     Max         124      84     24                 5064     2763     422
     Sum        2965    1993    561               121481    66299   10059
 

     Title: 
     CsIsalt                                                                    


     bravais-lattice index     =            1
     lattice parameter (alat)  =       8.8160  a.u.
     unit-cell volume          =     685.1896 (a.u.)^3
     number of atoms/cell      =            8
     number of atomic types    =            2
     number of electrons       =        64.00
     number of Kohn-Sham states=           64
     kinetic-energy cutoff     =      80.0000  Ry
     charge density cutoff     =     480.0000  Ry
     convergence threshold     =      1.0E-06
     mixing beta               =       0.5000
     number of iterations used =            8  plain     mixing
     Exchange-correlation      = SLA PW PSX PSC ( 1  4 10  8 0 0)
     Non magnetic calculation with spin-orbit


     celldm(1)=   8.815973  celldm(2)=   0.000000  celldm(3)=   0.000000
     celldm(4)=   0.000000  celldm(5)=   0.000000  celldm(6)=   0.000000

     crystal axes: (cart. coord. in units of alat)
               a(1) = (   1.000000   0.000000   0.000000 )  
               a(2) = (   0.000000   1.000000   0.000000 )  
               a(3) = (   0.000000   0.000000   1.000000 )  

     reciprocal axes: (cart. coord. in units 2 pi/alat)
               b(1) = (  1.000000  0.000000  0.000000 )  
               b(2) = (  0.000000  1.000000  0.000000 )  
               b(3) = (  0.000000  0.000000  1.000000 )  


     PseudoPot. # 1 for Cs read from file:
     /marconi_scratch/userexternal/cmalosso/degironcoli/pseudo/Cs.rel-pbesol-spn-kjpaw_psl.1.0.0.UPF
     MD5 check sum: 2adfb289dd462649b099d7edbec69378
     Pseudo is Projector augmented-wave + core cor, Zval =  9.0
     Generated using "atomic" code by A. Dal Corso v.6.4.1
     Shape of augmentation charge: PSQ
     Using radial grid of 1251 points, 15 beta functions with: 
                l(1) =   0
                l(2) =   0
                l(3) =   0
                l(4) =   1
                l(5) =   1
                l(6) =   1
                l(7) =   1
                l(8) =   2
                l(9) =   2
               l(10) =   2
               l(11) =   2
               l(12) =   3
               l(13) =   3
               l(14) =   3
               l(15) =   3
     Q(r) pseudized with 0 coefficients 


     PseudoPot. # 2 for I  read from file:
     /marconi_scratch/userexternal/cmalosso/degironcoli/pseudo/I.rel-pbesol-n-kjpaw_psl.1.0.0.UPF
     MD5 check sum: 4478c427bd443f303eca1937a163b991
     Pseudo is Projector augmented-wave + core cor, Zval =  7.0
     Generated using "atomic" code by A. Dal Corso v.6.3
     Shape of augmentation charge: PSQ
     Using radial grid of 1247 points, 10 beta functions with: 
                l(1) =   0
                l(2) =   0
                l(3) =   1
                l(4) =   1
                l(5) =   1
                l(6) =   1
                l(7) =   2
                l(8) =   2
                l(9) =   2
               l(10) =   2
     Q(r) pseudized with 0 coefficients 


     atomic species   valence    mass     pseudopotential
        Cs             9.00   132.90000     Cs( 1.00)
        I              7.00   126.90000     I ( 1.00)

     48 Sym. Ops., with inversion, found


                                    s                        frac. trans.

      isym =  1     identity                                     

 cryst.   s( 1) = (     1          0          0      )
                  (     0          1          0      )
                  (     0          0          1      )

 cart.    s( 1) = (  1.0000000  0.0000000  0.0000000 )
                  (  0.0000000  1.0000000  0.0000000 )
                  (  0.0000000  0.0000000  1.0000000 )


      isym =  2     180 deg rotation - cart. axis [0,0,1]        

 cryst.   s( 2) = (    -1          0          0      )
                  (     0         -1          0      )
                  (     0          0          1      )

 cart.    s( 2) = ( -1.0000000  0.0000000  0.0000000 )
                  (  0.0000000 -1.0000000  0.0000000 )
                  (  0.0000000  0.0000000  1.0000000 )


      isym =  3     180 deg rotation - cart. axis [0,1,0]        

 cryst.   s( 3) = (    -1          0          0      )
                  (     0          1          0      )
                  (     0          0         -1      )

 cart.    s( 3) = ( -1.0000000  0.0000000  0.0000000 )
                  (  0.0000000  1.0000000  0.0000000 )
                  (  0.0000000  0.0000000 -1.0000000 )


      isym =  4     180 deg rotation - cart. axis [1,0,0]        

 cryst.   s( 4) = (     1          0          0      )
                  (     0         -1          0      )
                  (     0          0         -1      )

 cart.    s( 4) = (  1.0000000  0.0000000  0.0000000 )
                  (  0.0000000 -1.0000000  0.0000000 )
                  (  0.0000000  0.0000000 -1.0000000 )


      isym =  5     180 deg rotation - cart. axis [1,1,0]        

 cryst.   s( 5) = (     0          1          0      )
                  (     1          0          0      )
                  (     0          0         -1      )

 cart.    s( 5) = (  0.0000000  1.0000000  0.0000000 )
                  (  1.0000000  0.0000000  0.0000000 )
                  (  0.0000000  0.0000000 -1.0000000 )


      isym =  6     180 deg rotation - cart. axis [1,-1,0]       

 cryst.   s( 6) = (     0         -1          0      )
                  (    -1          0          0      )
                  (     0          0         -1      )

 cart.    s( 6) = (  0.0000000 -1.0000000  0.0000000 )
                  ( -1.0000000  0.0000000  0.0000000 )
                  (  0.0000000  0.0000000 -1.0000000 )


      isym =  7      90 deg rotation - cart. axis [0,0,-1]       

 cryst.   s( 7) = (     0         -1          0      )
                  (     1          0          0      )
                  (     0          0          1      )

 cart.    s( 7) = (  0.0000000  1.0000000  0.0000000 )
                  ( -1.0000000  0.0000000  0.0000000 )
                  (  0.0000000  0.0000000  1.0000000 )


      isym =  8      90 deg rotation - cart. axis [0,0,1]        

 cryst.   s( 8) = (     0          1          0      )
                  (    -1          0          0      )
                  (     0          0          1      )

 cart.    s( 8) = (  0.0000000 -1.0000000  0.0000000 )
                  (  1.0000000  0.0000000  0.0000000 )
                  (  0.0000000  0.0000000  1.0000000 )


      isym =  9     180 deg rotation - cart. axis [1,0,1]        

 cryst.   s( 9) = (     0          0          1      )
                  (     0         -1          0      )
                  (     1          0          0      )

 cart.    s( 9) = (  0.0000000  0.0000000  1.0000000 )
                  (  0.0000000 -1.0000000  0.0000000 )
                  (  1.0000000  0.0000000  0.0000000 )


      isym = 10     180 deg rotation - cart. axis [-1,0,1]       

 cryst.   s(10) = (     0          0         -1      )
                  (     0         -1          0      )
                  (    -1          0          0      )

 cart.    s(10) = (  0.0000000  0.0000000 -1.0000000 )
                  (  0.0000000 -1.0000000  0.0000000 )
                  ( -1.0000000  0.0000000  0.0000000 )


      isym = 11      90 deg rotation - cart. axis [0,1,0]        

 cryst.   s(11) = (     0          0         -1      )
                  (     0          1          0      )
                  (     1          0          0      )

 cart.    s(11) = (  0.0000000  0.0000000  1.0000000 )
                  (  0.0000000  1.0000000  0.0000000 )
                  ( -1.0000000  0.0000000  0.0000000 )


      isym = 12      90 deg rotation - cart. axis [0,-1,0]       

 cryst.   s(12) = (     0          0          1      )
                  (     0          1          0      )
                  (    -1          0          0      )

 cart.    s(12) = (  0.0000000  0.0000000 -1.0000000 )
                  (  0.0000000  1.0000000  0.0000000 )
                  (  1.0000000  0.0000000  0.0000000 )


      isym = 13     180 deg rotation - cart. axis [0,1,1]        

 cryst.   s(13) = (    -1          0          0      )
                  (     0          0          1      )
                  (     0          1          0      )

 cart.    s(13) = ( -1.0000000  0.0000000  0.0000000 )
                  (  0.0000000  0.0000000  1.0000000 )
                  (  0.0000000  1.0000000  0.0000000 )


      isym = 14     180 deg rotation - cart. axis [0,1,-1]       

 cryst.   s(14) = (    -1          0          0      )
                  (     0          0         -1      )
                  (     0         -1          0      )

 cart.    s(14) = ( -1.0000000  0.0000000  0.0000000 )
                  (  0.0000000  0.0000000 -1.0000000 )
                  (  0.0000000 -1.0000000  0.0000000 )


      isym = 15      90 deg rotation - cart. axis [-1,0,0]       

 cryst.   s(15) = (     1          0          0      )
                  (     0          0         -1      )
                  (     0          1          0      )

 cart.    s(15) = (  1.0000000  0.0000000  0.0000000 )
                  (  0.0000000  0.0000000  1.0000000 )
                  (  0.0000000 -1.0000000  0.0000000 )


      isym = 16      90 deg rotation - cart. axis [1,0,0]        

 cryst.   s(16) = (     1          0          0      )
                  (     0          0          1      )
                  (     0         -1          0      )

 cart.    s(16) = (  1.0000000  0.0000000  0.0000000 )
                  (  0.0000000  0.0000000 -1.0000000 )
                  (  0.0000000  1.0000000  0.0000000 )


      isym = 17     120 deg rotation - cart. axis [-1,-1,-1]     

 cryst.   s(17) = (     0          0          1      )
                  (     1          0          0      )
                  (     0          1          0      )

 cart.    s(17) = (  0.0000000  1.0000000  0.0000000 )
                  (  0.0000000  0.0000000  1.0000000 )
                  (  1.0000000  0.0000000  0.0000000 )


      isym = 18     120 deg rotation - cart. axis [-1,1,1]       

 cryst.   s(18) = (     0          0         -1      )
                  (    -1          0          0      )
                  (     0          1          0      )

 cart.    s(18) = (  0.0000000 -1.0000000  0.0000000 )
                  (  0.0000000  0.0000000  1.0000000 )
                  ( -1.0000000  0.0000000  0.0000000 )


      isym = 19     120 deg rotation - cart. axis [1,1,-1]       

 cryst.   s(19) = (     0          0         -1      )
                  (     1          0          0      )
                  (     0         -1          0      )

 cart.    s(19) = (  0.0000000  1.0000000  0.0000000 )
                  (  0.0000000  0.0000000 -1.0000000 )
                  ( -1.0000000  0.0000000  0.0000000 )


      isym = 20     120 deg rotation - cart. axis [1,-1,1]       

 cryst.   s(20) = (     0          0          1      )
                  (    -1          0          0      )
                  (     0         -1          0      )

 cart.    s(20) = (  0.0000000 -1.0000000  0.0000000 )
                  (  0.0000000  0.0000000 -1.0000000 )
                  (  1.0000000  0.0000000  0.0000000 )


      isym = 21     120 deg rotation - cart. axis [1,1,1]        

 cryst.   s(21) = (     0          1          0      )
                  (     0          0          1      )
                  (     1          0          0      )

 cart.    s(21) = (  0.0000000  0.0000000  1.0000000 )
                  (  1.0000000  0.0000000  0.0000000 )
                  (  0.0000000  1.0000000  0.0000000 )


      isym = 22     120 deg rotation - cart. axis [-1,1,-1]      

 cryst.   s(22) = (     0         -1          0      )
                  (     0          0         -1      )
                  (     1          0          0      )

 cart.    s(22) = (  0.0000000  0.0000000  1.0000000 )
                  ( -1.0000000  0.0000000  0.0000000 )
                  (  0.0000000 -1.0000000  0.0000000 )


      isym = 23     120 deg rotation - cart. axis [1,-1,-1]      

 cryst.   s(23) = (     0         -1          0      )
                  (     0          0          1      )
                  (    -1          0          0      )

 cart.    s(23) = (  0.0000000  0.0000000 -1.0000000 )
                  ( -1.0000000  0.0000000  0.0000000 )
                  (  0.0000000  1.0000000  0.0000000 )


      isym = 24     120 deg rotation - cart. axis [-1,-1,1]      

 cryst.   s(24) = (     0          1          0      )
                  (     0          0         -1      )
                  (    -1          0          0      )

 cart.    s(24) = (  0.0000000  0.0000000 -1.0000000 )
                  (  1.0000000  0.0000000  0.0000000 )
                  (  0.0000000 -1.0000000  0.0000000 )


      isym = 25     inversion                                    

 cryst.   s(25) = (    -1          0          0      )
                  (     0         -1          0      )
                  (     0          0         -1      )

 cart.    s(25) = ( -1.0000000  0.0000000  0.0000000 )
                  (  0.0000000 -1.0000000  0.0000000 )
                  (  0.0000000  0.0000000 -1.0000000 )


      isym = 26     inv. 180 deg rotation - cart. axis [0,0,1]   

 cryst.   s(26) = (     1          0          0      )
                  (     0          1          0      )
                  (     0          0         -1      )

 cart.    s(26) = (  1.0000000  0.0000000  0.0000000 )
                  (  0.0000000  1.0000000  0.0000000 )
                  (  0.0000000  0.0000000 -1.0000000 )


      isym = 27     inv. 180 deg rotation - cart. axis [0,1,0]   

 cryst.   s(27) = (     1          0          0      )
                  (     0         -1          0      )
                  (     0          0          1      )

 cart.    s(27) = (  1.0000000  0.0000000  0.0000000 )
                  (  0.0000000 -1.0000000  0.0000000 )
                  (  0.0000000  0.0000000  1.0000000 )


      isym = 28     inv. 180 deg rotation - cart. axis [1,0,0]   

 cryst.   s(28) = (    -1          0          0      )
                  (     0          1          0      )
                  (     0          0          1      )

 cart.    s(28) = ( -1.0000000  0.0000000  0.0000000 )
                  (  0.0000000  1.0000000  0.0000000 )
                  (  0.0000000  0.0000000  1.0000000 )


      isym = 29     inv. 180 deg rotation - cart. axis [1,1,0]   

 cryst.   s(29) = (     0         -1          0      )
                  (    -1          0          0      )
                  (     0          0          1      )

 cart.    s(29) = (  0.0000000 -1.0000000  0.0000000 )
                  ( -1.0000000  0.0000000  0.0000000 )
                  (  0.0000000  0.0000000  1.0000000 )


      isym = 30     inv. 180 deg rotation - cart. axis [1,-1,0]  

 cryst.   s(30) = (     0          1          0      )
                  (     1          0          0      )
                  (     0          0          1      )

 cart.    s(30) = (  0.0000000  1.0000000  0.0000000 )
                  (  1.0000000  0.0000000  0.0000000 )
                  (  0.0000000  0.0000000  1.0000000 )


      isym = 31     inv.  90 deg rotation - cart. axis [0,0,-1]  

 cryst.   s(31) = (     0          1          0      )
                  (    -1          0          0      )
                  (     0          0         -1      )

 cart.    s(31) = (  0.0000000 -1.0000000  0.0000000 )
                  (  1.0000000  0.0000000  0.0000000 )
                  (  0.0000000  0.0000000 -1.0000000 )


      isym = 32     inv.  90 deg rotation - cart. axis [0,0,1]   

 cryst.   s(32) = (     0         -1          0      )
                  (     1          0          0      )
                  (     0          0         -1      )

 cart.    s(32) = (  0.0000000  1.0000000  0.0000000 )
                  ( -1.0000000  0.0000000  0.0000000 )
                  (  0.0000000  0.0000000 -1.0000000 )


      isym = 33     inv. 180 deg rotation - cart. axis [1,0,1]   

 cryst.   s(33) = (     0          0         -1      )
                  (     0          1          0      )
                  (    -1          0          0      )

 cart.    s(33) = (  0.0000000  0.0000000 -1.0000000 )
                  (  0.0000000  1.0000000  0.0000000 )
                  ( -1.0000000  0.0000000  0.0000000 )


      isym = 34     inv. 180 deg rotation - cart. axis [-1,0,1]  

 cryst.   s(34) = (     0          0          1      )
                  (     0          1          0      )
                  (     1          0          0      )

 cart.    s(34) = (  0.0000000  0.0000000  1.0000000 )
                  (  0.0000000  1.0000000  0.0000000 )
                  (  1.0000000  0.0000000  0.0000000 )


      isym = 35     inv.  90 deg rotation - cart. axis [0,1,0]   

 cryst.   s(35) = (     0          0          1      )
                  (     0         -1          0      )
                  (    -1          0          0      )

 cart.    s(35) = (  0.0000000  0.0000000 -1.0000000 )
                  (  0.0000000 -1.0000000  0.0000000 )
                  (  1.0000000  0.0000000  0.0000000 )


      isym = 36     inv.  90 deg rotation - cart. axis [0,-1,0]  

 cryst.   s(36) = (     0          0         -1      )
                  (     0         -1          0      )
                  (     1          0          0      )

 cart.    s(36) = (  0.0000000  0.0000000  1.0000000 )
                  (  0.0000000 -1.0000000  0.0000000 )
                  ( -1.0000000  0.0000000  0.0000000 )


      isym = 37     inv. 180 deg rotation - cart. axis [0,1,1]   

 cryst.   s(37) = (     1          0          0      )
                  (     0          0         -1      )
                  (     0         -1          0      )

 cart.    s(37) = (  1.0000000  0.0000000  0.0000000 )
                  (  0.0000000  0.0000000 -1.0000000 )
                  (  0.0000000 -1.0000000  0.0000000 )


      isym = 38     inv. 180 deg rotation - cart. axis [0,1,-1]  

 cryst.   s(38) = (     1          0          0      )
                  (     0          0          1      )
                  (     0          1          0      )

 cart.    s(38) = (  1.0000000  0.0000000  0.0000000 )
                  (  0.0000000  0.0000000  1.0000000 )
                  (  0.0000000  1.0000000  0.0000000 )


      isym = 39     inv.  90 deg rotation - cart. axis [-1,0,0]  

 cryst.   s(39) = (    -1          0          0      )
                  (     0          0          1      )
                  (     0         -1          0      )

 cart.    s(39) = ( -1.0000000  0.0000000  0.0000000 )
                  (  0.0000000  0.0000000 -1.0000000 )
                  (  0.0000000  1.0000000  0.0000000 )


      isym = 40     inv.  90 deg rotation - cart. axis [1,0,0]   

 cryst.   s(40) = (    -1          0          0      )
                  (     0          0         -1      )
                  (     0          1          0      )

 cart.    s(40) = ( -1.0000000  0.0000000  0.0000000 )
                  (  0.0000000  0.0000000  1.0000000 )
                  (  0.0000000 -1.0000000  0.0000000 )


      isym = 41     inv. 120 deg rotation - cart. axis [-1,-1,-1]

 cryst.   s(41) = (     0          0         -1      )
                  (    -1          0          0      )
                  (     0         -1          0      )

 cart.    s(41) = (  0.0000000 -1.0000000  0.0000000 )
                  (  0.0000000  0.0000000 -1.0000000 )
                  ( -1.0000000  0.0000000  0.0000000 )


      isym = 42     inv. 120 deg rotation - cart. axis [-1,1,1]  

 cryst.   s(42) = (     0          0          1      )
                  (     1          0          0      )
                  (     0         -1          0      )

 cart.    s(42) = (  0.0000000  1.0000000  0.0000000 )
                  (  0.0000000  0.0000000 -1.0000000 )
                  (  1.0000000  0.0000000  0.0000000 )


      isym = 43     inv. 120 deg rotation - cart. axis [1,1,-1]  

 cryst.   s(43) = (     0          0          1      )
                  (    -1          0          0      )
                  (     0          1          0      )

 cart.    s(43) = (  0.0000000 -1.0000000  0.0000000 )
                  (  0.0000000  0.0000000  1.0000000 )
                  (  1.0000000  0.0000000  0.0000000 )


      isym = 44     inv. 120 deg rotation - cart. axis [1,-1,1]  

 cryst.   s(44) = (     0          0         -1      )
                  (     1          0          0      )
                  (     0          1          0      )

 cart.    s(44) = (  0.0000000  1.0000000  0.0000000 )
                  (  0.0000000  0.0000000  1.0000000 )
                  ( -1.0000000  0.0000000  0.0000000 )


      isym = 45     inv. 120 deg rotation - cart. axis [1,1,1]   

 cryst.   s(45) = (     0         -1          0      )
                  (     0          0         -1      )
                  (    -1          0          0      )

 cart.    s(45) = (  0.0000000  0.0000000 -1.0000000 )
                  ( -1.0000000  0.0000000  0.0000000 )
                  (  0.0000000 -1.0000000  0.0000000 )


      isym = 46     inv. 120 deg rotation - cart. axis [-1,1,-1] 

 cryst.   s(46) = (     0          1          0      )
                  (     0          0          1      )
                  (    -1          0          0      )

 cart.    s(46) = (  0.0000000  0.0000000 -1.0000000 )
                  (  1.0000000  0.0000000  0.0000000 )
                  (  0.0000000  1.0000000  0.0000000 )


      isym = 47     inv. 120 deg rotation - cart. axis [1,-1,-1] 

 cryst.   s(47) = (     0          1          0      )
                  (     0          0         -1      )
                  (     1          0          0      )

 cart.    s(47) = (  0.0000000  0.0000000  1.0000000 )
                  (  1.0000000  0.0000000  0.0000000 )
                  (  0.0000000 -1.0000000  0.0000000 )


      isym = 48     inv. 120 deg rotation - cart. axis [-1,-1,1] 

 cryst.   s(48) = (     0         -1          0      )
                  (     0          0          1      )
                  (     1          0          0      )

 cart.    s(48) = (  0.0000000  0.0000000  1.0000000 )
                  ( -1.0000000  0.0000000  0.0000000 )
                  (  0.0000000  1.0000000  0.0000000 )


     double point group O_h (m-3m) 
     there are 16 classes and  6 irreducible representations
     the character table:

       E     -E    8C3   -8C3   3C2  6C4   -6C4   6C2' i     -i    8S6   -8S6 
                               -3C2              -6C2'                        
G_6+   2.00 -2.00  1.00 -1.00  0.00  1.41 -1.41  0.00  2.00 -2.00  1.00 -1.00
G_7+   2.00 -2.00  1.00 -1.00  0.00 -1.41  1.41  0.00  2.00 -2.00  1.00 -1.00
G_8+   4.00 -4.00 -1.00  1.00  0.00  0.00  0.00  0.00  4.00 -4.00 -1.00  1.00
G_6-   2.00 -2.00  1.00 -1.00  0.00  1.41 -1.41  0.00 -2.00  2.00 -1.00  1.00
G_7-   2.00 -2.00  1.00 -1.00  0.00 -1.41  1.41  0.00 -2.00  2.00 -1.00  1.00
G_8-   4.00 -4.00 -1.00  1.00  0.00  0.00  0.00  0.00 -4.00  4.00  1.00 -1.00

        3s_h 6S4   -6S4   6s_d
       -3s_h             -6s_d
G_6+   0.00  1.41 -1.41  0.00
G_7+   0.00 -1.41  1.41  0.00
G_8+   0.00  0.00  0.00  0.00
G_6-   0.00 -1.41  1.41  0.00
G_7-   0.00  1.41 -1.41  0.00
G_8-   0.00  0.00  0.00  0.00

     the symmetry operations in each class and the name of the first element:

     E             1
          identity                                               
     -E           -1
          identity E                                             
     8C3          17   19   20   18   24   21   22   23
          120 deg rotation - cart. axis [-1,-1,-1]               
     -8C3        -17  -19  -20  -18  -24  -21  -22  -23
          120 deg rotation - cart. axis [-1,-1,-1] E             
      3C2 -3C2     2   -2    4   -4    3   -3
          180 deg rotation - cart. axis [0,0,1]                  
     6C4           7    8   15   16   12   11
           90 deg rotation - cart. axis [0,0,-1]                 
     -6C4         -7   -8  -15  -16  -12  -11
           90 deg rotation - cart. axis [0,0,-1] E               
      6C2'-6C2'    5   -5   -6    6   14  -13  -14   13   10   -9  -10    9
          180 deg rotation - cart. axis [1,1,0]                  
     i            25
          inversion                                              
     -i          -25
          inversion E                                            
     8S6          41   43   44   42   48   45   46   47
          inv. 120 deg rotation - cart. axis [-1,-1,-1]          
     -8S6        -41  -43  -44  -42  -48  -45  -46  -47
          inv. 120 deg rotation - cart. axis [-1,-1,-1] E        
      3s_h-3s_h   26  -26   28  -28   27  -27
          inv. 180 deg rotation - cart. axis [0,0,1]             
     6S4          31   32   39   40   36   35
          inv.  90 deg rotation - cart. axis [0,0,-1]            
     -6S4        -31  -32  -39  -40  -36  -35
          inv.  90 deg rotation - cart. axis [0,0,-1] E          
      6s_d-6s_d   29  -29  -30   30   38  -37  -38   37   34  -33  -34   33
          inv. 180 deg rotation - cart. axis [1,1,0]             

   Cartesian axes

     site n.     atom                  positions (alat units)
         1           Cs  tau(   1) = (   0.0000000   0.0000000   0.0000000  )
         2           Cs  tau(   2) = (   0.0000000   0.5000000   0.5000000  )
         3           Cs  tau(   3) = (   0.5000000   0.0000000   0.5000000  )
         4           Cs  tau(   4) = (   0.5000000   0.5000000   0.0000000  )
         5           I   tau(   5) = (   0.5000000   0.0000000   0.0000000  )
         6           I   tau(   6) = (   0.5000000   0.5000000   0.5000000  )
         7           I   tau(   7) = (   0.0000000   0.0000000   0.5000000  )
         8           I   tau(   8) = (   0.0000000   0.5000000   0.0000000  )

   Crystallographic axes

     site n.     atom                  positions (cryst. coord.)
         1           Cs  tau(   1) = (  0.0000000  0.0000000  0.0000000  )
         2           Cs  tau(   2) = (  0.0000000  0.5000000  0.5000000  )
         3           Cs  tau(   3) = (  0.5000000  0.0000000  0.5000000  )
         4           Cs  tau(   4) = (  0.5000000  0.5000000  0.0000000  )
         5           I   tau(   5) = (  0.5000000  0.0000000  0.0000000  )
         6           I   tau(   6) = (  0.5000000  0.5000000  0.5000000  )
         7           I   tau(   7) = (  0.0000000  0.0000000  0.5000000  )
         8           I   tau(   8) = (  0.0000000  0.5000000  0.0000000  )

     number of k points=    35
                       cart. coord. in units 2pi/alat
        k(    1) = (   0.0555556   0.0555556   0.0555556), wk =   0.0109739
        k(    2) = (   0.0555556   0.0555556   0.1666667), wk =   0.0329218
        k(    3) = (   0.0555556   0.0555556   0.2777778), wk =   0.0329218
        k(    4) = (   0.0555556   0.0555556   0.3888889), wk =   0.0329218
        k(    5) = (   0.0555556   0.0555556  -0.5000000), wk =   0.0164609
        k(    6) = (   0.0555556   0.1666667   0.1666667), wk =   0.0329218
        k(    7) = (   0.0555556   0.1666667   0.2777778), wk =   0.0658436
        k(    8) = (   0.0555556   0.1666667   0.3888889), wk =   0.0658436
        k(    9) = (   0.0555556   0.1666667  -0.5000000), wk =   0.0329218
        k(   10) = (   0.0555556   0.2777778   0.2777778), wk =   0.0329218
        k(   11) = (   0.0555556   0.2777778   0.3888889), wk =   0.0658436
        k(   12) = (   0.0555556   0.2777778  -0.5000000), wk =   0.0329218
        k(   13) = (   0.0555556   0.3888889   0.3888889), wk =   0.0329218
        k(   14) = (   0.0555556   0.3888889  -0.5000000), wk =   0.0329218
        k(   15) = (   0.0555556  -0.5000000  -0.5000000), wk =   0.0082305
        k(   16) = (   0.1666667   0.1666667   0.1666667), wk =   0.0109739
        k(   17) = (   0.1666667   0.1666667   0.2777778), wk =   0.0329218
        k(   18) = (   0.1666667   0.1666667   0.3888889), wk =   0.0329218
        k(   19) = (   0.1666667   0.1666667  -0.5000000), wk =   0.0164609
        k(   20) = (   0.1666667   0.2777778   0.2777778), wk =   0.0329218
        k(   21) = (   0.1666667   0.2777778   0.3888889), wk =   0.0658436
        k(   22) = (   0.1666667   0.2777778  -0.5000000), wk =   0.0329218
        k(   23) = (   0.1666667   0.3888889   0.3888889), wk =   0.0329218
        k(   24) = (   0.1666667   0.3888889  -0.5000000), wk =   0.0329218
        k(   25) = (   0.1666667  -0.5000000  -0.5000000), wk =   0.0082305
        k(   26) = (   0.2777778   0.2777778   0.2777778), wk =   0.0109739
        k(   27) = (   0.2777778   0.2777778   0.3888889), wk =   0.0329218
        k(   28) = (   0.2777778   0.2777778  -0.5000000), wk =   0.0164609
        k(   29) = (   0.2777778   0.3888889   0.3888889), wk =   0.0329218
        k(   30) = (   0.2777778   0.3888889  -0.5000000), wk =   0.0329218
        k(   31) = (   0.2777778  -0.5000000  -0.5000000), wk =   0.0082305
        k(   32) = (   0.3888889   0.3888889   0.3888889), wk =   0.0109739
        k(   33) = (   0.3888889   0.3888889  -0.5000000), wk =   0.0164609
        k(   34) = (   0.3888889  -0.5000000  -0.5000000), wk =   0.0082305
        k(   35) = (  -0.5000000  -0.5000000  -0.5000000), wk =   0.0013717

                       cryst. coord.
        k(    1) = (   0.0555556   0.0555556   0.0555556), wk =   0.0109739
        k(    2) = (   0.0555556   0.0555556   0.1666667), wk =   0.0329218
        k(    3) = (   0.0555556   0.0555556   0.2777778), wk =   0.0329218
        k(    4) = (   0.0555556   0.0555556   0.3888889), wk =   0.0329218
        k(    5) = (   0.0555556   0.0555556  -0.5000000), wk =   0.0164609
        k(    6) = (   0.0555556   0.1666667   0.1666667), wk =   0.0329218
        k(    7) = (   0.0555556   0.1666667   0.2777778), wk =   0.0658436
        k(    8) = (   0.0555556   0.1666667   0.3888889), wk =   0.0658436
        k(    9) = (   0.0555556   0.1666667  -0.5000000), wk =   0.0329218
        k(   10) = (   0.0555556   0.2777778   0.2777778), wk =   0.0329218
        k(   11) = (   0.0555556   0.2777778   0.3888889), wk =   0.0658436
        k(   12) = (   0.0555556   0.2777778  -0.5000000), wk =   0.0329218
        k(   13) = (   0.0555556   0.3888889   0.3888889), wk =   0.0329218
        k(   14) = (   0.0555556   0.3888889  -0.5000000), wk =   0.0329218
        k(   15) = (   0.0555556  -0.5000000  -0.5000000), wk =   0.0082305
        k(   16) = (   0.1666667   0.1666667   0.1666667), wk =   0.0109739
        k(   17) = (   0.1666667   0.1666667   0.2777778), wk =   0.0329218
        k(   18) = (   0.1666667   0.1666667   0.3888889), wk =   0.0329218
        k(   19) = (   0.1666667   0.1666667  -0.5000000), wk =   0.0164609
        k(   20) = (   0.1666667   0.2777778   0.2777778), wk =   0.0329218
        k(   21) = (   0.1666667   0.2777778   0.3888889), wk =   0.0658436
        k(   22) = (   0.1666667   0.2777778  -0.5000000), wk =   0.0329218
        k(   23) = (   0.1666667   0.3888889   0.3888889), wk =   0.0329218
        k(   24) = (   0.1666667   0.3888889  -0.5000000), wk =   0.0329218
        k(   25) = (   0.1666667  -0.5000000  -0.5000000), wk =   0.0082305
        k(   26) = (   0.2777778   0.2777778   0.2777778), wk =   0.0109739
        k(   27) = (   0.2777778   0.2777778   0.3888889), wk =   0.0329218
        k(   28) = (   0.2777778   0.2777778  -0.5000000), wk =   0.0164609
        k(   29) = (   0.2777778   0.3888889   0.3888889), wk =   0.0329218
        k(   30) = (   0.2777778   0.3888889  -0.5000000), wk =   0.0329218
        k(   31) = (   0.2777778  -0.5000000  -0.5000000), wk =   0.0082305
        k(   32) = (   0.3888889   0.3888889   0.3888889), wk =   0.0109739
        k(   33) = (   0.3888889   0.3888889  -0.5000000), wk =   0.0164609
        k(   34) = (   0.3888889  -0.5000000  -0.5000000), wk =   0.0082305
        k(   35) = (  -0.5000000  -0.5000000  -0.5000000), wk =   0.0013717

     Dense  grid:   121481 G-vectors     FFT dimensions: (  64,  64,  64)

     Smooth grid:    66299 G-vectors     FFT dimensions: (  54,  54,  54)

     Dynamical RAM for                 wfc:       0.67 MB

     Dynamical RAM for     wfc (w. buffer):      24.19 MB

     Dynamical RAM for           str. fact:       0.15 MB

     Dynamical RAM for           local pot:       0.00 MB

     Dynamical RAM for          nlocal pot:       2.04 MB

     Dynamical RAM for                qrad:      39.45 MB

     Dynamical RAM for          rho,v,vnew:       2.05 MB

     Dynamical RAM for               rhoin:       0.68 MB

     Dynamical RAM for            rho*nmix:       4.94 MB

     Dynamical RAM for           G-vectors:       0.31 MB

     Dynamical RAM for          h,s,v(r/c):       0.33 MB

     Dynamical RAM for          <psi|beta>:       0.76 MB

     Dynamical RAM for                 psi:       2.69 MB

     Dynamical RAM for                hpsi:       2.69 MB

     Dynamical RAM for                spsi:       2.69 MB

     Dynamical RAM for      wfcinit/wfcrot:       1.25 MB

     Dynamical RAM for           addusdens:     158.08 MB

     Dynamical RAM for          addusforce:     159.88 MB

     Dynamical RAM for         addusstress:     160.09 MB

     Estimated static dynamical RAM per process >      74.80 MB

     Estimated max dynamical RAM per process >     234.89 MB

     Estimated total dynamical RAM >       5.51 GB

     Initial potential from superposition of free atoms

     starting charge   63.84620, renormalised to   64.00000
     Starting wfcs are   72 randomized atomic wfcs
     Checking if some PAW data can be deallocated... 
       PAW data deallocated on   12 nodes for type:  1
       PAW data deallocated on   12 nodes for type:  2

     total cpu time spent up to now is       25.3 secs

     Self-consistent Calculation

     iteration #  1     ecut=    80.00 Ry     beta= 0.50
     Davidson diagonalization with overlap
     ethr =  1.00E-02,  avg # of iterations =  6.2

     Threshold (ethr) on eigenvalues was too large:
     Diagonalizing with lowered threshold

     Davidson diagonalization with overlap
     ethr =  1.54E-04,  avg # of iterations =  8.1

     total cpu time spent up to now is      186.7 secs

     total energy              =   -3131.14353362 Ry
     Harris-Foulkes estimate   =   -3131.18420154 Ry
     estimated scf accuracy    <       0.11973559 Ry

     iteration #  2     ecut=    80.00 Ry     beta= 0.50
     Davidson diagonalization with overlap
     ethr =  1.87E-04,  avg # of iterations =  1.5

     total cpu time spent up to now is      234.0 secs

     total energy              =   -3131.14582393 Ry
     Harris-Foulkes estimate   =   -3131.15012343 Ry
     estimated scf accuracy    <       0.02040728 Ry

     iteration #  3     ecut=    80.00 Ry     beta= 0.50
     Davidson diagonalization with overlap
     c_bands:  2 eigenvalues not converged
     ethr =  3.19E-05,  avg # of iterations =  5.3

     total cpu time spent up to now is      307.7 secs

     total energy              =   -3131.15657256 Ry
     Harris-Foulkes estimate   =   -3131.15911295 Ry
     estimated scf accuracy    <       0.00566882 Ry

     iteration #  4     ecut=    80.00 Ry     beta= 0.50
     Davidson diagonalization with overlap
     ethr =  8.86E-06,  avg # of iterations =  3.1

     total cpu time spent up to now is      359.1 secs

     total energy              =   -3131.15632477 Ry
     Harris-Foulkes estimate   =   -3131.15705187 Ry
     estimated scf accuracy    <       0.00185230 Ry

     iteration #  5     ecut=    80.00 Ry     beta= 0.50
     Davidson diagonalization with overlap
     ethr =  2.89E-06,  avg # of iterations =  5.3

     total cpu time spent up to now is      433.5 secs

     total energy              =   -3131.15730489 Ry
     Harris-Foulkes estimate   =   -3131.15727121 Ry
     estimated scf accuracy    <       0.00027633 Ry

     iteration #  6     ecut=    80.00 Ry     beta= 0.50
     Davidson diagonalization with overlap
     ethr =  4.32E-07,  avg # of iterations =  2.8

     total cpu time spent up to now is      481.3 secs

     total energy              =   -3131.15718578 Ry
     Harris-Foulkes estimate   =   -3131.15732050 Ry
     estimated scf accuracy    <       0.00038997 Ry

     iteration #  7     ecut=    80.00 Ry     beta= 0.50
     Davidson diagonalization with overlap
     ethr =  4.32E-07,  avg # of iterations =  5.9

     total cpu time spent up to now is      542.7 secs

     total energy              =   -3131.15742919 Ry
     Harris-Foulkes estimate   =   -3131.15745496 Ry
     estimated scf accuracy    <       0.00006055 Ry

     iteration #  8     ecut=    80.00 Ry     beta= 0.50
     Davidson diagonalization with overlap
     c_bands:  2 eigenvalues not converged
     ethr =  9.46E-08,  avg # of iterations =  6.5

     total cpu time spent up to now is      622.7 secs

     total energy              =   -3131.15750481 Ry
     Harris-Foulkes estimate   =   -3131.15749698 Ry
     estimated scf accuracy    <       0.00016411 Ry

     iteration #  9     ecut=    80.00 Ry     beta= 0.50
     Davidson diagonalization with overlap
     c_bands:  1 eigenvalues not converged
     ethr =  9.46E-08,  avg # of iterations =  1.5

     total cpu time spent up to now is      663.5 secs

     total energy              =   -3131.15740409 Ry
     Harris-Foulkes estimate   =   -3131.15750574 Ry
     estimated scf accuracy    <       0.00018534 Ry

     iteration # 10     ecut=    80.00 Ry     beta= 0.50
     Davidson diagonalization with overlap
     ethr =  9.46E-08,  avg # of iterations =  6.3

     total cpu time spent up to now is      741.8 secs

     total energy              =   -3131.15747916 Ry
     Harris-Foulkes estimate   =   -3131.15747262 Ry
     estimated scf accuracy    <       0.00005205 Ry

     iteration # 11     ecut=    80.00 Ry     beta= 0.50
     Davidson diagonalization with overlap
     c_bands:  2 eigenvalues not converged
     c_bands:  1 eigenvalues not converged
     ethr =  8.13E-08,  avg # of iterations =  2.1

     total cpu time spent up to now is      781.7 secs

     total energy              =   -3131.15749293 Ry
     Harris-Foulkes estimate   =   -3131.15749557 Ry
     estimated scf accuracy    <       0.00013855 Ry

     iteration # 12     ecut=    80.00 Ry     beta= 0.50
     Davidson diagonalization with overlap
     c_bands:  1 eigenvalues not converged
     ethr =  8.13E-08,  avg # of iterations =  1.5

     total cpu time spent up to now is      823.6 secs

     total energy              =   -3131.15748066 Ry
     Harris-Foulkes estimate   =   -3131.15749849 Ry
     estimated scf accuracy    <       0.00013760 Ry

     iteration # 13     ecut=    80.00 Ry     beta= 0.50
     Davidson diagonalization with overlap
     ethr =  8.13E-08,  avg # of iterations =  1.1

     total cpu time spent up to now is      862.9 secs

     total energy              =   -3131.15743791 Ry
     Harris-Foulkes estimate   =   -3131.15748129 Ry
     estimated scf accuracy    <       0.00010663 Ry

     iteration # 14     ecut=    80.00 Ry     beta= 0.50
     Davidson diagonalization with overlap
     ethr =  8.13E-08,  avg # of iterations =  6.2

     total cpu time spent up to now is      934.7 secs

     total energy              =   -3131.15747365 Ry
     Harris-Foulkes estimate   =   -3131.15746879 Ry
     estimated scf accuracy    <       0.00005872 Ry

     iteration # 15     ecut=    80.00 Ry     beta= 0.50
     Davidson diagonalization with overlap
     ethr =  8.13E-08,  avg # of iterations =  6.6

     total cpu time spent up to now is     1008.5 secs

     total energy              =   -3131.15757956 Ry
     Harris-Foulkes estimate   =   -3131.15759933 Ry
     estimated scf accuracy    <       0.00038982 Ry

     iteration # 16     ecut=    80.00 Ry     beta= 0.50
     Davidson diagonalization with overlap
     ethr =  8.13E-08,  avg # of iterations =  1.0

     total cpu time spent up to now is     1048.4 secs

     total energy              =   -3131.15752936 Ry
     Harris-Foulkes estimate   =   -3131.15758024 Ry
     estimated scf accuracy    <       0.00035585 Ry

     iteration # 17     ecut=    80.00 Ry     beta= 0.50
     Davidson diagonalization with overlap
     c_bands:  2 eigenvalues not converged
     ethr =  8.13E-08,  avg # of iterations =  6.2

     total cpu time spent up to now is     1105.8 secs

     total energy              =   -3131.15751816 Ry
     Harris-Foulkes estimate   =   -3131.15753902 Ry
     estimated scf accuracy    <       0.00016818 Ry

     iteration # 18     ecut=    80.00 Ry     beta= 0.50
     Davidson diagonalization with overlap
     c_bands:  2 eigenvalues not converged
     ethr =  8.13E-08,  avg # of iterations =  2.1

     total cpu time spent up to now is     1146.8 secs

     total energy              =   -3131.15750589 Ry
     Harris-Foulkes estimate   =   -3131.15752051 Ry
     estimated scf accuracy    <       0.00012322 Ry

     iteration # 19     ecut=    80.00 Ry     beta= 0.50
     Davidson diagonalization with overlap
     ethr =  8.13E-08,  avg # of iterations =  2.8

     total cpu time spent up to now is     1189.4 secs

     total energy              =   -3131.15747549 Ry
     Harris-Foulkes estimate   =   -3131.15750839 Ry
     estimated scf accuracy    <       0.00009070 Ry

     iteration # 20     ecut=    80.00 Ry     beta= 0.50
     Davidson diagonalization with overlap
     ethr =  8.13E-08,  avg # of iterations =  6.9

     total cpu time spent up to now is     1263.7 secs

     total energy              =   -3131.15751381 Ry
     Harris-Foulkes estimate   =   -3131.15751845 Ry
     estimated scf accuracy    <       0.00003080 Ry

     iteration # 21     ecut=    80.00 Ry     beta= 0.50
     Davidson diagonalization with overlap
     ethr =  4.81E-08,  avg # of iterations =  1.4

     total cpu time spent up to now is     1302.3 secs

     total energy              =   -3131.15752334 Ry
     Harris-Foulkes estimate   =   -3131.15751477 Ry
     estimated scf accuracy    <       0.00002039 Ry

     iteration # 22     ecut=    80.00 Ry     beta= 0.50
     Davidson diagonalization with overlap
     c_bands:  2 eigenvalues not converged
     ethr =  3.19E-08,  avg # of iterations =  3.5

     total cpu time spent up to now is     1349.3 secs

     total energy              =   -3131.15760380 Ry
     Harris-Foulkes estimate   =   -3131.15752534 Ry
     estimated scf accuracy    <       0.00004312 Ry

     iteration # 23     ecut=    80.00 Ry     beta= 0.50
     Davidson diagonalization with overlap
     c_bands:  1 eigenvalues not converged
     c_bands:  1 eigenvalues not converged
     c_bands:  2 eigenvalues not converged
     c_bands:  2 eigenvalues not converged
     c_bands:  1 eigenvalues not converged
     c_bands:  2 eigenvalues not converged
     ethr =  3.19E-08,  avg # of iterations =  9.7

     total cpu time spent up to now is     1442.7 secs

     total energy              =   -3131.15740769 Ry
     Harris-Foulkes estimate   =   -3131.15768043 Ry
     estimated scf accuracy    <       0.00067119 Ry

     iteration # 24     ecut=    80.00 Ry     beta= 0.50
     Davidson diagonalization with overlap
     c_bands:  2 eigenvalues not converged
     c_bands:  2 eigenvalues not converged
     c_bands:  2 eigenvalues not converged
     c_bands:  4 eigenvalues not converged
     ethr =  3.19E-08,  avg # of iterations = 10.0

     total cpu time spent up to now is     1542.6 secs

     total energy              =   -3131.15751132 Ry
     Harris-Foulkes estimate   =   -3131.15751176 Ry
     estimated scf accuracy    <       0.00000334 Ry

     iteration # 25     ecut=    80.00 Ry     beta= 0.50
     Davidson diagonalization with overlap
     c_bands:  2 eigenvalues not converged
     c_bands:  2 eigenvalues not converged
     c_bands:  2 eigenvalues not converged
     ethr =  5.22E-09,  avg # of iterations =  9.5

     total cpu time spent up to now is     1630.2 secs

     total energy              =   -3131.15752487 Ry
     Harris-Foulkes estimate   =   -3131.15752968 Ry
     estimated scf accuracy    <       0.00004438 Ry

     iteration # 26     ecut=    80.00 Ry     beta= 0.50
     Davidson diagonalization with overlap
     c_bands:  2 eigenvalues not converged
     ethr =  5.22E-09,  avg # of iterations =  4.0

     total cpu time spent up to now is     1685.8 secs

     total energy              =   -3131.15752382 Ry
     Harris-Foulkes estimate   =   -3131.15752523 Ry
     estimated scf accuracy    <       0.00003344 Ry

     iteration # 27     ecut=    80.00 Ry     beta= 0.50
     Davidson diagonalization with overlap
     ethr =  5.22E-09,  avg # of iterations =  1.4

     total cpu time spent up to now is     1730.9 secs

     total energy              =   -3131.15751815 Ry
     Harris-Foulkes estimate   =   -3131.15752391 Ry
     estimated scf accuracy    <       0.00003100 Ry

     iteration # 28     ecut=    80.00 Ry     beta= 0.50
     Davidson diagonalization with overlap
     ethr =  5.22E-09,  avg # of iterations =  6.3

     total cpu time spent up to now is     1813.5 secs

     total energy              =   -3131.15751774 Ry
     Harris-Foulkes estimate   =   -3131.15751959 Ry
     estimated scf accuracy    <       0.00001074 Ry

     iteration # 29     ecut=    80.00 Ry     beta= 0.50
     Davidson diagonalization with overlap
     c_bands:  2 eigenvalues not converged
     ethr =  5.22E-09,  avg # of iterations =  5.4

     total cpu time spent up to now is     1879.9 secs

     total energy              =   -3131.15751781 Ry
     Harris-Foulkes estimate   =   -3131.15751837 Ry
     estimated scf accuracy    <       0.00000491 Ry

     iteration # 30     ecut=    80.00 Ry     beta= 0.50
     Davidson diagonalization with overlap
     ethr =  5.22E-09,  avg # of iterations =  1.1

     total cpu time spent up to now is     1924.0 secs

     total energy              =   -3131.15751885 Ry
     Harris-Foulkes estimate   =   -3131.15751789 Ry
     estimated scf accuracy    <       0.00000406 Ry

     iteration # 31     ecut=    80.00 Ry     beta= 0.50
     Davidson diagonalization with overlap
     ethr =  5.22E-09,  avg # of iterations =  1.1

     total cpu time spent up to now is     1971.2 secs

     total energy              =   -3131.15751820 Ry
     Harris-Foulkes estimate   =   -3131.15751892 Ry
     estimated scf accuracy    <       0.00000552 Ry

     iteration # 32     ecut=    80.00 Ry     beta= 0.50
     Davidson diagonalization with overlap
     ethr =  5.22E-09,  avg # of iterations =  1.0

     total cpu time spent up to now is     2016.2 secs

     total energy              =   -3131.15751868 Ry
     Harris-Foulkes estimate   =   -3131.15751822 Ry
     estimated scf accuracy    <       0.00000461 Ry

     iteration # 33     ecut=    80.00 Ry     beta= 0.50
     Davidson diagonalization with overlap
     ethr =  5.22E-09,  avg # of iterations =  1.0

     total cpu time spent up to now is     2061.0 secs

     total energy              =   -3131.15751521 Ry
     Harris-Foulkes estimate   =   -3131.15751870 Ry
     estimated scf accuracy    <       0.00000530 Ry

     iteration # 34     ecut=    80.00 Ry     beta= 0.50
     Davidson diagonalization with overlap
     c_bands:  2 eigenvalues not converged
     ethr =  5.22E-09,  avg # of iterations =  6.5

     total cpu time spent up to now is     2149.1 secs

     total energy              =   -3131.15751675 Ry
     Harris-Foulkes estimate   =   -3131.15752377 Ry
     estimated scf accuracy    <       0.00002331 Ry

     iteration # 35     ecut=    80.00 Ry     beta= 0.50
     Davidson diagonalization with overlap
     ethr =  5.22E-09,  avg # of iterations =  5.7

     total cpu time spent up to now is     2236.9 secs

     total energy              =   -3131.15751753 Ry
     Harris-Foulkes estimate   =   -3131.15751802 Ry
     estimated scf accuracy    <       0.00000592 Ry

     iteration # 36     ecut=    80.00 Ry     beta= 0.50
     Davidson diagonalization with overlap
     ethr =  5.22E-09,  avg # of iterations =  1.1

     total cpu time spent up to now is     2284.1 secs

     total energy              =   -3131.15751643 Ry
     Harris-Foulkes estimate   =   -3131.15751757 Ry
     estimated scf accuracy    <       0.00000500 Ry

     iteration # 37     ecut=    80.00 Ry     beta= 0.50
     Davidson diagonalization with overlap
     ethr =  5.22E-09,  avg # of iterations =  1.1

     total cpu time spent up to now is     2333.4 secs

     total energy              =   -3131.15751546 Ry
     Harris-Foulkes estimate   =   -3131.15751652 Ry
     estimated scf accuracy    <       0.00000305 Ry

     iteration # 38     ecut=    80.00 Ry     beta= 0.50
     Davidson diagonalization with overlap
     c_bands:  2 eigenvalues not converged
     ethr =  4.76E-09,  avg # of iterations =  5.4

     total cpu time spent up to now is     2396.4 secs

     total energy              =   -3131.15751866 Ry
     Harris-Foulkes estimate   =   -3131.15752098 Ry
     estimated scf accuracy    <       0.00001386 Ry

     iteration # 39     ecut=    80.00 Ry     beta= 0.50
     Davidson diagonalization with overlap
     c_bands:  2 eigenvalues not converged
     ethr =  4.76E-09,  avg # of iterations =  1.8

     total cpu time spent up to now is     2448.1 secs

     total energy              =   -3131.15751942 Ry
     Harris-Foulkes estimate   =   -3131.15751988 Ry
     estimated scf accuracy    <       0.00001075 Ry

     iteration # 40     ecut=    80.00 Ry     beta= 0.50
     Davidson diagonalization with overlap
     ethr =  4.76E-09,  avg # of iterations =  1.1

     total cpu time spent up to now is     2489.8 secs

     total energy              =   -3131.15751904 Ry
     Harris-Foulkes estimate   =   -3131.15751945 Ry
     estimated scf accuracy    <       0.00001035 Ry

     iteration # 41     ecut=    80.00 Ry     beta= 0.50
     Davidson diagonalization with overlap
     ethr =  4.76E-09,  avg # of iterations =  1.0

     total cpu time spent up to now is     2536.7 secs

     total energy              =   -3131.15751857 Ry
     Harris-Foulkes estimate   =   -3131.15751905 Ry
     estimated scf accuracy    <       0.00000971 Ry

     iteration # 42     ecut=    80.00 Ry     beta= 0.50
     Davidson diagonalization with overlap
     ethr =  4.76E-09,  avg # of iterations =  1.3

     total cpu time spent up to now is     2576.4 secs

     total energy              =   -3131.15751914 Ry
     Harris-Foulkes estimate   =   -3131.15751860 Ry
     estimated scf accuracy    <       0.00000870 Ry

     iteration # 43     ecut=    80.00 Ry     beta= 0.50
     Davidson diagonalization with overlap
     ethr =  4.76E-09,  avg # of iterations =  1.0

     total cpu time spent up to now is     2624.5 secs

     total energy              =   -3131.15751852 Ry
     Harris-Foulkes estimate   =   -3131.15751915 Ry
     estimated scf accuracy    <       0.00001525 Ry

     iteration # 44     ecut=    80.00 Ry     beta= 0.50
     Davidson diagonalization with overlap
     ethr =  4.76E-09,  avg # of iterations =  1.3

     total cpu time spent up to now is     2670.9 secs

     total energy              =   -3131.15751848 Ry
     Harris-Foulkes estimate   =   -3131.15751845 Ry
     estimated scf accuracy    <       0.00000826 Ry

     iteration # 45     ecut=    80.00 Ry     beta= 0.50
     Davidson diagonalization with overlap
     ethr =  4.76E-09,  avg # of iterations =  1.0

     total cpu time spent up to now is     2714.5 secs

     WARNING: integrated charge=    63.99997900, expected=    64.00000000

     total energy              =   -3131.15751846 Ry
     Harris-Foulkes estimate   =   -3131.15751848 Ry
     estimated scf accuracy    <       0.00000824 Ry

     iteration # 46     ecut=    80.00 Ry     beta= 0.50
     Davidson diagonalization with overlap
     ethr =  4.76E-09,  avg # of iterations =  1.0

     total cpu time spent up to now is     2765.0 secs

     WARNING: integrated charge=    63.99989495, expected=    64.00000000

     total energy              =   -3131.15751225 Ry
     Harris-Foulkes estimate   =   -3131.15751846 Ry
     estimated scf accuracy    <       0.00000809 Ry

     iteration # 47     ecut=    80.00 Ry     beta= 0.50
     Davidson diagonalization with overlap
     c_bands:  4 eigenvalues not converged
     c_bands:  2 eigenvalues not converged
     ethr =  4.76E-09,  avg # of iterations =  6.9

     total cpu time spent up to now is     2853.7 secs

     WARNING: integrated charge=    64.00002967, expected=    64.00000000

     total energy              =   -3131.15751560 Ry
     Harris-Foulkes estimate   =   -3131.15751741 Ry
     estimated scf accuracy    <       0.00000420 Ry

     iteration # 48     ecut=    80.00 Ry     beta= 0.50
     Davidson diagonalization with overlap
     c_bands:  2 eigenvalues not converged
     ethr =  4.76E-09,  avg # of iterations =  4.4

     total cpu time spent up to now is     2915.9 secs

     WARNING: integrated charge=    63.99999150, expected=    64.00000000

     total energy              =   -3131.15751326 Ry
     Harris-Foulkes estimate   =   -3131.15751801 Ry
     estimated scf accuracy    <       0.00001085 Ry

     iteration # 49     ecut=    80.00 Ry     beta= 0.50
     Davidson diagonalization with overlap
     ethr =  4.76E-09,  avg # of iterations =  5.7

     total cpu time spent up to now is     3000.2 secs

     total energy              =   -3131.15751844 Ry
     Harris-Foulkes estimate   =   -3131.15751859 Ry
     estimated scf accuracy    <       0.00000808 Ry

     iteration # 50     ecut=    80.00 Ry     beta= 0.50
     Davidson diagonalization with overlap
     ethr =  4.76E-09,  avg # of iterations =  1.0

     total cpu time spent up to now is     3044.4 secs

     WARNING: integrated charge=    63.99998510, expected=    64.00000000

     total energy              =   -3131.15751917 Ry
     Harris-Foulkes estimate   =   -3131.15751846 Ry
     estimated scf accuracy    <       0.00000778 Ry

     iteration # 51     ecut=    80.00 Ry     beta= 0.50
     Davidson diagonalization with overlap
     ethr =  4.76E-09,  avg # of iterations =  1.0

     total cpu time spent up to now is     3089.2 secs

     WARNING: integrated charge=    63.99995830, expected=    64.00000000

     total energy              =   -3131.15752157 Ry
     Harris-Foulkes estimate   =   -3131.15751918 Ry
     estimated scf accuracy    <       0.00000892 Ry

     iteration # 52     ecut=    80.00 Ry     beta= 0.50
     Davidson diagonalization with overlap
     ethr =  4.76E-09,  avg # of iterations =  2.3

     total cpu time spent up to now is     3135.7 secs

     WARNING: integrated charge=    64.00002595, expected=    64.00000000

     total energy              =   -3131.15751858 Ry
     Harris-Foulkes estimate   =   -3131.15752173 Ry
     estimated scf accuracy    <       0.00001416 Ry

     iteration # 53     ecut=    80.00 Ry     beta= 0.50
     Davidson diagonalization with overlap
     ethr =  4.76E-09,  avg # of iterations =  1.9

     total cpu time spent up to now is     3181.1 secs

     WARNING: integrated charge=    63.99998884, expected=    64.00000000

     total energy              =   -3131.15752127 Ry
     Harris-Foulkes estimate   =   -3131.15751867 Ry
     estimated scf accuracy    <       0.00000996 Ry

     iteration # 54     ecut=    80.00 Ry     beta= 0.50
     Davidson diagonalization with overlap
     ethr =  4.76E-09,  avg # of iterations =  1.1

     total cpu time spent up to now is     3224.6 secs

     WARNING: integrated charge=    63.99996930, expected=    64.00000000

     total energy              =   -3131.15751982 Ry
     Harris-Foulkes estimate   =   -3131.15752132 Ry
     estimated scf accuracy    <       0.00001370 Ry

     iteration # 55     ecut=    80.00 Ry     beta= 0.50
     Davidson diagonalization with overlap
     ethr =  4.76E-09,  avg # of iterations =  1.0

     total cpu time spent up to now is     3268.7 secs

     WARNING: integrated charge=    64.00002170, expected=    64.00000000

     total energy              =   -3131.15751498 Ry
     Harris-Foulkes estimate   =   -3131.15751984 Ry
     estimated scf accuracy    <       0.00001178 Ry

     iteration # 56     ecut=    80.00 Ry     beta= 0.50
     Davidson diagonalization with overlap
     c_bands:  1 eigenvalues not converged
     ethr =  4.76E-09,  avg # of iterations =  5.2

     total cpu time spent up to now is     3346.2 secs

     WARNING: integrated charge=    64.00002080, expected=    64.00000000

     total energy              =   -3131.15751756 Ry
     Harris-Foulkes estimate   =   -3131.15752084 Ry
     estimated scf accuracy    <       0.00001514 Ry

     iteration # 57     ecut=    80.00 Ry     beta= 0.50
     Davidson diagonalization with overlap
     ethr =  4.76E-09,  avg # of iterations =  3.0

     total cpu time spent up to now is     3398.1 secs

     WARNING: integrated charge=    64.00002211, expected=    64.00000000

     total energy              =   -3131.15752014 Ry
     Harris-Foulkes estimate   =   -3131.15751781 Ry
     estimated scf accuracy    <       0.00000837 Ry

     iteration # 58     ecut=    80.00 Ry     beta= 0.50
     Davidson diagonalization with overlap
     ethr =  4.76E-09,  avg # of iterations =  1.7

     total cpu time spent up to now is     3445.4 secs

     total energy              =   -3131.15751781 Ry
     Harris-Foulkes estimate   =   -3131.15752024 Ry
     estimated scf accuracy    <       0.00001212 Ry

     iteration # 59     ecut=    80.00 Ry     beta= 0.50
     Davidson diagonalization with overlap
     ethr =  4.76E-09,  avg # of iterations =  1.0

     total cpu time spent up to now is     3488.6 secs

     WARNING: integrated charge=    64.00002780, expected=    64.00000000

     total energy              =   -3131.15751840 Ry
     Harris-Foulkes estimate   =   -3131.15751785 Ry
     estimated scf accuracy    <       0.00000885 Ry

     iteration # 60     ecut=    80.00 Ry     beta= 0.50
     Davidson diagonalization with overlap
     ethr =  4.76E-09,  avg # of iterations =  1.0

     total cpu time spent up to now is     3531.7 secs

     WARNING: integrated charge=    64.00001302, expected=    64.00000000

     total energy              =   -3131.15751488 Ry
     Harris-Foulkes estimate   =   -3131.15751842 Ry
     estimated scf accuracy    <       0.00000946 Ry

     iteration # 61     ecut=    80.00 Ry     beta= 0.50
     Davidson diagonalization with overlap
     ethr =  4.76E-09,  avg # of iterations =  5.4

     total cpu time spent up to now is     3608.1 secs

     WARNING: integrated charge=    63.99999198, expected=    64.00000000

     total energy              =   -3131.15752223 Ry
     Harris-Foulkes estimate   =   -3131.15752226 Ry
     estimated scf accuracy    <       0.00002894 Ry

     iteration # 62     ecut=    80.00 Ry     beta= 0.50
     Davidson diagonalization with overlap
     ethr =  4.76E-09,  avg # of iterations =  1.0

     total cpu time spent up to now is     3650.6 secs

     WARNING: integrated charge=    63.99999003, expected=    64.00000000

     total energy              =   -3131.15751973 Ry
     Harris-Foulkes estimate   =   -3131.15752225 Ry
     estimated scf accuracy    <       0.00002888 Ry

     iteration # 63     ecut=    80.00 Ry     beta= 0.50
     Davidson diagonalization with overlap
     ethr =  4.76E-09,  avg # of iterations =  1.0

     total cpu time spent up to now is     3695.5 secs

     total energy              =   -3131.15752424 Ry
     Harris-Foulkes estimate   =   -3131.15751977 Ry
     estimated scf accuracy    <       0.00002473 Ry

     iteration # 64     ecut=    80.00 Ry     beta= 0.50
     Davidson diagonalization with overlap
     ethr =  4.76E-09,  avg # of iterations =  1.1

     total cpu time spent up to now is     3737.6 secs

     total energy              =   -3131.15752420 Ry
     Harris-Foulkes estimate   =   -3131.15752429 Ry
     estimated scf accuracy    <       0.00003080 Ry

     iteration # 65     ecut=    80.00 Ry     beta= 0.50
     Davidson diagonalization with overlap
     ethr =  4.76E-09,  avg # of iterations =  1.0

     total cpu time spent up to now is     3783.5 secs

     total energy              =   -3131.15752349 Ry
     Harris-Foulkes estimate   =   -3131.15752422 Ry
     estimated scf accuracy    <       0.00003116 Ry

     iteration # 66     ecut=    80.00 Ry     beta= 0.50
     Davidson diagonalization with overlap
     ethr =  4.76E-09,  avg # of iterations =  1.0

     total cpu time spent up to now is     3824.9 secs

     total energy              =   -3131.15752203 Ry
     Harris-Foulkes estimate   =   -3131.15752350 Ry
     estimated scf accuracy    <       0.00003067 Ry

     iteration # 67     ecut=    80.00 Ry     beta= 0.50
     Davidson diagonalization with overlap
     ethr =  4.76E-09,  avg # of iterations =  1.0

     total cpu time spent up to now is     3864.9 secs

     WARNING: integrated charge=    63.99998050, expected=    64.00000000

     total energy              =   -3131.15751240 Ry
     Harris-Foulkes estimate   =   -3131.15752203 Ry
     estimated scf accuracy    <       0.00002893 Ry

     iteration # 68     ecut=    80.00 Ry     beta= 0.50
     Davidson diagonalization with overlap
     ethr =  4.76E-09,  avg # of iterations =  6.1

     total cpu time spent up to now is     3946.4 secs

     WARNING: integrated charge=    63.99998394, expected=    64.00000000

     total energy              =   -3131.15752135 Ry
     Harris-Foulkes estimate   =   -3131.15752103 Ry
     estimated scf accuracy    <       0.00001605 Ry

     iteration # 69     ecut=    80.00 Ry     beta= 0.50
     Davidson diagonalization with overlap
     ethr =  4.76E-09,  avg # of iterations =  1.0

     total cpu time spent up to now is     3990.9 secs

     total energy              =   -3131.15752085 Ry
     Harris-Foulkes estimate   =   -3131.15752137 Ry
     estimated scf accuracy    <       0.00001672 Ry

     iteration # 70     ecut=    80.00 Ry     beta= 0.50
     Davidson diagonalization with overlap
     ethr =  4.76E-09,  avg # of iterations =  1.0

     total cpu time spent up to now is     4034.2 secs

     WARNING: integrated charge=    64.00000871, expected=    64.00000000

     total energy              =   -3131.15751552 Ry
     Harris-Foulkes estimate   =   -3131.15752086 Ry
     estimated scf accuracy    <       0.00001599 Ry

     iteration # 71     ecut=    80.00 Ry     beta= 0.50
     Davidson diagonalization with overlap
     ethr =  4.76E-09,  avg # of iterations =  6.0

     total cpu time spent up to now is     4114.7 secs

     WARNING: integrated charge=    64.00001284, expected=    64.00000000

     total energy              =   -3131.15751911 Ry
     Harris-Foulkes estimate   =   -3131.15751963 Ry
     estimated scf accuracy    <       0.00001852 Ry

     iteration # 72     ecut=    80.00 Ry     beta= 0.50
     Davidson diagonalization with overlap
     ethr =  4.76E-09,  avg # of iterations =  1.0

     total cpu time spent up to now is     4158.5 secs

     total energy              =   -3131.15751940 Ry
     Harris-Foulkes estimate   =   -3131.15751914 Ry
     estimated scf accuracy    <       0.00001764 Ry

     iteration # 73     ecut=    80.00 Ry     beta= 0.50
     Davidson diagonalization with overlap
     ethr =  4.76E-09,  avg # of iterations =  1.0

     total cpu time spent up to now is     4203.6 secs

     WARNING: integrated charge=    63.99997030, expected=    64.00000000

     total energy              =   -3131.15751513 Ry
     Harris-Foulkes estimate   =   -3131.15751941 Ry
     estimated scf accuracy    <       0.00001799 Ry

     iteration # 74     ecut=    80.00 Ry     beta= 0.50
     Davidson diagonalization with overlap
     c_bands:  2 eigenvalues not converged
     ethr =  4.76E-09,  avg # of iterations =  4.8

     total cpu time spent up to now is     4271.1 secs

     WARNING: integrated charge=    63.99996272, expected=    64.00000000

     total energy              =   -3131.15751531 Ry
     Harris-Foulkes estimate   =   -3131.15751569 Ry
     estimated scf accuracy    <       0.00000775 Ry

     iteration # 75     ecut=    80.00 Ry     beta= 0.50
     Davidson diagonalization with overlap
     ethr =  4.76E-09,  avg # of iterations =  1.0

     total cpu time spent up to now is     4316.1 secs

     WARNING: integrated charge=    63.99997856, expected=    64.00000000

     total energy              =   -3131.15751606 Ry
     Harris-Foulkes estimate   =   -3131.15751535 Ry
     estimated scf accuracy    <       0.00000703 Ry

     iteration # 76     ecut=    80.00 Ry     beta= 0.50
     Davidson diagonalization with overlap
     ethr =  4.76E-09,  avg # of iterations =  1.0

     total cpu time spent up to now is     4362.2 secs

     WARNING: integrated charge=    63.99997808, expected=    64.00000000

     total energy              =   -3131.15751786 Ry
     Harris-Foulkes estimate   =   -3131.15751608 Ry
     estimated scf accuracy    <       0.00000785 Ry

     iteration # 77     ecut=    80.00 Ry     beta= 0.50
     Davidson diagonalization with overlap
     ethr =  4.76E-09,  avg # of iterations =  1.7

     total cpu time spent up to now is     4410.5 secs

     WARNING: integrated charge=    63.99999011, expected=    64.00000000

     total energy              =   -3131.15751933 Ry
     Harris-Foulkes estimate   =   -3131.15751798 Ry
     estimated scf accuracy    <       0.00001172 Ry

     iteration # 78     ecut=    80.00 Ry     beta= 0.50
     Davidson diagonalization with overlap
     ethr =  4.76E-09,  avg # of iterations =  1.4

     total cpu time spent up to now is     4460.1 secs

     WARNING: integrated charge=    63.99998896, expected=    64.00000000

     total energy              =   -3131.15751990 Ry
     Harris-Foulkes estimate   =   -3131.15751941 Ry
     estimated scf accuracy    <       0.00001402 Ry

     iteration # 79     ecut=    80.00 Ry     beta= 0.50
     Davidson diagonalization with overlap
     ethr =  4.76E-09,  avg # of iterations =  1.0

     total cpu time spent up to now is     4506.2 secs

     WARNING: integrated charge=    64.00001470, expected=    64.00000000

     total energy              =   -3131.15750731 Ry
     Harris-Foulkes estimate   =   -3131.15751996 Ry
     estimated scf accuracy    <       0.00001528 Ry

     iteration # 80     ecut=    80.00 Ry     beta= 0.50
     Davidson diagonalization with overlap
     c_bands:  2 eigenvalues not converged
     c_bands:  4 eigenvalues not converged
     c_bands:  2 eigenvalues not converged
     c_bands:  2 eigenvalues not converged
     ethr =  4.76E-09,  avg # of iterations =  9.6

     total cpu time spent up to now is     4617.6 secs

     WARNING: integrated charge=    63.99977189, expected=    64.00000000

     total energy              =   -3131.15751394 Ry
     Harris-Foulkes estimate   =   -3131.15751778 Ry
     estimated scf accuracy    <       0.00001680 Ry

     iteration # 81     ecut=    80.00 Ry     beta= 0.50
     Davidson diagonalization with overlap
     c_bands:  2 eigenvalues not converged
     ethr =  4.76E-09,  avg # of iterations =  5.6

     total cpu time spent up to now is     4693.4 secs

     WARNING: integrated charge=    63.99971904, expected=    64.00000000

     total energy              =   -3131.15751220 Ry
     Harris-Foulkes estimate   =   -3131.15751590 Ry
     estimated scf accuracy    <       0.00000513 Ry

     iteration # 82     ecut=    80.00 Ry     beta= 0.50
     Davidson diagonalization with overlap
     c_bands:  2 eigenvalues not converged
     ethr =  4.76E-09,  avg # of iterations =  6.3

     total cpu time spent up to now is     4788.9 secs

     WARNING: integrated charge=    63.99966998, expected=    64.00000000

     total energy              =   -3131.15751447 Ry
     Harris-Foulkes estimate   =   -3131.15751550 Ry
     estimated scf accuracy    <       0.00000257 Ry

     iteration # 83     ecut=    80.00 Ry     beta= 0.50
     Davidson diagonalization with overlap
     c_bands:  2 eigenvalues not converged
     ethr =  4.02E-09,  avg # of iterations =  3.9

     total cpu time spent up to now is     4855.2 secs

     End of self-consistent calculation

          k = 0.0556 0.0556 0.0556 (  8289 PWs)   bands (ev):

    -1.8723  -1.8723   2.5825   2.5825   2.5825   2.5825   2.5834   2.5834
     8.8317   8.8317   8.8320   8.8320   8.8325   8.8325  10.7184  10.7184
    10.7188  10.7188  10.7270  10.7270  12.3794  12.3794  12.3803  12.3803
    12.3833  12.3833  13.3684  13.3684  13.3701  13.3701  13.3728  13.3728
    14.5729  14.5729  16.0551  16.0551  16.6369  16.6369  19.0896  19.0896
    22.3539  22.3539  22.3539  22.3539  22.3539  22.3539  25.1129  25.1129
    26.4579  26.4579  26.4782  26.4782  26.8592  26.8592  26.9074  26.9074
    27.0514  27.0514  29.5116  29.5116  29.5123  29.5123  29.5153  29.5153

     occupation numbers 
     1.0000   1.0000   1.0000   1.0000   1.0000   1.0000   1.0000   1.0000
     1.0000   1.0000   1.0000   1.0000   1.0000   1.0000   1.0000   1.0000
     1.0000   1.0000   1.0000   1.0000   1.0000   1.0000   1.0000   1.0000
     1.0000   1.0000   1.0000   1.0000   1.0000   1.0000   1.0000   1.0000
     1.0000   1.0000   1.0000   1.0000   1.0000   1.0000   1.0000   1.0000
     1.0000   1.0000   1.0000   1.0000   1.0000   1.0000   1.0000   1.0000
     1.0000   1.0000   1.0000   1.0000   1.0000   1.0000   1.0000   1.0000
     1.0000   1.0000   1.0000   1.0000   1.0000   1.0000   1.0000   1.0000

          k = 0.0556 0.0556 0.1667 (  8289 PWs)   bands (ev):

    -1.7107  -1.7107   2.0526   2.0526   2.6600   2.6600   2.6605   2.6605
     8.8801   8.8801   8.8817   8.8817   9.2752   9.2752   9.7628   9.7628
     9.7676   9.7676  11.2762  11.2762  12.2840  12.2840  12.2849  12.2849
    12.5713  12.5713  13.5547  13.5547  13.8725  13.8725  14.6387  14.6387
    14.6432  14.6432  15.5050  15.5050  16.4328  16.4328  20.2588  20.2588
    22.4950  22.4950  22.9826  22.9826  22.9827  22.9827  23.9490  23.9490
    25.7967  25.7967  26.0987  26.0987  26.7011  26.7011  27.4916  27.4916
    27.6949  27.6949  28.1453  28.1453  28.1497  28.1497  29.0944  29.0944

     occupation numbers 
     1.0000   1.0000   1.0000   1.0000   1.0000   1.0000   1.0000   1.0000
     1.0000   1.0000   1.0000   1.0000   1.0000   1.0000   1.0000   1.0000
     1.0000   1.0000   1.0000   1.0000   1.0000   1.0000   1.0000   1.0000
     1.0000   1.0000   1.0000   1.0000   1.0000   1.0000   1.0000   1.0000
     1.0000   1.0000   1.0000   1.0000   1.0000   1.0000   1.0000   1.0000
     1.0000   1.0000   1.0000   1.0000   1.0000   1.0000   1.0000   1.0000
     1.0000   1.0000   1.0000   1.0000   1.0000   1.0000   1.0000   1.0000
     1.0000   1.0000   1.0000   1.0000   1.0000   1.0000   1.0000   1.0000

          k = 0.0556 0.0556 0.2778 (  8288 PWs)   bands (ev):

    -1.3892  -1.3892   1.2688   1.2688   2.7901   2.7901   2.7902   2.7902
     8.4781   8.4781   8.4840   8.4840   9.5246   9.5246   9.5255   9.5255
     9.8363   9.8363  11.7494  11.7494  11.7503  11.7503  12.2641  12.2641
    12.9090  12.9090  13.0503  13.0503  13.9750  13.9750  14.9044  14.9044
    15.9202  15.9202  16.4732  16.4732  16.4778  16.4778  21.0864  21.0864
    22.6527  22.6527  22.7761  22.7761  24.1097  24.1097  24.1098  24.1098
    25.1886  25.1886  25.9232  25.9232  25.9280  25.9280  26.0287  26.0287
    26.9433  26.9433  28.4229  28.4229  28.5959  28.5959  28.8029  28.8029

     occupation numbers 
     1.0000   1.0000   1.0000   1.0000   1.0000   1.0000   1.0000   1.0000
     1.0000   1.0000   1.0000   1.0000   1.0000   1.0000   1.0000   1.0000
     1.0000   1.0000   1.0000   1.0000   1.0000   1.0000   1.0000   1.0000
     1.0000   1.0000   1.0000   1.0000   1.0000   1.0000   1.0000   1.0000
     1.0000   1.0000   1.0000   1.0000   1.0000   1.0000   1.0000   1.0000
     1.0000   1.0000   1.0000   1.0000   1.0000   1.0000   1.0000   1.0000
     1.0000   1.0000   1.0000   1.0000   1.0000   1.0000   1.0000   1.0000
     1.0000   1.0000   1.0000   1.0000   1.0000   1.0000   1.0000   1.0000

          k = 0.0556 0.0556 0.3889 (  8283 PWs)   bands (ev):

    -0.9128  -0.9128   0.4515   0.4515   2.9184   2.9184   2.9186   2.9186
     7.9149   7.9149   7.9218   7.9218   9.8887   9.8887   9.8894   9.8894
    10.4413  10.4413  11.1100  11.1100  11.1113  11.1113  11.9709  11.9709
    13.0279  13.0279  13.9134  13.9134  14.2677  14.2677  15.0026  15.0026
    15.2818  15.2818  18.4826  18.4826  18.4869  18.4869  19.0687  19.0687
    23.1948  23.1948  23.5889  23.5889  23.5941  23.5941  24.2997  24.2997
    24.5005  24.5005  25.6079  25.6079  25.6079  25.6079  26.4283  26.4283
    27.4334  27.4334  27.6610  27.6610  28.6243  28.6243  29.2000  29.2001

     occupation numbers 
     1.0000   1.0000   1.0000   1.0000   1.0000   1.0000   1.0000   1.0000
     1.0000   1.0000   1.0000   1.0000   1.0000   1.0000   1.0000   1.0000
     1.0000   1.0000   1.0000   1.0000   1.0000   1.0000   1.0000   1.0000
     1.0000   1.0000   1.0000   1.0000   1.0000   1.0000   1.0000   1.0000
     1.0000   1.0000   1.0000   1.0000   1.0000   1.0000   1.0000   1.0000
     1.0000   1.0000   1.0000   1.0000   1.0000   1.0000   1.0000   1.0000
     1.0000   1.0000   1.0000   1.0000   1.0000   1.0000   1.0000   1.0000
     1.0000   1.0000   1.0000   1.0000   1.0000   1.0000   1.0000   1.0000

          k = 0.0556 0.0556-0.5000 (  8280 PWs)   bands (ev):

    -0.2932  -0.2932  -0.2904  -0.2904   2.9736   2.9736   2.9739   2.9739
     7.7008   7.7008   7.7080   7.7080  10.2948  10.2948  10.2985  10.2985
    10.6118  10.6118  10.6160  10.6160  11.1421  11.1421  11.1462  11.1462
    13.6346  13.6346  13.6382  13.6382  14.6159  14.6159  14.6196  14.6196
    16.8718  16.8718  16.8722  16.8722  19.9488  19.9488  19.9523  19.9523
    22.0137  22.0137  22.0198  22.0198  23.7436  23.7436  23.7469  23.7469
    26.5177  26.5177  26.5185  26.5185  27.0756  27.0756  27.0800  27.0800
    27.2502  27.2502  27.2513  27.2513  27.4072  27.4072  27.4083  27.4083

     occupation numbers 
     1.0000   1.0000   1.0000   1.0000   1.0000   1.0000   1.0000   1.0000
     1.0000   1.0000   1.0000   1.0000   1.0000   1.0000   1.0000   1.0000
     1.0000   1.0000   1.0000   1.0000   1.0000   1.0000   1.0000   1.0000
     1.0000   1.0000   1.0000   1.0000   1.0000   1.0000   1.0000   1.0000
     1.0000   1.0000   1.0000   1.0000   1.0000   1.0000   1.0000   1.0000
     1.0000   1.0000   1.0000   1.0000   1.0000   1.0000   1.0000   1.0000
     1.0000   1.0000   1.0000   1.0000   1.0000   1.0000   1.0000   1.0000
     1.0000   1.0000   1.0000   1.0000   1.0000   1.0000   1.0000   1.0000

          k = 0.0556 0.1667 0.1667 (  8302 PWs)   bands (ev):

    -1.5499  -1.5499   2.1541   2.1541   2.1546   2.1546   2.7158   2.7158
     8.5516   8.5516   8.9047   8.9047   8.9091   8.9091   9.4055   9.4055
    10.7239  10.7239  10.7247  10.7247  12.4549  12.4549  12.4581  12.4581
    12.9359  12.9359  12.9935  12.9935  14.8266  14.8266  14.8298  14.8298
    14.9370  14.9370  15.3098  15.3098  16.6761  16.6761  20.7644  20.7644
    23.1207  23.1207  23.1208  23.1208  23.6328  23.6328  23.6522  23.6522
    24.7515  24.7515  25.9354  25.9354  27.0365  27.0365  27.1603  27.1603
    27.6521  27.6521  27.6525  27.6525  27.6875  27.6875  28.1786  28.1786

     occupation numbers 
     1.0000   1.0000   1.0000   1.0000   1.0000   1.0000   1.0000   1.0000
     1.0000   1.0000   1.0000   1.0000   1.0000   1.0000   1.0000   1.0000
     1.0000   1.0000   1.0000   1.0000   1.0000   1.0000   1.0000   1.0000
     1.0000   1.0000   1.0000   1.0000   1.0000   1.0000   1.0000   1.0000
     1.0000   1.0000   1.0000   1.0000   1.0000   1.0000   1.0000   1.0000
     1.0000   1.0000   1.0000   1.0000   1.0000   1.0000   1.0000   1.0000
     1.0000   1.0000   1.0000   1.0000   1.0000   1.0000   1.0000   1.0000
     1.0000   1.0000   1.0000   1.0000   1.0000   1.0000   1.0000   1.0000

          k = 0.0556 0.1667 0.2778 (  8302 PWs)   bands (ev):

    -1.2305  -1.2305   1.3938   1.3938   2.3387   2.3387   2.7932   2.7932
     7.8406   7.8406   8.2137   8.2137   9.1618   9.1618   9.6054   9.6054
    10.7227  10.7227  11.9310  11.9310  11.9787  11.9787  12.0807  12.0807
    12.7968  12.7968  12.8610  12.8610  14.8272  14.8272  15.2282  15.2282
    16.2615  16.2615  16.5289  16.5289  16.6437  16.6437  21.3513  21.3513
    22.4264  22.4264  23.3945  23.3945  24.2383  24.2383  24.5792  24.5792
    24.7572  24.7572  25.4079  25.4079  25.6219  25.6219  25.9369  25.9369
    26.9118  26.9118  26.9188  26.9188  28.1726  28.1726  29.3155  29.3155

     occupation numbers 
     1.0000   1.0000   1.0000   1.0000   1.0000   1.0000   1.0000   1.0000
     1.0000   1.0000   1.0000   1.0000   1.0000   1.0000   1.0000   1.0000
     1.0000   1.0000   1.0000   1.0000   1.0000   1.0000   1.0000   1.0000
     1.0000   1.0000   1.0000   1.0000   1.0000   1.0000   1.0000   1.0000
     1.0000   1.0000   1.0000   1.0000   1.0000   1.0000   1.0000   1.0000
     1.0000   1.0000   1.0000   1.0000   1.0000   1.0000   1.0000   1.0000
     1.0000   1.0000   1.0000   1.0000   1.0000   1.0000   1.0000   1.0000
     1.0000   1.0000   1.0000   1.0000   1.0000   1.0000   1.0000   1.0000

          k = 0.0556 0.1667 0.3889 (  8273 PWs)   bands (ev):

    -0.7575  -0.7575   0.5918   0.5918   2.5611   2.5611   2.8258   2.8258
     7.3515   7.3515   7.5878   7.5878   9.6175   9.6175  10.0233  10.0233
    10.9449  10.9449  11.0448  11.0448  11.4037  11.4037  12.2469  12.2469
    13.0100  13.0100  13.9689  13.9689  14.2257  14.2257  15.9608  15.9608
[...]
     1.0000   1.0000   1.0000   1.0000   1.0000   1.0000   1.0000   1.0000
     1.0000   1.0000   1.0000   1.0000   1.0000   1.0000   1.0000   1.0000
     1.0000   1.0000   1.0000   1.0000   1.0000   1.0000   1.0000   1.0000
     1.0000   1.0000   1.0000   1.0000   1.0000   1.0000   1.0000   1.0000
     1.0000   1.0000   1.0000   1.0000   1.0000   1.0000   1.0000   1.0000
     1.0000   1.0000   1.0000   1.0000   1.0000   1.0000   1.0000   1.0000

          k = 0.2778 0.2778-0.5000 (  8248 PWs)   bands (ev):

     0.5620   0.5620   0.5643   0.5643   2.1269   2.1269   2.1278   2.1278
     5.9833   5.9833   5.9898   5.9898   7.5580   7.5580   7.5632   7.5632
    13.1259  13.1259  13.1290  13.1290  14.0961  14.0961  14.1005  14.1005
    14.9171  14.9171  14.9200  14.9200  15.9843  15.9843  15.9858  15.9858
    18.6210  18.6210  18.6220  18.6220  19.4643  19.4643  19.4679  19.4679
    21.0535  21.0535  21.0588  21.0588  22.9000  22.9000  22.9046  22.9046
    23.3335  23.3335  23.3342  23.3342  25.2330  25.2330  25.2365  25.2365
    25.6917  25.6917  25.6949  25.6949  27.5117  27.5117  27.5168  27.5168

     occupation numbers 
     1.0000   1.0000   1.0000   1.0000   1.0000   1.0000   1.0000   1.0000
     1.0000   1.0000   1.0000   1.0000   1.0000   1.0000   1.0000   1.0000
     1.0000   1.0000   1.0000   1.0000   1.0000   1.0000   1.0000   1.0000
     1.0000   1.0000   1.0000   1.0000   1.0000   1.0000   1.0000   1.0000
     1.0000   1.0000   1.0000   1.0000   1.0000   1.0000   1.0000   1.0000
     1.0000   1.0000   1.0000   1.0000   1.0000   1.0000   1.0000   1.0000
     1.0000   1.0000   1.0000   1.0000   1.0000   1.0000   1.0000   1.0000
     1.0000   1.0000   1.0000   1.0000   1.0000   1.0000   1.0000   1.0000

          k = 0.2778 0.3889 0.3889 (  8257 PWs)   bands (ev):

     0.4161   0.4161   1.5225   1.5225   1.5229   1.5229   2.0152   2.0152
     5.8185   5.8185   6.3099   6.3099   6.3157   6.3157   7.4241   7.4241
    13.3727  13.3727  14.1786  14.1786  14.1807  14.1807  15.1582  15.1582
    15.1592  15.1592  15.3036  15.3036  15.3427  15.3427  17.0456  17.0456
    18.3064  18.3064  18.6658  18.6658  18.6706  18.6706  20.4051  20.4051
    21.2721  21.2721  21.8642  21.8642  21.8647  21.8647  21.9446  21.9446
    22.2268  22.2268  24.2031  24.2031  24.3052  24.3052  24.3068  24.3068
    24.3335  24.3335  26.1176  26.1176  26.1214  26.1214  26.8836  26.8836

     occupation numbers 
     1.0000   1.0000   1.0000   1.0000   1.0000   1.0000   1.0000   1.0000
     1.0000   1.0000   1.0000   1.0000   1.0000   1.0000   1.0000   1.0000
     1.0000   1.0000   1.0000   1.0000   1.0000   1.0000   1.0000   1.0000
     1.0000   1.0000   1.0000   1.0000   1.0000   1.0000   1.0000   1.0000
     1.0000   1.0000   1.0000   1.0000   1.0000   1.0000   1.0000   1.0000
     1.0000   1.0000   1.0000   1.0000   1.0000   1.0000   1.0000   1.0000
     1.0000   1.0000   1.0000   1.0000   1.0000   1.0000   1.0000   1.0000
     1.0000   1.0000   1.0000   1.0000   1.0000   1.0000   1.0000   1.0000

          k = 0.2778 0.3889-0.5000 (  8264 PWs)   bands (ev):

     0.9436   0.9436   0.9456   0.9456   1.8218   1.8218   1.8229   1.8229
     5.8601   5.8601   5.8663   5.8663   6.7414   6.7414   6.7469   6.7469
    13.8346  13.8346  13.8379  13.8379  14.8422  14.8422  14.8453  14.8453
    15.4369  15.4369  15.4403  15.4403  16.4951  16.4951  16.4963  16.4963
    19.3676  19.3676  19.3708  19.3708  19.4270  19.4270  19.4282  19.4282
    20.9482  20.9482  20.9523  20.9523  21.3405  21.3405  21.3461  21.3461
    22.8682  22.8682  22.8685  22.8685  24.0875  24.0875  24.0909  24.0909
    24.9870  24.9870  24.9912  24.9912  26.2703  26.2703  26.2752  26.2752

     occupation numbers 
     1.0000   1.0000   1.0000   1.0000   1.0000   1.0000   1.0000   1.0000
     1.0000   1.0000   1.0000   1.0000   1.0000   1.0000   1.0000   1.0000
     1.0000   1.0000   1.0000   1.0000   1.0000   1.0000   1.0000   1.0000
     1.0000   1.0000   1.0000   1.0000   1.0000   1.0000   1.0000   1.0000
     1.0000   1.0000   1.0000   1.0000   1.0000   1.0000   1.0000   1.0000
     1.0000   1.0000   1.0000   1.0000   1.0000   1.0000   1.0000   1.0000
     1.0000   1.0000   1.0000   1.0000   1.0000   1.0000   1.0000   1.0000
     1.0000   1.0000   1.0000   1.0000   1.0000   1.0000   1.0000   1.0000

          k = 0.2778-0.5000-0.5000 (  8264 PWs)   bands (ev):

     1.3903   1.3903   1.3923   1.3923   1.3924   1.3924   1.3936   1.3936
     6.1427   6.1427   6.1429   6.1429   6.1429   6.1429   6.1545   6.1545
    14.3735  14.3735  14.3741  14.3741  14.3742  14.3742  14.3803  14.3803
    16.4974  16.4974  16.4976  16.4976  16.4985  16.4985  16.5010  16.5010
    19.6644  19.6644  19.6661  19.6661  19.6673  19.6673  19.6696  19.6696
    20.7329  20.7329  20.7336  20.7336  20.7394  20.7394  20.7395  20.7395
    22.8776  22.8776  22.8787  22.8787  22.8800  22.8800  22.8809  22.8809
    25.4437  25.4437  25.4444  25.4444  25.4445  25.4445  25.4529  25.4529

     occupation numbers 
     1.0000   1.0000   1.0000   1.0000   1.0000   1.0000   1.0000   1.0000
     1.0000   1.0000   1.0000   1.0000   1.0000   1.0000   1.0000   1.0000
     1.0000   1.0000   1.0000   1.0000   1.0000   1.0000   1.0000   1.0000
     1.0000   1.0000   1.0000   1.0000   1.0000   1.0000   1.0000   1.0000
     1.0000   1.0000   1.0000   1.0000   1.0000   1.0000   1.0000   1.0000
     1.0000   1.0000   1.0000   1.0000   1.0000   1.0000   1.0000   1.0000
     1.0000   1.0000   1.0000   1.0000   1.0000   1.0000   1.0000   1.0000
     1.0000   1.0000   1.0000   1.0000   1.0000   1.0000   1.0000   1.0000

          k = 0.3889 0.3889 0.3889 (  8264 PWs)   bands (ev):

     0.8023   0.8023   1.6979   1.6979   1.6990   1.6990   1.6991   1.6991
     5.7039   5.7039   5.7039   5.7039   5.7132   5.7132   6.6052   6.6052
    14.9093  14.9093  14.9108  14.9108  14.9115  14.9115  15.8211  15.8211
    15.8226  15.8226  15.8243  15.8243  15.9874  15.9874  17.1084  17.1084
    18.8117  18.8117  18.8118  18.8118  18.8198  18.8198  20.2612  20.2612
    21.0730  21.0730  21.5680  21.5680  21.5915  21.5915  21.5951  21.5951
    21.5964  21.5964  23.0905  23.0905  23.0920  23.0920  23.0932  23.0932
    23.2822  23.2822  25.0251  25.0251  25.0253  25.0253  25.0316  25.0316

     occupation numbers 
     1.0000   1.0000   1.0000   1.0000   1.0000   1.0000   1.0000   1.0000
     1.0000   1.0000   1.0000   1.0000   1.0000   1.0000   1.0000   1.0000
     1.0000   1.0000   1.0000   1.0000   1.0000   1.0000   1.0000   1.0000
     1.0000   1.0000   1.0000   1.0000   1.0000   1.0000   1.0000   1.0000
     1.0000   1.0000   1.0000   1.0000   1.0000   1.0000   1.0000   1.0000
     1.0000   1.0000   1.0000   1.0000   1.0000   1.0000   1.0000   1.0000
     1.0000   1.0000   1.0000   1.0000   1.0000   1.0000   1.0000   1.0000
     1.0000   1.0000   1.0000   1.0000   1.0000   1.0000   1.0000   1.0000

          k = 0.3889 0.3889-0.5000 (  8276 PWs)   bands (ev):

     1.2566   1.2566   1.2583   1.2583   1.7773   1.7773   1.7783   1.7783
     5.4758   5.4758   5.4822   5.4822   5.9972   5.9972   6.0031   6.0031
    15.1216  15.1216  15.1238  15.1238  15.7431  15.7431  15.7449  15.7449
    16.0779  16.0779  16.0808  16.0808  16.7664  16.7664  16.7677  16.7677
    19.5427  19.5427  19.5440  19.5440  19.5560  19.5560  19.5618  19.5618
    20.6152  20.6152  20.6198  20.6198  21.0894  21.0894  21.0951  21.0951
    22.0329  22.0329  22.0334  22.0334  22.8843  22.8843  22.8877  22.8877
    23.7199  23.7199  23.7236  23.7236  24.6298  24.6298  24.6347  24.6347

     occupation numbers 
     1.0000   1.0000   1.0000   1.0000   1.0000   1.0000   1.0000   1.0000
     1.0000   1.0000   1.0000   1.0000   1.0000   1.0000   1.0000   1.0000
     1.0000   1.0000   1.0000   1.0000   1.0000   1.0000   1.0000   1.0000
     1.0000   1.0000   1.0000   1.0000   1.0000   1.0000   1.0000   1.0000
     1.0000   1.0000   1.0000   1.0000   1.0000   1.0000   1.0000   1.0000
     1.0000   1.0000   1.0000   1.0000   1.0000   1.0000   1.0000   1.0000
     1.0000   1.0000   1.0000   1.0000   1.0000   1.0000   1.0000   1.0000
     1.0000   1.0000   1.0000   1.0000   1.0000   1.0000   1.0000   1.0000

          k = 0.3889-0.5000-0.5000 (  8264 PWs)   bands (ev):

     1.5696   1.5696   1.5717   1.5717   1.5718   1.5718   1.5722   1.5722
     5.5339   5.5339   5.5339   5.5339   5.5339   5.5339   5.5464   5.5464
    15.6987  15.6987  15.6991  15.6991  15.6998  15.6998  15.7030  15.7030
    16.8677  16.8677  16.8678  16.8678  16.8694  16.8694  16.8709  16.8709
    19.8209  19.8209  19.8217  19.8217  19.8231  19.8231  19.8299  19.8299
    20.4558  20.4558  20.4559  20.4559  20.4609  20.4609  20.4632  20.4632
    21.9654  21.9654  21.9667  21.9667  21.9682  21.9682  21.9690  21.9690
    23.7052  23.7052  23.7056  23.7056  23.7058  23.7058  23.7140  23.7140

     occupation numbers 
     1.0000   1.0000   1.0000   1.0000   1.0000   1.0000   1.0000   1.0000
     1.0000   1.0000   1.0000   1.0000   1.0000   1.0000   1.0000   1.0000
     1.0000   1.0000   1.0000   1.0000   1.0000   1.0000   1.0000   1.0000
     1.0000   1.0000   1.0000   1.0000   1.0000   1.0000   1.0000   1.0000
     1.0000   1.0000   1.0000   1.0000   1.0000   1.0000   1.0000   1.0000
     1.0000   1.0000   1.0000   1.0000   1.0000   1.0000   1.0000   1.0000
     1.0000   1.0000   1.0000   1.0000   1.0000   1.0000   1.0000   1.0000
     1.0000   1.0000   1.0000   1.0000   1.0000   1.0000   1.0000   1.0000

          k =-0.5000-0.5000-0.5000 (  8240 PWs)   bands (ev):

     1.6505   1.6505   1.6526   1.6526   1.6526   1.6526   1.6528   1.6528
     5.3042   5.3042   5.3042   5.3042   5.3042   5.3042   5.3171   5.3171
    16.1569  16.1569  16.1572  16.1572  16.1591  16.1591  16.1591  16.1591
    17.2829  17.2829  17.2829  17.2829  17.2851  17.2851  17.2851  17.2851
    19.7098  19.7098  19.7109  19.7109  19.7109  19.7109  19.7210  19.7210
    20.4887  20.4887  20.4887  20.4887  20.4955  20.4955  20.4955  20.4955
    21.5465  21.5465  21.5479  21.5479  21.5500  21.5500  21.5500  21.5500
    22.9530  22.9530  22.9530  22.9530  22.9532  22.9532  22.9610  22.9610

     occupation numbers 
     1.0000   1.0000   1.0000   1.0000   1.0000   1.0000   1.0000   1.0000
     1.0000   1.0000   1.0000   1.0000   1.0000   1.0000   1.0000   1.0000
     1.0000   1.0000   1.0000   1.0000   1.0000   1.0000   1.0000   1.0000
     1.0000   1.0000   1.0000   1.0000   1.0000   1.0000   1.0000   1.0000
     1.0000   1.0000   1.0000   1.0000   1.0000   1.0000   1.0000   1.0000
     1.0000   1.0000   1.0000   1.0000   1.0000   1.0000   1.0000   1.0000
     1.0000   1.0000   1.0000   1.0000   1.0000   1.0000   1.0000   1.0000
     1.0000   1.0000   1.0000   1.0000   1.0000   1.0000   1.0000   1.0000

     highest occupied level (ev):    29.5153

!    total energy              =   -3131.15751452 Ry
     Harris-Foulkes estimate   =   -3131.15751482 Ry
     estimated scf accuracy    <       0.00000033 Ry

     total all-electron energy =   -119218.213642 Ry

     The total energy is the sum of the following terms:

     one-electron contribution =     153.68110594 Ry
     hartree contribution      =       5.42687343 Ry
     xc contribution           =    -157.41665273 Ry
     ewald contribution        =    -332.73169529 Ry
     one-center paw contrib.   =   -2800.11714588 Ry
      -> PAW hartree energy AE =      42.91567336 Ry
      -> PAW hartree energy PS =     -42.80225289 Ry
      -> PAW xc energy AE      =    -381.08926275 Ry
      -> PAW xc energy PS      =      22.84222702 Ry
      -> total E_H with PAW    =       5.54029390 Ry
      -> total E_XC with PAW   =    -515.66368845 Ry

     convergence has been achieved in  83 iterations

     Forces acting on atoms (cartesian axes, Ry/au):

     atom    1 type  1   force =     0.00000000    0.00000000    0.00000000
     atom    2 type  1   force =     0.00000000    0.00000000    0.00000000
     atom    3 type  1   force =     0.00000000    0.00000000    0.00000000
     atom    4 type  1   force =     0.00000000    0.00000000    0.00000000
     atom    5 type  2   force =     0.00000000   -0.00000000    0.00000000
     atom    6 type  2   force =     0.00000000    0.00000000    0.00000000
     atom    7 type  2   force =     0.00000000   -0.00000000    0.00000000
     atom    8 type  2   force =     0.00000000    0.00000000    0.00000000
     The non-local contrib.  to forces
     atom    1 type  1   force =     0.00000000    0.00000000    0.00000000
     atom    2 type  1   force =     0.00000000    0.00000000    0.00000000
     atom    3 type  1   force =     0.00000000    0.00000000    0.00000000
     atom    4 type  1   force =     0.00000000    0.00000000   -0.00000000
     atom    5 type  2   force =     0.00000000   -0.00000000    0.00000000
     atom    6 type  2   force =     0.00000000    0.00000000    0.00000000
     atom    7 type  2   force =     0.00000000    0.00000000    0.00000000
     atom    8 type  2   force =     0.00000000    0.00000000   -0.00000000
     The ionic contribution  to forces
     atom    1 type  1   force =    -0.00000000   -0.00000000   -0.00000000
     atom    2 type  1   force =    -0.00000000    0.00000000    0.00000000
     atom    3 type  1   force =     0.00000000   -0.00000000    0.00000000
     atom    4 type  1   force =     0.00000000    0.00000000   -0.00000000
     atom    5 type  2   force =     0.00000000   -0.00000000   -0.00000000
     atom    6 type  2   force =     0.00000000    0.00000000    0.00000000
     atom    7 type  2   force =    -0.00000000   -0.00000000    0.00000000
     atom    8 type  2   force =    -0.00000000    0.00000000   -0.00000000
     The local contribution  to forces
     atom    1 type  1   force =    -0.00000000   -0.00000000   -0.00000000
     atom    2 type  1   force =    -0.00000000    0.00000000    0.00000000
     atom    3 type  1   force =     0.00000000   -0.00000000    0.00000000
     atom    4 type  1   force =     0.00000000    0.00000000   -0.00000000
     atom    5 type  2   force =     0.00000000   -0.00000000   -0.00000000
     atom    6 type  2   force =     0.00000000    0.00000000   -0.00000000
     atom    7 type  2   force =    -0.00000000   -0.00000000   -0.00000000
     atom    8 type  2   force =    -0.00000000    0.00000000   -0.00000000
     The core correction contribution to forces
     atom    1 type  1   force =    -0.00000000   -0.00000000    0.00000000
     atom    2 type  1   force =    -0.00000000   -0.00000000    0.00000000
     atom    3 type  1   force =    -0.00000000    0.00000000   -0.00000000
     atom    4 type  1   force =    -0.00000000   -0.00000000    0.00000000
     atom    5 type  2   force =    -0.00000000    0.00000000    0.00000000
     atom    6 type  2   force =    -0.00000000   -0.00000000   -0.00000000
     atom    7 type  2   force =    -0.00000000    0.00000000    0.00000000
     atom    8 type  2   force =    -0.00000000   -0.00000000    0.00000000
     The Hubbard contrib.    to forces
     atom    1 type  1   force =     0.00000000    0.00000000    0.00000000
     atom    2 type  1   force =     0.00000000    0.00000000    0.00000000
     atom    3 type  1   force =     0.00000000    0.00000000    0.00000000
     atom    4 type  1   force =     0.00000000    0.00000000    0.00000000
     atom    5 type  2   force =     0.00000000    0.00000000    0.00000000
     atom    6 type  2   force =     0.00000000    0.00000000    0.00000000
     atom    7 type  2   force =     0.00000000    0.00000000    0.00000000
     atom    8 type  2   force =     0.00000000    0.00000000    0.00000000
     The SCF correction term to forces
     atom    1 type  1   force =     0.00000000   -0.00000000   -0.00000000
     atom    2 type  1   force =     0.00000000    0.00000000    0.00000000
     atom    3 type  1   force =     0.00000000   -0.00000000   -0.00000000
     atom    4 type  1   force =    -0.00000000    0.00000000    0.00000000
     atom    5 type  2   force =    -0.00000000    0.00000000    0.00000000
     atom    6 type  2   force =    -0.00000000    0.00000000    0.00000000
     atom    7 type  2   force =    -0.00000000    0.00000000    0.00000000
     atom    8 type  2   force =    -0.00000000   -0.00000000    0.00000000

     Total force =     0.000000     Total SCF correction =     0.000000


     Computing stress (Cartesian axis) and pressure

     Message from routine stres:
     noncollinear stress + GGA not implemented

     Writing output data file CsIsalt.save/
 
     init_run     :     12.26s CPU     17.80s WALL (       1 calls)
     electrons    :   3272.15s CPU   4830.14s WALL (       1 calls)
     forces       :     16.35s CPU     23.43s WALL (       1 calls)

     Called by init_run:
     wfcinit      :      9.11s CPU     13.48s WALL (       1 calls)
     wfcinit:atom :      0.01s CPU      0.02s WALL (      35 calls)
     wfcinit:wfcr :      8.95s CPU     13.25s WALL (      35 calls)
     potinit      :      1.30s CPU      1.87s WALL (       1 calls)
     hinit0       :      0.52s CPU      0.83s WALL (       1 calls)

     Called by electrons:
     c_bands      :   2542.14s CPU   3765.75s WALL (      84 calls)
     sum_band     :    539.73s CPU    828.25s WALL (      84 calls)
     v_of_rho     :      2.04s CPU      3.05s WALL (      84 calls)
     v_h          :      0.05s CPU      0.07s WALL (      84 calls)
     v_xc         :      2.00s CPU      2.99s WALL (      85 calls)
     newd         :    102.64s CPU    120.57s WALL (      84 calls)
     PAW_pot      :     61.22s CPU     77.09s WALL (      84 calls)
     mix_rho      :     12.22s CPU     18.38s WALL (      84 calls)

     Called by c_bands:
     init_us_2    :      9.46s CPU     14.83s WALL (    5950 calls)
     cegterg      :   2317.82s CPU   3484.70s WALL (    2940 calls)

     Called by sum_band:
     sum_band:bec :    138.97s CPU    212.67s WALL (    2940 calls)
     addusdens    :     32.87s CPU     43.70s WALL (      84 calls)

     Called by *egterg:
     h_psi        :   1177.68s CPU   1750.88s WALL (   12591 calls)
     s_psi        :    115.66s CPU    158.68s WALL (   12591 calls)
     g_psi        :      1.84s CPU      1.98s WALL (    9616 calls)
     cdiaghg      :    419.71s CPU    669.11s WALL (   12521 calls)
     cegterg:over :    283.90s CPU    409.29s WALL (    9616 calls)
     cegterg:upda :    140.62s CPU    209.60s WALL (    9616 calls)
     cegterg:last :     42.66s CPU     64.28s WALL (    3196 calls)
     cdiaghg:chol :     24.63s CPU     36.72s WALL (   12521 calls)
     cdiaghg:inve :     13.37s CPU     22.44s WALL (   12521 calls)
     cdiaghg:para :     91.62s CPU    138.56s WALL (   25042 calls)

     Called by h_psi:
     h_psi:pot    :   1173.77s CPU   1746.70s WALL (   12591 calls)
     h_psi:calbec :     47.30s CPU     60.15s WALL (   12591 calls)
     vloc_psi     :   1017.74s CPU   1535.81s WALL (   12591 calls)
     add_vuspsi   :    108.65s CPU    150.66s WALL (   12591 calls)

     General routines
     calbec       :     68.22s CPU     87.91s WALL (   15671 calls)
     fft          :     16.30s CPU     24.31s WALL (    1849 calls)
     ffts         :      8.20s CPU     12.48s WALL (     672 calls)
     fftw         :   1312.19s CPU   2008.23s WALL ( 2305104 calls)
     interpolate  :      6.75s CPU     10.30s WALL (     336 calls)
 
     Parallel routines
     fft_scatt_xy :     47.97s CPU     67.22s WALL ( 2307625 calls)
     fft_scatt_yz :   1068.61s CPU   1686.15s WALL ( 2307625 calls)

     PAW routines
     PAW_pot      :     61.22s CPU     77.09s WALL (      84 calls)
     PAW_symme    :      2.56s CPU      3.44s WALL (     168 calls)
 
     PWSCF        :  55m11.06s CPU      1h21m WALL

 
   This run was terminated on:  19:18:18  24Jan2021            

=------------------------------------------------------------------------------=
   JOB DONE.
=------------------------------------------------------------------------------=
