
     Program PWSCF v.6.7MaX starts on  1Mar2021 at 19:34:25 

     This program is part of the open-source Quantum ESPRESSO suite
     for quantum simulation of materials; please cite
         "P. Giannozzi et al., J. Phys.:Condens. Matter 21 395502 (2009);
         "P. Giannozzi et al., J. Phys.:Condens. Matter 29 465901 (2017);
          URL http://www.quantum-espresso.org", 
     in publications or presentations arising from this work. More details at
     http://www.quantum-espresso.org/quote

     Parallel version (MPI & OpenMP), running on      32 processor cores
     Number of MPI processes:                32
     Threads/MPI process:                     1

     MPI processes distributed on     1 nodes
     R & G space division:  proc/nbgrp/npool/nimage =      32
     Waiting for input...
     Reading input from standard input
Warning: card  &CELL ignored
Warning: card     CELL_DYNAMICS = 'BFGS', ignored
Warning: card / ignored

     Current dimensions of program PWSCF are:
     Max number of different atomic species (ntypx) = 10
     Max number of k-points (npk) =  40000
     Max angular momentum in pseudopotentials (lmaxx) =  3
     file Sn.rel-pbe-dn-rrkjus_psl.1.0.0.UPF: wavefunction(s)  5S 4D 4D renormalized
     file I.rel-pbe-n-rrkjus_psl.1.0.0.UPF: wavefunction(s)  5S renormalized
     file Cs.rel-pbe-spn-rrkjus_psl.1.0.0.UPF: wavefunction(s)  5S 6S renormalized

     Subspace diagonalization in iterative solution of the eigenvalue problem:
     one sub-group per band group will be used
     scalapack distributed-memory algorithm (size of sub-group:  5*  5 procs)

     Message from routine setup:
     using ibrav=0 with symmetry is DISCOURAGED, use correct ibrav instead
 
     Parallelization info
     --------------------
     sticks:   dense  smooth     PW     G-vecs:    dense   smooth      PW
     Min         552     442    115                58554    41890    5609
     Max         554     443    119                58561    41894    5611
     Sum       17695   14149   3691              1873905  1340547  179527
 

     Title: 
     perovskite                                                                 


     bravais-lattice index     =            0
     lattice parameter (alat)  =      25.3309  a.u.
     unit-cell volume          =   13868.2753 (a.u.)^3
     number of atoms/cell      =           20
     number of atomic types    =            3
     number of electrons       =       176.00
     number of Kohn-Sham states=          200
     kinetic-energy cutoff     =      80.0000  Ry
     charge density cutoff     =     400.0000  Ry
     scf convergence threshold =      1.0E-06
     mixing beta               =       0.5000
     number of iterations used =            8  plain     mixing
     energy convergence thresh.=      1.0E-04
     force convergence thresh. =      1.0E-02
     Exchange-correlation= PBE
                           (   1   4   3   4   0   0   0)
     nstep                     =           50

     Non magnetic calculation with spin-orbit


     celldm(1)=  25.330900  celldm(2)=   0.000000  celldm(3)=   0.000000
     celldm(4)=   0.000000  celldm(5)=   0.000000  celldm(6)=   0.000000

     crystal axes: (cart. coord. in units of alat)
               a(1) = (   1.000000   0.000000   0.000000 )  
               a(2) = (  -0.500002   0.866025   0.000000 )  
               a(3) = (   0.000000   0.000000   0.985235 )  

     reciprocal axes: (cart. coord. in units 2 pi/alat)
               b(1) = (  1.000000  0.577353  0.000000 )  
               b(2) = (  0.000000  1.154701  0.000000 )  
               b(3) = (  0.000000  0.000000  1.014986 )  


     PseudoPot. # 1 for Sn read from file:
     ./Sn.rel-pbe-dn-rrkjus_psl.1.0.0.UPF
     MD5 check sum: e9415cc9ba1036dfb73502962f03961a
     Pseudo is Ultrasoft + core correction, Zval = 14.0
     Generated using &quot;atomic&quot; code by A. Dal Corso  v.6.3
     Using radial grid of 1243 points, 10 beta functions with: 
                l(1) =   0
                l(2) =   0
                l(3) =   1
                l(4) =   1
                l(5) =   1
                l(6) =   1
                l(7) =   2
                l(8) =   2
                l(9) =   2
               l(10) =   2
     Q(r) pseudized with 0 coefficients 


     PseudoPot. # 2 for I  read from file:
     ./I.rel-pbe-n-rrkjus_psl.1.0.0.UPF
     MD5 check sum: 6d021d2aa93960f239bd8adb25ac3fd1
     Pseudo is Ultrasoft + core correction, Zval =  7.0
     Generated using &quot;atomic&quot; code by A. Dal Corso  v.6.3
     Using radial grid of 1247 points, 10 beta functions with: 
                l(1) =   0
                l(2) =   0
                l(3) =   1
                l(4) =   1
                l(5) =   1
                l(6) =   1
                l(7) =   2
                l(8) =   2
                l(9) =   2
               l(10) =   2
     Q(r) pseudized with 0 coefficients 


     PseudoPot. # 3 for Cs read from file:
     ./Cs.rel-pbe-spn-rrkjus_psl.1.0.0.UPF
     MD5 check sum: 92f45d5fced885c1284380ec35df8368
     Pseudo is Ultrasoft + core correction, Zval =  9.0
     Generated using &quot;atomic&quot; code by A. Dal Corso  v.6.4.1
     Using radial grid of 1251 points, 15 beta functions with: 
                l(1) =   0
                l(2) =   0
                l(3) =   0
                l(4) =   1
                l(5) =   1
                l(6) =   1
                l(7) =   1
                l(8) =   2
                l(9) =   2
               l(10) =   2
               l(11) =   2
               l(12) =   3
               l(13) =   3
               l(14) =   3
               l(15) =   3
     Q(r) pseudized with 0 coefficients 


     atomic species   valence    mass     pseudopotential
        Sn            14.00   118.70000     Sn( 1.00)
        I              7.00   126.90000     I ( 1.00)
        Cs             9.00   132.90000     Cs( 1.00)

      4 Sym. Ops., with inversion, found


                                    s                        frac. trans.

      isym =  1     identity                                     

 cryst.   s( 1) = (     1          0          0      )
                  (     0          1          0      )
                  (     0          0          1      )

 cart.    s( 1) = (  1.0000000  0.0000000  0.0000000 )
                  (  0.0000000  1.0000000  0.0000000 )
                  (  0.0000000  0.0000000  1.0000000 )


      isym =  2     180 deg rotation - cart. axis [0,0,1]        

 cryst.   s( 2) = (    -1          0          0      )
                  (     0         -1          0      )
                  (     0          0          1      )

 cart.    s( 2) = ( -1.0000000  0.0000000  0.0000000 )
                  (  0.0000000 -1.0000000  0.0000000 )
                  (  0.0000000  0.0000000  1.0000000 )


      isym =  3     inversion                                    

 cryst.   s( 3) = (    -1          0          0      )
                  (     0         -1          0      )
                  (     0          0         -1      )

 cart.    s( 3) = ( -1.0000000  0.0000000  0.0000000 )
                  (  0.0000000 -1.0000000  0.0000000 )
                  (  0.0000000  0.0000000 -1.0000000 )


      isym =  4     inv. 180 deg rotation - cart. axis [0,0,1]   

 cryst.   s( 4) = (     1          0          0      )
                  (     0          1          0      )
                  (     0          0         -1      )

 cart.    s( 4) = (  1.0000000  0.0000000  0.0000000 )
                  (  0.0000000  1.0000000  0.0000000 )
                  (  0.0000000  0.0000000 -1.0000000 )


   Cartesian axes

     site n.     atom                  positions (alat units)
         1           Cs  tau(   1) = (   0.0000000   0.0000000   0.2463089  )
         2           Cs  tau(   2) = (   0.0000000   0.0000000   0.7389266  )
         3           Cs  tau(   3) = (   0.0000000   0.0000000   0.0000000  )
         4           Cs  tau(   4) = (   0.0000000   0.0000000   0.4926177  )
         5           Sn  tau(   5) = (   0.0000000   0.0000000   0.8923524  )
         6           Sn  tau(   6) = (   0.0000000   0.0000000   0.5855008  )
         7           Sn  tau(   7) = (   0.0000000   0.0000000   0.0928831  )
         8           Sn  tau(   8) = (   0.0000000   0.0000000   0.3997346  )
         9           I   tau(   9) = (   0.6411283   0.5444103   0.0000000  )
        10           I   tau(  10) = (  -0.1509104   0.8274395   0.0000000  )
        11           I   tau(  11) = (   0.2079614   0.2830292   0.0000000  )
        12           I   tau(  12) = (  -0.1411302   0.3216149   0.0000000  )
        13           I   tau(  13) = (   0.6509084   0.0385858   0.0000000  )
        14           I   tau(  14) = (   0.2920367   0.5829961   0.0000000  )
        15           I   tau(  15) = (   0.1411288   0.3216149   0.4926177  )
        16           I   tau(  16) = (   0.7920374   0.2830292   0.4926177  )
        17           I   tau(  17) = (   0.1509066   0.8274395   0.4926177  )
        18           I   tau(  18) = (   0.3588693   0.5444103   0.4926177  )
        19           I   tau(  19) = (  -0.2920393   0.5829961   0.4926177  )
        20           I   tau(  20) = (   0.3490914   0.0385858   0.4926177  )

   Crystallographic axes

     site n.     atom                  positions (cryst. coord.)
         1           Cs  tau(   1) = (  0.0000000  0.0000000  0.2500000  )
         2           Cs  tau(   2) = (  0.0000000  0.0000000  0.7500000  )
         3           Cs  tau(   3) = (  0.0000000  0.0000000  0.0000000  )
         4           Cs  tau(   4) = (  0.0000000  0.0000000  0.5000000  )
         5           Sn  tau(   5) = (  0.0000000  0.0000000  0.9057250  )
         6           Sn  tau(   6) = (  0.0000000  0.0000000  0.5942750  )
         7           Sn  tau(   7) = (  0.0000000  0.0000000  0.0942750  )
         8           Sn  tau(   8) = (  0.0000000  0.0000000  0.4057250  )
         9           I   tau(   9) = (  0.9554450  0.6286310  0.0000000  )
        10           I   tau(  10) = (  0.3268140  0.9554450  0.0000000  )
        11           I   tau(  11) = (  0.3713690  0.3268140  0.0000000  )
        12           I   tau(  12) = (  0.0445550  0.3713690  0.0000000  )
        13           I   tau(  13) = (  0.6731860  0.0445550  0.0000000  )
        14           I   tau(  14) = (  0.6286310  0.6731860  0.0000000  )
        15           I   tau(  15) = (  0.3268140  0.3713690  0.5000000  )
        16           I   tau(  16) = (  0.9554450  0.3268140  0.5000000  )
        17           I   tau(  17) = (  0.6286310  0.9554450  0.5000000  )
        18           I   tau(  18) = (  0.6731860  0.6286310  0.5000000  )
        19           I   tau(  19) = (  0.0445550  0.6731860  0.5000000  )
        20           I   tau(  20) = (  0.3713690  0.0445550  0.5000000  )

     number of k points=    10  Marzari-Vanderbilt smearing, width (Ry)=  0.0200
                       cart. coord. in units 2pi/alat
        k(    1) = (   0.0000000   0.0000000   0.0000000), wk =   0.0555556
        k(    2) = (   0.0000000   0.0000000  -0.5074929), wk =   0.0555556
        k(    3) = (   0.0000000   0.3849002   0.0000000), wk =   0.1111111
        k(    4) = (   0.0000000   0.3849002  -0.5074929), wk =   0.1111111
        k(    5) = (   0.3333333   0.1924509   0.0000000), wk =   0.1111111
        k(    6) = (   0.3333333   0.1924509  -0.5074929), wk =   0.1111111
        k(    7) = (   0.3333333   0.5773511   0.0000000), wk =   0.1111111
        k(    8) = (   0.3333333   0.5773511  -0.5074929), wk =   0.1111111
        k(    9) = (   0.3333333  -0.1924494   0.0000000), wk =   0.1111111
        k(   10) = (   0.3333333  -0.1924494  -0.5074929), wk =   0.1111111

                       cryst. coord.
        k(    1) = (   0.0000000   0.0000000   0.0000000), wk =   0.0555556
        k(    2) = (   0.0000000   0.0000000  -0.5000000), wk =   0.0555556
        k(    3) = (   0.0000000   0.3333333   0.0000000), wk =   0.1111111
        k(    4) = (   0.0000000   0.3333333  -0.5000000), wk =   0.1111111
        k(    5) = (   0.3333333   0.0000000   0.0000000), wk =   0.1111111
        k(    6) = (   0.3333333   0.0000000  -0.5000000), wk =   0.1111111
        k(    7) = (   0.3333333   0.3333333   0.0000000), wk =   0.1111111
        k(    8) = (   0.3333333   0.3333333  -0.5000000), wk =   0.1111111
        k(    9) = (   0.3333333  -0.3333333   0.0000000), wk =   0.1111111
        k(   10) = (   0.3333333  -0.3333333  -0.5000000), wk =   0.1111111

     Dense  grid:  1873905 G-vectors     FFT dimensions: ( 162, 162, 160)

     Smooth grid:  1340547 G-vectors     FFT dimensions: ( 150, 150, 144)

     Dynamical RAM for                 wfc:      31.96 MB

     Dynamical RAM for     wfc (w. buffer):     351.54 MB

     Dynamical RAM for           str. fact:       2.68 MB

     Dynamical RAM for           local pot:       0.00 MB

     Dynamical RAM for          nlocal pot:      63.60 MB

     Dynamical RAM for                qrad:      38.53 MB

     Dynamical RAM for          rho,v,vnew:      22.74 MB

     Dynamical RAM for               rhoin:       7.58 MB

     Dynamical RAM for            rho*nmix:      57.19 MB

     Dynamical RAM for           G-vectors:       3.67 MB

     Dynamical RAM for          h,s,v(r/c):       0.29 MB

     Dynamical RAM for          <psi|beta>:       4.86 MB

     Dynamical RAM for                 psi:      63.92 MB

     Dynamical RAM for                hpsi:      63.92 MB

     Dynamical RAM for                spsi:      63.92 MB

     Dynamical RAM for      wfcinit/wfcrot:      50.85 MB

     Dynamical RAM for           addusdens:    1836.29 MB

     Dynamical RAM for          addusforce:    1856.95 MB

     Dynamical RAM for         addusstress:    1852.37 MB

     Estimated static dynamical RAM per process >     559.10 MB

     Estimated max dynamical RAM per process >       2.36 GB

     Estimated total dynamical RAM >      75.50 GB

     Initial potential from superposition of free atoms

     starting charge  175.83606, renormalised to  176.00000

     negative rho (up, down):  9.539E-06 0.000E+00
     Starting wfcs are  208 randomized atomic wfcs

     total cpu time spent up to now is       50.4 secs

     Self-consistent Calculation

     iteration #  1     ecut=    80.00 Ry     beta= 0.50
     Davidson diagonalization with overlap
     ethr =  1.00E-02,  avg # of iterations =  6.5

     negative rho (up, down):  3.063E-06 0.000E+00

     total cpu time spent up to now is      231.1 secs

     total energy              =   -1226.74006231 Ry
     estimated scf accuracy    <       2.54333641 Ry

     iteration #  2     ecut=    80.00 Ry     beta= 0.50
     Davidson diagonalization with overlap
     ethr =  1.45E-03,  avg # of iterations = 14.3

     negative rho (up, down):  3.013E-06 0.000E+00

     total cpu time spent up to now is      460.2 secs

     total energy              =   -1225.19321757 Ry
     estimated scf accuracy    <      49.70937735 Ry

     iteration #  3     ecut=    80.00 Ry     beta= 0.50
     Davidson diagonalization with overlap
     ethr =  1.45E-03,  avg # of iterations = 10.3

     negative rho (up, down):  2.519E-06 0.000E+00

     total cpu time spent up to now is      632.8 secs

     total energy              =   -1228.13220541 Ry
     estimated scf accuracy    <       0.23321011 Ry

     iteration #  4     ecut=    80.00 Ry     beta= 0.50
     Davidson diagonalization with overlap
     ethr =  1.33E-04,  avg # of iterations = 13.7

     negative rho (up, down):  6.954E-01 0.000E+00

     total cpu time spent up to now is      896.0 secs

     total energy              =   -1174.79534480 Ry
     estimated scf accuracy    < 3041072.57689041 Ry

     iteration #  5     ecut=    80.00 Ry     beta= 0.50
     Davidson diagonalization with overlap
     ethr =  1.33E-04,  avg # of iterations = 11.4

     negative rho (up, down):  2.167E-01 0.000E+00

     total cpu time spent up to now is     1073.9 secs

     total energy              =   -1227.76704497 Ry
     estimated scf accuracy    <       0.21312218 Ry

     iteration #  6     ecut=    80.00 Ry     beta= 0.50
     Davidson diagonalization with overlap
     ethr =  1.21E-04,  avg # of iterations =  2.7

     negative rho (up, down):  6.283E-02 0.000E+00

     total cpu time spent up to now is     1213.5 secs

     total energy              =   -1227.93129317 Ry
     estimated scf accuracy    <       3.70527881 Ry

     iteration #  7     ecut=    80.00 Ry     beta= 0.50
     Davidson diagonalization with overlap
     ethr =  1.21E-04,  avg # of iterations =  2.1

     negative rho (up, down):  1.723E-02 0.000E+00

     total cpu time spent up to now is     1349.7 secs

     total energy              =   -1228.09963222 Ry
     estimated scf accuracy    <       0.39300689 Ry

     iteration #  8     ecut=    80.00 Ry     beta= 0.50
     Davidson diagonalization with overlap
     ethr =  1.21E-04,  avg # of iterations =  2.0

     negative rho (up, down):  4.177E-03 0.000E+00

     total cpu time spent up to now is     1474.8 secs

     total energy              =   -1228.16351168 Ry
     estimated scf accuracy    <       0.64478787 Ry

     iteration #  9     ecut=    80.00 Ry     beta= 0.50
     Davidson diagonalization with overlap
     ethr =  1.21E-04,  avg # of iterations =  1.5

     negative rho (up, down):  9.351E-04 0.000E+00

     total cpu time spent up to now is     1595.1 secs

     total energy              =   -1228.19465575 Ry
     estimated scf accuracy    <       0.27518962 Ry

     iteration # 10     ecut=    80.00 Ry     beta= 0.50
     Davidson diagonalization with overlap
     ethr =  1.21E-04,  avg # of iterations =  1.4

     negative rho (up, down):  2.088E-04 0.000E+00

     total cpu time spent up to now is     1714.8 secs

     total energy              =   -1228.20593203 Ry
     estimated scf accuracy    <       0.08725146 Ry

     iteration # 11     ecut=    80.00 Ry     beta= 0.50
     Davidson diagonalization with overlap
     c_bands:  1 eigenvalues not converged
     ethr =  4.96E-05,  avg # of iterations =  8.9

     negative rho (up, down):  3.210E-05 0.000E+00

     total cpu time spent up to now is     1847.0 secs

     total energy              =   -1228.20224891 Ry
     estimated scf accuracy    <       0.28917773 Ry

     iteration # 12     ecut=    80.00 Ry     beta= 0.50
     Davidson diagonalization with overlap
     ethr =  4.96E-05,  avg # of iterations =  1.5

     negative rho (up, down):  5.383E-06 0.000E+00

     total cpu time spent up to now is     1967.3 secs

     total energy              =   -1228.20327329 Ry
     estimated scf accuracy    <       0.20973199 Ry

     iteration # 13     ecut=    80.00 Ry     beta= 0.50
     Davidson diagonalization with overlap
     ethr =  4.96E-05,  avg # of iterations =  4.2

     negative rho (up, down):  1.440E-06 0.000E+00

     total cpu time spent up to now is     2090.2 secs

     total energy              =   -1228.21170348 Ry
     estimated scf accuracy    <       0.04857129 Ry

     iteration # 14     ecut=    80.00 Ry     beta= 0.50
     Davidson diagonalization with overlap
     ethr =  2.76E-05,  avg # of iterations =  2.4

     negative rho (up, down):  2.040E-06 0.000E+00

     total cpu time spent up to now is     2219.7 secs

     total energy              =   -1228.21030382 Ry
     estimated scf accuracy    <       0.30516783 Ry

     iteration # 15     ecut=    80.00 Ry     beta= 0.50
     Davidson diagonalization with overlap
     ethr =  2.76E-05,  avg # of iterations =  4.0

     negative rho (up, down):  2.490E-06 0.000E+00

     total cpu time spent up to now is     2356.1 secs

     total energy              =   -1228.20273498 Ry
     estimated scf accuracy    <       0.39064254 Ry

     iteration # 16     ecut=    80.00 Ry     beta= 0.50
     Davidson diagonalization with overlap
     ethr =  2.76E-05,  avg # of iterations =  2.0

     negative rho (up, down):  2.021E-06 0.000E+00

     total cpu time spent up to now is     2481.0 secs

     total energy              =   -1228.21249628 Ry
     estimated scf accuracy    <       0.01125760 Ry

     iteration # 17     ecut=    80.00 Ry     beta= 0.50
     Davidson diagonalization with overlap
     c_bands:  1 eigenvalues not converged
     ethr =  6.40E-06,  avg # of iterations = 10.0

     negative rho (up, down):  2.112E-06 0.000E+00

     total cpu time spent up to now is     2616.3 secs

     total energy              =   -1228.21287615 Ry
     estimated scf accuracy    <       0.00453944 Ry

     iteration # 18     ecut=    80.00 Ry     beta= 0.50
     Davidson diagonalization with overlap
     c_bands:  3 eigenvalues not converged
     c_bands:  3 eigenvalues not converged
     ethr =  2.58E-06,  avg # of iterations =  8.7

     negative rho (up, down):  2.244E-06 0.000E+00

     total cpu time spent up to now is     2750.8 secs

     total energy              =   -1228.21316238 Ry
     estimated scf accuracy    <       0.00164892 Ry

     iteration # 19     ecut=    80.00 Ry     beta= 0.50
     Davidson diagonalization with overlap
     ethr =  9.37E-07,  avg # of iterations =  2.3

     negative rho (up, down):  2.235E-06 0.000E+00

     total cpu time spent up to now is     2876.1 secs

     total energy              =   -1228.21315236 Ry
     estimated scf accuracy    <       0.00512941 Ry

     iteration # 20     ecut=    80.00 Ry     beta= 0.50
     Davidson diagonalization with overlap
     ethr =  9.37E-07,  avg # of iterations =  1.5

     negative rho (up, down):  2.341E-06 0.000E+00

     total cpu time spent up to now is     2996.4 secs

     total energy              =   -1228.21327639 Ry
     estimated scf accuracy    <       0.00321863 Ry

     iteration # 21     ecut=    80.00 Ry     beta= 0.50
     Davidson diagonalization with overlap
     ethr =  9.37E-07,  avg # of iterations =  1.0

     negative rho (up, down):  2.451E-06 0.000E+00

     total cpu time spent up to now is     3113.4 secs

     total energy              =   -1228.21336128 Ry
     estimated scf accuracy    <       0.00056940 Ry

     iteration # 22     ecut=    80.00 Ry     beta= 0.50
     Davidson diagonalization with overlap
     ethr =  3.24E-07,  avg # of iterations =  2.0

     negative rho (up, down):  2.463E-06 0.000E+00

     total cpu time spent up to now is     3237.2 secs

     total energy              =   -1228.21337432 Ry
     estimated scf accuracy    <       0.00038778 Ry

     iteration # 23     ecut=    80.00 Ry     beta= 0.50
     Davidson diagonalization with overlap
     ethr =  2.20E-07,  avg # of iterations =  2.0

     negative rho (up, down):  2.411E-06 0.000E+00

     total cpu time spent up to now is     3360.9 secs

     total energy              =   -1228.21335422 Ry
     estimated scf accuracy    <       0.00096130 Ry

     iteration # 24     ecut=    80.00 Ry     beta= 0.50
     Davidson diagonalization with overlap
     ethr =  2.20E-07,  avg # of iterations =  4.5

     negative rho (up, down):  2.490E-06 0.000E+00

     total cpu time spent up to now is     3491.2 secs

     total energy              =   -1228.21338819 Ry
     estimated scf accuracy    <       0.00096489 Ry

     iteration # 25     ecut=    80.00 Ry     beta= 0.50
     Davidson diagonalization with overlap
     ethr =  2.20E-07,  avg # of iterations =  2.0

     negative rho (up, down):  2.486E-06 0.000E+00

     total cpu time spent up to now is     3617.0 secs

     total energy              =   -1228.21339522 Ry
     estimated scf accuracy    <       0.00027186 Ry

     iteration # 26     ecut=    80.00 Ry     beta= 0.50
     Davidson diagonalization with overlap
     ethr =  1.54E-07,  avg # of iterations =  2.0

     negative rho (up, down):  2.543E-06 0.000E+00

     total cpu time spent up to now is     3741.4 secs

     WARNING: integrated charge=   175.99816326, expected=   176.00000000

     total energy              =   -1228.21339603 Ry
     estimated scf accuracy    <       0.00047773 Ry

     iteration # 27     ecut=    80.00 Ry     beta= 0.50
     Davidson diagonalization with overlap
     ethr =  1.54E-07,  avg # of iterations =  1.0

     negative rho (up, down):  2.533E-06 0.000E+00

     total cpu time spent up to now is     3858.5 secs

     WARNING: integrated charge=   175.99905767, expected=   176.00000000

     total energy              =   -1228.21340656 Ry
     estimated scf accuracy    <       0.00001406 Ry

     iteration # 28     ecut=    80.00 Ry     beta= 0.50
     Davidson diagonalization with overlap
     ethr =  7.99E-09,  avg # of iterations =  8.3

     negative rho (up, down):  2.564E-06 0.000E+00

     total cpu time spent up to now is     4027.2 secs

     WARNING: integrated charge=   175.99889640, expected=   176.00000000

     total energy              =   -1228.21340976 Ry
     estimated scf accuracy    <       0.00007262 Ry

     iteration # 29     ecut=    80.00 Ry     beta= 0.50
     Davidson diagonalization with overlap
     ethr =  7.99E-09,  avg # of iterations =  1.5

     negative rho (up, down):  2.557E-06 0.000E+00

     total cpu time spent up to now is     4147.7 secs

     WARNING: integrated charge=   175.99897169, expected=   176.00000000

     total energy              =   -1228.21341073 Ry
     estimated scf accuracy    <       0.00005574 Ry

     iteration # 30     ecut=    80.00 Ry     beta= 0.50
     Davidson diagonalization with overlap
     ethr =  7.99E-09,  avg # of iterations =  1.3

     negative rho (up, down):  2.560E-06 0.000E+00

     total cpu time spent up to now is     4266.9 secs

     WARNING: integrated charge=   175.99903766, expected=   176.00000000

     total energy              =   -1228.21341119 Ry
     estimated scf accuracy    <       0.00005856 Ry

     iteration # 31     ecut=    80.00 Ry     beta= 0.50
     Davidson diagonalization with overlap
     ethr =  7.99E-09,  avg # of iterations =  1.2

     negative rho (up, down):  2.571E-06 0.000E+00

     total cpu time spent up to now is     4385.4 secs

     WARNING: integrated charge=   175.99958057, expected=   176.00000000

     total energy              =   -1228.21341279 Ry
     estimated scf accuracy    <       0.00000809 Ry

     iteration # 32     ecut=    80.00 Ry     beta= 0.50
     Davidson diagonalization with overlap
     ethr =  4.60E-09,  avg # of iterations =  1.5

     negative rho (up, down):  2.578E-06 0.000E+00

     total cpu time spent up to now is     4506.0 secs

     WARNING: integrated charge=   175.99994901, expected=   176.00000000

     total energy              =   -1228.21341278 Ry
     estimated scf accuracy    <       0.00000270 Ry

     iteration # 33     ecut=    80.00 Ry     beta= 0.50
     Davidson diagonalization with overlap
     ethr =  1.53E-09,  avg # of iterations =  5.4

     negative rho (up, down):  2.593E-06 0.000E+00

     total cpu time spent up to now is     4644.1 secs

     WARNING: integrated charge=   176.00033122, expected=   176.00000000

     total energy              =   -1228.21341138 Ry
     estimated scf accuracy    <       0.00003649 Ry

     iteration # 34     ecut=    80.00 Ry     beta= 0.50
     Davidson diagonalization with overlap
     ethr =  1.53E-09,  avg # of iterations =  6.4

     negative rho (up, down):  2.585E-06 0.000E+00

     total cpu time spent up to now is     4806.8 secs

     WARNING: integrated charge=   175.99991402, expected=   176.00000000

     total energy              =   -1228.21340894 Ry
     estimated scf accuracy    <       0.00030466 Ry

     iteration # 35     ecut=    80.00 Ry     beta= 0.50
     Davidson diagonalization with overlap
     ethr =  1.53E-09,  avg # of iterations =  6.1

     negative rho (up, down):  2.595E-06 0.000E+00

     total cpu time spent up to now is     4961.7 secs

     End of self-consistent calculation

          k = 0.0000 0.0000 0.0000 (167621 PWs)   bands (ev):

   -43.6218 -43.6218 -43.6184 -43.6184 -42.8971 -42.8971 -42.8933 -42.8933
   -40.0259 -40.0259 -39.9623 -39.9623 -38.7393 -38.7393 -38.6469 -38.6469
   -38.5692 -38.5692 -38.5685 -38.5685 -38.2742 -38.2742 -38.2647 -38.2647
   -35.7720 -35.7720 -35.7715 -35.7715 -35.2713 -35.2713 -35.2707 -35.2707
   -34.9842 -34.9842 -34.9837 -34.9837 -34.4770 -34.4770 -34.4764 -34.4764
   -27.4765 -27.4765 -27.1250 -27.1250 -26.5180 -26.5180 -25.9289 -25.9289
   -18.8862 -18.8862 -17.4204 -17.4204 -17.3676 -17.3676 -17.1847 -17.1847
   -16.1340 -16.1340 -15.9299 -15.9299 -13.8997 -13.8997 -13.5541 -13.5541
   -12.9118 -12.9118 -12.8621 -12.8621 -12.8610 -12.8610 -12.8155 -12.8155
   -12.8154 -12.8154 -12.8146 -12.8146 -12.8145 -12.8145 -12.7589 -12.7589
   -12.7588 -12.7588 -12.7586 -12.7586 -12.7576 -12.7576 -12.7115 -12.7115
   -12.7108 -12.7108 -12.6411 -12.6411 -12.5415 -12.5415  -8.8652  -8.8652
    -6.6711  -6.6711  -5.9681  -5.9681  -5.9504  -5.9504  -4.9172  -4.9172
    -4.2009  -4.2009  -4.1891  -4.1891  -3.7396  -3.7396  -3.5609  -3.5609
    -3.5524  -3.5524  -3.5484  -3.5484  -3.5404  -3.5404  -3.3776  -3.3776
    -3.3755  -3.3755  -3.3152  -3.3152  -3.3082  -3.3082  -3.2854  -3.2854
    -3.2612  -3.2612  -3.1719  -3.1719  -3.1483  -3.1483  -2.7386  -2.7386
    -2.7266  -2.7266  -2.5586  -2.5586  -2.5115  -2.5115  -2.4557  -2.4557
    -2.4556  -2.4556  -2.4385  -2.4385  -2.4312  -2.4312  -2.4243  -2.4243
    -2.3890  -2.3890  -2.3288  -2.3288  -2.2960  -2.2960  -2.2473  -2.2473
    -2.2120  -2.2120  -2.2081  -2.2081  -2.2055  -2.2055  -2.1831  -2.1831
    -2.1580  -2.1580  -2.0119  -2.0119  -2.0119  -2.0119  -1.9990  -1.9990
    -1.9963  -1.9963  -1.9936  -1.9936  -1.9661  -1.9661  -1.4818  -1.4818
    -0.9065  -0.9065  -0.8827  -0.8827  -0.8406  -0.8406  -0.7608  -0.7607
    -0.7485  -0.7485  -0.7307  -0.7307  -0.6700  -0.6700   0.0172   0.0172

     occupation numbers 
     1.0000   1.0000   1.0000   1.0000   1.0000   1.0000   1.0000   1.0000
     1.0000   1.0000   1.0000   1.0000   1.0000   1.0000   1.0000   1.0000
     1.0000   1.0000   1.0000   1.0000   1.0000   1.0000   1.0000   1.0000
     1.0000   1.0000   1.0000   1.0000   1.0000   1.0000   1.0000   1.0000
     1.0000   1.0000   1.0000   1.0000   1.0000   1.0000   1.0000   1.0000
     1.0000   1.0000   1.0000   1.0000   1.0000   1.0000   1.0000   1.0000
     1.0000   1.0000   1.0000   1.0000   1.0000   1.0000   1.0000   1.0000
     1.0000   1.0000   1.0000   1.0000   1.0000   1.0000   1.0000   1.0000
     1.0000   1.0000   1.0000   1.0000   1.0000   1.0000   1.0000   1.0000
     1.0000   1.0000   1.0000   1.0000   1.0000   1.0000   1.0000   1.0000
     1.0000   1.0000   1.0000   1.0000   1.0000   1.0000   1.0000   1.0000
     1.0000   1.0000   1.0000   1.0000   1.0000   1.0000   1.0000   1.0000
     1.0000   1.0000   1.0000   1.0000   1.0000   1.0000   1.0000   1.0000
     1.0000   1.0000   1.0000   1.0000   1.0000   1.0000   1.0000   1.0000
     1.0000   1.0000   1.0000   1.0000   1.0000   1.0000   1.0000   1.0000
     1.0000   1.0000   1.0000   1.0000   1.0000   1.0000   1.0000   1.0000
     1.0000   1.0000   1.0000   1.0000   1.0000   1.0000   1.0074   1.0074
     1.0086   1.0086   1.0468   1.0468   1.0629   1.0629   1.0789   1.0789
     1.0789   1.0789   1.0818   1.0818   1.0826   1.0826   1.0831   1.0831
     1.0807   1.0807   1.0513   1.0513   1.0185   1.0185   0.9451   0.9451
     0.8744   0.8744   0.8657   0.8657   0.8598   0.8598   0.8071   0.8071
     0.7432   0.7432   0.3537   0.3537   0.3536   0.3536   0.3237   0.3237
     0.3176   0.3176   0.3115   0.3115   0.2535   0.2535   0.0003   0.0003
     0.0000   0.0000   0.0000   0.0000   0.0000   0.0000   0.0000   0.0000
     0.0000   0.0000   0.0000   0.0000   0.0000   0.0000   0.0000   0.0000

          k = 0.0000 0.0000-0.5075 (167544 PWs)   bands (ev):

   -43.6204 -43.6204 -43.6198 -43.6198 -42.8954 -42.8954 -42.8949 -42.8949
   -39.9953 -39.9953 -39.9948 -39.9948 -38.6939 -38.6939 -38.6934 -38.6934
   -38.5676 -38.5676 -38.5670 -38.5670 -38.2697 -38.2697 -38.2692 -38.2692
   -35.7720 -35.7720 -35.7715 -35.7715 -35.2713 -35.2713 -35.2708 -35.2708
   -34.9842 -34.9842 -34.9837 -34.9837 -34.4770 -34.4770 -34.4765 -34.4765
   -27.3421 -27.3421 -27.3420 -27.3420 -26.1878 -26.1878 -26.1873 -26.1873
   -18.2509 -18.2509 -18.2509 -18.2509 -17.2723 -17.2723 -17.2718 -17.2718
   -16.0366 -16.0366 -16.0361 -16.0361 -13.7329 -13.7329 -13.7328 -13.7328
   -12.8616 -12.8616 -12.8616 -12.8616 -12.8151 -12.8151 -12.8151 -12.8151
   -12.8150 -12.8150 -12.8149 -12.8149 -12.7590 -12.7590 -12.7590 -12.7590
   -12.7584 -12.7584 -12.7584 -12.7584 -12.7245 -12.7245 -12.7245 -12.7245
   -12.7112 -12.7112 -12.7111 -12.7111 -11.0513 -11.0513 -11.0510 -11.0510
    -6.0184  -6.0184  -6.0182  -6.0182  -5.4004  -5.4004  -5.4002  -5.4002
    -3.7595  -3.7595  -3.7595  -3.7595  -3.5504  -3.5504  -3.5504  -3.5504
    -3.4277  -3.4277  -3.4276  -3.4276  -3.3782  -3.3782  -3.3781  -3.3781
    -3.3116  -3.3116  -3.3116  -3.3116  -3.2911  -3.2911  -3.2911  -3.2911
    -3.1633  -3.1633  -3.1632  -3.1632  -2.7338  -2.7338  -2.7338  -2.7338
    -2.6612  -2.6612  -2.6611  -2.6611  -2.5079  -2.5079  -2.5079  -2.5079
    -2.4420  -2.4420  -2.4420  -2.4420  -2.4328  -2.4328  -2.4328  -2.4328
    -2.3577  -2.3577  -2.3577  -2.3577  -2.3260  -2.3260  -2.3260  -2.3260
    -2.2363  -2.2363  -2.2363  -2.2363  -2.1959  -2.1959  -2.1958  -2.1958
    -2.1605  -2.1605  -2.1605  -2.1605  -2.1044  -2.1044  -2.1043  -2.1043
    -2.0059  -2.0059  -2.0058  -2.0058  -1.9982  -1.9982  -1.9981  -1.9981
    -1.8876  -1.8876  -1.8876  -1.8876  -0.8750  -0.8750  -0.8746  -0.8746
    -0.7112  -0.7112  -0.7108  -0.7108   0.1259   0.1259   0.1260   0.1260

     occupation numbers 
     1.0000   1.0000   1.0000   1.0000   1.0000   1.0000   1.0000   1.0000
     1.0000   1.0000   1.0000   1.0000   1.0000   1.0000   1.0000   1.0000
     1.0000   1.0000   1.0000   1.0000   1.0000   1.0000   1.0000   1.0000
     1.0000   1.0000   1.0000   1.0000   1.0000   1.0000   1.0000   1.0000
     1.0000   1.0000   1.0000   1.0000   1.0000   1.0000   1.0000   1.0000
     1.0000   1.0000   1.0000   1.0000   1.0000   1.0000   1.0000   1.0000
     1.0000   1.0000   1.0000   1.0000   1.0000   1.0000   1.0000   1.0000
     1.0000   1.0000   1.0000   1.0000   1.0000   1.0000   1.0000   1.0000
     1.0000   1.0000   1.0000   1.0000   1.0000   1.0000   1.0000   1.0000
     1.0000   1.0000   1.0000   1.0000   1.0000   1.0000   1.0000   1.0000
     1.0000   1.0000   1.0000   1.0000   1.0000   1.0000   1.0000   1.0000
     1.0000   1.0000   1.0000   1.0000   1.0000   1.0000   1.0000   1.0000
     1.0000   1.0000   1.0000   1.0000   1.0000   1.0000   1.0000   1.0000
     1.0000   1.0000   1.0000   1.0000   1.0000   1.0000   1.0000   1.0000
     1.0000   1.0000   1.0000   1.0000   1.0000   1.0000   1.0000   1.0000
     1.0000   1.0000   1.0000   1.0000   1.0000   1.0000   1.0000   1.0000
     1.0000   1.0000   1.0000   1.0000   1.0078   1.0078   1.0078   1.0078
     1.0186   1.0186   1.0186   1.0186   1.0641   1.0641   1.0641   1.0641
     1.0813   1.0813   1.0813   1.0813   1.0824   1.0824   1.0824   1.0824
     1.0700   1.0700   1.0700   1.0700   1.0490   1.0490   1.0490   1.0490
     0.9246   0.9246   0.9245   0.9245   0.8377   0.8377   0.8377   0.8377
     0.7499   0.7499   0.7499   0.7499   0.5974   0.5974   0.5972   0.5972
     0.3395   0.3395   0.3394   0.3394   0.3218   0.3218   0.3217   0.3217
     0.1274   0.1274   0.1273   0.1273   0.0000   0.0000   0.0000   0.0000
     0.0000   0.0000   0.0000   0.0000   0.0000   0.0000   0.0000   0.0000

          k = 0.0000 0.3849 0.0000 (167604 PWs)   bands (ev):

   -43.6218 -43.6218 -43.6184 -43.6184 -42.8971 -42.8971 -42.8933 -42.8933
   -40.0259 -40.0259 -39.9623 -39.9623 -38.7393 -38.7393 -38.6469 -38.6469
   -38.5692 -38.5692 -38.5685 -38.5685 -38.2742 -38.2742 -38.2647 -38.2647
   -35.7720 -35.7720 -35.7715 -35.7715 -35.2713 -35.2713 -35.2707 -35.2707
   -34.9842 -34.9842 -34.9837 -34.9837 -34.4770 -34.4770 -34.4764 -34.4764
   -27.4765 -27.4765 -27.1250 -27.1250 -26.5180 -26.5180 -25.9289 -25.9289
   -18.8862 -18.8862 -17.4204 -17.4204 -17.3676 -17.3676 -17.1847 -17.1847
   -16.1340 -16.1340 -15.9299 -15.9299 -13.8997 -13.8997 -13.5541 -13.5541
   -12.9118 -12.9118 -12.8529 -12.8529 -12.8519 -12.8519 -12.8291 -12.8291
   -12.8282 -12.8282 -12.8199 -12.8199 -12.8190 -12.8190 -12.7544 -12.7544
   -12.7536 -12.7536 -12.7451 -12.7451 -12.7444 -12.7444 -12.7208 -12.7208
   -12.7201 -12.7201 -12.6412 -12.6412 -12.5415 -12.5415  -8.8652  -8.8652
    -6.6711  -6.6711  -5.9678  -5.9678  -5.9504  -5.9504  -4.9172  -4.9172
    -4.2011  -4.2011  -4.1917  -4.1917  -3.7580  -3.7580  -3.5346  -3.5346
    -3.5305  -3.5305  -3.5232  -3.5232  -3.4945  -3.4945  -3.4271  -3.4271
    -3.4222  -3.4222  -3.2967  -3.2967  -3.2906  -3.2906  -3.2564  -3.2564
    -3.2527  -3.2527  -3.1921  -3.1921  -3.1741  -3.1741  -2.6907  -2.6907
    -2.6783  -2.6783  -2.5857  -2.5857  -2.5715  -2.5715  -2.5043  -2.5043
    -2.4964  -2.4964  -2.4471  -2.4471  -2.4309  -2.4309  -2.3690  -2.3690
    -2.3544  -2.3544  -2.3031  -2.3031  -2.2808  -2.2808  -2.2602  -2.2602
    -2.2408  -2.2408  -2.2402  -2.2402  -2.2267  -2.2267  -2.1605  -2.1605
    -2.1419  -2.1419  -2.0733  -2.0733  -2.0709  -2.0709  -2.0155  -2.0155
    -2.0047  -2.0047  -1.9917  -1.9917  -1.9761  -1.9761  -1.5003  -1.5003
    -0.8998  -0.8997  -0.8617  -0.8617  -0.8075  -0.8075  -0.7295  -0.7295
    -0.7071  -0.7070  -0.6957  -0.6956  -0.6239  -0.6239   0.0793   0.0793

     occupation numbers 
     1.0000   1.0000   1.0000   1.0000   1.0000   1.0000   1.0000   1.0000
     1.0000   1.0000   1.0000   1.0000   1.0000   1.0000   1.0000   1.0000
     1.0000   1.0000   1.0000   1.0000   1.0000   1.0000   1.0000   1.0000
     1.0000   1.0000   1.0000   1.0000   1.0000   1.0000   1.0000   1.0000
     1.0000   1.0000   1.0000   1.0000   1.0000   1.0000   1.0000   1.0000
     1.0000   1.0000   1.0000   1.0000   1.0000   1.0000   1.0000   1.0000
     1.0000   1.0000   1.0000   1.0000   1.0000   1.0000   1.0000   1.0000
     1.0000   1.0000   1.0000   1.0000   1.0000   1.0000   1.0000   1.0000
     1.0000   1.0000   1.0000   1.0000   1.0000   1.0000   1.0000   1.0000
     1.0000   1.0000   1.0000   1.0000   1.0000   1.0000   1.0000   1.0000
     1.0000   1.0000   1.0000   1.0000   1.0000   1.0000   1.0000   1.0000
     1.0000   1.0000   1.0000   1.0000   1.0000   1.0000   1.0000   1.0000
     1.0000   1.0000   1.0000   1.0000   1.0000   1.0000   1.0000   1.0000
     1.0000   1.0000   1.0000   1.0000   1.0000   1.0000   1.0000   1.0000
     1.0000   1.0000   1.0000   1.0000   1.0000   1.0000   1.0000   1.0000
     1.0000   1.0000   1.0000   1.0000   1.0000   1.0000   1.0000   1.0000
     1.0000   1.0000   1.0000   1.0000   1.0000   1.0000   1.0133   1.0133
     1.0154   1.0154   1.0379   1.0379   1.0425   1.0425   1.0653   1.0653
     1.0679   1.0679   1.0805   1.0805   1.0826   1.0826   1.0750   1.0750
     1.0684   1.0684   1.0267   1.0267   0.9987   0.9987   0.9674   0.9674
     0.9331   0.9331   0.9320   0.9320   0.9054   0.9054   0.7499   0.7499
     0.7005   0.7005   0.5117   0.5117   0.5051   0.5051   0.3623   0.3623
     0.3366   0.3366   0.3072   0.3072   0.2737   0.2737   0.0004   0.0004
     0.0000   0.0000   0.0000   0.0000   0.0000   0.0000   0.0000   0.0000
     0.0000   0.0000   0.0000   0.0000   0.0000   0.0000   0.0000   0.0000

          k = 0.0000 0.3849-0.5075 (167544 PWs)   bands (ev):

   -43.6204 -43.6204 -43.6198 -43.6198 -42.8954 -42.8954 -42.8949 -42.8949
   -39.9953 -39.9953 -39.9948 -39.9948 -38.6939 -38.6939 -38.6934 -38.6934
   -38.5676 -38.5676 -38.5670 -38.5670 -38.2697 -38.2697 -38.2692 -38.2692
   -35.7720 -35.7720 -35.7715 -35.7715 -35.2713 -35.2713 -35.2708 -35.2708
   -34.9842 -34.9842 -34.9837 -34.9837 -34.4770 -34.4770 -34.4765 -34.4765
   -27.3421 -27.3421 -27.3420 -27.3420 -26.1878 -26.1878 -26.1873 -26.1873
   -18.2509 -18.2509 -18.2509 -18.2509 -17.2723 -17.2723 -17.2718 -17.2718
   -16.0366 -16.0366 -16.0361 -16.0361 -13.7329 -13.7329 -13.7328 -13.7328
   -12.8524 -12.8524 -12.8524 -12.8524 -12.8287 -12.8287 -12.8287 -12.8287
   -12.8195 -12.8195 -12.8194 -12.8194 -12.7541 -12.7541 -12.7540 -12.7540
   -12.7450 -12.7450 -12.7450 -12.7450 -12.7247 -12.7247 -12.7247 -12.7247
   -12.7204 -12.7204 -12.7204 -12.7204 -11.0513 -11.0513 -11.0510 -11.0510
    -6.0185  -6.0185  -6.0182  -6.0182  -5.4005  -5.4005  -5.4003  -5.4003
    -3.7292  -3.7292  -3.7270  -3.7270  -3.5343  -3.5343  -3.5339  -3.5339
    -3.4749  -3.4749  -3.4691  -3.4691  -3.4247  -3.4247  -3.4243  -3.4243
    -3.2850  -3.2850  -3.2833  -3.2833  -3.2562  -3.2562  -3.2535  -3.2535
    -3.1820  -3.1820  -3.1804  -3.1804  -2.7095  -2.7095  -2.7075  -2.7075
    -2.6543  -2.6543  -2.6337  -2.6337  -2.5272  -2.5272  -2.5190  -2.5190
    -2.4873  -2.4873  -2.4807  -2.4807  -2.4101  -2.4101  -2.4079  -2.4079
    -2.3455  -2.3455  -2.3331  -2.3331  -2.3007  -2.3007  -2.2979  -2.2979
    -2.2575  -2.2575  -2.2514  -2.2514  -2.2379  -2.2379  -2.2371  -2.2371
    -2.1628  -2.1628  -2.1541  -2.1541  -2.0830  -2.0830  -2.0808  -2.0808
    -2.0564  -2.0564  -2.0548  -2.0548  -2.0029  -2.0029  -1.9943  -1.9943
    -1.9313  -1.9313  -1.9283  -1.9283  -0.8322  -0.8322  -0.8319  -0.8319
    -0.6671  -0.6671  -0.6668  -0.6668   0.1461   0.1462   0.1479   0.1480

     occupation numbers 
     1.0000   1.0000   1.0000   1.0000   1.0000   1.0000   1.0000   1.0000
     1.0000   1.0000   1.0000   1.0000   1.0000   1.0000   1.0000   1.0000
     1.0000   1.0000   1.0000   1.0000   1.0000   1.0000   1.0000   1.0000
     1.0000   1.0000   1.0000   1.0000   1.0000   1.0000   1.0000   1.0000
     1.0000   1.0000   1.0000   1.0000   1.0000   1.0000   1.0000   1.0000
     1.0000   1.0000   1.0000   1.0000   1.0000   1.0000   1.0000   1.0000
     1.0000   1.0000   1.0000   1.0000   1.0000   1.0000   1.0000   1.0000
     1.0000   1.0000   1.0000   1.0000   1.0000   1.0000   1.0000   1.0000
     1.0000   1.0000   1.0000   1.0000   1.0000   1.0000   1.0000   1.0000
     1.0000   1.0000   1.0000   1.0000   1.0000   1.0000   1.0000   1.0000
     1.0000   1.0000   1.0000   1.0000   1.0000   1.0000   1.0000   1.0000
     1.0000   1.0000   1.0000   1.0000   1.0000   1.0000   1.0000   1.0000
     1.0000   1.0000   1.0000   1.0000   1.0000   1.0000   1.0000   1.0000
     1.0000   1.0000   1.0000   1.0000   1.0000   1.0000   1.0000   1.0000
     1.0000   1.0000   1.0000   1.0000   1.0000   1.0000   1.0000   1.0000
     1.0000   1.0000   1.0000   1.0000   1.0000   1.0000   1.0000   1.0000
     1.0000   1.0000   1.0000   1.0000   1.0107   1.0107   1.0109   1.0109
     1.0200   1.0200   1.0246   1.0246   1.0575   1.0575   1.0604   1.0604
     1.0707   1.0707   1.0726   1.0726   1.0832   1.0832   1.0831   1.0831
     1.0633   1.0633   1.0547   1.0547   1.0240   1.0240   1.0207   1.0207
     0.9629   0.9629   0.9524   0.9524   0.9277   0.9277   0.9260   0.9260
     0.7558   0.7558   0.7331   0.7331   0.5382   0.5382   0.5323   0.5323
     0.4661   0.4661   0.4618   0.4618   0.3326   0.3326   0.3129   0.3129
     0.1903   0.1903   0.1854   0.1854   0.0000   0.0000   0.0000   0.0000
     0.0000   0.0000   0.0000   0.0000   0.0000   0.0000   0.0000   0.0000

          k = 0.3333 0.1925 0.0000 (167604 PWs)   bands (ev):

   -43.6218 -43.6218 -43.6184 -43.6184 -42.8971 -42.8971 -42.8933 -42.8933
   -40.0259 -40.0259 -39.9623 -39.9623 -38.7393 -38.7393 -38.6469 -38.6469
   -38.5692 -38.5692 -38.5685 -38.5685 -38.2742 -38.2742 -38.2647 -38.2647
   -35.7720 -35.7720 -35.7715 -35.7715 -35.2713 -35.2713 -35.2707 -35.2707
   -34.9842 -34.9842 -34.9837 -34.9837 -34.4770 -34.4770 -34.4764 -34.4764
   -27.4765 -27.4765 -27.1250 -27.1250 -26.5180 -26.5180 -25.9289 -25.9289
   -18.8862 -18.8862 -17.4204 -17.4204 -17.3676 -17.3676 -17.1847 -17.1847
   -16.1340 -16.1340 -15.9299 -15.9299 -13.8997 -13.8997 -13.5541 -13.5541
   -12.9118 -12.9118 -12.8529 -12.8529 -12.8519 -12.8519 -12.8291 -12.8291
   -12.8282 -12.8282 -12.8199 -12.8199 -12.8191 -12.8191 -12.7544 -12.7544
   -12.7536 -12.7536 -12.7450 -12.7450 -12.7443 -12.7443 -12.7208 -12.7208
   -12.7201 -12.7201 -12.6412 -12.6412 -12.5415 -12.5415  -8.8652  -8.8652
    -6.6711  -6.6711  -5.9678  -5.9678  -5.9504  -5.9504  -4.9172  -4.9172
    -4.2011  -4.2011  -4.1917  -4.1917  -3.7580  -3.7580  -3.5346  -3.5346
    -3.5304  -3.5304  -3.5232  -3.5232  -3.4945  -3.4945  -3.4271  -3.4271
    -3.4222  -3.4222  -3.2967  -3.2967  -3.2906  -3.2906  -3.2564  -3.2564
    -3.2526  -3.2526  -3.1922  -3.1922  -3.1741  -3.1741  -2.6907  -2.6907
    -2.6783  -2.6783  -2.5857  -2.5857  -2.5715  -2.5715  -2.5043  -2.5043
    -2.4964  -2.4964  -2.4471  -2.4471  -2.4309  -2.4309  -2.3690  -2.3690
    -2.3544  -2.3544  -2.3031  -2.3031  -2.2808  -2.2808  -2.2602  -2.2602
    -2.2408  -2.2408  -2.2402  -2.2402  -2.2267  -2.2267  -2.1606  -2.1606
    -2.1420  -2.1420  -2.0733  -2.0733  -2.0709  -2.0709  -2.0155  -2.0155
    -2.0046  -2.0046  -1.9917  -1.9917  -1.9760  -1.9760  -1.5003  -1.5003
    -0.8998  -0.8997  -0.8617  -0.8617  -0.8075  -0.8075  -0.7295  -0.7295
    -0.7071  -0.7071  -0.6957  -0.6957  -0.6239  -0.6239   0.0793   0.0793

     occupation numbers 
     1.0000   1.0000   1.0000   1.0000   1.0000   1.0000   1.0000   1.0000
     1.0000   1.0000   1.0000   1.0000   1.0000   1.0000   1.0000   1.0000
     1.0000   1.0000   1.0000   1.0000   1.0000   1.0000   1.0000   1.0000
     1.0000   1.0000   1.0000   1.0000   1.0000   1.0000   1.0000   1.0000
     1.0000   1.0000   1.0000   1.0000   1.0000   1.0000   1.0000   1.0000
     1.0000   1.0000   1.0000   1.0000   1.0000   1.0000   1.0000   1.0000
     1.0000   1.0000   1.0000   1.0000   1.0000   1.0000   1.0000   1.0000
     1.0000   1.0000   1.0000   1.0000   1.0000   1.0000   1.0000   1.0000
     1.0000   1.0000   1.0000   1.0000   1.0000   1.0000   1.0000   1.0000
     1.0000   1.0000   1.0000   1.0000   1.0000   1.0000   1.0000   1.0000
     1.0000   1.0000   1.0000   1.0000   1.0000   1.0000   1.0000   1.0000
     1.0000   1.0000   1.0000   1.0000   1.0000   1.0000   1.0000   1.0000
     1.0000   1.0000   1.0000   1.0000   1.0000   1.0000   1.0000   1.0000
     1.0000   1.0000   1.0000   1.0000   1.0000   1.0000   1.0000   1.0000
     1.0000   1.0000   1.0000   1.0000   1.0000   1.0000   1.0000   1.0000
     1.0000   1.0000   1.0000   1.0000   1.0000   1.0000   1.0000   1.0000
     1.0000   1.0000   1.0000   1.0000   1.0000   1.0000   1.0133   1.0133
     1.0154   1.0154   1.0379   1.0379   1.0425   1.0425   1.0653   1.0653
     1.0679   1.0679   1.0805   1.0805   1.0826   1.0826   1.0750   1.0750
     1.0684   1.0684   1.0266   1.0266   0.9987   0.9987   0.9674   0.9674
     0.9331   0.9331   0.9320   0.9320   0.9054   0.9054   0.7499   0.7499
     0.7005   0.7005   0.5118   0.5118   0.5052   0.5052   0.3622   0.3622
     0.3365   0.3365   0.3072   0.3072   0.2737   0.2737   0.0004   0.0004
     0.0000   0.0000   0.0000   0.0000   0.0000   0.0000   0.0000   0.0000
     0.0000   0.0000   0.0000   0.0000   0.0000   0.0000   0.0000   0.0000

          k = 0.3333 0.1925-0.5075 (167544 PWs)   bands (ev):

   -43.6204 -43.6204 -43.6198 -43.6198 -42.8954 -42.8954 -42.8949 -42.8949
   -39.9953 -39.9953 -39.9948 -39.9948 -38.6939 -38.6939 -38.6934 -38.6934
   -38.5676 -38.5676 -38.5670 -38.5670 -38.2697 -38.2697 -38.2692 -38.2692
   -35.7720 -35.7720 -35.7715 -35.7715 -35.2713 -35.2713 -35.2708 -35.2708
   -34.9842 -34.9842 -34.9837 -34.9837 -34.4770 -34.4770 -34.4765 -34.4765
   -27.3421 -27.3421 -27.3420 -27.3420 -26.1878 -26.1878 -26.1873 -26.1873
   -18.2509 -18.2509 -18.2509 -18.2509 -17.2723 -17.2723 -17.2718 -17.2718
   -16.0366 -16.0366 -16.0361 -16.0361 -13.7329 -13.7329 -13.7328 -13.7328
   -12.8524 -12.8524 -12.8524 -12.8524 -12.8287 -12.8287 -12.8286 -12.8286
   -12.8195 -12.8195 -12.8195 -12.8195 -12.7541 -12.7541 -12.7541 -12.7541
   -12.7450 -12.7450 -12.7449 -12.7449 -12.7247 -12.7247 -12.7247 -12.7247
   -12.7204 -12.7204 -12.7204 -12.7204 -11.0513 -11.0513 -11.0510 -11.0510
    -6.0185  -6.0185  -6.0182  -6.0182  -5.4005  -5.4005  -5.4003  -5.4003
    -3.7292  -3.7292  -3.7270  -3.7270  -3.5343  -3.5343  -3.5339  -3.5339
    -3.4748  -3.4748  -3.4691  -3.4691  -3.4247  -3.4247  -3.4243  -3.4243
    -3.2850  -3.2850  -3.2833  -3.2833  -3.2562  -3.2562  -3.2534  -3.2534
    -3.1821  -3.1821  -3.1804  -3.1804  -2.7095  -2.7095  -2.7075  -2.7075
    -2.6543  -2.6543  -2.6336  -2.6336  -2.5272  -2.5272  -2.5190  -2.5190
    -2.4873  -2.4873  -2.4807  -2.4807  -2.4101  -2.4101  -2.4079  -2.4079
    -2.3455  -2.3455  -2.3330  -2.3330  -2.3007  -2.3007  -2.2979  -2.2979
    -2.2575  -2.2575  -2.2514  -2.2514  -2.2379  -2.2379  -2.2370  -2.2370
    -2.1628  -2.1628  -2.1542  -2.1542  -2.0830  -2.0830  -2.0809  -2.0809
    -2.0564  -2.0564  -2.0548  -2.0548  -2.0029  -2.0029  -1.9942  -1.9942
    -1.9313  -1.9313  -1.9283  -1.9283  -0.8322  -0.8322  -0.8319  -0.8319
    -0.6671  -0.6671  -0.6668  -0.6668   0.1461   0.1461   0.1478   0.1479

     occupation numbers 
     1.0000   1.0000   1.0000   1.0000   1.0000   1.0000   1.0000   1.0000
     1.0000   1.0000   1.0000   1.0000   1.0000   1.0000   1.0000   1.0000
     1.0000   1.0000   1.0000   1.0000   1.0000   1.0000   1.0000   1.0000
     1.0000   1.0000   1.0000   1.0000   1.0000   1.0000   1.0000   1.0000
     1.0000   1.0000   1.0000   1.0000   1.0000   1.0000   1.0000   1.0000
     1.0000   1.0000   1.0000   1.0000   1.0000   1.0000   1.0000   1.0000
     1.0000   1.0000   1.0000   1.0000   1.0000   1.0000   1.0000   1.0000
     1.0000   1.0000   1.0000   1.0000   1.0000   1.0000   1.0000   1.0000
     1.0000   1.0000   1.0000   1.0000   1.0000   1.0000   1.0000   1.0000
     1.0000   1.0000   1.0000   1.0000   1.0000   1.0000   1.0000   1.0000
     1.0000   1.0000   1.0000   1.0000   1.0000   1.0000   1.0000   1.0000
     1.0000   1.0000   1.0000   1.0000   1.0000   1.0000   1.0000   1.0000
     1.0000   1.0000   1.0000   1.0000   1.0000   1.0000   1.0000   1.0000
     1.0000   1.0000   1.0000   1.0000   1.0000   1.0000   1.0000   1.0000
     1.0000   1.0000   1.0000   1.0000   1.0000   1.0000   1.0000   1.0000
     1.0000   1.0000   1.0000   1.0000   1.0000   1.0000   1.0000   1.0000
     1.0000   1.0000   1.0000   1.0000   1.0107   1.0107   1.0109   1.0109
     1.0200   1.0200   1.0246   1.0246   1.0575   1.0575   1.0604   1.0604
     1.0707   1.0707   1.0726   1.0726   1.0832   1.0832   1.0831   1.0831
     1.0633   1.0633   1.0547   1.0547   1.0240   1.0240   1.0207   1.0207
     0.9629   0.9629   0.9523   0.9523   0.9277   0.9277   0.9260   0.9260
     0.7559   0.7559   0.7331   0.7331   0.5383   0.5383   0.5323   0.5323
     0.4661   0.4661   0.4618   0.4618   0.3326   0.3326   0.3129   0.3129
     0.1903   0.1903   0.1854   0.1854   0.0000   0.0000   0.0000   0.0000
     0.0000   0.0000   0.0000   0.0000   0.0000   0.0000   0.0000   0.0000

          k = 0.3333 0.5774 0.0000 (167586 PWs)   bands (ev):

   -43.6218 -43.6218 -43.6184 -43.6184 -42.8971 -42.8971 -42.8933 -42.8933
   -40.0259 -40.0259 -39.9623 -39.9623 -38.7393 -38.7393 -38.6469 -38.6469
   -38.5692 -38.5692 -38.5685 -38.5685 -38.2742 -38.2742 -38.2647 -38.2647
   -35.7720 -35.7720 -35.7715 -35.7715 -35.2713 -35.2713 -35.2707 -35.2707
   -34.9842 -34.9842 -34.9837 -34.9837 -34.4770 -34.4770 -34.4764 -34.4764
   -27.4765 -27.4765 -27.1250 -27.1250 -26.5180 -26.5180 -25.9289 -25.9289
   -18.8862 -18.8862 -17.4204 -17.4204 -17.3676 -17.3676 -17.1847 -17.1847
   -16.1340 -16.1340 -15.9299 -15.9299 -13.8997 -13.8997 -13.5541 -13.5541
   -12.9118 -12.9118 -12.8400 -12.8400 -12.8399 -12.8399 -12.8394 -12.8394
   -12.8387 -12.8387 -12.8264 -12.8264 -12.8254 -12.8254 -12.7482 -12.7482
   -12.7474 -12.7474 -12.7339 -12.7339 -12.7337 -12.7337 -12.7332 -12.7332
   -12.7330 -12.7330 -12.6413 -12.6413 -12.5416 -12.5416  -8.8652  -8.8652
    -6.6711  -6.6711  -5.9677  -5.9677  -5.9504  -5.9504  -4.9172  -4.9172
    -4.2012  -4.2012  -4.1930  -4.1930  -3.7657  -3.7657  -3.5306  -3.5306
    -3.4879  -3.4879  -3.4804  -3.4804  -3.4766  -3.4766  -3.4720  -3.4720
    -3.4686  -3.4686  -3.2757  -3.2757  -3.2732  -3.2732  -3.2643  -3.2643
    -3.2418  -3.2418  -3.2066  -3.2066  -3.1945  -3.1945  -2.6244  -2.6244
    -2.6077  -2.6077  -2.6052  -2.6052  -2.5983  -2.5983  -2.5944  -2.5944
    -2.5789  -2.5789  -2.3797  -2.3797  -2.3729  -2.3729  -2.3526  -2.3526
    -2.3402  -2.3402  -2.3393  -2.3393  -2.3064  -2.3064  -2.2689  -2.2689
    -2.2456  -2.2456  -2.2308  -2.2308  -2.2199  -2.2199  -2.1989  -2.1989
    -2.1627  -2.1627  -2.0767  -2.0767  -2.0596  -2.0596  -2.0273  -2.0273
    -2.0193  -2.0193  -2.0000  -2.0000  -1.9859  -1.9859  -1.5102  -1.5102
    -0.9136  -0.9136  -0.8275  -0.8275  -0.7737  -0.7737  -0.7287  -0.7287
    -0.6838  -0.6838  -0.6768  -0.6768  -0.6119  -0.6119   0.1086   0.1086

     occupation numbers 
     1.0000   1.0000   1.0000   1.0000   1.0000   1.0000   1.0000   1.0000
     1.0000   1.0000   1.0000   1.0000   1.0000   1.0000   1.0000   1.0000
     1.0000   1.0000   1.0000   1.0000   1.0000   1.0000   1.0000   1.0000
     1.0000   1.0000   1.0000   1.0000   1.0000   1.0000   1.0000   1.0000
     1.0000   1.0000   1.0000   1.0000   1.0000   1.0000   1.0000   1.0000
     1.0000   1.0000   1.0000   1.0000   1.0000   1.0000   1.0000   1.0000
     1.0000   1.0000   1.0000   1.0000   1.0000   1.0000   1.0000   1.0000
     1.0000   1.0000   1.0000   1.0000   1.0000   1.0000   1.0000   1.0000
     1.0000   1.0000   1.0000   1.0000   1.0000   1.0000   1.0000   1.0000
     1.0000   1.0000   1.0000   1.0000   1.0000   1.0000   1.0000   1.0000
     1.0000   1.0000   1.0000   1.0000   1.0000   1.0000   1.0000   1.0000
     1.0000   1.0000   1.0000   1.0000   1.0000   1.0000   1.0000   1.0000
     1.0000   1.0000   1.0000   1.0000   1.0000   1.0000   1.0000   1.0000
     1.0000   1.0000   1.0000   1.0000   1.0000   1.0000   1.0000   1.0000
     1.0000   1.0000   1.0000   1.0000   1.0000   1.0000   1.0000   1.0000
     1.0000   1.0000   1.0000   1.0000   1.0000   1.0000   1.0000   1.0000
     1.0000   1.0000   1.0000   1.0000   1.0000   1.0000   1.0269   1.0269
     1.0314   1.0314   1.0321   1.0321   1.0341   1.0341   1.0353   1.0353
     1.0401   1.0401   1.0785   1.0785   1.0764   1.0764   1.0674   1.0674
     1.0598   1.0598   1.0592   1.0592   1.0303   1.0303   0.9813   0.9813
     0.9420   0.9420   0.9137   0.9137   0.8914   0.8914   0.8447   0.8447
     0.7556   0.7556   0.5209   0.5209   0.4748   0.4748   0.3912   0.3912
     0.3713   0.3713   0.3260   0.3260   0.2945   0.2945   0.0005   0.0005
     0.0000   0.0000   0.0000   0.0000   0.0000   0.0000   0.0000   0.0000
     0.0000   0.0000   0.0000   0.0000   0.0000   0.0000   0.0000   0.0000

          k = 0.3333 0.5774-0.5075 (167676 PWs)   bands (ev):

   -43.6204 -43.6204 -43.6198 -43.6198 -42.8955 -42.8955 -42.8949 -42.8949
   -39.9953 -39.9953 -39.9948 -39.9948 -38.6939 -38.6939 -38.6934 -38.6934
   -38.5676 -38.5676 -38.5670 -38.5670 -38.2697 -38.2697 -38.2692 -38.2692
   -35.7720 -35.7720 -35.7715 -35.7715 -35.2713 -35.2713 -35.2708 -35.2708
   -34.9842 -34.9842 -34.9837 -34.9837 -34.4770 -34.4770 -34.4765 -34.4765
   -27.3421 -27.3421 -27.3420 -27.3420 -26.1878 -26.1878 -26.1873 -26.1873
   -18.2509 -18.2509 -18.2509 -18.2509 -17.2723 -17.2723 -17.2718 -17.2718
   -16.0366 -16.0366 -16.0361 -16.0361 -13.7329 -13.7329 -13.7328 -13.7328
   -12.8396 -12.8396 -12.8396 -12.8396 -12.8395 -12.8395 -12.8394 -12.8394
   -12.8259 -12.8259 -12.8259 -12.8259 -12.7478 -12.7478 -12.7478 -12.7478
   -12.7339 -12.7339 -12.7339 -12.7339 -12.7335 -12.7335 -12.7334 -12.7334
   -12.7246 -12.7246 -12.7246 -12.7246 -11.0513 -11.0513 -11.0510 -11.0510
    -6.0185  -6.0185  -6.0183  -6.0183  -5.4005  -5.4005  -5.4003  -5.4003
    -3.7075  -3.7075  -3.7075  -3.7075  -3.5318  -3.5318  -3.5308  -3.5308
    -3.4907  -3.4907  -3.4907  -3.4907  -3.4408  -3.4408  -3.4407  -3.4407
    -3.2832  -3.2832  -3.2832  -3.2832  -3.2208  -3.2208  -3.2207  -3.2207
    -3.2040  -3.2040  -3.2036  -3.2036  -2.6983  -2.6983  -2.6982  -2.6982
    -2.6079  -2.6079  -2.5960  -2.5960  -2.5773  -2.5773  -2.5773  -2.5773
    -2.4845  -2.4845  -2.4844  -2.4844  -2.3987  -2.3987  -2.3767  -2.3767
    -2.3241  -2.3241  -2.3241  -2.3241  -2.3171  -2.3171  -2.3171  -2.3171
    -2.2595  -2.2595  -2.2510  -2.2510  -2.2467  -2.2467  -2.2467  -2.2467
    -2.1707  -2.1707  -2.1707  -2.1707  -2.0767  -2.0767  -2.0640  -2.0640
    -2.0640  -2.0640  -2.0611  -2.0611  -1.9882  -1.9882  -1.9820  -1.9820
    -1.9820  -1.9820  -1.9740  -1.9740  -0.8053  -0.8053  -0.8047  -0.8047
    -0.6499  -0.6499  -0.6496  -0.6496   0.1556   0.1557   0.1560   0.1560

     occupation numbers 
     1.0000   1.0000   1.0000   1.0000   1.0000   1.0000   1.0000   1.0000
     1.0000   1.0000   1.0000   1.0000   1.0000   1.0000   1.0000   1.0000
     1.0000   1.0000   1.0000   1.0000   1.0000   1.0000   1.0000   1.0000
     1.0000   1.0000   1.0000   1.0000   1.0000   1.0000   1.0000   1.0000
     1.0000   1.0000   1.0000   1.0000   1.0000   1.0000   1.0000   1.0000
     1.0000   1.0000   1.0000   1.0000   1.0000   1.0000   1.0000   1.0000
     1.0000   1.0000   1.0000   1.0000   1.0000   1.0000   1.0000   1.0000
     1.0000   1.0000   1.0000   1.0000   1.0000   1.0000   1.0000   1.0000
     1.0000   1.0000   1.0000   1.0000   1.0000   1.0000   1.0000   1.0000
     1.0000   1.0000   1.0000   1.0000   1.0000   1.0000   1.0000   1.0000
     1.0000   1.0000   1.0000   1.0000   1.0000   1.0000   1.0000   1.0000
     1.0000   1.0000   1.0000   1.0000   1.0000   1.0000   1.0000   1.0000
     1.0000   1.0000   1.0000   1.0000   1.0000   1.0000   1.0000   1.0000
     1.0000   1.0000   1.0000   1.0000   1.0000   1.0000   1.0000   1.0000
     1.0000   1.0000   1.0000   1.0000   1.0000   1.0000   1.0000   1.0000
     1.0000   1.0000   1.0000   1.0000   1.0000   1.0000   1.0000   1.0000
     1.0000   1.0000   1.0000   1.0000   1.0122   1.0122   1.0122   1.0122
     1.0314   1.0314   1.0348   1.0348   1.0406   1.0406   1.0406   1.0406
     1.0715   1.0715   1.0715   1.0715   1.0823   1.0823   1.0776   1.0776
     1.0475   1.0475   1.0474   1.0474   1.0411   1.0411   1.0411   1.0411
     0.9663   0.9663   0.9517   0.9517   0.9440   0.9440   0.9440   0.9440
     0.7761   0.7761   0.7760   0.7760   0.5210   0.5210   0.4866   0.4866
     0.4865   0.4865   0.4787   0.4787   0.2996   0.2996   0.2862   0.2862
     0.2861   0.2861   0.2695   0.2695   0.0000   0.0000   0.0000   0.0000
     0.0000   0.0000   0.0000   0.0000   0.0000   0.0000   0.0000   0.0000

          k = 0.3333-0.1924 0.0000 (167604 PWs)   bands (ev):

   -43.6218 -43.6218 -43.6184 -43.6184 -42.8971 -42.8971 -42.8933 -42.8933
   -40.0259 -40.0259 -39.9623 -39.9623 -38.7393 -38.7393 -38.6469 -38.6469
   -38.5692 -38.5692 -38.5685 -38.5685 -38.2742 -38.2742 -38.2647 -38.2647
   -35.7720 -35.7720 -35.7715 -35.7715 -35.2713 -35.2713 -35.2707 -35.2707
   -34.9842 -34.9842 -34.9837 -34.9837 -34.4770 -34.4770 -34.4764 -34.4764
   -27.4765 -27.4765 -27.1250 -27.1250 -26.5180 -26.5180 -25.9289 -25.9289
   -18.8862 -18.8862 -17.4204 -17.4204 -17.3676 -17.3676 -17.1847 -17.1847
   -16.1340 -16.1340 -15.9299 -15.9299 -13.8997 -13.8997 -13.5541 -13.5541
   -12.9118 -12.9118 -12.8529 -12.8529 -12.8519 -12.8519 -12.8290 -12.8290
   -12.8281 -12.8281 -12.8199 -12.8199 -12.8191 -12.8191 -12.7545 -12.7545
   -12.7537 -12.7537 -12.7450 -12.7450 -12.7443 -12.7443 -12.7208 -12.7208
   -12.7201 -12.7201 -12.6412 -12.6412 -12.5415 -12.5415  -8.8652  -8.8652
    -6.6711  -6.6711  -5.9678  -5.9678  -5.9504  -5.9504  -4.9172  -4.9172
    -4.2011  -4.2011  -4.1917  -4.1917  -3.7580  -3.7580  -3.5347  -3.5347
    -3.5304  -3.5304  -3.5232  -3.5232  -3.4945  -3.4945  -3.4271  -3.4271
    -3.4222  -3.4222  -3.2967  -3.2967  -3.2906  -3.2906  -3.2563  -3.2563
    -3.2526  -3.2526  -3.1922  -3.1922  -3.1741  -3.1741  -2.6907  -2.6907
    -2.6783  -2.6783  -2.5857  -2.5857  -2.5715  -2.5715  -2.5043  -2.5043
    -2.4964  -2.4964  -2.4471  -2.4471  -2.4309  -2.4309  -2.3690  -2.3690
    -2.3544  -2.3544  -2.3030  -2.3030  -2.2808  -2.2808  -2.2602  -2.2602
    -2.2408  -2.2408  -2.2402  -2.2402  -2.2266  -2.2266  -2.1606  -2.1606
    -2.1420  -2.1420  -2.0733  -2.0733  -2.0709  -2.0709  -2.0155  -2.0155
    -2.0046  -2.0046  -1.9917  -1.9917  -1.9760  -1.9760  -1.5003  -1.5003
    -0.8997  -0.8997  -0.8617  -0.8617  -0.8075  -0.8075  -0.7295  -0.7295
    -0.7071  -0.7070  -0.6957  -0.6956  -0.6239  -0.6239   0.0793   0.0793

     occupation numbers 
     1.0000   1.0000   1.0000   1.0000   1.0000   1.0000   1.0000   1.0000
     1.0000   1.0000   1.0000   1.0000   1.0000   1.0000   1.0000   1.0000
     1.0000   1.0000   1.0000   1.0000   1.0000   1.0000   1.0000   1.0000
     1.0000   1.0000   1.0000   1.0000   1.0000   1.0000   1.0000   1.0000
     1.0000   1.0000   1.0000   1.0000   1.0000   1.0000   1.0000   1.0000
     1.0000   1.0000   1.0000   1.0000   1.0000   1.0000   1.0000   1.0000
     1.0000   1.0000   1.0000   1.0000   1.0000   1.0000   1.0000   1.0000
     1.0000   1.0000   1.0000   1.0000   1.0000   1.0000   1.0000   1.0000
     1.0000   1.0000   1.0000   1.0000   1.0000   1.0000   1.0000   1.0000
     1.0000   1.0000   1.0000   1.0000   1.0000   1.0000   1.0000   1.0000
     1.0000   1.0000   1.0000   1.0000   1.0000   1.0000   1.0000   1.0000
     1.0000   1.0000   1.0000   1.0000   1.0000   1.0000   1.0000   1.0000
     1.0000   1.0000   1.0000   1.0000   1.0000   1.0000   1.0000   1.0000
     1.0000   1.0000   1.0000   1.0000   1.0000   1.0000   1.0000   1.0000
     1.0000   1.0000   1.0000   1.0000   1.0000   1.0000   1.0000   1.0000
     1.0000   1.0000   1.0000   1.0000   1.0000   1.0000   1.0000   1.0000
     1.0000   1.0000   1.0000   1.0000   1.0000   1.0000   1.0133   1.0133
     1.0154   1.0154   1.0379   1.0379   1.0425   1.0425   1.0653   1.0653
     1.0679   1.0679   1.0805   1.0805   1.0826   1.0826   1.0750   1.0750
     1.0684   1.0684   1.0266   1.0266   0.9987   0.9987   0.9674   0.9674
     0.9331   0.9331   0.9319   0.9319   0.9054   0.9054   0.7500   0.7500
     0.7006   0.7006   0.5118   0.5118   0.5052   0.5052   0.3622   0.3622
     0.3365   0.3365   0.3072   0.3072   0.2737   0.2737   0.0004   0.0004
     0.0000   0.0000   0.0000   0.0000   0.0000   0.0000   0.0000   0.0000
     0.0000   0.0000   0.0000   0.0000   0.0000   0.0000   0.0000   0.0000

          k = 0.3333-0.1924-0.5075 (167544 PWs)   bands (ev):

   -43.6204 -43.6204 -43.6198 -43.6198 -42.8954 -42.8954 -42.8949 -42.8949
   -39.9953 -39.9953 -39.9948 -39.9948 -38.6939 -38.6939 -38.6934 -38.6934
   -38.5676 -38.5676 -38.5670 -38.5670 -38.2697 -38.2697 -38.2692 -38.2692
   -35.7720 -35.7720 -35.7715 -35.7715 -35.2713 -35.2713 -35.2708 -35.2708
   -34.9842 -34.9842 -34.9837 -34.9837 -34.4770 -34.4770 -34.4765 -34.4765
   -27.3421 -27.3421 -27.3420 -27.3420 -26.1878 -26.1878 -26.1873 -26.1873
   -18.2509 -18.2509 -18.2509 -18.2509 -17.2723 -17.2723 -17.2718 -17.2718
   -16.0366 -16.0366 -16.0361 -16.0361 -13.7329 -13.7329 -13.7328 -13.7328
   -12.8524 -12.8524 -12.8524 -12.8524 -12.8286 -12.8286 -12.8286 -12.8286
   -12.8196 -12.8196 -12.8195 -12.8195 -12.7542 -12.7542 -12.7541 -12.7541
   -12.7449 -12.7449 -12.7449 -12.7449 -12.7247 -12.7247 -12.7247 -12.7247
   -12.7204 -12.7204 -12.7204 -12.7204 -11.0513 -11.0513 -11.0510 -11.0510
    -6.0185  -6.0185  -6.0182  -6.0182  -5.4005  -5.4005  -5.4003  -5.4003
    -3.7292  -3.7292  -3.7270  -3.7270  -3.5343  -3.5343  -3.5339  -3.5339
    -3.4748  -3.4748  -3.4691  -3.4691  -3.4247  -3.4247  -3.4243  -3.4243
    -3.2850  -3.2850  -3.2834  -3.2834  -3.2561  -3.2561  -3.2534  -3.2534
    -3.1821  -3.1821  -3.1804  -3.1804  -2.7095  -2.7095  -2.7075  -2.7075
    -2.6543  -2.6543  -2.6336  -2.6336  -2.5272  -2.5272  -2.5190  -2.5190
    -2.4873  -2.4873  -2.4807  -2.4807  -2.4101  -2.4101  -2.4079  -2.4079
    -2.3455  -2.3455  -2.3330  -2.3330  -2.3007  -2.3007  -2.2979  -2.2979
    -2.2575  -2.2575  -2.2514  -2.2514  -2.2379  -2.2379  -2.2370  -2.2370
    -2.1629  -2.1629  -2.1542  -2.1542  -2.0830  -2.0830  -2.0809  -2.0809
    -2.0564  -2.0564  -2.0548  -2.0548  -2.0029  -2.0029  -1.9942  -1.9942
    -1.9312  -1.9312  -1.9283  -1.9283  -0.8322  -0.8322  -0.8319  -0.8319
    -0.6671  -0.6671  -0.6668  -0.6668   0.1458   0.1459   0.1476   0.1477

     occupation numbers 
     1.0000   1.0000   1.0000   1.0000   1.0000   1.0000   1.0000   1.0000
     1.0000   1.0000   1.0000   1.0000   1.0000   1.0000   1.0000   1.0000
     1.0000   1.0000   1.0000   1.0000   1.0000   1.0000   1.0000   1.0000
     1.0000   1.0000   1.0000   1.0000   1.0000   1.0000   1.0000   1.0000
     1.0000   1.0000   1.0000   1.0000   1.0000   1.0000   1.0000   1.0000
     1.0000   1.0000   1.0000   1.0000   1.0000   1.0000   1.0000   1.0000
     1.0000   1.0000   1.0000   1.0000   1.0000   1.0000   1.0000   1.0000
     1.0000   1.0000   1.0000   1.0000   1.0000   1.0000   1.0000   1.0000
     1.0000   1.0000   1.0000   1.0000   1.0000   1.0000   1.0000   1.0000
     1.0000   1.0000   1.0000   1.0000   1.0000   1.0000   1.0000   1.0000
     1.0000   1.0000   1.0000   1.0000   1.0000   1.0000   1.0000   1.0000
     1.0000   1.0000   1.0000   1.0000   1.0000   1.0000   1.0000   1.0000
     1.0000   1.0000   1.0000   1.0000   1.0000   1.0000   1.0000   1.0000
     1.0000   1.0000   1.0000   1.0000   1.0000   1.0000   1.0000   1.0000
     1.0000   1.0000   1.0000   1.0000   1.0000   1.0000   1.0000   1.0000
     1.0000   1.0000   1.0000   1.0000   1.0000   1.0000   1.0000   1.0000
     1.0000   1.0000   1.0000   1.0000   1.0107   1.0107   1.0109   1.0109
     1.0200   1.0200   1.0246   1.0246   1.0576   1.0576   1.0604   1.0604
     1.0707   1.0707   1.0726   1.0726   1.0832   1.0832   1.0831   1.0831
     1.0633   1.0633   1.0547   1.0547   1.0239   1.0239   1.0206   1.0206
     0.9629   0.9629   0.9524   0.9524   0.9276   0.9276   0.9260   0.9260
     0.7559   0.7559   0.7332   0.7332   0.5383   0.5383   0.5324   0.5324
     0.4661   0.4661   0.4618   0.4618   0.3326   0.3326   0.3129   0.3129
     0.1903   0.1903   0.1854   0.1854   0.0000   0.0000   0.0000   0.0000
     0.0000   0.0000   0.0000   0.0000   0.0000   0.0000   0.0000   0.0000

     the Fermi energy is    -2.0311 ev

!    total energy              =   -1228.21341269 Ry
     estimated scf accuracy    <       0.00000063 Ry
     smearing contrib. (-TS)   =       0.01182022 Ry
     internal energy E=F+TS    =   -1228.22523290 Ry

     The total energy is F=E-TS. E is the sum of the following terms:
     one-electron contribution =   -1826.41284866 Ry
     hartree contribution      =     933.73034028 Ry
     xc contribution           =    -476.47878396 Ry
     ewald contribution        =     140.93605944 Ry

     convergence has been achieved in  35 iterations

     negative rho (up, down):  2.595E-06 0.000E+00

     Forces acting on atoms (cartesian axes, Ry/au):

     atom    1 type  3   force =     0.00000000    0.00000000    0.00001679
     atom    2 type  3   force =     0.00000000    0.00000000   -0.00001679
     atom    3 type  3   force =     0.00000000    0.00000000    0.00000000
     atom    4 type  3   force =     0.00000000    0.00000000    0.00000000
     atom    5 type  1   force =     0.00000000    0.00000000  -16.04565611
     atom    6 type  1   force =     0.00000000    0.00000000   16.04587858
     atom    7 type  1   force =     0.00000000    0.00000000   16.04565611
     atom    8 type  1   force =     0.00000000    0.00000000  -16.04587858
     atom    9 type  2   force =    -0.00353682    0.01365084    0.00000000
     atom   10 type  2   force =    -0.01360187    0.00375233    0.00000000
     atom   11 type  2   force =    -0.01005230   -0.00989987    0.00000000
     atom   12 type  2   force =     0.00353682   -0.01365084    0.00000000
     atom   13 type  2   force =     0.01360187   -0.00375233    0.00000000
     atom   14 type  2   force =     0.01005230    0.00989987    0.00000000
     atom   15 type  2   force =    -0.00352960   -0.01365911    0.00000000
     atom   16 type  2   force =     0.01005158   -0.00991326    0.00000000
     atom   17 type  2   force =     0.01359309    0.00375592    0.00000000
     atom   18 type  2   force =     0.00352960    0.01365911    0.00000000
     atom   19 type  2   force =    -0.01005158    0.00991326    0.00000000
     atom   20 type  2   force =    -0.01359309   -0.00375592    0.00000000
     The non-local contrib.  to forces
     atom    1 type  3   force =     0.00000000    0.00000000   -0.00039156
     atom    2 type  3   force =     0.00000000    0.00000000    0.00039156
     atom    3 type  3   force =     0.00000000    0.00000000    0.00000000
     atom    4 type  3   force =     0.00000000    0.00000000    0.00000000
     atom    5 type  1   force =     0.00000000    0.00000000    2.90862230
     atom    6 type  1   force =     0.00000000    0.00000000   -2.90840592
     atom    7 type  1   force =     0.00000000    0.00000000   -2.90862230
     atom    8 type  1   force =     0.00000000    0.00000000    2.90840592
     atom    9 type  2   force =    -0.00887219    0.04812695    0.00000000
     atom   10 type  2   force =    -0.04611448    0.01637016    0.00000000
     atom   11 type  2   force =    -0.03723721   -0.03175308    0.00000000
     atom   12 type  2   force =     0.00887219   -0.04812695    0.00000000
     atom   13 type  2   force =     0.04611448   -0.01637016    0.00000000
     atom   14 type  2   force =     0.03723721    0.03175308    0.00000000
     atom   15 type  2   force =    -0.00887575   -0.04812585    0.00000000
     atom   16 type  2   force =     0.03723513   -0.03175240    0.00000000
     atom   17 type  2   force =     0.04612104    0.01637539    0.00000000
     atom   18 type  2   force =     0.00887575    0.04812585    0.00000000
     atom   19 type  2   force =    -0.03723513    0.03175240    0.00000000
     atom   20 type  2   force =    -0.04612104   -0.01637539    0.00000000
     The ionic contribution  to forces
     atom    1 type  3   force =    -0.00000000   -0.00000000   -0.00000000
     atom    2 type  3   force =     0.00000000   -0.00000000   -0.00000000
     atom    3 type  3   force =    -0.00000000   -0.00000000   -0.00000000
     atom    4 type  3   force =    -0.00000000   -0.00000000    0.00000000
     atom    5 type  1   force =    -0.00000000   -0.00000000  -43.09008744
     atom    6 type  1   force =     0.00000000   -0.00000000   43.09008744
     atom    7 type  1   force =    -0.00000000   -0.00000000   43.09008744
     atom    8 type  1   force =    -0.00000000   -0.00000000  -43.09008744
     atom    9 type  2   force =     2.09569728   -5.57807736    0.00000000
     atom   10 type  2   force =     5.87859911   -0.97412233   -0.00000000
     atom   11 type  2   force =     3.78292078    4.60396636   -0.00000000
     atom   12 type  2   force =    -2.09569728    5.57807736   -0.00000000
     atom   13 type  2   force =    -5.87859911    0.97412233    0.00000000
     atom   14 type  2   force =    -3.78292078   -4.60396636   -0.00000000
     atom   15 type  2   force =     2.09567287    5.57809039   -0.00000000
     atom   16 type  2   force =    -3.78291889    4.60394908   -0.00000000
     atom   17 type  2   force =    -5.87860928   -0.97412787   -0.00000000
     atom   18 type  2   force =    -2.09567287   -5.57809039   -0.00000000
     atom   19 type  2   force =     3.78291889   -4.60394908   -0.00000000
     atom   20 type  2   force =     5.87860928    0.97412787   -0.00000000
     The local contribution  to forces
     atom    1 type  3   force =    -0.00000000    0.00000000    0.00053436
     atom    2 type  3   force =     0.00000000   -0.00000000   -0.00053436
     atom    3 type  3   force =    -0.00000000   -0.00000000    0.00000000
     atom    4 type  3   force =    -0.00000000   -0.00000000   -0.00000000
     atom    5 type  1   force =    -0.00000000   -0.00000000   23.44013827
     atom    6 type  1   force =    -0.00000000    0.00000000  -23.44118856
     atom    7 type  1   force =     0.00000000    0.00000000  -23.44013827
     atom    8 type  1   force =     0.00000000   -0.00000000   23.44118856
     atom    9 type  2   force =    -2.09119403    5.54973159    0.00000000
     atom   10 type  2   force =    -5.85178484    0.96373017    0.00000000
     atom   11 type  2   force =    -3.76056295   -4.58608630   -0.00000000
     atom   12 type  2   force =     2.09119403   -5.54973159    0.00000000
     atom   13 type  2   force =     5.85178484   -0.96373017    0.00000000
     atom   14 type  2   force =     3.76056295    4.58608630   -0.00000000
     atom   15 type  2   force =    -2.09123023   -5.54989162    0.00000000
     atom   16 type  2   force =     3.76053049   -4.58616939    0.00000000
     atom   17 type  2   force =     5.85175821    0.96381752    0.00000000
     atom   18 type  2   force =     2.09123023    5.54989162    0.00000000
     atom   19 type  2   force =    -3.76053049    4.58616939    0.00000000
     atom   20 type  2   force =    -5.85175821   -0.96381752    0.00000000
     The core correction contribution to forces
     atom    1 type  3   force =     0.00000000    0.00000000    0.00002982
     atom    2 type  3   force =     0.00000000    0.00000000   -0.00002982
     atom    3 type  3   force =     0.00000000    0.00000000    0.00000000
     atom    4 type  3   force =     0.00000000    0.00000000   -0.00000000
     atom    5 type  1   force =     0.00000000    0.00000000    0.69520857
     atom    6 type  1   force =     0.00000000    0.00000000   -0.69522051
     atom    7 type  1   force =     0.00000000    0.00000000   -0.69520857
     atom    8 type  1   force =     0.00000000    0.00000000    0.69522051
     atom    9 type  2   force =     0.00092994   -0.00611583   -0.00000000
     atom   10 type  2   force =     0.00576133   -0.00225254   -0.00000000
     atom   11 type  2   force =     0.00483142    0.00386207   -0.00000000
     atom   12 type  2   force =    -0.00092994    0.00611583   -0.00000000
     atom   13 type  2   force =    -0.00576133    0.00225254   -0.00000000
     atom   14 type  2   force =    -0.00483142   -0.00386207   -0.00000000
     atom   15 type  2   force =     0.00093018    0.00611370    0.00000000
     atom   16 type  2   force =    -0.00483112    0.00386027    0.00000000
     atom   17 type  2   force =    -0.00576265   -0.00225240    0.00000000
     atom   18 type  2   force =    -0.00093018   -0.00611370    0.00000000
     atom   19 type  2   force =     0.00483112   -0.00386027    0.00000000
     atom   20 type  2   force =     0.00576265    0.00225240    0.00000000
     The Hubbard contrib.    to forces
     atom    1 type  3   force =     0.00000000    0.00000000    0.00000000
     atom    2 type  3   force =     0.00000000    0.00000000    0.00000000
     atom    3 type  3   force =     0.00000000    0.00000000    0.00000000
     atom    4 type  3   force =     0.00000000    0.00000000    0.00000000
     atom    5 type  1   force =     0.00000000    0.00000000    0.00000000
     atom    6 type  1   force =     0.00000000    0.00000000    0.00000000
     atom    7 type  1   force =     0.00000000    0.00000000    0.00000000
     atom    8 type  1   force =     0.00000000    0.00000000    0.00000000
     atom    9 type  2   force =     0.00000000    0.00000000    0.00000000
     atom   10 type  2   force =     0.00000000    0.00000000    0.00000000
     atom   11 type  2   force =     0.00000000    0.00000000    0.00000000
     atom   12 type  2   force =     0.00000000    0.00000000    0.00000000
     atom   13 type  2   force =     0.00000000    0.00000000    0.00000000
     atom   14 type  2   force =     0.00000000    0.00000000    0.00000000
     atom   15 type  2   force =     0.00000000    0.00000000    0.00000000
     atom   16 type  2   force =     0.00000000    0.00000000    0.00000000
     atom   17 type  2   force =     0.00000000    0.00000000    0.00000000
     atom   18 type  2   force =     0.00000000    0.00000000    0.00000000
     atom   19 type  2   force =     0.00000000    0.00000000    0.00000000
     atom   20 type  2   force =     0.00000000    0.00000000    0.00000000
     The SCF correction term to forces
     atom    1 type  3   force =     0.00000000    0.00000000   -0.00015584
     atom    2 type  3   force =    -0.00000000    0.00000000    0.00015584
     atom    3 type  3   force =     0.00000000   -0.00000000   -0.00000000
     atom    4 type  3   force =     0.00000000    0.00000000   -0.00000000
     atom    5 type  1   force =     0.00000000   -0.00000000    0.00046218
     atom    6 type  1   force =     0.00000000    0.00000000    0.00060614
     atom    7 type  1   force =     0.00000000   -0.00000000   -0.00046218
     atom    8 type  1   force =     0.00000000    0.00000000   -0.00060614
     atom    9 type  2   force =    -0.00009782   -0.00001452    0.00000000
     atom   10 type  2   force =    -0.00006298    0.00002687    0.00000000
     atom   11 type  2   force =    -0.00000435    0.00011109   -0.00000000
     atom   12 type  2   force =     0.00009782    0.00001452    0.00000000
     atom   13 type  2   force =     0.00006298   -0.00002687    0.00000000
     atom   14 type  2   force =     0.00000435   -0.00011109   -0.00000000
     atom   15 type  2   force =    -0.00002668    0.00015425    0.00000000
     atom   16 type  2   force =     0.00003597    0.00019918   -0.00000000
     atom   17 type  2   force =     0.00008577   -0.00005672    0.00000000
     atom   18 type  2   force =     0.00002668   -0.00015425    0.00000000
     atom   19 type  2   force =    -0.00003597   -0.00019918   -0.00000000
     atom   20 type  2   force =    -0.00008577    0.00005672    0.00000000

     Total force =    32.091572     Total SCF correction =     0.001190


     Computing stress (Cartesian axis) and pressure


     negative rho (up, down):  2.595E-06 0.000E+00
          total   stress  (Ry/bohr**3)                   (kbar)     P=      634.54
  -0.00010276   0.00000002   0.00000000          -15.12        0.00        0.00
   0.00000002  -0.00010262   0.00000000            0.00      -15.10        0.00
   0.00000000   0.00000000   0.01314598            0.00        0.00     1933.84

     kinetic stress (kbar)   2737.69      0.00      0.00
                                0.00   2737.69      0.00
                                0.00      0.00   2646.27

     local   stress (kbar)    254.34      0.04      0.00
                                0.04    254.62     -0.00
                                0.00     -0.00 -18023.34

     nonloc. stress (kbar)    711.94      0.00      0.00
                                0.00    711.94      0.00
                                0.00      0.00   1041.22

     hartree stress (kbar)    980.54     -0.04     -0.00
                               -0.04    980.27      0.00
                               -0.00      0.00   7943.56

     exc-cor stress (kbar)   2497.70      0.00     -0.00
                                0.00   2497.70     -0.00
                               -0.00     -0.00   2509.66

     corecor stress (kbar)  -3339.28     -0.00     -0.00
                               -0.00  -3339.28     -0.00
                               -0.00     -0.00  -3394.55

     ewald   stress (kbar)  -3858.04      0.00     -0.00
                                0.00  -3858.04      0.00
                               -0.00      0.00   9211.03

     hubbard stress (kbar)      0.00      0.00      0.00
                                0.00      0.00      0.00
                                0.00      0.00      0.00

     DFT-D   stress (kbar)      0.00      0.00      0.00
                                0.00      0.00      0.00
                                0.00      0.00      0.00

     XDM     stress (kbar)      0.00      0.00      0.00
                                0.00      0.00      0.00
                                0.00      0.00      0.00

     dft-nl  stress (kbar)      0.00      0.00      0.00
                                0.00      0.00      0.00
                                0.00      0.00      0.00

     TS-vdW  stress (kbar)      0.00      0.00      0.00
                                0.00      0.00      0.00
                                0.00      0.00      0.00



     BFGS Geometry Optimization
     Energy error            =      0.0E+00
     Gradient error          =      1.6E+01

     number of scf cycles    =   1
     number of bfgs steps    =   0

     energy   new            =   -1228.2134126855 Ry

     new trust radius        =       0.5000000000 bohr
     new conv_thr            =       0.0000010000 Ry


ATOMIC_POSITIONS (crystal)
Cs            0.0000000000        0.0000000000        0.2500000210
Cs            0.0000000000        0.0000000000        0.7499999790
Cs            0.0000000000        0.0000000000        0.0000000000
Cs            0.0000000000        0.0000000000        0.5000000000
Sn            0.0000000000        0.0000000000        0.8856907382
Sn            0.0000000000        0.0000000000        0.6143095395
Sn            0.0000000000        0.0000000000        0.1143092618
Sn            0.0000000000        0.0000000000        0.3856904605
I             0.9554503444        0.6286503903        0.0000000000
I             0.3267999328        0.9554503300        0.0000000000
I             0.3713496031        0.3267999378        0.0000000000
I             0.0445496556        0.3713496097        0.0000000000
I             0.6732000672        0.0445496700        0.0000000000
I             0.6286503969        0.6732000622        0.0000000000
I             0.3267999570        0.3713495979        0.5000000000
I             0.9554503242        0.3267999187        0.5000000000
I             0.6286503890        0.9554503351        0.5000000000
I             0.6732000430        0.6286504021        0.5000000000
I             0.0445496758        0.6732000813        0.5000000000
I             0.3713496110        0.0445496649        0.5000000000



     Writing output data file ./CsSnI3.save/
     NEW-OLD atomic charge density approx. for the potential

     negative rho (up, down):  4.283E-06 0.000E+00

     total cpu time spent up to now is     5233.1 secs

     Self-consistent Calculation

     iteration #  1     ecut=    80.00 Ry     beta= 0.50
     Davidson diagonalization with overlap

 %%%%%%%%%%%%%%%%%%%%%%%%%%%%%%%%%%%%%%%%%%%%%%%%%%%%%%%%%%%%%%%%%%%%%%%%%%%%%%
     Error in routine  cdiaghg (254):
      problems computing cholesky
 %%%%%%%%%%%%%%%%%%%%%%%%%%%%%%%%%%%%%%%%%%%%%%%%%%%%%%%%%%%%%%%%%%%%%%%%%%%%%%

     stopping ...

 %%%%%%%%%%%%%%%%%%%%%%%%%%%%%%%%%%%%%%%%%%%%%%%%%%%%%%%%%%%%%%%%%%%%%%%%%%%%%%
     Error in routine  cdiaghg (254):
      problems computing cholesky
 %%%%%%%%%%%%%%%%%%%%%%%%%%%%%%%%%%%%%%%%%%%%%%%%%%%%%%%%%%%%%%%%%%%%%%%%%%%%%%

     stopping ...

 %%%%%%%%%%%%%%%%%%%%%%%%%%%%%%%%%%%%%%%%%%%%%%%%%%%%%%%%%%%%%%%%%%%%%%%%%%%%%%
     Error in routine  cdiaghg (254):
      problems computing cholesky
 %%%%%%%%%%%%%%%%%%%%%%%%%%%%%%%%%%%%%%%%%%%%%%%%%%%%%%%%%%%%%%%%%%%%%%%%%%%%%%

     stopping ...

 %%%%%%%%%%%%%%%%%%%%%%%%%%%%%%%%%%%%%%%%%%%%%%%%%%%%%%%%%%%%%%%%%%%%%%%%%%%%%%
     Error in routine  cdiaghg (254):
      problems computing cholesky
 %%%%%%%%%%%%%%%%%%%%%%%%%%%%%%%%%%%%%%%%%%%%%%%%%%%%%%%%%%%%%%%%%%%%%%%%%%%%%%

     stopping ...
