
     Program PWSCF v.6.3 starts on 15Feb2021 at 11:28:59 

     This program is part of the open-source Quantum ESPRESSO suite
     for quantum simulation of materials; please cite
         "P. Giannozzi et al., J. Phys.:Condens. Matter 21 395502 (2009);
         "P. Giannozzi et al., J. Phys.:Condens. Matter 29 465901 (2017);
          URL http://www.quantum-espresso.org", 
     in publications or presentations arising from this work. More details at
     http://www.quantum-espresso.org/quote

     Parallel version (MPI & OpenMP), running on      32 processor cores
     Number of MPI processes:                32
     Threads/MPI process:                     1

     MPI processes distributed on     1 nodes
     R & G space division:  proc/nbgrp/npool/nimage =      32
     Waiting for input...
     Reading input from standard input

     Current dimensions of program PWSCF are:
     Max number of different atomic species (ntypx) = 10
     Max number of k-points (npk) =  40000
     Max angular momentum in pseudopotentials (lmaxx) =  3
               file Sn.rel-pbe-dn-rrkjus_psl.1.0.0.UPF: wavefunction(s)  5S 4D 4D renormalized
               file Cs.rel-pbe-spn-rrkjus_psl.1.0.0.UPF: wavefunction(s)  5S 6S renormalized

     Subspace diagonalization in iterative solution of the eigenvalue problem:
     one sub-group per band group will be used
     scalapack distributed-memory algorithm (size of sub-group:  4*  4 procs)

     Found symmetry operation: I + (  0.0000  0.0000  0.5000)
     This is a supercell, fractional translations are disabled
 
     Parallelization info
     --------------------
     sticks:   dense  smooth     PW     G-vecs:    dense   smooth      PW
     Min         208     208     56                19702    19702    2792
     Max         209     209     57                19713    19713    2797
     Sum        6673    6673   1813               630597   630597   89389
 

     Title: 
     perovskite                                                                 


     bravais-lattice index     =            0
     lattice parameter (alat)  =      17.4003  a.u.
     unit-cell volume          =    6523.1036 (a.u.)^3
     number of atoms/cell      =           20
     number of atomic types    =            3
     number of electrons       =       176.00
     number of Kohn-Sham states=          176
     kinetic-energy cutoff     =      80.0000  Ry
     charge density cutoff     =     320.0000  Ry
     convergence threshold     =      1.0E-07
     mixing beta               =       0.6000
     number of iterations used =            8  plain     mixing
     Exchange-correlation      = PBE ( 1  4  3  4 0 0)
     nstep                     =           50

     Non magnetic calculation with spin-orbit


     celldm(1)=  17.400300  celldm(2)=   0.000000  celldm(3)=   0.000000
     celldm(4)=   0.000000  celldm(5)=   0.000000  celldm(6)=   0.000000

     crystal axes: (cart. coord. in units of alat)
               a(1) = (   1.000000   0.000000   0.000000 )  
               a(2) = (  -0.499997   0.866025   0.000000 )  
               a(3) = (   0.000000   0.000000   1.429728 )  

     reciprocal axes: (cart. coord. in units 2 pi/alat)
               b(1) = (  1.000000  0.577347  0.000000 )  
               b(2) = (  0.000000  1.154701  0.000000 )  
               b(3) = (  0.000000  0.000000  0.699434 )  


     PseudoPot. # 1 for Sn read from file:
     ./Sn.rel-pbe-dn-rrkjus_psl.1.0.0.UPF
     MD5 check sum: e9415cc9ba1036dfb73502962f03961a
     Pseudo is Ultrasoft + core correction, Zval = 14.0
     Generated using "atomic" code by A. Dal Corso v.6.3
     Using radial grid of 1243 points, 10 beta functions with: 
                l(1) =   0
                l(2) =   0
                l(3) =   1
                l(4) =   1
                l(5) =   1
                l(6) =   1
                l(7) =   2
                l(8) =   2
                l(9) =   2
               l(10) =   2
     Q(r) pseudized with 0 coefficients 


     PseudoPot. # 2 for I  read from file:
     ./I.rel-pbe-n-rrkjus_psl.0.2.2.UPF
     MD5 check sum: b9024a078df971004264c9bcc9ff756e
     Pseudo is Ultrasoft + core correction, Zval =  7.0
     Generated using "atomic" code by A. Dal Corso v.5.0.2 svn rev. 9415
     Using radial grid of 1247 points,  6 beta functions with: 
                l(1) =   0
                l(2) =   0
                l(3) =   1
                l(4) =   1
                l(5) =   1
                l(6) =   1
     Q(r) pseudized with 0 coefficients 


     PseudoPot. # 3 for Cs read from file:
     ./Cs.rel-pbe-spn-rrkjus_psl.1.0.0.UPF
     MD5 check sum: 92f45d5fced885c1284380ec35df8368
     Pseudo is Ultrasoft + core correction, Zval =  9.0
     Generated using "atomic" code by A. Dal Corso v.6.4.1
     Using radial grid of 1251 points, 15 beta functions with: 
                l(1) =   0
                l(2) =   0
                l(3) =   0
                l(4) =   1
                l(5) =   1
                l(6) =   1
                l(7) =   1
                l(8) =   2
                l(9) =   2
               l(10) =   2
               l(11) =   2
               l(12) =   3
               l(13) =   3
               l(14) =   3
               l(15) =   3
     Q(r) pseudized with 0 coefficients 


     atomic species   valence    mass     pseudopotential
        Sn            14.00   118.70000     Sn( 1.00)
        I              7.00   126.90000     I ( 1.00)
        Cs             9.00   132.90000     Cs( 1.00)

      4 Sym. Ops., with inversion, found


                                    s                        frac. trans.

      isym =  1     identity                                     

 cryst.   s( 1) = (     1          0          0      )
                  (     0          1          0      )
                  (     0          0          1      )

 cart.    s( 1) = (  1.0000000 -0.0000000  0.0000000 )
                  (  0.0000000  1.0000000  0.0000000 )
                  (  0.0000000  0.0000000  1.0000000 )


      isym =  2     180 deg rotation - cart. axis [0,0,1]        

 cryst.   s( 2) = (    -1          0          0      )
                  (     0         -1          0      )
                  (     0          0          1      )

 cart.    s( 2) = ( -1.0000000  0.0000000  0.0000000 )
                  (  0.0000000 -1.0000000  0.0000000 )
                  (  0.0000000  0.0000000  1.0000000 )


      isym =  3     inversion                                    

 cryst.   s( 3) = (    -1          0          0      )
                  (     0         -1          0      )
                  (     0          0         -1      )

 cart.    s( 3) = ( -1.0000000  0.0000000  0.0000000 )
                  (  0.0000000 -1.0000000  0.0000000 )
                  (  0.0000000  0.0000000 -1.0000000 )


      isym =  4     inv. 180 deg rotation - cart. axis [0,0,1]   

 cryst.   s( 4) = (     1          0          0      )
                  (     0          1          0      )
                  (     0          0         -1      )

 cart.    s( 4) = (  1.0000000 -0.0000000  0.0000000 )
                  (  0.0000000  1.0000000  0.0000000 )
                  (  0.0000000  0.0000000 -1.0000000 )


   Cartesian axes

     site n.     atom                  positions (alat units)
         1           Cs  tau(   1) = (   0.0000014   0.5773505   0.0000000  )
         2           Cs  tau(   2) = (   0.5000015   0.2886748   0.7148641  )
         3           Cs  tau(   3) = (   0.5000015   0.2886748   0.0000000  )
         4           Cs  tau(   4) = (   0.0000014   0.5773505   0.7148641  )
         5           Sn  tau(   5) = (   0.0000000   0.0000000   0.4837500  )
         6           Sn  tau(   6) = (   0.0000000   0.0000000   1.1986141  )
         7           Sn  tau(   7) = (   0.0000000   0.0000000   0.2311141  )
         8           Sn  tau(   8) = (   0.0000000   0.0000000   0.9459782  )
         9           I   tau(   9) = (   0.0000020   0.7624859   0.0000000  )
        10           I   tau(  10) = (   0.3396698   0.3812425   0.7148641  )
        11           I   tau(  11) = (  -0.1603309   0.4847828   0.0000000  )
        12           I   tau(  12) = (   0.5000008   0.1035394   0.7148641  )
        13           I   tau(  13) = (   0.1603331   0.4847828   0.0000000  )
        14           I   tau(  14) = (   0.6603338   0.3812425   0.7148641  )
        15           I   tau(  15) = (   0.5000008   0.1035394   0.0000000  )
        16           I   tau(  16) = (   0.1603331   0.4847828   0.7148641  )
        17           I   tau(  17) = (   0.6603338   0.3812425   0.0000000  )
        18           I   tau(  18) = (   0.0000020   0.7624859   0.7148641  )
        19           I   tau(  19) = (   0.3396698   0.3812425   0.0000000  )
        20           I   tau(  20) = (  -0.1603309   0.4847828   0.7148641  )

   Crystallographic axes

     site n.     atom                  positions (cryst. coord.)
         1           Cs  tau(   1) = (  0.3333330  0.6666670  0.0000000  )
         2           Cs  tau(   2) = (  0.6666670  0.3333330  0.5000000  )
         3           Cs  tau(   3) = (  0.6666670  0.3333330  0.0000000  )
         4           Cs  tau(   4) = (  0.3333330  0.6666670  0.5000000  )
         5           Sn  tau(   5) = (  0.0000000  0.0000000  0.3383510  )
         6           Sn  tau(   6) = (  0.0000000  0.0000000  0.8383510  )
         7           Sn  tau(   7) = (  0.0000000  0.0000000  0.1616490  )
         8           Sn  tau(   8) = (  0.0000000  0.0000000  0.6616490  )
         9           I   tau(   9) = (  0.4402210  0.8804430  0.0000000  )
        10           I   tau(  10) = (  0.5597790  0.4402210  0.5000000  )
        11           I   tau(  11) = (  0.1195570  0.5597790  0.0000000  )
        12           I   tau(  12) = (  0.5597790  0.1195570  0.5000000  )
        13           I   tau(  13) = (  0.4402210  0.5597790  0.0000000  )
        14           I   tau(  14) = (  0.8804430  0.4402210  0.5000000  )
        15           I   tau(  15) = (  0.5597790  0.1195570  0.0000000  )
        16           I   tau(  16) = (  0.4402210  0.5597790  0.5000000  )
        17           I   tau(  17) = (  0.8804430  0.4402210  0.0000000  )
        18           I   tau(  18) = (  0.4402210  0.8804430  0.5000000  )
        19           I   tau(  19) = (  0.5597790  0.4402210  0.0000000  )
        20           I   tau(  20) = (  0.1195570  0.5597790  0.5000000  )

     number of k points=    20
                       cart. coord. in units 2pi/alat
        k(    1) = (   0.0000000   0.0000000   0.0000000), wk =   0.0312500
        k(    2) = (   0.0000000   0.0000000  -0.3497168), wk =   0.0312500
        k(    3) = (   0.0000000   0.2886752   0.0000000), wk =   0.0625000
        k(    4) = (   0.0000000   0.2886752  -0.3497168), wk =   0.0625000
        k(    5) = (   0.0000000  -0.5773503   0.0000000), wk =   0.0312500
        k(    6) = (   0.0000000  -0.5773503  -0.3497168), wk =   0.0312500
        k(    7) = (   0.2500000   0.1443368   0.0000000), wk =   0.0625000
        k(    8) = (   0.2500000   0.1443368  -0.3497168), wk =   0.0625000
        k(    9) = (   0.2500000   0.4330119   0.0000000), wk =   0.0625000
        k(   10) = (   0.2500000   0.4330119  -0.3497168), wk =   0.0625000
        k(   11) = (   0.2500000  -0.4330136   0.0000000), wk =   0.0625000
        k(   12) = (   0.2500000  -0.4330136  -0.3497168), wk =   0.0625000
        k(   13) = (   0.2500000  -0.1443384   0.0000000), wk =   0.0625000
        k(   14) = (   0.2500000  -0.1443384  -0.3497168), wk =   0.0625000
        k(   15) = (  -0.5000000  -0.2886735   0.0000000), wk =   0.0312500
        k(   16) = (  -0.5000000  -0.2886735  -0.3497168), wk =   0.0312500
        k(   17) = (  -0.5000000   0.0000017   0.0000000), wk =   0.0625000
        k(   18) = (  -0.5000000   0.0000017  -0.3497168), wk =   0.0625000
        k(   19) = (  -0.5000000  -0.8660239   0.0000000), wk =   0.0312500
        k(   20) = (  -0.5000000  -0.8660239  -0.3497168), wk =   0.0312500

                       cryst. coord.
        k(    1) = (   0.0000000   0.0000000   0.0000000), wk =   0.0312500
        k(    2) = (   0.0000000   0.0000000  -0.5000000), wk =   0.0312500
        k(    3) = (   0.0000000   0.2500000   0.0000000), wk =   0.0625000
        k(    4) = (   0.0000000   0.2500000  -0.5000000), wk =   0.0625000
        k(    5) = (   0.0000000  -0.5000000   0.0000000), wk =   0.0312500
        k(    6) = (   0.0000000  -0.5000000  -0.5000000), wk =   0.0312500
        k(    7) = (   0.2500000  -0.0000000   0.0000000), wk =   0.0625000
        k(    8) = (   0.2500000  -0.0000000  -0.5000000), wk =   0.0625000
        k(    9) = (   0.2500000   0.2500000   0.0000000), wk =   0.0625000
        k(   10) = (   0.2500000   0.2500000  -0.5000000), wk =   0.0625000
        k(   11) = (   0.2500000  -0.5000000   0.0000000), wk =   0.0625000
        k(   12) = (   0.2500000  -0.5000000  -0.5000000), wk =   0.0625000
        k(   13) = (   0.2500000  -0.2500000   0.0000000), wk =   0.0625000
        k(   14) = (   0.2500000  -0.2500000  -0.5000000), wk =   0.0625000
        k(   15) = (  -0.5000000   0.0000000   0.0000000), wk =   0.0312500
        k(   16) = (  -0.5000000   0.0000000  -0.5000000), wk =   0.0312500
        k(   17) = (  -0.5000000   0.2500000   0.0000000), wk =   0.0625000
        k(   18) = (  -0.5000000   0.2500000  -0.5000000), wk =   0.0625000
        k(   19) = (  -0.5000000  -0.5000000   0.0000000), wk =   0.0312500
        k(   20) = (  -0.5000000  -0.5000000  -0.5000000), wk =   0.0312500

     Dense  grid:   630597 G-vectors     FFT dimensions: ( 100, 100, 144)

     Dynamical RAM for                 wfc:      13.23 MB

     Dynamical RAM for     wfc (w. buffer):     277.81 MB

     Dynamical RAM for           str. fact:       0.90 MB

     Dynamical RAM for           local pot:       0.00 MB

     Dynamical RAM for          nlocal pot:      20.90 MB

     Dynamical RAM for                qrad:     190.63 MB

     Dynamical RAM for          rho,v,vnew:       8.19 MB

     Dynamical RAM for               rhoin:       2.73 MB

     Dynamical RAM for            rho*nmix:      19.24 MB

     Dynamical RAM for           G-vectors:       1.28 MB

     Dynamical RAM for          h,s,v(r/c):       1.42 MB

     Dynamical RAM for          <psi|beta>:       2.99 MB

     Dynamical RAM for                 psi:      52.92 MB

     Dynamical RAM for                hpsi:      52.92 MB

     Dynamical RAM for                spsi:      52.92 MB

     Dynamical RAM for      wfcinit/wfcrot:      24.44 MB

     Dynamical RAM for           addusdens:     617.85 MB

     Dynamical RAM for          addusforce:     632.76 MB

     Dynamical RAM for         addusstress:     623.27 MB

     Estimated static dynamical RAM per process >     525.92 MB

     Estimated max dynamical RAM per process >       1.13 GB

     Estimated total dynamical RAM >      36.21 GB

     Initial potential from superposition of free atoms

     starting charge  175.83607, renormalised to  176.00000
     Starting wfcs are  208 randomized atomic wfcs

     total cpu time spent up to now is       35.2 secs

     Self-consistent Calculation

     iteration #  1     ecut=    80.00 Ry     beta= 0.60
     Davidson diagonalization with overlap
     ethr =  1.00E-02,  avg # of iterations =  7.2

     total cpu time spent up to now is      150.3 secs

     total energy              =   -1537.76748194 Ry
     Harris-Foulkes estimate   =   -1539.16196134 Ry
     estimated scf accuracy    <       1.95530862 Ry

     iteration #  2     ecut=    80.00 Ry     beta= 0.60
     Davidson diagonalization with overlap
     c_bands:  1 eigenvalues not converged
     c_bands:  1 eigenvalues not converged
     ethr =  1.11E-03,  avg # of iterations = 16.1

     total cpu time spent up to now is      281.8 secs

     total energy              =   -1538.03580524 Ry
     Harris-Foulkes estimate   =   -1541.53432020 Ry
     estimated scf accuracy    <      12.78447577 Ry

     iteration #  3     ecut=    80.00 Ry     beta= 0.60
     Davidson diagonalization with overlap
     ethr =  1.11E-03,  avg # of iterations =  9.5

     total cpu time spent up to now is      380.0 secs

     total energy              =   -1538.87617458 Ry
     Harris-Foulkes estimate   =   -1539.07213696 Ry
     estimated scf accuracy    <       0.82230347 Ry

     iteration #  4     ecut=    80.00 Ry     beta= 0.60
     Davidson diagonalization with overlap
     ethr =  4.67E-04,  avg # of iterations =  8.1

     total cpu time spent up to now is      492.9 secs

     total energy              =   -1372.50154825 Ry
     Harris-Foulkes estimate   =   -1742.23751193 Ry
     estimated scf accuracy    < 6724646.74649176 Ry

     iteration #  5     ecut=    80.00 Ry     beta= 0.60
     Davidson diagonalization with overlap
     c_bands:  2 eigenvalues not converged
     ethr =  4.67E-04,  avg # of iterations = 13.6

     total cpu time spent up to now is      610.3 secs

     total energy              =   -1537.44660209 Ry
     Harris-Foulkes estimate   =   -1539.56638075 Ry
     estimated scf accuracy    <    2903.16114032 Ry

     iteration #  6     ecut=    80.00 Ry     beta= 0.60
     Davidson diagonalization with overlap
     c_bands:  2 eigenvalues not converged
     ethr =  4.67E-04,  avg # of iterations =  7.1

     total cpu time spent up to now is      702.2 secs

     total energy              =   -1538.82999153 Ry
     Harris-Foulkes estimate   =   -1539.31098088 Ry
     estimated scf accuracy    <       4.34545972 Ry

     iteration #  7     ecut=    80.00 Ry     beta= 0.60
     Davidson diagonalization with overlap
     ethr =  4.67E-04,  avg # of iterations = 11.0

     total cpu time spent up to now is      792.2 secs

     total energy              =   -1538.99482924 Ry
     Harris-Foulkes estimate   =   -1539.02657805 Ry
     estimated scf accuracy    <       0.25379882 Ry

     iteration #  8     ecut=    80.00 Ry     beta= 0.60
     Davidson diagonalization with overlap
     c_bands:  1 eigenvalues not converged
     c_bands:  3 eigenvalues not converged
     c_bands:  2 eigenvalues not converged
     c_bands:  2 eigenvalues not converged
     c_bands:  3 eigenvalues not converged
     c_bands:  2 eigenvalues not converged
     ethr =  1.44E-04,  avg # of iterations = 12.1

     total cpu time spent up to now is      891.6 secs

     total energy              =   -1539.05540196 Ry
     Harris-Foulkes estimate   =   -1539.11301913 Ry
     estimated scf accuracy    <       2.85232614 Ry

     iteration #  9     ecut=    80.00 Ry     beta= 0.60
     Davidson diagonalization with overlap
     ethr =  1.44E-04,  avg # of iterations =  4.3

     total cpu time spent up to now is      968.3 secs

     total energy              =   -1539.04194087 Ry
     Harris-Foulkes estimate   =   -1539.12781889 Ry
     estimated scf accuracy    <       8.37861090 Ry

     iteration # 10     ecut=    80.00 Ry     beta= 0.60
     Davidson diagonalization with overlap
     ethr =  1.44E-04,  avg # of iterations =  7.0

     total cpu time spent up to now is     1063.7 secs

     total energy              =   -1538.61295340 Ry
     Harris-Foulkes estimate   =   -1539.19866121 Ry
     estimated scf accuracy    <     342.03354288 Ry

     iteration # 11     ecut=    80.00 Ry     beta= 0.60
     Davidson diagonalization with overlap
     c_bands:  1 eigenvalues not converged
     ethr =  1.44E-04,  avg # of iterations =  7.4

     total cpu time spent up to now is     1152.5 secs

     total energy              =   -1539.06496577 Ry
     Harris-Foulkes estimate   =   -1539.08635833 Ry
     estimated scf accuracy    <       0.31820162 Ry

     iteration # 12     ecut=    80.00 Ry     beta= 0.60
     Davidson diagonalization with overlap
     ethr =  1.44E-04,  avg # of iterations =  4.7

     total cpu time spent up to now is     1222.4 secs

     total energy              =   -1539.06165199 Ry
     Harris-Foulkes estimate   =   -1539.07042528 Ry
     estimated scf accuracy    <       0.13507014 Ry

     iteration # 13     ecut=    80.00 Ry     beta= 0.60
     Davidson diagonalization with overlap
     c_bands:  2 eigenvalues not converged
     c_bands:  4 eigenvalues not converged
     ethr =  7.67E-05,  avg # of iterations =  9.9

     total cpu time spent up to now is     1303.3 secs

     total energy              =   -1539.06736257 Ry
     Harris-Foulkes estimate   =   -1539.07253166 Ry
     estimated scf accuracy    <       0.03662346 Ry

     iteration # 14     ecut=    80.00 Ry     beta= 0.60
     Davidson diagonalization with overlap
     ethr =  2.08E-05,  avg # of iterations =  8.0

     total cpu time spent up to now is     1431.8 secs

     total energy              =   -1480.45843416 Ry
     Harris-Foulkes estimate   =   -1554.90068641 Ry
     estimated scf accuracy    < 2131673.78610774 Ry

     iteration # 15     ecut=    80.00 Ry     beta= 0.60
     Davidson diagonalization with overlap
     c_bands:  3 eigenvalues not converged
     c_bands:  4 eigenvalues not converged
     c_bands:  2 eigenvalues not converged
     c_bands:  4 eigenvalues not converged
     c_bands:  2 eigenvalues not converged
     c_bands:  4 eigenvalues not converged
     c_bands:  2 eigenvalues not converged
     c_bands:  4 eigenvalues not converged
     c_bands:  2 eigenvalues not converged
     c_bands:  2 eigenvalues not converged
     ethr =  2.08E-05,  avg # of iterations = 17.2

     total cpu time spent up to now is     1573.2 secs

     total energy              =   -1538.87081119 Ry
     Harris-Foulkes estimate   =   -1539.14966850 Ry
     estimated scf accuracy    <      79.17237639 Ry

     iteration # 16     ecut=    80.00 Ry     beta= 0.60
     Davidson diagonalization with overlap
     c_bands:  1 eigenvalues not converged
     ethr =  2.08E-05,  avg # of iterations = 12.7

     total cpu time spent up to now is     1686.7 secs

     total energy              =   -1539.07560099 Ry
     Harris-Foulkes estimate   =   -1539.07930336 Ry
     estimated scf accuracy    <       0.11840850 Ry

     iteration # 17     ecut=    80.00 Ry     beta= 0.60
     Davidson diagonalization with overlap
     ethr =  2.08E-05,  avg # of iterations =  3.6

     total cpu time spent up to now is     1755.1 secs

     total energy              =   -1539.06609533 Ry
     Harris-Foulkes estimate   =   -1539.07646997 Ry
     estimated scf accuracy    <       0.09527862 Ry

     iteration # 18     ecut=    80.00 Ry     beta= 0.60
     Davidson diagonalization with overlap
     c_bands:  2 eigenvalues not converged
     c_bands:  3 eigenvalues not converged
     c_bands:  4 eigenvalues not converged
     ethr =  2.08E-05,  avg # of iterations = 10.3

     total cpu time spent up to now is     1840.7 secs

     total energy              =   -1539.08014365 Ry
     Harris-Foulkes estimate   =   -1539.08049875 Ry
     estimated scf accuracy    <       0.02997018 Ry

     iteration # 19     ecut=    80.00 Ry     beta= 0.60
     Davidson diagonalization with overlap
     ethr =  1.70E-05,  avg # of iterations =  1.6

     total cpu time spent up to now is     1904.5 secs

     total energy              =   -1539.08122816 Ry
     Harris-Foulkes estimate   =   -1539.08045652 Ry
     estimated scf accuracy    <       0.03541287 Ry

     iteration # 20     ecut=    80.00 Ry     beta= 0.60
     Davidson diagonalization with overlap
     ethr =  1.70E-05,  avg # of iterations =  4.3

     total cpu time spent up to now is     1973.6 secs

     total energy              =   -1539.08107072 Ry
     Harris-Foulkes estimate   =   -1539.08177857 Ry
     estimated scf accuracy    <       0.03466281 Ry

     iteration # 21     ecut=    80.00 Ry     beta= 0.60
     Davidson diagonalization with overlap
     ethr =  1.70E-05,  avg # of iterations =  1.0

     total cpu time spent up to now is     2037.2 secs

     total energy              =   -1539.08416434 Ry
     Harris-Foulkes estimate   =   -1539.08123902 Ry
     estimated scf accuracy    <       0.03247702 Ry

     iteration # 22     ecut=    80.00 Ry     beta= 0.60
     Davidson diagonalization with overlap
     c_bands:  1 eigenvalues not converged
     c_bands:  2 eigenvalues not converged
     c_bands:  2 eigenvalues not converged
     c_bands:  2 eigenvalues not converged
     c_bands:  2 eigenvalues not converged
     c_bands:  2 eigenvalues not converged
     c_bands:  2 eigenvalues not converged
     ethr =  1.70E-05,  avg # of iterations = 16.5

     total cpu time spent up to now is     2141.0 secs

     total energy              =   -1539.04600210 Ry
     Harris-Foulkes estimate   =   -1539.10407040 Ry
     estimated scf accuracy    <       0.94958138 Ry

     iteration # 23     ecut=    80.00 Ry     beta= 0.60
     Davidson diagonalization with overlap
     c_bands:  2 eigenvalues not converged
     c_bands:  2 eigenvalues not converged
     c_bands:  2 eigenvalues not converged
     ethr =  1.70E-05,  avg # of iterations = 13.4

     total cpu time spent up to now is     2236.7 secs

     WARNING: integrated charge=   175.99991983, expected=   176.00000000

     total energy              =   -1539.07573817 Ry
     Harris-Foulkes estimate   =   -1539.07511588 Ry
     estimated scf accuracy    <       0.06062075 Ry

     iteration # 24     ecut=    80.00 Ry     beta= 0.60
     Davidson diagonalization with overlap
     ethr =  1.70E-05,  avg # of iterations =  8.6

     total cpu time spent up to now is     2337.1 secs

     WARNING: integrated charge=   176.00067570, expected=   176.00000000

     total energy              =   -1538.84051882 Ry
     Harris-Foulkes estimate   =   -1539.14341520 Ry
     estimated scf accuracy    <     100.42059947 Ry

     iteration # 25     ecut=    80.00 Ry     beta= 0.60
     Davidson diagonalization with overlap
     ethr =  1.70E-05,  avg # of iterations =  8.7

     total cpu time spent up to now is     2462.0 secs

     WARNING: integrated charge=   176.00023379, expected=   176.00000000

     total energy              =   -1538.70008219 Ry
     Harris-Foulkes estimate   =   -1539.17388646 Ry
     estimated scf accuracy    <     224.92587979 Ry

     iteration # 26     ecut=    80.00 Ry     beta= 0.60
     Davidson diagonalization with overlap
     ethr =  1.70E-05,  avg # of iterations =  8.1

     total cpu time spent up to now is     2567.5 secs

     WARNING: integrated charge=   176.00050450, expected=   176.00000000

     total energy              =   -1539.07836193 Ry
     Harris-Foulkes estimate   =   -1539.07905609 Ry
     estimated scf accuracy    <       0.01582171 Ry

     iteration # 27     ecut=    80.00 Ry     beta= 0.60
     Davidson diagonalization with overlap
     ethr =  8.99E-06,  avg # of iterations =  9.3

     total cpu time spent up to now is     2652.9 secs

     WARNING: integrated charge=   176.00208220, expected=   176.00000000

     total energy              =   -1539.07747128 Ry
     Harris-Foulkes estimate   =   -1539.08165763 Ry
     estimated scf accuracy    <       0.06150767 Ry

     iteration # 28     ecut=    80.00 Ry     beta= 0.60
     Davidson diagonalization with overlap
     ethr =  8.99E-06,  avg # of iterations =  8.0

     total cpu time spent up to now is     2733.0 secs

     WARNING: integrated charge=   176.00184852, expected=   176.00000000

     total energy              =   -1539.07831048 Ry
     Harris-Foulkes estimate   =   -1539.07888838 Ry
     estimated scf accuracy    <       0.02619937 Ry

     iteration # 29     ecut=    80.00 Ry     beta= 0.60
     Davidson diagonalization with overlap
     ethr =  8.99E-06,  avg # of iterations =  2.0

     total cpu time spent up to now is     2797.7 secs

     WARNING: integrated charge=   176.00093557, expected=   176.00000000

     total energy              =   -1539.07811496 Ry
     Harris-Foulkes estimate   =   -1539.07853780 Ry
     estimated scf accuracy    <       0.01943765 Ry

     iteration # 30     ecut=    80.00 Ry     beta= 0.60
     Davidson diagonalization with overlap
     ethr =  8.99E-06,  avg # of iterations =  1.4

     total cpu time spent up to now is     2860.6 secs

     WARNING: integrated charge=   176.00097788, expected=   176.00000000

     total energy              =   -1539.07778475 Ry
     Harris-Foulkes estimate   =   -1539.07822808 Ry
     estimated scf accuracy    <       0.01593581 Ry

     iteration # 31     ecut=    80.00 Ry     beta= 0.60
     Davidson diagonalization with overlap
     ethr =  8.99E-06,  avg # of iterations =  1.4

     total cpu time spent up to now is     2924.1 secs

     WARNING: integrated charge=   176.00045885, expected=   176.00000000

     total energy              =   -1539.07766074 Ry
     Harris-Foulkes estimate   =   -1539.07787957 Ry
     estimated scf accuracy    <       0.01353592 Ry

     iteration # 32     ecut=    80.00 Ry     beta= 0.60
     Davidson diagonalization with overlap
     ethr =  7.69E-06,  avg # of iterations =  4.3

     total cpu time spent up to now is     2992.8 secs

     WARNING: integrated charge=   175.99992566, expected=   176.00000000

     total energy              =   -1539.07749441 Ry
     Harris-Foulkes estimate   =   -1539.07797732 Ry
     estimated scf accuracy    <       0.00606007 Ry

     iteration # 33     ecut=    80.00 Ry     beta= 0.60
     Davidson diagonalization with overlap
     ethr =  3.44E-06,  avg # of iterations =  7.9

     total cpu time spent up to now is     3074.0 secs

     WARNING: integrated charge=   175.99906480, expected=   176.00000000

     total energy              =   -1539.07796250 Ry
     Harris-Foulkes estimate   =   -1539.07808004 Ry
     estimated scf accuracy    <       0.00117999 Ry

     iteration # 34     ecut=    80.00 Ry     beta= 0.60
     Davidson diagonalization with overlap
     c_bands:  1 eigenvalues not converged
     ethr =  6.70E-07,  avg # of iterations =  9.2

     total cpu time spent up to now is     3174.1 secs

     WARNING: integrated charge=   175.99896700, expected=   176.00000000

     total energy              =   -1539.07798365 Ry
     Harris-Foulkes estimate   =   -1539.07940485 Ry
     estimated scf accuracy    <       0.12240158 Ry

     iteration # 35     ecut=    80.00 Ry     beta= 0.60
     Davidson diagonalization with overlap
     ethr =  6.70E-07,  avg # of iterations =  4.1

     total cpu time spent up to now is     3264.0 secs

     WARNING: integrated charge=   176.00060697, expected=   176.00000000

     total energy              =   -1539.07598023 Ry
     Harris-Foulkes estimate   =   -1539.08058688 Ry
     estimated scf accuracy    <       0.30731858 Ry

     iteration # 36     ecut=    80.00 Ry     beta= 0.60
     Davidson diagonalization with overlap
     ethr =  6.70E-07,  avg # of iterations =  7.9

     total cpu time spent up to now is     3363.8 secs

     WARNING: integrated charge=   176.00017119, expected=   176.00000000

     total energy              =   -1539.07811854 Ry
     Harris-Foulkes estimate   =   -1539.07821793 Ry
     estimated scf accuracy    <       0.00144645 Ry

     iteration # 37     ecut=    80.00 Ry     beta= 0.60
     Davidson diagonalization with overlap
     ethr =  6.70E-07,  avg # of iterations =  2.0

     total cpu time spent up to now is     3429.0 secs

     WARNING: integrated charge=   176.00010537, expected=   176.00000000

     total energy              =   -1539.07809990 Ry
     Harris-Foulkes estimate   =   -1539.07814666 Ry
     estimated scf accuracy    <       0.00076527 Ry

     iteration # 38     ecut=    80.00 Ry     beta= 0.60
     Davidson diagonalization with overlap
     ethr =  4.35E-07,  avg # of iterations =  3.8

     total cpu time spent up to now is     3496.3 secs

     WARNING: integrated charge=   176.00005549, expected=   176.00000000

     total energy              =   -1539.07807279 Ry
     Harris-Foulkes estimate   =   -1539.07811321 Ry
     estimated scf accuracy    <       0.00057635 Ry

     iteration # 39     ecut=    80.00 Ry     beta= 0.60
     Davidson diagonalization with overlap
     c_bands:  2 eigenvalues not converged
     ethr =  3.27E-07,  avg # of iterations =  9.1

     total cpu time spent up to now is     3576.8 secs

     WARNING: integrated charge=   176.00006597, expected=   176.00000000

     total energy              =   -1539.07813145 Ry
     Harris-Foulkes estimate   =   -1539.07813873 Ry
     estimated scf accuracy    <       0.00066345 Ry

     iteration # 40     ecut=    80.00 Ry     beta= 0.60
     Davidson diagonalization with overlap
     c_bands:  2 eigenvalues not converged
     ethr =  3.27E-07,  avg # of iterations =  3.4

     total cpu time spent up to now is     3643.9 secs

     total energy              =   -1539.07815343 Ry
     Harris-Foulkes estimate   =   -1539.07814690 Ry
     estimated scf accuracy    <       0.00042404 Ry

     iteration # 41     ecut=    80.00 Ry     beta= 0.60
     Davidson diagonalization with overlap
     c_bands:  2 eigenvalues not converged
     ethr =  2.41E-07,  avg # of iterations =  7.0

     total cpu time spent up to now is     3721.3 secs

     WARNING: integrated charge=   176.00003210, expected=   176.00000000

     total energy              =   -1539.07810452 Ry
     Harris-Foulkes estimate   =   -1539.07819699 Ry
     estimated scf accuracy    <       0.00214679 Ry

     iteration # 42     ecut=    80.00 Ry     beta= 0.60
     Davidson diagonalization with overlap
     c_bands:  2 eigenvalues not converged
     ethr =  2.41E-07,  avg # of iterations =  6.3

     total cpu time spent up to now is     3795.2 secs

     WARNING: integrated charge=   176.00002622, expected=   176.00000000

     total energy              =   -1539.07812659 Ry
     Harris-Foulkes estimate   =   -1539.07813099 Ry
     estimated scf accuracy    <       0.00024798 Ry

     iteration # 43     ecut=    80.00 Ry     beta= 0.60
     Davidson diagonalization with overlap
     c_bands:  2 eigenvalues not converged
     ethr =  1.41E-07,  avg # of iterations =  1.9

     total cpu time spent up to now is     3859.8 secs

     WARNING: integrated charge=   176.00002737, expected=   176.00000000

     total energy              =   -1539.07811505 Ry
     Harris-Foulkes estimate   =   -1539.07812993 Ry
     estimated scf accuracy    <       0.00019142 Ry

     iteration # 44     ecut=    80.00 Ry     beta= 0.60
     Davidson diagonalization with overlap
     c_bands:  2 eigenvalues not converged
     ethr =  1.09E-07,  avg # of iterations =  7.1

     total cpu time spent up to now is     3934.5 secs

     WARNING: integrated charge=   176.00002600, expected=   176.00000000

     total energy              =   -1539.07812473 Ry
     Harris-Foulkes estimate   =   -1539.07812610 Ry
     estimated scf accuracy    <       0.00002077 Ry

     iteration # 45     ecut=    80.00 Ry     beta= 0.60
     Davidson diagonalization with overlap
     c_bands:  2 eigenvalues not converged
     ethr =  1.18E-08,  avg # of iterations = 11.2

     total cpu time spent up to now is     4027.6 secs

     WARNING: integrated charge=   176.00002341, expected=   176.00000000

     total energy              =   -1539.07813457 Ry
     Harris-Foulkes estimate   =   -1539.07813498 Ry
     estimated scf accuracy    <       0.00002932 Ry

     iteration # 46     ecut=    80.00 Ry     beta= 0.60
     Davidson diagonalization with overlap
     c_bands:  2 eigenvalues not converged
     ethr =  1.18E-08,  avg # of iterations =  2.9

     total cpu time spent up to now is     4093.7 secs

     WARNING: integrated charge=   176.00001775, expected=   176.00000000

     total energy              =   -1539.07813757 Ry
     Harris-Foulkes estimate   =   -1539.07813753 Ry
     estimated scf accuracy    <       0.00002204 Ry

     iteration # 47     ecut=    80.00 Ry     beta= 0.60
     Davidson diagonalization with overlap
     c_bands:  2 eigenvalues not converged
     ethr =  1.18E-08,  avg # of iterations =  2.2

     total cpu time spent up to now is     4158.9 secs

     total energy              =   -1539.07814092 Ry
     Harris-Foulkes estimate   =   -1539.07814070 Ry
     estimated scf accuracy    <       0.00007031 Ry

     iteration # 48     ecut=    80.00 Ry     beta= 0.60
     Davidson diagonalization with overlap
     c_bands:  2 eigenvalues not converged
     ethr =  1.18E-08,  avg # of iterations =  2.0

     total cpu time spent up to now is     4223.3 secs

     total energy              =   -1539.07814056 Ry
     Harris-Foulkes estimate   =   -1539.07814334 Ry
     estimated scf accuracy    <       0.00008090 Ry

     iteration # 49     ecut=    80.00 Ry     beta= 0.60
     Davidson diagonalization with overlap
     c_bands:  2 eigenvalues not converged
     ethr =  1.18E-08,  avg # of iterations =  5.5

     total cpu time spent up to now is     4296.9 secs

     total energy              =   -1539.07814186 Ry
     Harris-Foulkes estimate   =   -1539.07814234 Ry
     estimated scf accuracy    <       0.00022177 Ry

     iteration # 50     ecut=    80.00 Ry     beta= 0.60
     Davidson diagonalization with overlap
     c_bands:  2 eigenvalues not converged
     ethr =  1.18E-08,  avg # of iterations =  3.0

     total cpu time spent up to now is     4365.5 secs

     total energy              =   -1539.07814276 Ry
     Harris-Foulkes estimate   =   -1539.07814365 Ry
     estimated scf accuracy    <       0.00010307 Ry

     iteration # 51     ecut=    80.00 Ry     beta= 0.60
     Davidson diagonalization with overlap
     c_bands:  2 eigenvalues not converged
     ethr =  1.18E-08,  avg # of iterations =  1.9

     total cpu time spent up to now is     4430.2 secs

     total energy              =   -1539.07814427 Ry
     Harris-Foulkes estimate   =   -1539.07814327 Ry
     estimated scf accuracy    <       0.00010062 Ry

     iteration # 52     ecut=    80.00 Ry     beta= 0.60
     Davidson diagonalization with overlap
     c_bands:  2 eigenvalues not converged
     ethr =  1.18E-08,  avg # of iterations =  1.9

     total cpu time spent up to now is     4494.3 secs

     total energy              =   -1539.07814851 Ry
     Harris-Foulkes estimate   =   -1539.07814475 Ry
     estimated scf accuracy    <       0.00012677 Ry

     iteration # 53     ecut=    80.00 Ry     beta= 0.60
     Davidson diagonalization with overlap
     c_bands:  2 eigenvalues not converged
     ethr =  1.18E-08,  avg # of iterations = 10.7

     total cpu time spent up to now is     4583.8 secs

     WARNING: integrated charge=   176.00082951, expected=   176.00000000

     total energy              =   -1539.07815433 Ry
     Harris-Foulkes estimate   =   -1539.07815336 Ry
     estimated scf accuracy    <       0.00048857 Ry

     iteration # 54     ecut=    80.00 Ry     beta= 0.60
     Davidson diagonalization with overlap
     c_bands:  2 eigenvalues not converged
     ethr =  1.18E-08,  avg # of iterations =  3.1

     total cpu time spent up to now is     4652.5 secs

     WARNING: integrated charge=   175.99979608, expected=   176.00000000

     total energy              =   -1539.07815356 Ry
     Harris-Foulkes estimate   =   -1539.07815650 Ry
     estimated scf accuracy    <       0.00029068 Ry

     iteration # 55     ecut=    80.00 Ry     beta= 0.60
     Davidson diagonalization with overlap
     c_bands:  2 eigenvalues not converged
     ethr =  1.18E-08,  avg # of iterations =  4.8

     total cpu time spent up to now is     4741.8 secs

     WARNING: integrated charge=   176.00026619, expected=   176.00000000

     total energy              =   -1539.07811521 Ry
     Harris-Foulkes estimate   =   -1539.07818955 Ry
     estimated scf accuracy    <       0.00574096 Ry

     iteration # 56     ecut=    80.00 Ry     beta= 0.60
     Davidson diagonalization with overlap
     c_bands:  2 eigenvalues not converged
     ethr =  1.18E-08,  avg # of iterations =  6.7

     total cpu time spent up to now is     4838.1 secs

     WARNING: integrated charge=   176.00015499, expected=   176.00000000

     total energy              =   -1539.07814916 Ry
     Harris-Foulkes estimate   =   -1539.07815183 Ry
     estimated scf accuracy    <       0.00043494 Ry

     iteration # 57     ecut=    80.00 Ry     beta= 0.60
     Davidson diagonalization with overlap
     ethr =  1.18E-08,  avg # of iterations =  2.1

     total cpu time spent up to now is     4905.3 secs

     WARNING: integrated charge=   175.99880923, expected=   176.00000000

     total energy              =   -1539.07812586 Ry
     Harris-Foulkes estimate   =   -1539.07815027 Ry
     estimated scf accuracy    <       0.00032082 Ry

     iteration # 58     ecut=    80.00 Ry     beta= 0.60
     Davidson diagonalization with overlap
     c_bands:  2 eigenvalues not converged
     ethr =  1.18E-08,  avg # of iterations =  9.2

     total cpu time spent up to now is     4992.0 secs

     WARNING: integrated charge=   175.99930128, expected=   176.00000000

     total energy              =   -1539.07813624 Ry
     Harris-Foulkes estimate   =   -1539.07813937 Ry
     estimated scf accuracy    <       0.00007607 Ry

     iteration # 59     ecut=    80.00 Ry     beta= 0.60
     Davidson diagonalization with overlap
     c_bands:  2 eigenvalues not converged
     ethr =  1.18E-08,  avg # of iterations =  5.8

     total cpu time spent up to now is     5066.5 secs

     WARNING: integrated charge=   175.99919135, expected=   176.00000000

     total energy              =   -1539.07813799 Ry
     Harris-Foulkes estimate   =   -1539.07813841 Ry
     estimated scf accuracy    <       0.00001676 Ry

     iteration # 60     ecut=    80.00 Ry     beta= 0.60
     Davidson diagonalization with overlap
     ethr =  9.52E-09,  avg # of iterations =  2.8

     total cpu time spent up to now is     5132.7 secs

     WARNING: integrated charge=   175.99929974, expected=   176.00000000

     total energy              =   -1539.07813808 Ry
     Harris-Foulkes estimate   =   -1539.07813847 Ry
     estimated scf accuracy    <       0.00002418 Ry

     iteration # 61     ecut=    80.00 Ry     beta= 0.60
     Davidson diagonalization with overlap
     ethr =  9.52E-09,  avg # of iterations =  3.0

     total cpu time spent up to now is     5198.6 secs

     WARNING: integrated charge=   175.99943811, expected=   176.00000000

     total energy              =   -1539.07813829 Ry
     Harris-Foulkes estimate   =   -1539.07813844 Ry
     estimated scf accuracy    <       0.00000353 Ry

     iteration # 62     ecut=    80.00 Ry     beta= 0.60
     Davidson diagonalization with overlap
     c_bands:  2 eigenvalues not converged
     ethr =  2.00E-09,  avg # of iterations =  7.8

     total cpu time spent up to now is     5282.3 secs

     WARNING: integrated charge=   175.99971241, expected=   176.00000000

     total energy              =   -1539.07813826 Ry
     Harris-Foulkes estimate   =   -1539.07813886 Ry
     estimated scf accuracy    <       0.00001769 Ry

     iteration # 63     ecut=    80.00 Ry     beta= 0.60
     Davidson diagonalization with overlap
     c_bands:  2 eigenvalues not converged
     ethr =  2.00E-09,  avg # of iterations =  4.5

     total cpu time spent up to now is     5352.4 secs

     WARNING: integrated charge=   175.99974524, expected=   176.00000000

     total energy              =   -1539.07813810 Ry
     Harris-Foulkes estimate   =   -1539.07813843 Ry
     estimated scf accuracy    <       0.00000751 Ry

     iteration # 64     ecut=    80.00 Ry     beta= 0.60
     Davidson diagonalization with overlap
     c_bands:  2 eigenvalues not converged
     ethr =  2.00E-09,  avg # of iterations =  8.1

     total cpu time spent up to now is     5431.5 secs

     WARNING: integrated charge=   175.99980124, expected=   176.00000000

     total energy              =   -1539.07813819 Ry
     Harris-Foulkes estimate   =   -1539.07813842 Ry
     estimated scf accuracy    <       0.00000623 Ry

     iteration # 65     ecut=    80.00 Ry     beta= 0.60
     Davidson diagonalization with overlap
     c_bands:  2 eigenvalues not converged
     ethr =  2.00E-09,  avg # of iterations =  3.5

     total cpu time spent up to now is     5499.1 secs

     WARNING: integrated charge=   175.99978485, expected=   176.00000000

     total energy              =   -1539.07813824 Ry
     Harris-Foulkes estimate   =   -1539.07813834 Ry
     estimated scf accuracy    <       0.00000922 Ry

     iteration # 66     ecut=    80.00 Ry     beta= 0.60
     Davidson diagonalization with overlap
     c_bands:  2 eigenvalues not converged
     ethr =  2.00E-09,  avg # of iterations =  3.0

     total cpu time spent up to now is     5565.9 secs

     WARNING: integrated charge=   175.99967004, expected=   176.00000000

     total energy              =   -1539.07813798 Ry
     Harris-Foulkes estimate   =   -1539.07813836 Ry
     estimated scf accuracy    <       0.00000697 Ry

     iteration # 67     ecut=    80.00 Ry     beta= 0.60
     Davidson diagonalization with overlap
     c_bands:  2 eigenvalues not converged
     ethr =  2.00E-09,  avg # of iterations =  8.0

     total cpu time spent up to now is     5651.0 secs

     WARNING: integrated charge=   176.00040214, expected=   176.00000000

     total energy              =   -1539.07813831 Ry
     Harris-Foulkes estimate   =   -1539.07813876 Ry
     estimated scf accuracy    <       0.00002046 Ry

     iteration # 68     ecut=    80.00 Ry     beta= 0.60
     Davidson diagonalization with overlap
     c_bands:  2 eigenvalues not converged
     ethr =  2.00E-09,  avg # of iterations =  4.6

     total cpu time spent up to now is     5722.9 secs

     WARNING: integrated charge=   176.00036383, expected=   176.00000000

     total energy              =   -1539.07813800 Ry
     Harris-Foulkes estimate   =   -1539.07813915 Ry
     estimated scf accuracy    <       0.00002492 Ry

     iteration # 69     ecut=    80.00 Ry     beta= 0.60
     Davidson diagonalization with overlap
     c_bands:  2 eigenvalues not converged
     ethr =  2.00E-09,  avg # of iterations =  6.7

     total cpu time spent up to now is     5801.7 secs

     WARNING: integrated charge=   176.00029292, expected=   176.00000000

     total energy              =   -1539.07813830 Ry
     Harris-Foulkes estimate   =   -1539.07813839 Ry
     estimated scf accuracy    <       0.00000186 Ry

     iteration # 70     ecut=    80.00 Ry     beta= 0.60
     Davidson diagonalization with overlap
     c_bands:  1 eigenvalues not converged
     ethr =  1.06E-09,  avg # of iterations =  4.1

     total cpu time spent up to now is     5877.3 secs

     WARNING: integrated charge=   176.00044297, expected=   176.00000000

     total energy              =   -1539.07813798 Ry
     Harris-Foulkes estimate   =   -1539.07813875 Ry
     estimated scf accuracy    <       0.00005509 Ry

     iteration # 71     ecut=    80.00 Ry     beta= 0.60
     Davidson diagonalization with overlap
     ethr =  1.06E-09,  avg # of iterations =  3.7

     total cpu time spent up to now is     5951.5 secs

     WARNING: integrated charge=   176.00051555, expected=   176.00000000

     total energy              =   -1539.07813833 Ry
     Harris-Foulkes estimate   =   -1539.07813837 Ry
     estimated scf accuracy    <       0.00000066 Ry

     iteration # 72     ecut=    80.00 Ry     beta= 0.60
     Davidson diagonalization with overlap
     c_bands:  2 eigenvalues not converged
     ethr =  3.74E-10,  avg # of iterations =  7.8

     total cpu time spent up to now is     6030.3 secs

     WARNING: integrated charge=   176.00040151, expected=   176.00000000

     total energy              =   -1539.07813836 Ry
     Harris-Foulkes estimate   =   -1539.07813838 Ry
     estimated scf accuracy    <       0.00000053 Ry

     iteration # 73     ecut=    80.00 Ry     beta= 0.60
     Davidson diagonalization with overlap
     c_bands:  2 eigenvalues not converged
     ethr =  3.04E-10,  avg # of iterations =  2.9

     total cpu time spent up to now is     6096.1 secs

     WARNING: integrated charge=   176.00044896, expected=   176.00000000

     total energy              =   -1539.07813837 Ry
     Harris-Foulkes estimate   =   -1539.07813837 Ry
     estimated scf accuracy    <       0.00000029 Ry

     iteration # 74     ecut=    80.00 Ry     beta= 0.60
     Davidson diagonalization with overlap
     c_bands:  1 eigenvalues not converged
     ethr =  1.64E-10,  avg # of iterations =  6.0

     total cpu time spent up to now is     6171.7 secs

     WARNING: integrated charge=   176.00013829, expected=   176.00000000

     total energy              =   -1539.07813836 Ry
     Harris-Foulkes estimate   =   -1539.07813839 Ry
     estimated scf accuracy    <       0.00000095 Ry

     iteration # 75     ecut=    80.00 Ry     beta= 0.60
     Davidson diagonalization with overlap
     c_bands:  2 eigenvalues not converged
     ethr =  1.64E-10,  avg # of iterations =  7.8

     total cpu time spent up to now is     6260.6 secs

     WARNING: integrated charge=   176.00022257, expected=   176.00000000

     total energy              =   -1539.07813834 Ry
     Harris-Foulkes estimate   =   -1539.07813849 Ry
     estimated scf accuracy    <       0.00000947 Ry

     iteration # 76     ecut=    80.00 Ry     beta= 0.60
     Davidson diagonalization with overlap
     c_bands:  2 eigenvalues not converged
     ethr =  1.64E-10,  avg # of iterations =  4.0

     total cpu time spent up to now is     6335.9 secs

     WARNING: integrated charge=   176.00015542, expected=   176.00000000

     total energy              =   -1539.07813835 Ry
     Harris-Foulkes estimate   =   -1539.07813843 Ry
     estimated scf accuracy    <       0.00000216 Ry

     iteration # 77     ecut=    80.00 Ry     beta= 0.60
     Davidson diagonalization with overlap
     c_bands:  2 eigenvalues not converged
     ethr =  1.64E-10,  avg # of iterations =  8.0

     total cpu time spent up to now is     6415.3 secs

     WARNING: integrated charge=   176.00015875, expected=   176.00000000

     total energy              =   -1539.07813836 Ry
     Harris-Foulkes estimate   =   -1539.07813838 Ry
     estimated scf accuracy    <       0.00000021 Ry

     iteration # 78     ecut=    80.00 Ry     beta= 0.60
     Davidson diagonalization with overlap
     c_bands:  2 eigenvalues not converged
     ethr =  1.17E-10,  avg # of iterations =  8.2

     total cpu time spent up to now is     6497.5 secs

     WARNING: integrated charge=   176.00009825, expected=   176.00000000

     total energy              =   -1539.07813837 Ry
     Harris-Foulkes estimate   =   -1539.07813838 Ry
     estimated scf accuracy    <       0.00000083 Ry

     iteration # 79     ecut=    80.00 Ry     beta= 0.60
     Davidson diagonalization with overlap
     c_bands:  2 eigenvalues not converged
     ethr =  1.17E-10,  avg # of iterations =  3.0

     total cpu time spent up to now is     6564.9 secs

     End of self-consistent calculation

          k = 0.0000 0.0000 0.0000 ( 78833 PWs)   bands (ev):

   -29.0413 -29.0413 -29.0412 -29.0412 -28.9391 -28.9391 -28.9390 -28.9390
   -20.9200 -20.9200 -20.9199 -20.9199 -20.4259 -20.4259 -20.4258 -20.4258
   -19.5964 -19.5964 -19.5963 -19.5963 -18.8731 -18.8731 -18.8730 -18.8730
   -17.3189 -17.3189 -17.3150 -17.3150 -16.9670 -16.9670 -16.9666 -16.9666
   -16.9014 -16.9014 -16.9010 -16.9010 -16.8305 -16.8305 -16.8305 -16.8305
   -16.6675 -16.6675 -16.6674 -16.6674 -16.0480 -16.0480 -16.0470 -16.0470
   -15.9575 -15.9575 -15.9571 -15.9571 -15.8404 -15.8404 -15.8403 -15.8403
   -15.7572 -15.7572 -15.7571 -15.7571 -15.5886 -15.5886 -15.5871 -15.5871
   -15.5048 -15.5048 -15.4998 -15.4998 -14.4690 -14.4690 -14.4689 -14.4689
   -14.2189 -14.2189 -14.2188 -14.2188 -11.8661 -11.8661 -11.8641 -11.8641
   -11.5332 -11.5332 -11.5316 -11.5316  -6.6255  -6.6255  -6.6249  -6.6249
    -6.6080  -6.6080  -6.6079  -6.6079  -5.5685  -5.5685  -5.5619  -5.5619
    -5.2996  -5.2996  -5.2918  -5.2918  -4.3699  -4.3699  -4.3693  -4.3693
    -4.3216  -4.3216  -4.3208  -4.3208  -3.6465  -3.6465  -3.6460  -3.6460
    -3.5039  -3.5039  -3.4345  -3.4345  -3.0141  -3.0141  -3.0136  -3.0136
    -2.2981  -2.2981  -2.2910  -2.2910  -2.1443  -2.1443  -2.1372  -2.1372
    -2.0018  -2.0018  -1.9943  -1.9943  -0.6147  -0.6147  -0.6105  -0.6105
    -0.1415  -0.1415  -0.1345  -0.1345   0.1373   0.1373   0.2037   0.2037
     0.2145   0.2145   0.8596   0.8596   2.4299   2.4299   2.6627   2.6627
     3.8339   3.8339   3.8994   3.8994   3.9319   3.9319   3.9655   3.9655
     3.9836   3.9836   3.9956   3.9956   4.1879   4.1879   4.2185   4.2185
     4.6403   4.6403   4.6839   4.6839   5.1636   5.1636   5.4088   5.4088

     occupation numbers 
     1.0000   1.0000   1.0000   1.0000   1.0000   1.0000   1.0000   1.0000
     1.0000   1.0000   1.0000   1.0000   1.0000   1.0000   1.0000   1.0000
     1.0000   1.0000   1.0000   1.0000   1.0000   1.0000   1.0000   1.0000
     1.0000   1.0000   1.0000   1.0000   1.0000   1.0000   1.0000   1.0000
     1.0000   1.0000   1.0000   1.0000   1.0000   1.0000   1.0000   1.0000
     1.0000   1.0000   1.0000   1.0000   1.0000   1.0000   1.0000   1.0000
     1.0000   1.0000   1.0000   1.0000   1.0000   1.0000   1.0000   1.0000
     1.0000   1.0000   1.0000   1.0000   1.0000   1.0000   1.0000   1.0000
     1.0000   1.0000   1.0000   1.0000   1.0000   1.0000   1.0000   1.0000
     1.0000   1.0000   1.0000   1.0000   1.0000   1.0000   1.0000   1.0000
     1.0000   1.0000   1.0000   1.0000   1.0000   1.0000   1.0000   1.0000
     1.0000   1.0000   1.0000   1.0000   1.0000   1.0000   1.0000   1.0000
     1.0000   1.0000   1.0000   1.0000   1.0000   1.0000   1.0000   1.0000
     1.0000   1.0000   1.0000   1.0000   1.0000   1.0000   1.0000   1.0000
     1.0000   1.0000   1.0000   1.0000   1.0000   1.0000   1.0000   1.0000
     1.0000   1.0000   1.0000   1.0000   1.0000   1.0000   1.0000   1.0000
     1.0000   1.0000   1.0000   1.0000   1.0000   1.0000   1.0000   1.0000
     1.0000   1.0000   1.0000   1.0000   1.0000   1.0000   1.0000   1.0000
     1.0000   1.0000   1.0000   1.0000   1.0000   1.0000   1.0000   1.0000
     1.0000   1.0000   1.0000   1.0000   1.0000   1.0000   1.0000   1.0000
     1.0000   1.0000   1.0000   1.0000   1.0000   1.0000   1.0000   1.0000
     1.0000   1.0000   1.0000   1.0000   1.0000   1.0000   1.0000   1.0000

          k = 0.0000 0.0000-0.3497 ( 78742 PWs)   bands (ev):

   -29.0413 -29.0413 -29.0412 -29.0412 -28.9391 -28.9391 -28.9390 -28.9390
   -20.9200 -20.9200 -20.9199 -20.9199 -20.4259 -20.4259 -20.4258 -20.4258
   -19.5964 -19.5964 -19.5963 -19.5963 -18.8731 -18.8731 -18.8730 -18.8730
   -17.3170 -17.3170 -17.3170 -17.3170 -16.9668 -16.9668 -16.9668 -16.9668
   -16.9012 -16.9012 -16.9012 -16.9012 -16.8305 -16.8305 -16.8305 -16.8305
   -16.6675 -16.6675 -16.6674 -16.6674 -16.0475 -16.0475 -16.0475 -16.0475
   -15.9573 -15.9573 -15.9573 -15.9573 -15.8404 -15.8404 -15.8404 -15.8404
   -15.7572 -15.7572 -15.7572 -15.7572 -15.5878 -15.5878 -15.5878 -15.5878
   -15.5023 -15.5023 -15.5023 -15.5023 -14.4690 -14.4690 -14.4689 -14.4689
   -14.2189 -14.2189 -14.2188 -14.2188 -11.8651 -11.8651 -11.8650 -11.8650
   -11.5324 -11.5324 -11.5323 -11.5323  -6.6252  -6.6252  -6.6252  -6.6252
    -6.6080  -6.6080  -6.6079  -6.6079  -5.5653  -5.5653  -5.5652  -5.5652
    -5.2957  -5.2957  -5.2957  -5.2957  -4.3696  -4.3696  -4.3695  -4.3695
    -4.3213  -4.3213  -4.3212  -4.3212  -3.6463  -3.6463  -3.6462  -3.6462
    -3.4701  -3.4701  -3.4701  -3.4701  -3.0139  -3.0139  -3.0138  -3.0138
    -2.2949  -2.2949  -2.2948  -2.2948  -2.1408  -2.1408  -2.1407  -2.1407
    -1.9981  -1.9981  -1.9980  -1.9980  -0.6127  -0.6127  -0.6126  -0.6126
    -0.1380  -0.1380  -0.1380  -0.1380   0.2018   0.2018   0.2019   0.2019
     0.4534   0.4534   0.4535   0.4535   2.5915   2.5915   2.5916   2.5916
     3.9325   3.9325   3.9325   3.9325   3.9538   3.9538   3.9539   3.9539
     4.1935   4.1935   4.1935   4.1935   4.2044   4.2044   4.2044   4.2044
     4.6119   4.6119   4.6119   4.6119   4.9055   4.9055   4.9056   4.9056

     occupation numbers 
     1.0000   1.0000   1.0000   1.0000   1.0000   1.0000   1.0000   1.0000
     1.0000   1.0000   1.0000   1.0000   1.0000   1.0000   1.0000   1.0000
     1.0000   1.0000   1.0000   1.0000   1.0000   1.0000   1.0000   1.0000
     1.0000   1.0000   1.0000   1.0000   1.0000   1.0000   1.0000   1.0000
     1.0000   1.0000   1.0000   1.0000   1.0000   1.0000   1.0000   1.0000
     1.0000   1.0000   1.0000   1.0000   1.0000   1.0000   1.0000   1.0000
     1.0000   1.0000   1.0000   1.0000   1.0000   1.0000   1.0000   1.0000
     1.0000   1.0000   1.0000   1.0000   1.0000   1.0000   1.0000   1.0000
     1.0000   1.0000   1.0000   1.0000   1.0000   1.0000   1.0000   1.0000
     1.0000   1.0000   1.0000   1.0000   1.0000   1.0000   1.0000   1.0000
     1.0000   1.0000   1.0000   1.0000   1.0000   1.0000   1.0000   1.0000
     1.0000   1.0000   1.0000   1.0000   1.0000   1.0000   1.0000   1.0000
     1.0000   1.0000   1.0000   1.0000   1.0000   1.0000   1.0000   1.0000
     1.0000   1.0000   1.0000   1.0000   1.0000   1.0000   1.0000   1.0000
     1.0000   1.0000   1.0000   1.0000   1.0000   1.0000   1.0000   1.0000
     1.0000   1.0000   1.0000   1.0000   1.0000   1.0000   1.0000   1.0000
     1.0000   1.0000   1.0000   1.0000   1.0000   1.0000   1.0000   1.0000
     1.0000   1.0000   1.0000   1.0000   1.0000   1.0000   1.0000   1.0000
     1.0000   1.0000   1.0000   1.0000   1.0000   1.0000   1.0000   1.0000
     1.0000   1.0000   1.0000   1.0000   1.0000   1.0000   1.0000   1.0000
     1.0000   1.0000   1.0000   1.0000   1.0000   1.0000   1.0000   1.0000
     1.0000   1.0000   1.0000   1.0000   1.0000   1.0000   1.0000   1.0000

          k = 0.0000 0.2887 0.0000 ( 78803 PWs)   bands (ev):

   -29.0286 -29.0286 -29.0286 -29.0286 -28.9525 -28.9525 -28.9524 -28.9524
   -20.8442 -20.8442 -20.8441 -20.8441 -20.4171 -20.4171 -20.4170 -20.4170
   -19.6664 -19.6664 -19.6663 -19.6663 -19.0391 -19.0391 -19.0390 -19.0390
   -17.3189 -17.3189 -17.3150 -17.3150 -16.9670 -16.9670 -16.9666 -16.9666
   -16.9014 -16.9014 -16.9010 -16.9010 -16.8305 -16.8305 -16.8305 -16.8305
   -16.2886 -16.2886 -16.2884 -16.2884 -16.0480 -16.0480 -16.0470 -16.0470
   -15.9575 -15.9575 -15.9571 -15.9571 -15.8404 -15.8404 -15.8403 -15.8403
   -15.7572 -15.7572 -15.7571 -15.7571 -15.5886 -15.5886 -15.5871 -15.5871
   -15.5048 -15.5048 -15.4998 -15.4998 -14.6459 -14.6459 -14.6458 -14.6458
   -14.3170 -14.3170 -14.3169 -14.3169 -11.8271 -11.8271 -11.8252 -11.8252
   -11.5799 -11.5799 -11.5782 -11.5782  -6.4788  -6.4788  -6.4781  -6.4781
    -6.3986  -6.3986  -6.3983  -6.3983  -5.5373  -5.5373  -5.5317  -5.5317
    -5.1854  -5.1854  -5.1780  -5.1780  -4.7751  -4.7751  -4.7732  -4.7732
    -4.5286  -4.5286  -4.5283  -4.5283  -3.5024  -3.5024  -3.4909  -3.4909
    -3.4520  -3.4520  -3.4000  -3.4000  -3.2697  -3.2697  -3.2694  -3.2694
    -2.9153  -2.9153  -2.9147  -2.9147  -2.0877  -2.0877  -2.0808  -2.0808
    -0.9481  -0.9481  -0.9415  -0.9415  -0.8095  -0.8095  -0.8087  -0.8087
    -0.3725  -0.3725  -0.3689  -0.3689   0.1696   0.1696   0.8526   0.8526
     0.9118   0.9118   0.9171   0.9171   2.7176   2.7176   2.8933   2.8933
     2.9362   2.9362   2.9698   2.9698   3.7018   3.7018   3.8908   3.8908
     3.9685   3.9685   3.9865   3.9865   4.2224   4.2224   4.2467   4.2467
     4.5626   4.5626   4.6641   4.6641   4.9217   4.9217   5.0787   5.0787

     occupation numbers 
     1.0000   1.0000   1.0000   1.0000   1.0000   1.0000   1.0000   1.0000
     1.0000   1.0000   1.0000   1.0000   1.0000   1.0000   1.0000   1.0000
     1.0000   1.0000   1.0000   1.0000   1.0000   1.0000   1.0000   1.0000
     1.0000   1.0000   1.0000   1.0000   1.0000   1.0000   1.0000   1.0000
     1.0000   1.0000   1.0000   1.0000   1.0000   1.0000   1.0000   1.0000
     1.0000   1.0000   1.0000   1.0000   1.0000   1.0000   1.0000   1.0000
     1.0000   1.0000   1.0000   1.0000   1.0000   1.0000   1.0000   1.0000
     1.0000   1.0000   1.0000   1.0000   1.0000   1.0000   1.0000   1.0000
     1.0000   1.0000   1.0000   1.0000   1.0000   1.0000   1.0000   1.0000
     1.0000   1.0000   1.0000   1.0000   1.0000   1.0000   1.0000   1.0000
     1.0000   1.0000   1.0000   1.0000   1.0000   1.0000   1.0000   1.0000
     1.0000   1.0000   1.0000   1.0000   1.0000   1.0000   1.0000   1.0000
     1.0000   1.0000   1.0000   1.0000   1.0000   1.0000   1.0000   1.0000
     1.0000   1.0000   1.0000   1.0000   1.0000   1.0000   1.0000   1.0000
     1.0000   1.0000   1.0000   1.0000   1.0000   1.0000   1.0000   1.0000
     1.0000   1.0000   1.0000   1.0000   1.0000   1.0000   1.0000   1.0000
     1.0000   1.0000   1.0000   1.0000   1.0000   1.0000   1.0000   1.0000
     1.0000   1.0000   1.0000   1.0000   1.0000   1.0000   1.0000   1.0000
     1.0000   1.0000   1.0000   1.0000   1.0000   1.0000   1.0000   1.0000
     1.0000   1.0000   1.0000   1.0000   1.0000   1.0000   1.0000   1.0000
     1.0000   1.0000   1.0000   1.0000   1.0000   1.0000   1.0000   1.0000
     1.0000   1.0000   1.0000   1.0000   1.0000   1.0000   1.0000   1.0000

          k = 0.0000 0.2887-0.3497 ( 78840 PWs)   bands (ev):

   -29.0286 -29.0286 -29.0286 -29.0286 -28.9525 -28.9525 -28.9524 -28.9524
   -20.8441 -20.8441 -20.8441 -20.8441 -20.4171 -20.4171 -20.4170 -20.4170
   -19.6664 -19.6664 -19.6663 -19.6663 -19.0391 -19.0391 -19.0390 -19.0390
   -17.3170 -17.3170 -17.3170 -17.3170 -16.9668 -16.9668 -16.9668 -16.9668
   -16.9012 -16.9012 -16.9012 -16.9012 -16.8305 -16.8305 -16.8305 -16.8305
   -16.2886 -16.2886 -16.2885 -16.2885 -16.0475 -16.0475 -16.0475 -16.0475
   -15.9573 -15.9573 -15.9573 -15.9573 -15.8404 -15.8404 -15.8404 -15.8404
   -15.7572 -15.7572 -15.7572 -15.7572 -15.5878 -15.5878 -15.5878 -15.5878
   -15.5023 -15.5023 -15.5023 -15.5023 -14.6459 -14.6459 -14.6458 -14.6458
   -14.3170 -14.3170 -14.3169 -14.3169 -11.8262 -11.8262 -11.8261 -11.8261
   -11.5791 -11.5791 -11.5790 -11.5790  -6.4785  -6.4785  -6.4784  -6.4784
    -6.3985  -6.3985  -6.3984  -6.3984  -5.5346  -5.5346  -5.5345  -5.5345
    -5.1817  -5.1817  -5.1816  -5.1816  -4.7742  -4.7742  -4.7741  -4.7741
    -4.5285  -4.5285  -4.5284  -4.5284  -3.4925  -3.4925  -3.4925  -3.4925
    -3.4312  -3.4312  -3.4311  -3.4311  -3.2695  -3.2695  -3.2694  -3.2694
    -2.9151  -2.9151  -2.9150  -2.9150  -2.0843  -2.0843  -2.0842  -2.0842
    -0.9449  -0.9449  -0.9448  -0.9448  -0.8092  -0.8092  -0.8091  -0.8091
    -0.3707  -0.3707  -0.3706  -0.3706   0.4636   0.4636   0.4636   0.4636
     0.9143   0.9143   0.9144   0.9144   2.8770   2.8770   2.8771   2.8771
     2.9272   2.9272   2.9273   2.9273   3.8449   3.8449   3.8449   3.8449
     4.0756   4.0756   4.0757   4.0757   4.3718   4.3718   4.3719   4.3719
     4.5882   4.5882   4.5882   4.5882   4.7875   4.7875   4.7876   4.7876

     occupation numbers 
     1.0000   1.0000   1.0000   1.0000   1.0000   1.0000   1.0000   1.0000
     1.0000   1.0000   1.0000   1.0000   1.0000   1.0000   1.0000   1.0000
     1.0000   1.0000   1.0000   1.0000   1.0000   1.0000   1.0000   1.0000
     1.0000   1.0000   1.0000   1.0000   1.0000   1.0000   1.0000   1.0000
     1.0000   1.0000   1.0000   1.0000   1.0000   1.0000   1.0000   1.0000
     1.0000   1.0000   1.0000   1.0000   1.0000   1.0000   1.0000   1.0000
     1.0000   1.0000   1.0000   1.0000   1.0000   1.0000   1.0000   1.0000
     1.0000   1.0000   1.0000   1.0000   1.0000   1.0000   1.0000   1.0000
     1.0000   1.0000   1.0000   1.0000   1.0000   1.0000   1.0000   1.0000
     1.0000   1.0000   1.0000   1.0000   1.0000   1.0000   1.0000   1.0000
     1.0000   1.0000   1.0000   1.0000   1.0000   1.0000   1.0000   1.0000
     1.0000   1.0000   1.0000   1.0000   1.0000   1.0000   1.0000   1.0000
     1.0000   1.0000   1.0000   1.0000   1.0000   1.0000   1.0000   1.0000
     1.0000   1.0000   1.0000   1.0000   1.0000   1.0000   1.0000   1.0000
     1.0000   1.0000   1.0000   1.0000   1.0000   1.0000   1.0000   1.0000
     1.0000   1.0000   1.0000   1.0000   1.0000   1.0000   1.0000   1.0000
     1.0000   1.0000   1.0000   1.0000   1.0000   1.0000   1.0000   1.0000
     1.0000   1.0000   1.0000   1.0000   1.0000   1.0000   1.0000   1.0000
     1.0000   1.0000   1.0000   1.0000   1.0000   1.0000   1.0000   1.0000
     1.0000   1.0000   1.0000   1.0000   1.0000   1.0000   1.0000   1.0000
     1.0000   1.0000   1.0000   1.0000   1.0000   1.0000   1.0000   1.0000
     1.0000   1.0000   1.0000   1.0000   1.0000   1.0000   1.0000   1.0000

          k = 0.0000-0.5774 0.0000 ( 78826 PWs)   bands (ev):

   -29.0080 -29.0080 -29.0079 -29.0079 -28.9740 -28.9740 -28.9739 -28.9739
   -20.7559 -20.7559 -20.7558 -20.7558 -20.3949 -20.3949 -20.3948 -20.3948
   -19.7861 -19.7861 -19.7860 -19.7860 -19.1535 -19.1535 -19.1534 -19.1534
   -17.3189 -17.3189 -17.3150 -17.3150 -16.9670 -16.9670 -16.9666 -16.9666
   -16.9014 -16.9014 -16.9010 -16.9010 -16.8305 -16.8305 -16.8305 -16.8305
   -16.0480 -16.0480 -16.0470 -16.0470 -15.9575 -15.9575 -15.9571 -15.9571
   -15.8404 -15.8404 -15.8403 -15.8403 -15.7716 -15.7716 -15.7715 -15.7715
   -15.7572 -15.7572 -15.7571 -15.7571 -15.5886 -15.5886 -15.5871 -15.5871
   -15.5048 -15.5048 -15.4998 -15.4998 -15.0448 -15.0448 -15.0446 -15.0446
   -14.3578 -14.3578 -14.3577 -14.3577 -11.7630 -11.7630 -11.7611 -11.7611
   -11.6515 -11.6515 -11.6497 -11.6497  -6.3193  -6.3193  -6.3183  -6.3183
    -5.9856  -5.9856  -5.9848  -5.9848  -5.6810  -5.6810  -5.6809  -5.6809
    -5.2569  -5.2569  -5.2503  -5.2503  -4.8851  -4.8851  -4.8814  -4.8814
    -4.5957  -4.5957  -4.5913  -4.5913  -4.1241  -4.1241  -4.1157  -4.1157
    -3.5011  -3.5011  -3.4299  -3.4299  -3.0184  -3.0184  -3.0171  -3.0171
    -2.9092  -2.9092  -2.9085  -2.9085  -2.1139  -2.1139  -2.1075  -2.1075
    -1.1210  -1.1210  -1.1208  -1.1208  -0.6052  -0.6052  -0.6023  -0.6023
     0.1840   0.1840   0.2704   0.2704   0.2802   0.2802   0.8470   0.8470
     1.4490   1.4490   1.4525   1.4525   1.8420   1.8420   1.8688   1.8688
     3.2523   3.2523   3.3938   3.3938   3.5184   3.5184   3.8148   3.8148
     3.9555   3.9555   4.0049   4.0049   4.0340   4.0340   4.2053   4.2053
     4.2861   4.2861   4.3567   4.3567   4.7249   4.7249   4.7670   4.7670

     occupation numbers 
     1.0000   1.0000   1.0000   1.0000   1.0000   1.0000   1.0000   1.0000
     1.0000   1.0000   1.0000   1.0000   1.0000   1.0000   1.0000   1.0000
     1.0000   1.0000   1.0000   1.0000   1.0000   1.0000   1.0000   1.0000
     1.0000   1.0000   1.0000   1.0000   1.0000   1.0000   1.0000   1.0000
     1.0000   1.0000   1.0000   1.0000   1.0000   1.0000   1.0000   1.0000
     1.0000   1.0000   1.0000   1.0000   1.0000   1.0000   1.0000   1.0000
     1.0000   1.0000   1.0000   1.0000   1.0000   1.0000   1.0000   1.0000
     1.0000   1.0000   1.0000   1.0000   1.0000   1.0000   1.0000   1.0000
     1.0000   1.0000   1.0000   1.0000   1.0000   1.0000   1.0000   1.0000
     1.0000   1.0000   1.0000   1.0000   1.0000   1.0000   1.0000   1.0000
     1.0000   1.0000   1.0000   1.0000   1.0000   1.0000   1.0000   1.0000
     1.0000   1.0000   1.0000   1.0000   1.0000   1.0000   1.0000   1.0000
     1.0000   1.0000   1.0000   1.0000   1.0000   1.0000   1.0000   1.0000
     1.0000   1.0000   1.0000   1.0000   1.0000   1.0000   1.0000   1.0000
     1.0000   1.0000   1.0000   1.0000   1.0000   1.0000   1.0000   1.0000
     1.0000   1.0000   1.0000   1.0000   1.0000   1.0000   1.0000   1.0000
     1.0000   1.0000   1.0000   1.0000   1.0000   1.0000   1.0000   1.0000
     1.0000   1.0000   1.0000   1.0000   1.0000   1.0000   1.0000   1.0000
     1.0000   1.0000   1.0000   1.0000   1.0000   1.0000   1.0000   1.0000
     1.0000   1.0000   1.0000   1.0000   1.0000   1.0000   1.0000   1.0000
     1.0000   1.0000   1.0000   1.0000   1.0000   1.0000   1.0000   1.0000
     1.0000   1.0000   1.0000   1.0000   1.0000   1.0000   1.0000   1.0000

          k = 0.0000-0.5774-0.3497 ( 78848 PWs)   bands (ev):

   -29.0080 -29.0080 -29.0079 -29.0079 -28.9740 -28.9740 -28.9739 -28.9739
   -20.7559 -20.7559 -20.7558 -20.7558 -20.3949 -20.3949 -20.3948 -20.3948
   -19.7861 -19.7861 -19.7860 -19.7860 -19.1535 -19.1535 -19.1534 -19.1534
   -17.3170 -17.3170 -17.3170 -17.3170 -16.9668 -16.9668 -16.9668 -16.9668
   -16.9012 -16.9012 -16.9012 -16.9012 -16.8305 -16.8305 -16.8305 -16.8305
   -16.0475 -16.0475 -16.0475 -16.0475 -15.9573 -15.9573 -15.9573 -15.9573
   -15.8404 -15.8404 -15.8404 -15.8404 -15.7716 -15.7716 -15.7715 -15.7715
   -15.7572 -15.7572 -15.7572 -15.7572 -15.5878 -15.5878 -15.5878 -15.5878
   -15.5023 -15.5023 -15.5023 -15.5023 -15.0448 -15.0448 -15.0447 -15.0447
   -14.3578 -14.3578 -14.3577 -14.3577 -11.7621 -11.7621 -11.7620 -11.7620
   -11.6507 -11.6507 -11.6506 -11.6506  -6.3189  -6.3189  -6.3188  -6.3188
    -5.9853  -5.9853  -5.9852  -5.9852  -5.6810  -5.6810  -5.6809  -5.6809
    -5.2537  -5.2537  -5.2536  -5.2536  -4.8833  -4.8833  -4.8832  -4.8832
    -4.5936  -4.5936  -4.5935  -4.5935  -4.1199  -4.1199  -4.1198  -4.1198
    -3.4666  -3.4666  -3.4666  -3.4666  -3.0176  -3.0176  -3.0175  -3.0175
    -2.9089  -2.9089  -2.9088  -2.9088  -2.1107  -2.1107  -2.1106  -2.1106
    -1.1210  -1.1210  -1.1209  -1.1209  -0.6038  -0.6038  -0.6037  -0.6037
     0.2700   0.2700   0.2701   0.2701   0.4781   0.4781   0.4781   0.4781
     1.4506   1.4506   1.4507   1.4507   1.8550   1.8550   1.8551   1.8551
     3.4548   3.4548   3.4549   3.4549   3.5964   3.5964   3.5964   3.5964
     3.9385   3.9385   3.9386   3.9386   4.3369   4.3369   4.3369   4.3369
     4.5260   4.5260   4.5260   4.5260   4.6266   4.6266   4.6266   4.6266

     occupation numbers 
     1.0000   1.0000   1.0000   1.0000   1.0000   1.0000   1.0000   1.0000
     1.0000   1.0000   1.0000   1.0000   1.0000   1.0000   1.0000   1.0000
     1.0000   1.0000   1.0000   1.0000   1.0000   1.0000   1.0000   1.0000
     1.0000   1.0000   1.0000   1.0000   1.0000   1.0000   1.0000   1.0000
     1.0000   1.0000   1.0000   1.0000   1.0000   1.0000   1.0000   1.0000
     1.0000   1.0000   1.0000   1.0000   1.0000   1.0000   1.0000   1.0000
     1.0000   1.0000   1.0000   1.0000   1.0000   1.0000   1.0000   1.0000
     1.0000   1.0000   1.0000   1.0000   1.0000   1.0000   1.0000   1.0000
     1.0000   1.0000   1.0000   1.0000   1.0000   1.0000   1.0000   1.0000
     1.0000   1.0000   1.0000   1.0000   1.0000   1.0000   1.0000   1.0000
     1.0000   1.0000   1.0000   1.0000   1.0000   1.0000   1.0000   1.0000
     1.0000   1.0000   1.0000   1.0000   1.0000   1.0000   1.0000   1.0000
     1.0000   1.0000   1.0000   1.0000   1.0000   1.0000   1.0000   1.0000
     1.0000   1.0000   1.0000   1.0000   1.0000   1.0000   1.0000   1.0000
     1.0000   1.0000   1.0000   1.0000   1.0000   1.0000   1.0000   1.0000
     1.0000   1.0000   1.0000   1.0000   1.0000   1.0000   1.0000   1.0000
     1.0000   1.0000   1.0000   1.0000   1.0000   1.0000   1.0000   1.0000
     1.0000   1.0000   1.0000   1.0000   1.0000   1.0000   1.0000   1.0000
     1.0000   1.0000   1.0000   1.0000   1.0000   1.0000   1.0000   1.0000
     1.0000   1.0000   1.0000   1.0000   1.0000   1.0000   1.0000   1.0000
     1.0000   1.0000   1.0000   1.0000   1.0000   1.0000   1.0000   1.0000
     1.0000   1.0000   1.0000   1.0000   1.0000   1.0000   1.0000   1.0000

          k = 0.2500 0.1443 0.0000 ( 78803 PWs)   bands (ev):

   -29.0286 -29.0286 -29.0286 -29.0286 -28.9525 -28.9525 -28.9524 -28.9524
   -20.8442 -20.8442 -20.8441 -20.8441 -20.4171 -20.4171 -20.4170 -20.4170
   -19.6664 -19.6664 -19.6663 -19.6663 -19.0391 -19.0391 -19.0390 -19.0390
   -17.3189 -17.3189 -17.3150 -17.3150 -16.9670 -16.9670 -16.9666 -16.9666
   -16.9014 -16.9014 -16.9010 -16.9010 -16.8305 -16.8305 -16.8305 -16.8305
   -16.2886 -16.2886 -16.2884 -16.2884 -16.0480 -16.0480 -16.0470 -16.0470
   -15.9575 -15.9575 -15.9571 -15.9571 -15.8404 -15.8404 -15.8403 -15.8403
   -15.7572 -15.7572 -15.7571 -15.7571 -15.5886 -15.5886 -15.5871 -15.5871
   -15.5048 -15.5048 -15.4998 -15.4998 -14.6459 -14.6459 -14.6458 -14.6458
   -14.3170 -14.3170 -14.3169 -14.3169 -11.8271 -11.8271 -11.8252 -11.8252
   -11.5799 -11.5799 -11.5782 -11.5782  -6.4788  -6.4788  -6.4782  -6.4782
    -6.3985  -6.3985  -6.3983  -6.3983  -5.5373  -5.5373  -5.5317  -5.5317
    -5.1854  -5.1854  -5.1780  -5.1780  -4.7751  -4.7751  -4.7732  -4.7732
    -4.5286  -4.5286  -4.5283  -4.5283  -3.5024  -3.5024  -3.4909  -3.4909
    -3.4520  -3.4520  -3.4000  -3.4000  -3.2697  -3.2697  -3.2694  -3.2694
    -2.9153  -2.9153  -2.9147  -2.9147  -2.0877  -2.0877  -2.0808  -2.0808
    -0.9481  -0.9481  -0.9415  -0.9415  -0.8095  -0.8095  -0.8087  -0.8087
    -0.3725  -0.3725  -0.3689  -0.3689   0.1696   0.1696   0.8526   0.8526
     0.9118   0.9118   0.9171   0.9171   2.7176   2.7176   2.8933   2.8933
     2.9362   2.9362   2.9698   2.9698   3.7018   3.7018   3.8908   3.8908
     3.9685   3.9685   3.9865   3.9865   4.2224   4.2224   4.2467   4.2467
     4.5626   4.5626   4.6641   4.6641   4.9217   4.9217   5.0787   5.0787

     occupation numbers 
     1.0000   1.0000   1.0000   1.0000   1.0000   1.0000   1.0000   1.0000
     1.0000   1.0000   1.0000   1.0000   1.0000   1.0000   1.0000   1.0000
     1.0000   1.0000   1.0000   1.0000   1.0000   1.0000   1.0000   1.0000
     1.0000   1.0000   1.0000   1.0000   1.0000   1.0000   1.0000   1.0000
     1.0000   1.0000   1.0000   1.0000   1.0000   1.0000   1.0000   1.0000
     1.0000   1.0000   1.0000   1.0000   1.0000   1.0000   1.0000   1.0000
     1.0000   1.0000   1.0000   1.0000   1.0000   1.0000   1.0000   1.0000
     1.0000   1.0000   1.0000   1.0000   1.0000   1.0000   1.0000   1.0000
     1.0000   1.0000   1.0000   1.0000   1.0000   1.0000   1.0000   1.0000
     1.0000   1.0000   1.0000   1.0000   1.0000   1.0000   1.0000   1.0000
     1.0000   1.0000   1.0000   1.0000   1.0000   1.0000   1.0000   1.0000
     1.0000   1.0000   1.0000   1.0000   1.0000   1.0000   1.0000   1.0000
     1.0000   1.0000   1.0000   1.0000   1.0000   1.0000   1.0000   1.0000
     1.0000   1.0000   1.0000   1.0000   1.0000   1.0000   1.0000   1.0000
     1.0000   1.0000   1.0000   1.0000   1.0000   1.0000   1.0000   1.0000
     1.0000   1.0000   1.0000   1.0000   1.0000   1.0000   1.0000   1.0000
     1.0000   1.0000   1.0000   1.0000   1.0000   1.0000   1.0000   1.0000
     1.0000   1.0000   1.0000   1.0000   1.0000   1.0000   1.0000   1.0000
     1.0000   1.0000   1.0000   1.0000   1.0000   1.0000   1.0000   1.0000
     1.0000   1.0000   1.0000   1.0000   1.0000   1.0000   1.0000   1.0000
     1.0000   1.0000   1.0000   1.0000   1.0000   1.0000   1.0000   1.0000
     1.0000   1.0000   1.0000   1.0000   1.0000   1.0000   1.0000   1.0000

          k = 0.2500 0.1443-0.3497 ( 78840 PWs)   bands (ev):

   -29.0286 -29.0286 -29.0286 -29.0286 -28.9525 -28.9525 -28.9524 -28.9524
   -20.8442 -20.8442 -20.8441 -20.8441 -20.4171 -20.4171 -20.4170 -20.4170
   -19.6664 -19.6664 -19.6663 -19.6663 -19.0391 -19.0391 -19.0390 -19.0390
   -17.3170 -17.3170 -17.3170 -17.3170 -16.9668 -16.9668 -16.9668 -16.9668
   -16.9012 -16.9012 -16.9012 -16.9012 -16.8305 -16.8305 -16.8305 -16.8305
   -16.2886 -16.2886 -16.2885 -16.2885 -16.0475 -16.0475 -16.0475 -16.0475
   -15.9573 -15.9573 -15.9573 -15.9573 -15.8404 -15.8404 -15.8404 -15.8404
   -15.7572 -15.7572 -15.7572 -15.7572 -15.5878 -15.5878 -15.5878 -15.5878
   -15.5023 -15.5023 -15.5023 -15.5023 -14.6459 -14.6459 -14.6458 -14.6458
   -14.3170 -14.3170 -14.3169 -14.3169 -11.8262 -11.8262 -11.8261 -11.8261
   -11.5791 -11.5791 -11.5790 -11.5790  -6.4785  -6.4785  -6.4784  -6.4784
    -6.3985  -6.3985  -6.3984  -6.3984  -5.5346  -5.5346  -5.5345  -5.5345
    -5.1817  -5.1817  -5.1816  -5.1816  -4.7742  -4.7742  -4.7741  -4.7741
    -4.5285  -4.5285  -4.5284  -4.5284  -3.4925  -3.4925  -3.4925  -3.4925
    -3.4312  -3.4312  -3.4311  -3.4311  -3.2695  -3.2695  -3.2694  -3.2694
    -2.9151  -2.9151  -2.9150  -2.9150  -2.0843  -2.0843  -2.0842  -2.0842
    -0.9449  -0.9449  -0.9448  -0.9448  -0.8092  -0.8092  -0.8091  -0.8091
    -0.3707  -0.3707  -0.3706  -0.3706   0.4636   0.4636   0.4636   0.4636
     0.9143   0.9143   0.9144   0.9144   2.8770   2.8770   2.8771   2.8771
     2.9272   2.9272   2.9273   2.9273   3.8449   3.8449   3.8449   3.8449
     4.0756   4.0756   4.0757   4.0757   4.3718   4.3718   4.3719   4.3719
     4.5882   4.5882   4.5882   4.5882   4.7875   4.7875   4.7876   4.7876

     occupation numbers 
     1.0000   1.0000   1.0000   1.0000   1.0000   1.0000   1.0000   1.0000
     1.0000   1.0000   1.0000   1.0000   1.0000   1.0000   1.0000   1.0000
     1.0000   1.0000   1.0000   1.0000   1.0000   1.0000   1.0000   1.0000
     1.0000   1.0000   1.0000   1.0000   1.0000   1.0000   1.0000   1.0000
     1.0000   1.0000   1.0000   1.0000   1.0000   1.0000   1.0000   1.0000
     1.0000   1.0000   1.0000   1.0000   1.0000   1.0000   1.0000   1.0000
     1.0000   1.0000   1.0000   1.0000   1.0000   1.0000   1.0000   1.0000
     1.0000   1.0000   1.0000   1.0000   1.0000   1.0000   1.0000   1.0000
     1.0000   1.0000   1.0000   1.0000   1.0000   1.0000   1.0000   1.0000
     1.0000   1.0000   1.0000   1.0000   1.0000   1.0000   1.0000   1.0000
     1.0000   1.0000   1.0000   1.0000   1.0000   1.0000   1.0000   1.0000
     1.0000   1.0000   1.0000   1.0000   1.0000   1.0000   1.0000   1.0000
     1.0000   1.0000   1.0000   1.0000   1.0000   1.0000   1.0000   1.0000
     1.0000   1.0000   1.0000   1.0000   1.0000   1.0000   1.0000   1.0000
     1.0000   1.0000   1.0000   1.0000   1.0000   1.0000   1.0000   1.0000
     1.0000   1.0000   1.0000   1.0000   1.0000   1.0000   1.0000   1.0000
     1.0000   1.0000   1.0000   1.0000   1.0000   1.0000   1.0000   1.0000
     1.0000   1.0000   1.0000   1.0000   1.0000   1.0000   1.0000   1.0000
     1.0000   1.0000   1.0000   1.0000   1.0000   1.0000   1.0000   1.0000
     1.0000   1.0000   1.0000   1.0000   1.0000   1.0000   1.0000   1.0000
     1.0000   1.0000   1.0000   1.0000   1.0000   1.0000   1.0000   1.0000
     1.0000   1.0000   1.0000   1.0000   1.0000   1.0000   1.0000   1.0000

          k = 0.2500 0.4330 0.0000 ( 78891 PWs)   bands (ev):

   -29.0080 -29.0080 -29.0079 -29.0079 -28.9740 -28.9740 -28.9739 -28.9739
   -20.7565 -20.7565 -20.7564 -20.7564 -20.3931 -20.3931 -20.3930 -20.3930
   -19.7887 -19.7887 -19.7886 -19.7886 -19.1517 -19.1517 -19.1516 -19.1516
   -17.3189 -17.3189 -17.3150 -17.3150 -16.9670 -16.9670 -16.9666 -16.9666
   -16.9014 -16.9014 -16.9010 -16.9010 -16.8305 -16.8305 -16.8305 -16.8305
   -16.0480 -16.0480 -16.0470 -16.0470 -15.9575 -15.9575 -15.9571 -15.9571
   -15.8404 -15.8404 -15.8403 -15.8403 -15.7765 -15.7765 -15.7764 -15.7764
   -15.7572 -15.7572 -15.7571 -15.7571 -15.5886 -15.5886 -15.5871 -15.5871
   -15.5048 -15.5048 -15.4998 -15.4998 -15.0351 -15.0351 -15.0350 -15.0350
   -14.3632 -14.3632 -14.3631 -14.3631 -11.7625 -11.7625 -11.7606 -11.7606
   -11.6520 -11.6520 -11.6502 -11.6502  -6.1955  -6.1955  -6.1948  -6.1948
    -6.1509  -6.1509  -6.1508  -6.1508  -5.6673  -5.6673  -5.6661  -5.6661
    -5.2125  -5.2125  -5.2065  -5.2065  -4.8746  -4.8746  -4.8709  -4.8709
    -4.6527  -4.6527  -4.6488  -4.6488  -4.0805  -4.0805  -4.0714  -4.0714
    -3.4984  -3.4984  -3.4297  -3.4297  -3.0244  -3.0244  -3.0236  -3.0236
    -2.9493  -2.9493  -2.9492  -2.9492  -2.0347  -2.0347  -2.0282  -2.0282
    -1.1581  -1.1581  -1.1578  -1.1578  -0.6620  -0.6620  -0.6602  -0.6602
     0.1879   0.1879   0.3342   0.3342   0.3476   0.3476   0.8474   0.8474
     1.3887   1.3887   1.3906   1.3906   1.9012   1.9012   1.9248   1.9248
     3.1437   3.1437   3.4260   3.4260   3.5572   3.5572   3.7044   3.7044
     3.9415   3.9415   4.0148   4.0148   4.2454   4.2454   4.2825   4.2825
     4.2990   4.2990   4.4267   4.4267   4.4686   4.4686   4.7519   4.7519

     occupation numbers 
[...]
     ethr =  1.49E-04,  avg # of iterations =  1.2

     total cpu time spent up to now is    12305.5 secs

     total energy              =   -1529.21832914 Ry
     Harris-Foulkes estimate   =   -1529.22269469 Ry
     estimated scf accuracy    <       2.10082149 Ry

     iteration # 61     ecut=    80.00 Ry     beta= 0.60
     Davidson diagonalization with overlap
     ethr =  1.49E-04,  avg # of iterations =  1.0

     total cpu time spent up to now is    12368.0 secs

     total energy              =   -1529.21349788 Ry
     Harris-Foulkes estimate   =   -1529.22113062 Ry
     estimated scf accuracy    <       2.05277309 Ry

     iteration # 62     ecut=    80.00 Ry     beta= 0.60
     Davidson diagonalization with overlap
     ethr =  1.49E-04,  avg # of iterations =  1.4

     total cpu time spent up to now is    12430.5 secs

     total energy              =   -1529.16654423 Ry
     Harris-Foulkes estimate   =   -1529.21580489 Ry
     estimated scf accuracy    <       1.88914875 Ry

     iteration # 63     ecut=    80.00 Ry     beta= 0.60
     Davidson diagonalization with overlap
     c_bands:  2 eigenvalues not converged
     ethr =  1.49E-04,  avg # of iterations =  8.4

     total cpu time spent up to now is    12508.0 secs

     total energy              =   -1529.15068979 Ry
     Harris-Foulkes estimate   =   -1529.17740182 Ry
     estimated scf accuracy    <       1.22647729 Ry

     iteration # 64     ecut=    80.00 Ry     beta= 0.60
     Davidson diagonalization with overlap
     ethr =  1.49E-04,  avg # of iterations =  2.3

     total cpu time spent up to now is    12572.1 secs

     total energy              =   -1529.12630643 Ry
     Harris-Foulkes estimate   =   -1529.15338616 Ry
     estimated scf accuracy    <       1.14156056 Ry

     iteration # 65     ecut=    80.00 Ry     beta= 0.60
     Davidson diagonalization with overlap
     c_bands:  1 eigenvalues not converged
     c_bands:  1 eigenvalues not converged
     c_bands:  3 eigenvalues not converged
     ethr =  1.49E-04,  avg # of iterations = 14.2

     total cpu time spent up to now is    12663.7 secs

     total energy              =   -1529.16777594 Ry
     Harris-Foulkes estimate   =   -1529.17077647 Ry
     estimated scf accuracy    <       0.49813065 Ry

     iteration # 66     ecut=    80.00 Ry     beta= 0.60
     Davidson diagonalization with overlap
     ethr =  1.49E-04,  avg # of iterations =  1.1

     total cpu time spent up to now is    12725.5 secs

     total energy              =   -1529.16498913 Ry
     Harris-Foulkes estimate   =   -1529.16927999 Ry
     estimated scf accuracy    <       0.46177578 Ry

     iteration # 67     ecut=    80.00 Ry     beta= 0.60
     Davidson diagonalization with overlap
     ethr =  1.49E-04,  avg # of iterations =  5.8

     negative rho (up, down):  7.137E-03 0.000E+00

     total cpu time spent up to now is    12797.7 secs

     total energy              =   -1529.10071781 Ry
     Harris-Foulkes estimate   =   -1529.17302328 Ry
     estimated scf accuracy    <       0.49610573 Ry

     iteration # 68     ecut=    80.00 Ry     beta= 0.60
     Davidson diagonalization with overlap
     ethr =  1.49E-04,  avg # of iterations =  8.1

     total cpu time spent up to now is    12916.0 secs

     total energy              =   -1343.70225651 Ry
     Harris-Foulkes estimate   =   -1914.03188151 Ry
     estimated scf accuracy    < 7628570.22664732 Ry

     iteration # 69     ecut=    80.00 Ry     beta= 0.60
     Davidson diagonalization with overlap
     ethr =  1.49E-04,  avg # of iterations = 15.0

     total cpu time spent up to now is    13044.4 secs

     total energy              =   -1529.17220275 Ry
     Harris-Foulkes estimate   =   -1529.17448938 Ry
     estimated scf accuracy    <       0.43464144 Ry

     iteration # 70     ecut=    80.00 Ry     beta= 0.60
     Davidson diagonalization with overlap
     ethr =  1.49E-04,  avg # of iterations =  1.0

     total cpu time spent up to now is    13106.2 secs

     total energy              =   -1529.17417750 Ry
     Harris-Foulkes estimate   =   -1529.17302735 Ry
     estimated scf accuracy    <       0.41786193 Ry

     iteration # 71     ecut=    80.00 Ry     beta= 0.60
     Davidson diagonalization with overlap
     ethr =  1.49E-04,  avg # of iterations =  2.5

     total cpu time spent up to now is    13174.0 secs

     total energy              =   -1529.15225211 Ry
     Harris-Foulkes estimate   =   -1529.18942799 Ry
     estimated scf accuracy    <       6.79509627 Ry

     iteration # 72     ecut=    80.00 Ry     beta= 0.60
     Davidson diagonalization with overlap
     ethr =  1.49E-04,  avg # of iterations =  2.5

     total cpu time spent up to now is    13242.2 secs

     total energy              =   -1529.17573859 Ry
     Harris-Foulkes estimate   =   -1529.17639380 Ry
     estimated scf accuracy    <       0.46649275 Ry

     iteration # 73     ecut=    80.00 Ry     beta= 0.60
     Davidson diagonalization with overlap
     ethr =  1.49E-04,  avg # of iterations =  1.0

     total cpu time spent up to now is    13304.3 secs

     total energy              =   -1529.17394043 Ry
     Harris-Foulkes estimate   =   -1529.17630161 Ry
     estimated scf accuracy    <       0.43931590 Ry

     iteration # 74     ecut=    80.00 Ry     beta= 0.60
     Davidson diagonalization with overlap
     ethr =  1.49E-04,  avg # of iterations =  1.0

     total cpu time spent up to now is    13365.9 secs

     total energy              =   -1529.17438981 Ry
     Harris-Foulkes estimate   =   -1529.17426528 Ry
     estimated scf accuracy    <       0.43651178 Ry

     iteration # 75     ecut=    80.00 Ry     beta= 0.60
     Davidson diagonalization with overlap
     ethr =  1.49E-04,  avg # of iterations =  1.0

     total cpu time spent up to now is    13428.0 secs

     total energy              =   -1529.15280810 Ry
     Harris-Foulkes estimate   =   -1529.17455150 Ry
     estimated scf accuracy    <       0.42164254 Ry

     iteration # 76     ecut=    80.00 Ry     beta= 0.60
     Davidson diagonalization with overlap
     c_bands:  2 eigenvalues not converged
     c_bands:  2 eigenvalues not converged
     ethr =  1.49E-04,  avg # of iterations = 14.1

     total cpu time spent up to now is    13532.7 secs

     total energy              =   -1529.12163870 Ry
     Harris-Foulkes estimate   =   -1529.30819393 Ry
     estimated scf accuracy    <       2.61910308 Ry

     iteration # 77     ecut=    80.00 Ry     beta= 0.60
     Davidson diagonalization with overlap
     c_bands:  2 eigenvalues not converged
     ethr =  1.49E-04,  avg # of iterations = 11.3

     negative rho (up, down):  9.452E-04 0.000E+00

     total cpu time spent up to now is    13624.6 secs

     total energy              =   -1529.18356445 Ry
     Harris-Foulkes estimate   =   -1529.17783769 Ry
     estimated scf accuracy    <       0.64111548 Ry

     iteration # 78     ecut=    80.00 Ry     beta= 0.60
     Davidson diagonalization with overlap
     ethr =  1.49E-04,  avg # of iterations =  8.1

     total cpu time spent up to now is    13740.1 secs

     total energy              =   -1350.22888780 Ry
     Harris-Foulkes estimate   =   -1832.17339696 Ry
     estimated scf accuracy    < 7508214.11711370 Ry

     iteration # 79     ecut=    80.00 Ry     beta= 0.60
     Davidson diagonalization with overlap
     ethr =  1.49E-04,  avg # of iterations = 15.0

     total cpu time spent up to now is    13867.8 secs

     total energy              =   -1529.16622533 Ry
     Harris-Foulkes estimate   =   -1529.17573719 Ry
     estimated scf accuracy    <       0.49717576 Ry

     iteration # 80     ecut=    80.00 Ry     beta= 0.60
     Davidson diagonalization with overlap
     ethr =  1.49E-04,  avg # of iterations =  1.0

     total cpu time spent up to now is    13929.7 secs

     total energy              =   -1529.14979324 Ry
     Harris-Foulkes estimate   =   -1529.16806553 Ry
     estimated scf accuracy    <       0.47950157 Ry

     iteration # 81     ecut=    80.00 Ry     beta= 0.60
     Davidson diagonalization with overlap
     c_bands:  2 eigenvalues not converged
     c_bands:  2 eigenvalues not converged
     c_bands:  2 eigenvalues not converged
     ethr =  1.49E-04,  avg # of iterations = 11.2

     total cpu time spent up to now is    14017.8 secs

     total energy              =   -1529.16084834 Ry
     Harris-Foulkes estimate   =   -1529.18357722 Ry
     estimated scf accuracy    <       1.21734887 Ry

     iteration # 82     ecut=    80.00 Ry     beta= 0.60
     Davidson diagonalization with overlap
     ethr =  1.49E-04,  avg # of iterations =  3.0

     total cpu time spent up to now is    14084.3 secs

     total energy              =   -1529.17032043 Ry
     Harris-Foulkes estimate   =   -1529.16775472 Ry
     estimated scf accuracy    <       0.40211795 Ry

     iteration # 83     ecut=    80.00 Ry     beta= 0.60
     Davidson diagonalization with overlap
     ethr =  1.49E-04,  avg # of iterations =  1.0

     total cpu time spent up to now is    14146.5 secs

     total energy              =   -1529.17000966 Ry
     Harris-Foulkes estimate   =   -1529.17122311 Ry
     estimated scf accuracy    <       0.42710268 Ry

     iteration # 84     ecut=    80.00 Ry     beta= 0.60
     Davidson diagonalization with overlap
     ethr =  1.49E-04,  avg # of iterations =  1.4

     total cpu time spent up to now is    14209.2 secs

     total energy              =   -1529.16822490 Ry
     Harris-Foulkes estimate   =   -1529.17182316 Ry
     estimated scf accuracy    <       0.67043414 Ry

     iteration # 85     ecut=    80.00 Ry     beta= 0.60
     Davidson diagonalization with overlap
     ethr =  1.49E-04,  avg # of iterations =  1.3

     total cpu time spent up to now is    14271.9 secs

     total energy              =   -1529.17070884 Ry
     Harris-Foulkes estimate   =   -1529.16999128 Ry
     estimated scf accuracy    <       0.44892284 Ry

     iteration # 86     ecut=    80.00 Ry     beta= 0.60
     Davidson diagonalization with overlap
     ethr =  1.49E-04,  avg # of iterations =  1.0

     total cpu time spent up to now is    14333.8 secs

     total energy              =   -1529.16953931 Ry
     Harris-Foulkes estimate   =   -1529.17120268 Ry
     estimated scf accuracy    <       0.43416248 Ry

     iteration # 87     ecut=    80.00 Ry     beta= 0.60
     Davidson diagonalization with overlap
     ethr =  1.49E-04,  avg # of iterations =  1.0

     total cpu time spent up to now is    14396.0 secs

     total energy              =   -1529.08012658 Ry
     Harris-Foulkes estimate   =   -1529.17002248 Ry
     estimated scf accuracy    <       0.43063059 Ry

     iteration # 88     ecut=    80.00 Ry     beta= 0.60
     Davidson diagonalization with overlap
     ethr =  1.49E-04,  avg # of iterations =  7.8

     total cpu time spent up to now is    14512.7 secs

     total energy              =   -1362.78012183 Ry
     Harris-Foulkes estimate   =   -1678.84159508 Ry
     estimated scf accuracy    < 6919083.92672058 Ry

     iteration # 89     ecut=    80.00 Ry     beta= 0.60
     Davidson diagonalization with overlap
     c_bands:  4 eigenvalues not converged
     c_bands:  1 eigenvalues not converged
     c_bands:  1 eigenvalues not converged
     c_bands:  2 eigenvalues not converged
     c_bands:  2 eigenvalues not converged
     c_bands:  2 eigenvalues not converged
     c_bands:  2 eigenvalues not converged
     c_bands:  1 eigenvalues not converged
     c_bands:  2 eigenvalues not converged
     c_bands:  2 eigenvalues not converged
     ethr =  1.49E-04,  avg # of iterations = 17.9

     total cpu time spent up to now is    14645.2 secs

     total energy              =   -1529.16018104 Ry
     Harris-Foulkes estimate   =   -1529.17251278 Ry
     estimated scf accuracy    <       0.48461976 Ry

     iteration # 90     ecut=    80.00 Ry     beta= 0.60
     Davidson diagonalization with overlap
     c_bands:  1 eigenvalues not converged
     c_bands:  2 eigenvalues not converged
     c_bands:  2 eigenvalues not converged
     c_bands:  1 eigenvalues not converged
     ethr =  1.49E-04,  avg # of iterations = 11.2

     total cpu time spent up to now is    14731.6 secs

     total energy              =   -1529.15033153 Ry
     Harris-Foulkes estimate   =   -1529.19177293 Ry
     estimated scf accuracy    <       0.49273462 Ry

     iteration # 91     ecut=    80.00 Ry     beta= 0.60
     Davidson diagonalization with overlap
     c_bands:  1 eigenvalues not converged
     c_bands:  2 eigenvalues not converged
     ethr =  1.49E-04,  avg # of iterations =  8.7

     total cpu time spent up to now is    14813.2 secs

     total energy              =   -1529.17008797 Ry
     Harris-Foulkes estimate   =   -1529.17296055 Ry
     estimated scf accuracy    <       0.52368005 Ry

     iteration # 92     ecut=    80.00 Ry     beta= 0.60
     Davidson diagonalization with overlap
     ethr =  1.49E-04,  avg # of iterations =  1.0

     total cpu time spent up to now is    14874.9 secs

     total energy              =   -1529.17112158 Ry
     Harris-Foulkes estimate   =   -1529.17187415 Ry
     estimated scf accuracy    <       0.44567990 Ry

     iteration # 93     ecut=    80.00 Ry     beta= 0.60
     Davidson diagonalization with overlap
     ethr =  1.49E-04,  avg # of iterations =  1.0

     total cpu time spent up to now is    14936.9 secs

     total energy              =   -1529.16981349 Ry
     Harris-Foulkes estimate   =   -1529.17168016 Ry
     estimated scf accuracy    <       0.44786751 Ry

     iteration # 94     ecut=    80.00 Ry     beta= 0.60
     Davidson diagonalization with overlap
     ethr =  1.49E-04,  avg # of iterations =  1.2

     total cpu time spent up to now is    14999.0 secs

     total energy              =   -1529.17080801 Ry
     Harris-Foulkes estimate   =   -1529.17089439 Ry
     estimated scf accuracy    <       0.44439332 Ry

     iteration # 95     ecut=    80.00 Ry     beta= 0.60
     Davidson diagonalization with overlap
     ethr =  1.49E-04,  avg # of iterations =  1.0

     total cpu time spent up to now is    15061.0 secs

     total energy              =   -1529.17145588 Ry
     Harris-Foulkes estimate   =   -1529.17139738 Ry
     estimated scf accuracy    <       0.43797166 Ry

     iteration # 96     ecut=    80.00 Ry     beta= 0.60
     Davidson diagonalization with overlap
     ethr =  1.49E-04,  avg # of iterations =  1.0

     total cpu time spent up to now is    15122.7 secs

     total energy              =   -1529.17092957 Ry
     Harris-Foulkes estimate   =   -1529.17197101 Ry
     estimated scf accuracy    <       0.42818319 Ry

     iteration # 97     ecut=    80.00 Ry     beta= 0.60
     Davidson diagonalization with overlap
     ethr =  1.49E-04,  avg # of iterations =  4.9

     total cpu time spent up to now is    15192.2 secs

     total energy              =   -1529.27283830 Ry
     Harris-Foulkes estimate   =   -1529.17870081 Ry
     estimated scf accuracy    <       0.38731677 Ry

     iteration # 98     ecut=    80.00 Ry     beta= 0.60
     Davidson diagonalization with overlap
     ethr =  1.49E-04,  avg # of iterations =  9.1

     total cpu time spent up to now is    15321.4 secs

     total energy              =   -1357.99787851 Ry
     Harris-Foulkes estimate   =   -1745.47681337 Ry
     estimated scf accuracy    < 7261608.07295653 Ry

     iteration # 99     ecut=    80.00 Ry     beta= 0.60
     Davidson diagonalization with overlap
     c_bands:  1 eigenvalues not converged
     ethr =  1.49E-04,  avg # of iterations = 13.2

     total cpu time spent up to now is    15456.4 secs

     total energy              =   -1529.15743536 Ry
     Harris-Foulkes estimate   =   -1529.17663929 Ry
     estimated scf accuracy    <       0.38078802 Ry

     iteration #100     ecut=    80.00 Ry     beta= 0.60
     Davidson diagonalization with overlap
     c_bands:  1 eigenvalues not converged
     c_bands:  1 eigenvalues not converged
     c_bands:  2 eigenvalues not converged
     c_bands:  2 eigenvalues not converged
     c_bands:  2 eigenvalues not converged
     c_bands:  2 eigenvalues not converged
     c_bands:  1 eigenvalues not converged
     ethr =  1.49E-04,  avg # of iterations = 15.9

     total cpu time spent up to now is    15558.0 secs

     total energy              =   -1529.11675256 Ry
     Harris-Foulkes estimate   =   -1529.23974871 Ry
     estimated scf accuracy    <       1.91154534 Ry

     End of self-consistent calculation

     convergence NOT achieved after 100 iterations: stopping

     Writing output data file CsSnI3.save/
 
     init_run     :     27.27s CPU     28.23s WALL (       1 calls)
     electrons    :  15158.40s CPU  15468.62s WALL (       2 calls)
     update_pot   :      2.57s CPU      2.59s WALL (       1 calls)
     forces       :     49.15s CPU     49.70s WALL (       1 calls)

     Called by init_run:
     wfcinit      :     22.44s CPU     22.88s WALL (       1 calls)
     wfcinit:atom :      0.24s CPU      0.25s WALL (      20 calls)
     wfcinit:wfcr :     21.01s CPU     21.34s WALL (      20 calls)
     potinit      :      0.65s CPU      0.67s WALL (       1 calls)
     hinit0       :      1.80s CPU      2.01s WALL (       1 calls)

     Called by electrons:
     c_bands      :  12776.98s CPU  12982.85s WALL (     179 calls)
     sum_band     :   2017.68s CPU   2083.50s WALL (     179 calls)
     v_of_rho     :      5.84s CPU      6.40s WALL (     181 calls)
     v_h          :      0.41s CPU      0.43s WALL (     181 calls)
     v_xc         :      5.45s CPU      5.99s WALL (     182 calls)
     newd         :    354.15s CPU    390.42s WALL (     181 calls)
     mix_rho      :      6.74s CPU      8.34s WALL (     179 calls)

     Called by c_bands:
     init_us_2    :     64.38s CPU     64.95s WALL (    7200 calls)
     cegterg      :  11029.45s CPU  11228.40s WALL (    3582 calls)

     Called by sum_band:
     sum_band:bec :    148.82s CPU    149.63s WALL (    3580 calls)
     addusdens    :    232.67s CPU    276.32s WALL (     179 calls)

     Called by *egterg:
     h_psi        :   6264.50s CPU   6346.48s WALL (   27863 calls)
     s_psi        :    955.57s CPU    959.34s WALL (   27863 calls)
     g_psi        :     26.72s CPU     26.90s WALL (   24261 calls)
     cdiaghg      :   1411.96s CPU   1488.56s WALL (   27823 calls)
     cegterg:over :    843.49s CPU    848.44s WALL (   24261 calls)
     cegterg:upda :   1003.85s CPU   1025.96s WALL (   24261 calls)
     cegterg:last :    296.18s CPU    298.99s WALL (    3682 calls)
     cdiaghg:chol :    120.83s CPU    131.01s WALL (   27823 calls)
     cdiaghg:inve :     86.90s CPU     91.30s WALL (   27823 calls)
     cdiaghg:para :    117.07s CPU    139.95s WALL (   55646 calls)

     Called by h_psi:
     h_psi:pot    :   6215.04s CPU   6294.66s WALL (   27863 calls)
     h_psi:calbec :    705.58s CPU    718.67s WALL (   27863 calls)
     vloc_psi     :   4590.49s CPU   4652.98s WALL (   27863 calls)
     add_vuspsi   :    918.86s CPU    922.81s WALL (   27863 calls)

     General routines
     calbec       :    963.37s CPU    981.30s WALL (   31523 calls)
     fft          :      4.89s CPU      5.05s WALL (    2549 calls)
     ffts         :      1.02s CPU      1.03s WALL (     716 calls)
     fftw         :   4972.77s CPU   5027.30s WALL ( 7714092 calls)
     davcio       :      0.01s CPU      1.36s WALL (      38 calls)
 
     Parallel routines
     fft_scatt_xy :    651.30s CPU    661.00s WALL ( 7717357 calls)
     fft_scatt_yz :   1902.75s CPU   1930.28s WALL ( 7717357 calls)
 
     PWSCF        :     4h14m CPU       14h 4m WALL

      19h
 
   This run was terminated on:  15:48:19  15Feb2021            

=------------------------------------------------------------------------------=
   JOB DONE.
=------------------------------------------------------------------------------=
