
     Program PWSCF v.6.5 starts on 15Jan2021 at 11:52:52 

     This program is part of the open-source Quantum ESPRESSO suite
     for quantum simulation of materials; please cite
         "P. Giannozzi et al., J. Phys.:Condens. Matter 21 395502 (2009);
         "P. Giannozzi et al., J. Phys.:Condens. Matter 29 465901 (2017);
          URL http://www.quantum-espresso.org", 
     in publications or presentations arising from this work. More details at
     http://www.quantum-espresso.org/quote

     Parallel version (MPI), running on    64 processors

     MPI processes distributed on     2 nodes
     R & G space division:  proc/nbgrp/npool/nimage =      64
     Waiting for input...
     Reading input from standard input

     Current dimensions of program PWSCF are:
     Max number of different atomic species (ntypx) = 10
     Max number of k-points (npk) =  40000
     Max angular momentum in pseudopotentials (lmaxx) =  3
               file Sn.rel-pbe-dn-kjpaw_psl.1.0.0.UPF: wavefunction(s)  5S 5P 5P 4D 4D renormalized
               file I.rel-pbe-n-kjpaw_psl.1.0.0.UPF: wavefunction(s)  5S renormalized
               file Cs.rel-pbe-spn-kjpaw_psl.1.0.0.UPF: wavefunction(s)  5S 6S renormalized

     Subspace diagonalization in iterative solution of the eigenvalue problem:
     a serial algorithm will be used


     Parallelization info
     --------------------
     sticks:   dense  smooth     PW     G-vecs:    dense   smooth      PW
     Min          46      46     12                 4753     4753     642
     Max          48      48     13                 4763     4763     653
     Sum        2963    2963    783               304449   304449   41317


     Title: 
     perovskite                                                                 


     bravais-lattice index     =            8
     lattice parameter (alat)  =       9.1317  a.u.
     unit-cell volume          =    6370.5385 (a.u.)^3
     number of atoms/cell      =           20
     number of atomic types    =            3
     number of electrons       =       176.00
     number of Kohn-Sham states=          180
     kinetic-energy cutoff     =      50.0000  Ry
     charge density cutoff     =     200.0000  Ry
     convergence threshold     =      1.0E-06
     mixing beta               =       0.6000
     number of iterations used =            8  plain     mixing
     Exchange-correlation= SLA PW PBX PBC
                           (   1   4   3   4   0   0   0)
     Non magnetic calculation with spin-orbit


     celldm(1)=   9.131705  celldm(2)=   2.227728  celldm(3)=   3.755420
     celldm(4)=   0.000000  celldm(5)=   0.000000  celldm(6)=   0.000000

     crystal axes: (cart. coord. in units of alat)
               a(1) = (   1.000000   0.000000   0.000000 )  
               a(2) = (   0.000000   2.227728   0.000000 )  
               a(3) = (   0.000000   0.000000   3.755420 )  

     reciprocal axes: (cart. coord. in units 2 pi/alat)
               b(1) = (  1.000000  0.000000  0.000000 )  
               b(2) = (  0.000000  0.448888  0.000000 )  
               b(3) = (  0.000000  0.000000  0.266282 )  


     PseudoPot. # 1 for Sn read from file:
     ../../../../pseudo/Sn.rel-pbe-dn-kjpaw_psl.1.0.0.UPF
     MD5 check sum: 6bcaba2b82cf8d008985ef5bb9854e68
     Pseudo is Projector augmented-wave + core cor, Zval = 14.0
     Generated using "atomic" code by A. Dal Corso v.6.3
     Shape of augmentation charge: PSQ
     Using radial grid of 1243 points, 10 beta functions with: 
                l(1) =   0
                l(2) =   0
                l(3) =   1
                l(4) =   1
                l(5) =   1
                l(6) =   1
                l(7) =   2
                l(8) =   2
                l(9) =   2
               l(10) =   2
     Q(r) pseudized with 0 coefficients 


     PseudoPot. # 2 for I  read from file:
     ../../../../pseudo/I.rel-pbe-n-kjpaw_psl.1.0.0.UPF
     MD5 check sum: 1650324410fde579213a6e5684c4bdbf
     Pseudo is Projector augmented-wave + core cor, Zval =  7.0
     Generated using "atomic" code by A. Dal Corso v.6.3
     Shape of augmentation charge: PSQ
     Using radial grid of 1247 points, 10 beta functions with: 
                l(1) =   0
                l(2) =   0
                l(3) =   1
                l(4) =   1
                l(5) =   1
                l(6) =   1
                l(7) =   2
                l(8) =   2
                l(9) =   2
               l(10) =   2
     Q(r) pseudized with 0 coefficients 


     PseudoPot. # 3 for Cs read from file:
     ../../../../pseudo/Cs.rel-pbe-spn-kjpaw_psl.1.0.0.UPF
     MD5 check sum: a112b951ec9e765992cdd678db6f3609
     Pseudo is Projector augmented-wave + core cor, Zval =  9.0
     Generated using "atomic" code by A. Dal Corso v.6.4.1
     Shape of augmentation charge: PSQ
     Using radial grid of 1251 points, 15 beta functions with: 
                l(1) =   0
                l(2) =   0
                l(3) =   0
                l(4) =   1
                l(5) =   1
                l(6) =   1
                l(7) =   1
                l(8) =   2
                l(9) =   2
               l(10) =   2
               l(11) =   2
               l(12) =   3
               l(13) =   3
               l(14) =   3
               l(15) =   3
     Q(r) pseudized with 0 coefficients 


     atomic species   valence    mass     pseudopotential
        Sn            14.00   118.70000     Sn( 1.00)
        I              7.00   126.90000     I ( 1.00)
        Cs             9.00   132.90000     Cs( 1.00)

      8 Sym. Ops., with inversion, found ( 6 have fractional translation)


                                    s                        frac. trans.

      isym =  1     identity                                     

 cryst.   s( 1) = (     1          0          0      )
                  (     0          1          0      )
                  (     0          0          1      )

 cart.    s( 1) = (  1.0000000  0.0000000  0.0000000 )
                  (  0.0000000  1.0000000  0.0000000 )
                  (  0.0000000  0.0000000  1.0000000 )


      isym =  2     180 deg rotation - cart. axis [0,0,1]        

 cryst.   s( 2) = (    -1          0          0      )    f =(  0.0000000 )
                  (     0         -1          0      )       (  0.5000000 )
                  (     0          0          1      )       (  0.5000000 )

 cart.    s( 2) = ( -1.0000000  0.0000000  0.0000000 )    f =(  0.0000000 )
                  (  0.0000000 -1.0000000  0.0000000 )       (  1.1138638 )
                  (  0.0000000  0.0000000  1.0000000 )       (  1.8777098 )


      isym =  3     180 deg rotation - cart. axis [0,1,0]        

 cryst.   s( 3) = (    -1          0          0      )    f =(  0.5000000 )
                  (     0          1          0      )       ( -0.5000000 )
                  (     0          0         -1      )       ( -0.5000000 )

 cart.    s( 3) = ( -1.0000000  0.0000000  0.0000000 )    f =(  0.5000000 )
                  (  0.0000000  1.0000000  0.0000000 )       ( -1.1138638 )
                  (  0.0000000  0.0000000 -1.0000000 )       ( -1.8777098 )


      isym =  4     180 deg rotation - cart. axis [1,0,0]        

 cryst.   s( 4) = (     1          0          0      )    f =( -0.5000000 )
                  (     0         -1          0      )       (  0.0000000 )
                  (     0          0         -1      )       (  0.0000000 )

 cart.    s( 4) = (  1.0000000  0.0000000  0.0000000 )    f =( -0.5000000 )
                  (  0.0000000 -1.0000000  0.0000000 )       (  0.0000000 )
                  (  0.0000000  0.0000000 -1.0000000 )       (  0.0000000 )


      isym =  5     inversion                                    

 cryst.   s( 5) = (    -1          0          0      )
                  (     0         -1          0      )
                  (     0          0         -1      )

 cart.    s( 5) = ( -1.0000000  0.0000000  0.0000000 )
                  (  0.0000000 -1.0000000  0.0000000 )
                  (  0.0000000  0.0000000 -1.0000000 )


      isym =  6     inv. 180 deg rotation - cart. axis [0,0,1]   

 cryst.   s( 6) = (     1          0          0      )    f =(  0.0000000 )
                  (     0          1          0      )       ( -0.5000000 )
                  (     0          0         -1      )       ( -0.5000000 )

 cart.    s( 6) = (  1.0000000  0.0000000  0.0000000 )    f =(  0.0000000 )
                  (  0.0000000  1.0000000  0.0000000 )       ( -1.1138638 )
                  (  0.0000000  0.0000000 -1.0000000 )       ( -1.8777098 )


      isym =  7     inv. 180 deg rotation - cart. axis [0,1,0]   

 cryst.   s( 7) = (     1          0          0      )    f =( -0.5000000 )
                  (     0         -1          0      )       (  0.5000000 )
                  (     0          0          1      )       (  0.5000000 )

 cart.    s( 7) = (  1.0000000  0.0000000  0.0000000 )    f =( -0.5000000 )
                  (  0.0000000 -1.0000000  0.0000000 )       (  1.1138638 )
                  (  0.0000000  0.0000000  1.0000000 )       (  1.8777098 )


      isym =  8     inv. 180 deg rotation - cart. axis [1,0,0]   

 cryst.   s( 8) = (    -1          0          0      )    f =(  0.5000000 )
                  (     0          1          0      )       (  0.0000000 )
                  (     0          0          1      )       (  0.0000000 )

 cart.    s( 8) = ( -1.0000000  0.0000000  0.0000000 )    f =(  0.5000000 )
                  (  0.0000000  1.0000000  0.0000000 )       (  0.0000000 )
                  (  0.0000000  0.0000000  1.0000000 )       (  0.0000000 )


     double point group D_2h (mmm) 
     there are 10 classes and  2 irreducible representations
     the character table:

       E     -E     C2    C2'  C2''  i     -i     s_v   s_v' s_v''
                   -C2   -C2'  -C2''             -s_v  -s_v' -s_v'
G_5+   2.00 -2.00  0.00  0.00  0.00  2.00 -2.00  0.00  0.00  0.00
G_5-   2.00 -2.00  0.00  0.00  0.00 -2.00  2.00  0.00  0.00  0.00

     the symmetry operations in each class and the name of the first element:

     E             1
          identity                                               
     -E           -1
          identity E                                             
      C2  -C2      2   -2
          180 deg rotation - cart. axis [0,0,1]                  
      C2' -C2'     4   -4
          180 deg rotation - cart. axis [1,0,0]                  
     C2'' -C2''    3   -3
          180 deg rotation - cart. axis [0,1,0]                  
     i             5
          inversion                                              
     -i           -5
          inversion E                                            
      s_v -s_v     6   -6
          inv. 180 deg rotation - cart. axis [0,0,1]             
      s_v'-s_v'    8   -8
          inv. 180 deg rotation - cart. axis [1,0,0]             
     s_v''-s_v'    7   -7
          inv. 180 deg rotation - cart. axis [0,1,0]             

   Cartesian axes

     site n.     atom                  positions (alat units)
         1           Cs  tau(   1) = (   0.2500000   0.1859640   2.5168147  )
         2           Cs  tau(   2) = (   0.7500000   2.0417636   1.2386050  )
         3           Cs  tau(   3) = (   0.2500000   1.2998278   3.1163149  )
         4           Cs  tau(   4) = (   0.7500000   0.9278998   0.6391048  )
         5           Sn  tau(   5) = (   0.2500000   0.7615710   1.6485466  )
         6           Sn  tau(   6) = (   0.7500000   1.4661567   2.1068731  )
         7           Sn  tau(   7) = (   0.2500000   1.8754348   0.2291632  )
         8           Sn  tau(   8) = (   0.7500000   0.3522928   3.5262565  )
         9           I   tau(   9) = (   0.7500000   0.0581437   0.4202578  )
        10           I   tau(  10) = (   0.2500000   2.1695839   3.3351619  )
        11           I   tau(  11) = (   0.7500000   1.1720075   1.4574521  )
        12           I   tau(  12) = (   0.2500000   1.0557201   2.2979676  )
        13           I   tau(  13) = (   0.7500000   0.6531118   2.9738192  )
        14           I   tau(  14) = (   0.2500000   1.5746158   0.7816005  )
        15           I   tau(  15) = (   0.7500000   1.7669756   2.6593103  )
        16           I   tau(  16) = (   0.2500000   0.4607520   1.0961094  )
        17           I   tau(  17) = (   0.7500000   0.3753632   1.8734812  )
        18           I   tau(  18) = (   0.2500000   1.8523644   1.8819384  )
        19           I   tau(  19) = (   0.7500000   1.4892270   0.0042286  )
        20           I   tau(  20) = (   0.2500000   0.7385006   3.7511911  )

   Crystallographic axes

     site n.     atom                  positions (cryst. coord.)
         1           Cs  tau(   1) = (  0.2500000  0.0834770  0.6701820  )
         2           Cs  tau(   2) = (  0.7500000  0.9165230  0.3298180  )
         3           Cs  tau(   3) = (  0.2500000  0.5834770  0.8298180  )
         4           Cs  tau(   4) = (  0.7500000  0.4165230  0.1701820  )
         5           Sn  tau(   5) = (  0.2500000  0.3418600  0.4389780  )
         6           Sn  tau(   6) = (  0.7500000  0.6581400  0.5610220  )
         7           Sn  tau(   7) = (  0.2500000  0.8418600  0.0610220  )
         8           Sn  tau(   8) = (  0.7500000  0.1581400  0.9389780  )
         9           I   tau(   9) = (  0.7500000  0.0261000  0.1119070  )
        10           I   tau(  10) = (  0.2500000  0.9739000  0.8880930  )
        11           I   tau(  11) = (  0.7500000  0.5261000  0.3880930  )
        12           I   tau(  12) = (  0.2500000  0.4739000  0.6119070  )
        13           I   tau(  13) = (  0.7500000  0.2931740  0.7918740  )
        14           I   tau(  14) = (  0.2500000  0.7068260  0.2081260  )
        15           I   tau(  15) = (  0.7500000  0.7931740  0.7081260  )
        16           I   tau(  16) = (  0.2500000  0.2068260  0.2918740  )
        17           I   tau(  17) = (  0.7500000  0.1684960  0.4988740  )
        18           I   tau(  18) = (  0.2500000  0.8315040  0.5011260  )
        19           I   tau(  19) = (  0.7500000  0.6684960  0.0011260  )
        20           I   tau(  20) = (  0.2500000  0.3315040  0.9988740  )

     number of k points=     1
                       cart. coord. in units 2pi/alat
        k(    1) = (   0.2500000   0.1122220   0.0665705), wk =   1.0000000

                       cryst. coord.
        k(    1) = (   0.2500000   0.2500000   0.2500000), wk =   1.0000000

     Dense  grid:   304449 G-vectors     FFT dimensions: (  48,  96, 160)

     Dynamical RAM for                 wfc:       3.26 MB

     Dynamical RAM for     wfc (w. buffer):       3.26 MB

     Dynamical RAM for           str. fact:       0.22 MB

     Dynamical RAM for           local pot:       0.00 MB

     Dynamical RAM for          nlocal pot:       7.21 MB

     Dynamical RAM for                qrad:      39.59 MB

     Dynamical RAM for          rho,v,vnew:       2.14 MB

     Dynamical RAM for               rhoin:       0.71 MB

     Dynamical RAM for            rho*nmix:       4.64 MB

     Dynamical RAM for           G-vectors:       0.31 MB

     Dynamical RAM for          h,s,v(r/c):      23.73 MB

     Dynamical RAM for          <psi|beta>:       4.37 MB

     Dynamical RAM for                 psi:      13.05 MB

     Dynamical RAM for                hpsi:      13.05 MB

     Dynamical RAM for                spsi:      13.05 MB

     Dynamical RAM for      wfcinit/wfcrot:       6.65 MB

     Dynamical RAM for           addusdens:     149.07 MB

     Estimated static dynamical RAM per process >      59.21 MB

     Estimated max dynamical RAM per process >     208.28 MB

     Estimated total dynamical RAM >      13.02 GB

     Check: negative core charge=   -0.000002

     Initial potential from superposition of free atoms

     starting charge  175.83605, renormalised to  176.00000
     Starting wfcs are  208 randomized atomic wfcs
     Checking if some PAW data can be deallocated... 
       PAW data deallocated on   52 nodes for type:  1
       PAW data deallocated on   28 nodes for type:  2
       PAW data deallocated on   48 nodes for type:  3

     total cpu time spent up to now is       37.4 secs

     Self-consistent Calculation

     iteration #  1     ecut=    50.00 Ry     beta= 0.60
     Davidson diagonalization with overlap
     ethr =  1.00E-02,  avg # of iterations =  2.0

     Threshold (ethr) on eigenvalues was too large:
     Diagonalizing with lowered threshold

     Davidson diagonalization with overlap
     ethr =  3.37E-04,  avg # of iterations = 13.0

     negative rho (up, down):  1.569E+01 0.000E+00

     total cpu time spent up to now is      110.2 secs

     total energy              =   -7999.88792829 Ry
     Harris-Foulkes estimate   =   -8002.74285302 Ry
     estimated scf accuracy    <     194.00328078 Ry

     iteration #  2     ecut=    50.00 Ry     beta= 0.60
     Davidson diagonalization with overlap
     ethr =  1.00E-02,  avg # of iterations =  8.0

     negative rho (up, down):  1.090E+01 0.000E+00

     total cpu time spent up to now is      151.7 secs

     total energy              =   -7729.11360772 Ry
     Harris-Foulkes estimate   =   -8141.34605020 Ry
     estimated scf accuracy    < 6677280.36820480 Ry

     iteration #  3     ecut=    50.00 Ry     beta= 0.60
     Davidson diagonalization with overlap
     ethr =  1.00E-02,  avg # of iterations =  6.0

     negative rho (up, down):  5.642E-01 0.000E+00

     total cpu time spent up to now is      190.9 secs

     total energy              =   -7887.48489764 Ry
     Harris-Foulkes estimate   =   -8122.88242514 Ry
     estimated scf accuracy    < 6735725.93134604 Ry

     iteration #  4     ecut=    50.00 Ry     beta= 0.60
     Davidson diagonalization with overlap
     ethr =  1.00E-02,  avg # of iterations = 15.0

     negative rho (up, down):  1.694E-01 0.000E+00

     total cpu time spent up to now is      226.7 secs

     total energy              =   -8002.41637772 Ry
     Harris-Foulkes estimate   =   -8002.67526271 Ry
     estimated scf accuracy    <       0.97262229 Ry

     iteration #  5     ecut=    50.00 Ry     beta= 0.60
     Davidson diagonalization with overlap
     ethr =  5.53E-04,  avg # of iterations =  6.0

     negative rho (up, down):  7.951E-02 0.000E+00

     total cpu time spent up to now is      259.7 secs

     total energy              =   -8002.58851649 Ry
     Harris-Foulkes estimate   =   -8002.61992733 Ry
     estimated scf accuracy    <       0.28553663 Ry

     iteration #  6     ecut=    50.00 Ry     beta= 0.60
     Davidson diagonalization with overlap
     ethr =  1.62E-04,  avg # of iterations =  3.0

     negative rho (up, down):  3.659E-04 0.000E+00

     total cpu time spent up to now is      286.1 secs

     total energy              =   -8002.59841219 Ry
     Harris-Foulkes estimate   =   -8002.60210782 Ry
     estimated scf accuracy    <       0.15136591 Ry

     iteration #  7     ecut=    50.00 Ry     beta= 0.60
     Davidson diagonalization with overlap
     ethr =  8.60E-05,  avg # of iterations =  4.0

     total cpu time spent up to now is      314.9 secs

     total energy              =   -8002.61118356 Ry
     Harris-Foulkes estimate   =   -8002.61376687 Ry
     estimated scf accuracy    <       0.04503890 Ry

     iteration #  8     ecut=    50.00 Ry     beta= 0.60
     Davidson diagonalization with overlap
     ethr =  2.56E-05,  avg # of iterations = 15.0

     total cpu time spent up to now is      347.3 secs

     total energy              =   -8002.61053614 Ry
     Harris-Foulkes estimate   =   -8002.61331871 Ry
     estimated scf accuracy    <       0.01797291 Ry

     iteration #  9     ecut=    50.00 Ry     beta= 0.60
     Davidson diagonalization with overlap
     ethr =  1.02E-05,  avg # of iterations = 18.0

     total cpu time spent up to now is      384.7 secs

     total energy              =   -8002.61207664 Ry
     Harris-Foulkes estimate   =   -8002.61218620 Ry
     estimated scf accuracy    <       0.00994321 Ry

     iteration # 10     ecut=    50.00 Ry     beta= 0.60
     Davidson diagonalization with overlap
     ethr =  5.65E-06,  avg # of iterations =  2.0

     total cpu time spent up to now is      410.2 secs

     total energy              =   -8002.61209852 Ry
     Harris-Foulkes estimate   =   -8002.61226034 Ry
     estimated scf accuracy    <       0.00952163 Ry

     iteration # 11     ecut=    50.00 Ry     beta= 0.60
     Davidson diagonalization with overlap
     ethr =  5.41E-06,  avg # of iterations =  1.0

     total cpu time spent up to now is      435.2 secs

     total energy              =   -8002.62485882 Ry
     Harris-Foulkes estimate   =   -8002.61222362 Ry
     estimated scf accuracy    <       0.00899103 Ry

     iteration # 12     ecut=    50.00 Ry     beta= 0.60
     Davidson diagonalization with overlap
     ethr =  5.11E-06,  avg # of iterations =  6.0

     total cpu time spent up to now is      489.9 secs

     total energy              =   -8002.66729317 Ry
     Harris-Foulkes estimate   =   -8002.67030054 Ry
     estimated scf accuracy    <       0.24297329 Ry

     iteration # 13     ecut=    50.00 Ry     beta= 0.60
     Davidson diagonalization with overlap
     ethr =  5.11E-06,  avg # of iterations =  1.0

     total cpu time spent up to now is      515.0 secs

     total energy              =   -8002.52142322 Ry
     Harris-Foulkes estimate   =   -8002.66734776 Ry
     estimated scf accuracy    <       0.23281130 Ry

     iteration # 14     ecut=    50.00 Ry     beta= 0.60
     Davidson diagonalization with overlap
     ethr =  5.11E-06,  avg # of iterations =  7.0

     total cpu time spent up to now is      568.4 secs

     total energy              =   -8002.61329820 Ry
     Harris-Foulkes estimate   =   -8002.67130091 Ry
     estimated scf accuracy    <       0.25097961 Ry

     iteration # 15     ecut=    50.00 Ry     beta= 0.60
     Davidson diagonalization with overlap
     ethr =  5.11E-06,  avg # of iterations =  5.0

     total cpu time spent up to now is      612.5 secs

     total energy              =   -8002.61910948 Ry
     Harris-Foulkes estimate   =   -8002.62598458 Ry
     estimated scf accuracy    <       0.05479860 Ry

     iteration # 16     ecut=    50.00 Ry     beta= 0.60
     Davidson diagonalization with overlap
     ethr =  5.11E-06,  avg # of iterations =  2.0

     total cpu time spent up to now is      640.7 secs

     total energy              =   -8002.60978146 Ry
     Harris-Foulkes estimate   =   -8002.61978953 Ry
     estimated scf accuracy    <       0.03322604 Ry

     iteration # 17     ecut=    50.00 Ry     beta= 0.60
     Davidson diagonalization with overlap
     ethr =  5.11E-06,  avg # of iterations =  4.0

     total cpu time spent up to now is      676.7 secs

     total energy              =   -8002.61176151 Ry
     Harris-Foulkes estimate   =   -8002.61302988 Ry
     estimated scf accuracy    <       0.00253101 Ry

     iteration # 18     ecut=    50.00 Ry     beta= 0.60
     Davidson diagonalization with overlap
     ethr =  1.44E-06,  avg # of iterations =  5.0

     total cpu time spent up to now is      711.3 secs

     total energy              =   -8002.61255789 Ry
     Harris-Foulkes estimate   =   -8002.61253594 Ry
     estimated scf accuracy    <       0.00039959 Ry

     iteration # 19     ecut=    50.00 Ry     beta= 0.60
     Davidson diagonalization with overlap
     ethr =  2.27E-07,  avg # of iterations =  3.0

     total cpu time spent up to now is      738.1 secs

     total energy              =   -8002.61241149 Ry
     Harris-Foulkes estimate   =   -8002.61257853 Ry
     estimated scf accuracy    <       0.00041961 Ry

     iteration # 20     ecut=    50.00 Ry     beta= 0.60
     Davidson diagonalization with overlap
     ethr =  2.27E-07,  avg # of iterations =  4.0

     total cpu time spent up to now is      767.9 secs

     total energy              =   -8002.61246366 Ry
     Harris-Foulkes estimate   =   -8002.61246740 Ry
     estimated scf accuracy    <       0.00001261 Ry

     iteration # 21     ecut=    50.00 Ry     beta= 0.60
     Davidson diagonalization with overlap
     ethr =  7.17E-09,  avg # of iterations =  5.0

     total cpu time spent up to now is      812.4 secs

     End of self-consistent calculation

          k = 0.2500 0.1122 0.0666 ( 38020 PWs)   bands (ev):

   -18.4081 -18.4081 -18.4081 -18.4081 -18.4080 -18.4080 -18.4080 -18.4080
   -18.3950 -18.3950 -18.3950 -18.3950 -18.3949 -18.3949 -18.3949 -18.3949
   -17.7418 -17.7418 -17.7417 -17.7417 -17.7413 -17.7413 -17.7411 -17.7411
   -17.3727 -17.3727 -17.3727 -17.3727 -17.3726 -17.3726 -17.3726 -17.3726
   -17.3597 -17.3597 -17.3597 -17.3597 -17.3593 -17.3593 -17.3593 -17.3593
   -17.3563 -17.3563 -17.3563 -17.3563 -17.3562 -17.3562 -17.3562 -17.3562
    -8.6601  -8.6601  -8.6490  -8.6490  -8.5105  -8.5105  -8.4947  -8.4947
    -8.3999  -8.3999  -8.3940  -8.3940  -8.3278  -8.3278  -8.3112  -8.3112
    -8.2533  -8.2533  -8.2488  -8.2488  -8.2334  -8.2334  -8.2282  -8.2282
    -5.7178  -5.7178  -5.7139  -5.7139  -5.7103  -5.7103  -5.7062  -5.7062
    -4.1514  -4.1514  -4.1461  -4.1461  -4.1355  -4.1355  -4.1286  -4.1286
    -4.0887  -4.0887  -4.0858  -4.0858  -4.0806  -4.0806  -4.0758  -4.0758
    -3.0197  -3.0197  -3.0157  -3.0157  -2.9258  -2.9258  -2.9157  -2.9157
     0.1237   0.1237   0.1831   0.1831   0.2742   0.2742   0.3065   0.3065
     0.4228   0.4228   0.5129   0.5129   0.6398   0.6398   0.6978   0.6978
     0.8121   0.8121   0.8448   0.8448   0.8769   0.8769   0.9421   0.9421
     1.1488   1.1488   1.2139   1.2139   1.4139   1.4139   1.4852   1.4852
     1.5379   1.5379   1.6034   1.6034   1.7202   1.7202   1.7790   1.7790
     1.8516   1.8516   1.8900   1.8900   1.9422   1.9422   1.9705   1.9705
     2.0024   2.0024   2.0786   2.0786   2.1257   2.1257   2.1968   2.1968
     2.2498   2.2498   2.2767   2.2767   2.4273   2.4273   2.4590   2.4590
     2.7814   2.7814   2.8766   2.8766   3.0654   3.0654   3.1122   3.1122
     5.8117   5.8117   5.9477   5.9477

     occupation numbers 
     1.0000   1.0000   1.0000   1.0000   1.0000   1.0000   1.0000   1.0000
     1.0000   1.0000   1.0000   1.0000   1.0000   1.0000   1.0000   1.0000
     1.0000   1.0000   1.0000   1.0000   1.0000   1.0000   1.0000   1.0000
     1.0000   1.0000   1.0000   1.0000   1.0000   1.0000   1.0000   1.0000
     1.0000   1.0000   1.0000   1.0000   1.0000   1.0000   1.0000   1.0000
     1.0000   1.0000   1.0000   1.0000   1.0000   1.0000   1.0000   1.0000
     1.0000   1.0000   1.0000   1.0000   1.0000   1.0000   1.0000   1.0000
     1.0000   1.0000   1.0000   1.0000   1.0000   1.0000   1.0000   1.0000
     1.0000   1.0000   1.0000   1.0000   1.0000   1.0000   1.0000   1.0000
     1.0000   1.0000   1.0000   1.0000   1.0000   1.0000   1.0000   1.0000
     1.0000   1.0000   1.0000   1.0000   1.0000   1.0000   1.0000   1.0000
     1.0000   1.0000   1.0000   1.0000   1.0000   1.0000   1.0000   1.0000
     1.0000   1.0000   1.0000   1.0000   1.0000   1.0000   1.0000   1.0000
     1.0000   1.0000   1.0000   1.0000   1.0000   1.0000   1.0000   1.0000
     1.0000   1.0000   1.0000   1.0000   1.0000   1.0000   1.0000   1.0000
     1.0000   1.0000   1.0000   1.0000   1.0000   1.0000   1.0000   1.0000
     1.0000   1.0000   1.0000   1.0000   1.0000   1.0000   1.0000   1.0000
     1.0000   1.0000   1.0000   1.0000   1.0000   1.0000   1.0000   1.0000
     1.0000   1.0000   1.0000   1.0000   1.0000   1.0000   1.0000   1.0000
     1.0000   1.0000   1.0000   1.0000   1.0000   1.0000   1.0000   1.0000
     1.0000   1.0000   1.0000   1.0000   1.0000   1.0000   1.0000   1.0000
     1.0000   1.0000   1.0000   1.0000   1.0000   1.0000   1.0000   1.0000
     0.0000   0.0000   0.0000   0.0000

     highest occupied, lowest unoccupied level (ev):     3.1122    5.8117

!    total energy              =   -8002.61247217 Ry
     Harris-Foulkes estimate   =   -8002.61247284 Ry
     estimated scf accuracy    <       0.00000099 Ry

     total all-electron energy =   -282615.067130 Ry

     The total energy is the sum of the following terms:

     one-electron contribution =    -463.52355188 Ry
     hartree contribution      =     316.68232046 Ry
     xc contribution           =    -466.15037217 Ry
     ewald contribution        =    -633.56960162 Ry
     one-center paw contrib.   =   -6756.05126696 Ry
      -> PAW hartree energy AE =      25.62709147 Ry
      -> PAW hartree energy PS =     -25.51657904 Ry
      -> PAW xc energy AE      =    -384.89763070 Ry
      -> PAW xc energy PS      =      20.54996665 Ry
      -> total E_H with PAW    =     316.79283288 Ry
      -> total E_XC with PAW   =    -830.49803622 Ry

     convergence has been achieved in  21 iterations

     Writing output data file ./out/CsIhex.save/

     init_run     :     17.09s CPU     18.14s WALL (       1 calls)
     electrons    :    758.97s CPU    784.13s WALL (       1 calls)

     Called by init_run:
     wfcinit      :      8.13s CPU      8.41s WALL (       1 calls)
     wfcinit:atom :      0.01s CPU      0.04s WALL (       1 calls)
     wfcinit:wfcr :      8.04s CPU      8.16s WALL (       1 calls)
     potinit      :      1.91s CPU      2.25s WALL (       1 calls)
     hinit0       :      2.14s CPU      2.16s WALL (       1 calls)

     Called by electrons:
     c_bands      :    565.10s CPU    572.05s WALL (      22 calls)
     sum_band     :     70.87s CPU     76.33s WALL (      22 calls)
     v_of_rho     :      0.89s CPU      1.00s WALL (      22 calls)
     v_h          :      0.13s CPU      0.14s WALL (      22 calls)
     v_xc         :      0.76s CPU      0.79s WALL (      22 calls)
     newd         :     96.67s CPU    100.22s WALL (      22 calls)
     PAW_pot      :     24.90s CPU     25.10s WALL (      22 calls)
     mix_rho      :      4.71s CPU      4.99s WALL (      22 calls)

     Called by c_bands:
     init_us_2    :      0.58s CPU      0.62s WALL (      45 calls)
     cegterg      :    560.77s CPU    567.40s WALL (      22 calls)

     Called by sum_band:
     sum_band:bec :      3.90s CPU      3.91s WALL (      22 calls)
     addusdens    :     21.10s CPU     25.22s WALL (      22 calls)

     Called by *egterg:
     h_psi        :    230.48s CPU    235.34s WALL (     158 calls)
     s_psi        :    101.62s CPU    102.16s WALL (     158 calls)
     g_psi        :      0.10s CPU      0.10s WALL (     135 calls)
     cdiaghg      :     91.43s CPU     91.53s WALL (     156 calls)
     cegterg:over :     55.24s CPU     55.67s WALL (     135 calls)
     cegterg:upda :     41.78s CPU     42.05s WALL (     135 calls)
     cegterg:last :     28.31s CPU     28.56s WALL (      24 calls)

     Called by h_psi:
     h_psi:calbec :     96.80s CPU    100.18s WALL (     158 calls)
     vloc_psi     :     35.64s CPU     36.38s WALL (     158 calls)
     add_vuspsi   :     97.75s CPU     98.42s WALL (     158 calls)

     General routines
     calbec       :    132.13s CPU    136.46s WALL (     180 calls)
     fft          :      0.78s CPU      0.80s WALL (     306 calls)
     ffts         :      0.45s CPU      0.46s WALL (      88 calls)
     fftw         :     40.64s CPU     41.53s WALL (   51404 calls)

     Parallel routines
     fft_scatt_xy :      2.05s CPU      2.08s WALL (   51798 calls)
     fft_scatt_yz :     19.64s CPU     20.15s WALL (   51798 calls)

     PAW routines
     PAW_pot      :     24.90s CPU     25.10s WALL (      22 calls)
     PAW_symme    :      0.82s CPU      0.83s WALL (      44 calls)

     PWSCF        :  13m13.79s CPU  14m11.73s WALL


   This run was terminated on:  12: 7: 3  15Jan2021            

=------------------------------------------------------------------------------=
   JOB DONE.
=------------------------------------------------------------------------------=
