
     Program PWSCF v.6.6 starts on 18Jan2021 at 13:16:23 

     This program is part of the open-source Quantum ESPRESSO suite
     for quantum simulation of materials; please cite
         "P. Giannozzi et al., J. Phys.:Condens. Matter 21 395502 (2009);
         "P. Giannozzi et al., J. Phys.:Condens. Matter 29 465901 (2017);
          URL http://www.quantum-espresso.org", 
     in publications or presentations arising from this work. More details at
     http://www.quantum-espresso.org/quote

     Parallel version (MPI), running on    64 processors

     MPI processes distributed on     2 nodes
     R & G space division:  proc/nbgrp/npool/nimage =      64
     Fft bands division:     nmany     =       1
     Waiting for input...
     Reading input from standard input

     Current dimensions of program PWSCF are:
     Max number of different atomic species (ntypx) = 10
     Max number of k-points (npk) =  40000
     Max angular momentum in pseudopotentials (lmaxx) =  3
     file Sn.rel-pbe-dn-kjpaw_psl.1.0.0.UPF: wavefunction(s)  5S 5P 5P 4D 4D renormalized
     file I.rel-pbe-n-kjpaw_psl.1.0.0.UPF: wavefunction(s)  5S renormalized
     file Cs.rel-pbe-spn-kjpaw_psl.1.0.0.UPF: wavefunction(s)  5S 6S renormalized

     Subspace diagonalization in iterative solution of the eigenvalue problem:
     a serial algorithm will be used

 
     Parallelization info
     --------------------
     sticks:   dense  smooth     PW     G-vecs:    dense   smooth      PW
     Min          46      46     12                 4753     4753     642
     Max          48      48     13                 4763     4763     653
     Sum        2963    2963    783               304449   304449   41317
 

     Title: 
     perovskite                                                                 


     bravais-lattice index     =            8
     lattice parameter (alat)  =       9.1317  a.u.
     unit-cell volume          =    6370.5385 (a.u.)^3
     number of atoms/cell      =           20
     number of atomic types    =            3
     number of electrons       =       176.00
     number of Kohn-Sham states=          180
     kinetic-energy cutoff     =      50.0000  Ry
     charge density cutoff     =     200.0000  Ry
     convergence threshold     =      1.0E-06
     mixing beta               =       0.6000
     number of iterations used =            8  plain     mixing
     Exchange-correlation= SLA PW PBX PBC
                           (   1   4   3   4   0   0   0)
     Non magnetic calculation with spin-orbit


     celldm(1)=   9.131705  celldm(2)=   2.227728  celldm(3)=   3.755420
     celldm(4)=   0.000000  celldm(5)=   0.000000  celldm(6)=   0.000000

     crystal axes: (cart. coord. in units of alat)
               a(1) = (   1.000000   0.000000   0.000000 )  
               a(2) = (   0.000000   2.227728   0.000000 )  
               a(3) = (   0.000000   0.000000   3.755420 )  

     reciprocal axes: (cart. coord. in units 2 pi/alat)
               b(1) = (  1.000000  0.000000  0.000000 )  
               b(2) = (  0.000000  0.448888  0.000000 )  
               b(3) = (  0.000000  0.000000  0.266282 )  


     PseudoPot. # 1 for Sn read from file:
     ../../../../pseudo/Sn.rel-pbe-dn-kjpaw_psl.1.0.0.UPF
     MD5 check sum: 6bcaba2b82cf8d008985ef5bb9854e68
     Pseudo is Projector augmented-wave + core cor, Zval = 14.0
     Generated using "atomic" code by A. Dal Corso v.6.3
     Shape of augmentation charge: PSQ
     Using radial grid of 1243 points, 10 beta functions with: 
                l(1) =   0
                l(2) =   0
                l(3) =   1
                l(4) =   1
                l(5) =   1
                l(6) =   1
                l(7) =   2
                l(8) =   2
                l(9) =   2
               l(10) =   2
     Q(r) pseudized with 0 coefficients 


     PseudoPot. # 2 for I  read from file:
     ../../../../pseudo/I.rel-pbe-n-kjpaw_psl.1.0.0.UPF
     MD5 check sum: 1650324410fde579213a6e5684c4bdbf
     Pseudo is Projector augmented-wave + core cor, Zval =  7.0
     Generated using "atomic" code by A. Dal Corso v.6.3
     Shape of augmentation charge: PSQ
     Using radial grid of 1247 points, 10 beta functions with: 
                l(1) =   0
                l(2) =   0
                l(3) =   1
                l(4) =   1
                l(5) =   1
                l(6) =   1
                l(7) =   2
                l(8) =   2
                l(9) =   2
               l(10) =   2
     Q(r) pseudized with 0 coefficients 


     PseudoPot. # 3 for Cs read from file:
     ../../../../pseudo/Cs.rel-pbe-spn-kjpaw_psl.1.0.0.UPF
     MD5 check sum: a112b951ec9e765992cdd678db6f3609
     Pseudo is Projector augmented-wave + core cor, Zval =  9.0
     Generated using "atomic" code by A. Dal Corso v.6.4.1
     Shape of augmentation charge: PSQ
     Using radial grid of 1251 points, 15 beta functions with: 
                l(1) =   0
                l(2) =   0
                l(3) =   0
                l(4) =   1
                l(5) =   1
                l(6) =   1
                l(7) =   1
                l(8) =   2
                l(9) =   2
               l(10) =   2
               l(11) =   2
               l(12) =   3
               l(13) =   3
               l(14) =   3
               l(15) =   3
     Q(r) pseudized with 0 coefficients 


     atomic species   valence    mass     pseudopotential
        Sn            14.00   118.70000     Sn( 1.00)
        I              7.00   126.90000     I ( 1.00)
        Cs             9.00   132.90000     Cs( 1.00)

      8 Sym. Ops., with inversion, found ( 6 have fractional translation)


                                    s                        frac. trans.

      isym =  1     identity                                     

 cryst.   s( 1) = (     1          0          0      )
                  (     0          1          0      )
                  (     0          0          1      )

 cart.    s( 1) = (  1.0000000  0.0000000  0.0000000 )
                  (  0.0000000  1.0000000  0.0000000 )
                  (  0.0000000  0.0000000  1.0000000 )


      isym =  2     180 deg rotation - cart. axis [0,0,1]        

 cryst.   s( 2) = (    -1          0          0      )    f =(  0.0000000 )
                  (     0         -1          0      )       (  0.5000000 )
                  (     0          0          1      )       (  0.5000000 )

 cart.    s( 2) = ( -1.0000000  0.0000000  0.0000000 )    f =(  0.0000000 )
                  (  0.0000000 -1.0000000  0.0000000 )       (  1.1138638 )
                  (  0.0000000  0.0000000  1.0000000 )       (  1.8777098 )


      isym =  3     180 deg rotation - cart. axis [0,1,0]        

 cryst.   s( 3) = (    -1          0          0      )    f =(  0.5000000 )
                  (     0          1          0      )       ( -0.5000000 )
                  (     0          0         -1      )       ( -0.5000000 )

 cart.    s( 3) = ( -1.0000000  0.0000000  0.0000000 )    f =(  0.5000000 )
                  (  0.0000000  1.0000000  0.0000000 )       ( -1.1138638 )
                  (  0.0000000  0.0000000 -1.0000000 )       ( -1.8777098 )


      isym =  4     180 deg rotation - cart. axis [1,0,0]        

 cryst.   s( 4) = (     1          0          0      )    f =( -0.5000000 )
                  (     0         -1          0      )       (  0.0000000 )
                  (     0          0         -1      )       (  0.0000000 )

 cart.    s( 4) = (  1.0000000  0.0000000  0.0000000 )    f =( -0.5000000 )
                  (  0.0000000 -1.0000000  0.0000000 )       (  0.0000000 )
                  (  0.0000000  0.0000000 -1.0000000 )       (  0.0000000 )


      isym =  5     inversion                                    

 cryst.   s( 5) = (    -1          0          0      )
                  (     0         -1          0      )
                  (     0          0         -1      )

 cart.    s( 5) = ( -1.0000000  0.0000000  0.0000000 )
                  (  0.0000000 -1.0000000  0.0000000 )
                  (  0.0000000  0.0000000 -1.0000000 )


      isym =  6     inv. 180 deg rotation - cart. axis [0,0,1]   

 cryst.   s( 6) = (     1          0          0      )    f =(  0.0000000 )
                  (     0          1          0      )       ( -0.5000000 )
                  (     0          0         -1      )       ( -0.5000000 )

 cart.    s( 6) = (  1.0000000  0.0000000  0.0000000 )    f =(  0.0000000 )
                  (  0.0000000  1.0000000  0.0000000 )       ( -1.1138638 )
                  (  0.0000000  0.0000000 -1.0000000 )       ( -1.8777098 )


      isym =  7     inv. 180 deg rotation - cart. axis [0,1,0]   

 cryst.   s( 7) = (     1          0          0      )    f =( -0.5000000 )
                  (     0         -1          0      )       (  0.5000000 )
                  (     0          0          1      )       (  0.5000000 )

 cart.    s( 7) = (  1.0000000  0.0000000  0.0000000 )    f =( -0.5000000 )
                  (  0.0000000 -1.0000000  0.0000000 )       (  1.1138638 )
                  (  0.0000000  0.0000000  1.0000000 )       (  1.8777098 )


      isym =  8     inv. 180 deg rotation - cart. axis [1,0,0]   

 cryst.   s( 8) = (    -1          0          0      )    f =(  0.5000000 )
                  (     0          1          0      )       (  0.0000000 )
                  (     0          0          1      )       (  0.0000000 )

 cart.    s( 8) = ( -1.0000000  0.0000000  0.0000000 )    f =(  0.5000000 )
                  (  0.0000000  1.0000000  0.0000000 )       (  0.0000000 )
                  (  0.0000000  0.0000000  1.0000000 )       (  0.0000000 )


     double point group D_2h (mmm) 
     there are 10 classes and  2 irreducible representations
     the character table:

       E     -E     C2    C2'  C2''  i     -i     s_v   s_v' s_v''
                   -C2   -C2'  -C2''             -s_v  -s_v' -s_v'
G_5+   2.00 -2.00  0.00  0.00  0.00  2.00 -2.00  0.00  0.00  0.00
G_5-   2.00 -2.00  0.00  0.00  0.00 -2.00  2.00  0.00  0.00  0.00

     the symmetry operations in each class and the name of the first element:

     E             1
          identity                                               
     -E           -1
          identity E                                             
      C2  -C2      2   -2
          180 deg rotation - cart. axis [0,0,1]                  
      C2' -C2'     4   -4
          180 deg rotation - cart. axis [1,0,0]                  
     C2'' -C2''    3   -3
          180 deg rotation - cart. axis [0,1,0]                  
     i             5
          inversion                                              
     -i           -5
          inversion E                                            
      s_v -s_v     6   -6
          inv. 180 deg rotation - cart. axis [0,0,1]             
      s_v'-s_v'    8   -8
          inv. 180 deg rotation - cart. axis [1,0,0]             
     s_v''-s_v'    7   -7
          inv. 180 deg rotation - cart. axis [0,1,0]             

   Cartesian axes

     site n.     atom                  positions (alat units)
         1           Cs  tau(   1) = (   0.2500000   0.1859640   2.5168147  )
         2           Cs  tau(   2) = (   0.7500000   2.0417636   1.2386050  )
         3           Cs  tau(   3) = (   0.2500000   1.2998278   3.1163149  )
         4           Cs  tau(   4) = (   0.7500000   0.9278998   0.6391048  )
         5           Sn  tau(   5) = (   0.2500000   0.7615710   1.6485466  )
         6           Sn  tau(   6) = (   0.7500000   1.4661567   2.1068731  )
         7           Sn  tau(   7) = (   0.2500000   1.8754348   0.2291632  )
         8           Sn  tau(   8) = (   0.7500000   0.3522928   3.5262565  )
         9           I   tau(   9) = (   0.7500000   0.0581437   0.4202578  )
        10           I   tau(  10) = (   0.2500000   2.1695839   3.3351619  )
        11           I   tau(  11) = (   0.7500000   1.1720075   1.4574521  )
        12           I   tau(  12) = (   0.2500000   1.0557201   2.2979676  )
        13           I   tau(  13) = (   0.7500000   0.6531118   2.9738192  )
        14           I   tau(  14) = (   0.2500000   1.5746158   0.7816005  )
        15           I   tau(  15) = (   0.7500000   1.7669756   2.6593103  )
        16           I   tau(  16) = (   0.2500000   0.4607520   1.0961094  )
        17           I   tau(  17) = (   0.7500000   0.3753632   1.8734812  )
        18           I   tau(  18) = (   0.2500000   1.8523644   1.8819384  )
        19           I   tau(  19) = (   0.7500000   1.4892270   0.0042286  )
        20           I   tau(  20) = (   0.2500000   0.7385006   3.7511911  )

   Crystallographic axes

     site n.     atom                  positions (cryst. coord.)
         1           Cs  tau(   1) = (  0.2500000  0.0834770  0.6701820  )
         2           Cs  tau(   2) = (  0.7500000  0.9165230  0.3298180  )
         3           Cs  tau(   3) = (  0.2500000  0.5834770  0.8298180  )
         4           Cs  tau(   4) = (  0.7500000  0.4165230  0.1701820  )
         5           Sn  tau(   5) = (  0.2500000  0.3418600  0.4389780  )
         6           Sn  tau(   6) = (  0.7500000  0.6581400  0.5610220  )
         7           Sn  tau(   7) = (  0.2500000  0.8418600  0.0610220  )
         8           Sn  tau(   8) = (  0.7500000  0.1581400  0.9389780  )
         9           I   tau(   9) = (  0.7500000  0.0261000  0.1119070  )
        10           I   tau(  10) = (  0.2500000  0.9739000  0.8880930  )
        11           I   tau(  11) = (  0.7500000  0.5261000  0.3880930  )
        12           I   tau(  12) = (  0.2500000  0.4739000  0.6119070  )
        13           I   tau(  13) = (  0.7500000  0.2931740  0.7918740  )
        14           I   tau(  14) = (  0.2500000  0.7068260  0.2081260  )
        15           I   tau(  15) = (  0.7500000  0.7931740  0.7081260  )
        16           I   tau(  16) = (  0.2500000  0.2068260  0.2918740  )
        17           I   tau(  17) = (  0.7500000  0.1684960  0.4988740  )
        18           I   tau(  18) = (  0.2500000  0.8315040  0.5011260  )
        19           I   tau(  19) = (  0.7500000  0.6684960  0.0011260  )
        20           I   tau(  20) = (  0.2500000  0.3315040  0.9988740  )

     number of k points=     1
                       cart. coord. in units 2pi/alat
        k(    1) = (   0.2500000   0.1122220   0.0665705), wk =   1.0000000

                       cryst. coord.
        k(    1) = (   0.2500000   0.2500000   0.2500000), wk =   1.0000000

     Dense  grid:   304449 G-vectors     FFT dimensions: (  48,  96, 160)

     Dynamical RAM for                 wfc:       3.26 MB

     Dynamical RAM for     wfc (w. buffer):       3.26 MB

     Dynamical RAM for           str. fact:       0.22 MB

     Dynamical RAM for           local pot:       0.00 MB

     Dynamical RAM for          nlocal pot:       7.21 MB

     Dynamical RAM for                qrad:      27.26 MB

     Dynamical RAM for          rho,v,vnew:       2.14 MB

     Dynamical RAM for               rhoin:       0.71 MB

     Dynamical RAM for            rho*nmix:       4.64 MB

     Dynamical RAM for           G-vectors:       0.31 MB

     Dynamical RAM for          h,s,v(r/c):       5.93 MB

     Dynamical RAM for          <psi|beta>:       4.37 MB

     Dynamical RAM for                 psi:       6.53 MB

     Dynamical RAM for                hpsi:       6.53 MB

     Dynamical RAM for                spsi:       6.53 MB

     Dynamical RAM for      wfcinit/wfcrot:       6.65 MB

     Dynamical RAM for           addusdens:     149.07 MB

     Estimated static dynamical RAM per process >      46.89 MB

     Estimated max dynamical RAM per process >     195.96 MB

     Estimated total dynamical RAM >      12.25 GB

     Check: negative core charge=   -0.000002

     Initial potential from superposition of free atoms

     starting charge  175.83605, renormalised to  176.00000
     Starting wfcs are  208 randomized atomic wfcs
     Checking if some PAW data can be deallocated... 
       PAW data deallocated on   52 nodes for type:  1
       PAW data deallocated on   28 nodes for type:  2
       PAW data deallocated on   48 nodes for type:  3

     total cpu time spent up to now is       31.3 secs

     Self-consistent Calculation

     iteration #  1     ecut=    50.00 Ry     beta= 0.60
     Davidson diagonalization with overlap
     ethr =  1.00E-02,  avg # of iterations =  2.0

     Threshold (ethr) on eigenvalues was too large:
     Diagonalizing with lowered threshold

     Davidson diagonalization with overlap
     ethr =  5.15E-04,  avg # of iterations = 12.0

     negative rho (up, down):  3.483E+03 0.000E+00

     total cpu time spent up to now is       48.9 secs

     total energy              =  -14678.29680265 Ry
     estimated scf accuracy    < 7115611.70291911 Ry

     iteration #  2     ecut=    50.00 Ry     beta= 0.60
     Davidson diagonalization with overlap
     ethr =  1.00E-02,  avg # of iterations = 62.0

     negative rho (up, down):  3.519E+03 0.000E+00

     total cpu time spent up to now is      126.3 secs

     total energy              =  -51389.12066582 Ry
     estimated scf accuracy    <  287505.36205016 Ry

     iteration #  3     ecut=    50.00 Ry     beta= 0.60
     Davidson diagonalization with overlap
     c_bands:  5 eigenvalues not converged
     ethr =  1.00E-02,  avg # of iterations = 40.0

     negative rho (up, down):  4.720E+03 0.000E+00

     total cpu time spent up to now is      170.3 secs

     total energy              =  -79190.77524658 Ry
     estimated scf accuracy    < 1260016.58883680 Ry

     iteration #  4     ecut=    50.00 Ry     beta= 0.60
     Davidson diagonalization with overlap
     c_bands:  5 eigenvalues not converged
     ethr =  1.00E-02,  avg # of iterations = 20.0

     negative rho (up, down):  5.348E+03 0.000E+00

     total cpu time spent up to now is      191.6 secs

     total energy              =  -79697.71666910 Ry
     estimated scf accuracy    <  280606.30398425 Ry

     iteration #  5     ecut=    50.00 Ry     beta= 0.60
     Davidson diagonalization with overlap
     c_bands:  5 eigenvalues not converged
     ethr =  1.00E-02,  avg # of iterations = 20.0

     negative rho (up, down):  5.488E+03 0.000E+00

     total cpu time spent up to now is      204.5 secs

     total energy              =  -78696.38120172 Ry
     estimated scf accuracy    <   58775.61670061 Ry

     iteration #  6     ecut=    50.00 Ry     beta= 0.60
     Davidson diagonalization with overlap
     ethr =  1.00E-02,  avg # of iterations = 10.0

     negative rho (up, down):  5.732E+03 0.000E+00

     total cpu time spent up to now is      216.1 secs

     total energy              =  -78505.85826307 Ry
     estimated scf accuracy    <   25033.57644730 Ry

     iteration #  7     ecut=    50.00 Ry     beta= 0.60
     Davidson diagonalization with overlap
     ethr =  1.00E-02,  avg # of iterations =  4.0

     negative rho (up, down):  5.732E+03 0.000E+00

     total cpu time spent up to now is      226.3 secs

     total energy              =  -78517.66192449 Ry
     estimated scf accuracy    <    1254.07287474 Ry

     iteration #  8     ecut=    50.00 Ry     beta= 0.60
     Davidson diagonalization with overlap
     ethr =  1.00E-02,  avg # of iterations =  2.0

     negative rho (up, down):  5.749E+03 0.000E+00

     total cpu time spent up to now is      235.0 secs

     total energy              =  -78513.63584690 Ry
     estimated scf accuracy    <    1235.31668001 Ry

     iteration #  9     ecut=    50.00 Ry     beta= 0.60
     Davidson diagonalization with overlap
     ethr =  1.00E-02,  avg # of iterations =  1.0

     negative rho (up, down):  5.769E+03 0.000E+00

     total cpu time spent up to now is      243.4 secs

     total energy              =  -78510.36539061 Ry
     estimated scf accuracy    <     733.81177595 Ry

     iteration # 10     ecut=    50.00 Ry     beta= 0.60
     Davidson diagonalization with overlap
     ethr =  1.00E-02,  avg # of iterations =  1.0

     negative rho (up, down):  5.798E+03 0.000E+00

     total cpu time spent up to now is      251.8 secs

     total energy              =  -78506.54702698 Ry
     estimated scf accuracy    <     327.85689016 Ry

     iteration # 11     ecut=    50.00 Ry     beta= 0.60
     Davidson diagonalization with overlap
     ethr =  1.00E-02,  avg # of iterations =  1.0

     negative rho (up, down):  5.803E+03 0.000E+00

     total cpu time spent up to now is      260.2 secs

     total energy              =  -78506.81367568 Ry
     estimated scf accuracy    <      31.97510950 Ry

     iteration # 12     ecut=    50.00 Ry     beta= 0.60
     Davidson diagonalization with overlap
     ethr =  1.00E-02,  avg # of iterations =  1.0

     negative rho (up, down):  5.802E+03 0.000E+00

     total cpu time spent up to now is      268.6 secs

     total energy              =  -78509.33024020 Ry
     estimated scf accuracy    <      13.84857179 Ry

     iteration # 13     ecut=    50.00 Ry     beta= 0.60
     Davidson diagonalization with overlap
     ethr =  7.87E-03,  avg # of iterations =  2.0

     negative rho (up, down):  5.802E+03 0.000E+00

     total cpu time spent up to now is      277.6 secs

     total energy              =  -78509.11470322 Ry
     estimated scf accuracy    <       1.15996199 Ry

     iteration # 14     ecut=    50.00 Ry     beta= 0.60
     Davidson diagonalization with overlap
     c_bands:  5 eigenvalues not converged
     ethr =  6.59E-04,  avg # of iterations =100.0

     negative rho (up, down):  5.802E+03 0.000E+00

     total cpu time spent up to now is      316.1 secs

     total energy              =  -78780.94028591 Ry
     estimated scf accuracy    <     205.23080061 Ry

     iteration # 15     ecut=    50.00 Ry     beta= 0.60
     Davidson diagonalization with overlap
     c_bands:  4 eigenvalues not converged
     ethr =  6.59E-04,  avg # of iterations = 20.0

     negative rho (up, down):  5.802E+03 0.000E+00

     total cpu time spent up to now is      326.6 secs

     total energy              =  -78781.20171212 Ry
     estimated scf accuracy    <     204.22778337 Ry

     iteration # 16     ecut=    50.00 Ry     beta= 0.60
     Davidson diagonalization with overlap
     ethr =  6.59E-04,  avg # of iterations =  2.0

     negative rho (up, down):  5.802E+03 0.000E+00

     total cpu time spent up to now is      335.2 secs

     total energy              =  -78789.26681143 Ry
     estimated scf accuracy    <     205.50978574 Ry

     iteration # 17     ecut=    50.00 Ry     beta= 0.60
     Davidson diagonalization with overlap
     ethr =  6.59E-04,  avg # of iterations =  2.0

     negative rho (up, down):  5.802E+03 0.000E+00

     total cpu time spent up to now is      343.8 secs

     total energy              =  -78776.64958381 Ry
     estimated scf accuracy    <     212.50950890 Ry

     iteration # 18     ecut=    50.00 Ry     beta= 0.60
     Davidson diagonalization with overlap
     ethr =  6.59E-04,  avg # of iterations =  1.0

     negative rho (up, down):  5.802E+03 0.000E+00

     total cpu time spent up to now is      352.3 secs

     total energy              =  -78767.41042776 Ry
     estimated scf accuracy    <     197.34708245 Ry

     iteration # 19     ecut=    50.00 Ry     beta= 0.60
     Davidson diagonalization with overlap
     ethr =  6.59E-04,  avg # of iterations =  1.0

     negative rho (up, down):  5.802E+03 0.000E+00

     total cpu time spent up to now is      360.7 secs

     total energy              =  -78781.49974820 Ry
     estimated scf accuracy    <     188.63510944 Ry

     iteration # 20     ecut=    50.00 Ry     beta= 0.60
     Davidson diagonalization with overlap
     ethr =  6.59E-04,  avg # of iterations =  1.0

     negative rho (up, down):  5.802E+03 0.000E+00

     total cpu time spent up to now is      369.1 secs

     total energy              =  -78781.86696575 Ry
     estimated scf accuracy    <     203.15457847 Ry

     iteration # 21     ecut=    50.00 Ry     beta= 0.60
     Davidson diagonalization with overlap
     ethr =  6.59E-04,  avg # of iterations =  1.0

     negative rho (up, down):  5.803E+03 0.000E+00

     total cpu time spent up to now is      377.5 secs

     total energy              =  -78807.39480189 Ry
     estimated scf accuracy    <     202.80462650 Ry

     iteration # 22     ecut=    50.00 Ry     beta= 0.60
     Davidson diagonalization with overlap
     ethr =  6.59E-04,  avg # of iterations =  1.0

     negative rho (up, down):  5.802E+03 0.000E+00

     total cpu time spent up to now is      386.0 secs

     total energy              =  -78582.12524799 Ry
     estimated scf accuracy    <     229.02064160 Ry

     iteration # 23     ecut=    50.00 Ry     beta= 0.60
     Davidson diagonalization with overlap
     c_bands:  4 eigenvalues not converged
     ethr =  6.59E-04,  avg # of iterations = 40.0

     negative rho (up, down):  5.802E+03 0.000E+00

     total cpu time spent up to now is      407.1 secs

     total energy              =  -78643.64234756 Ry
     estimated scf accuracy    <      53.54029204 Ry

     iteration # 24     ecut=    50.00 Ry     beta= 0.60
     Davidson diagonalization with overlap
     c_bands:  1 eigenvalues not converged
     ethr =  6.59E-04,  avg # of iterations = 20.0

     negative rho (up, down):  5.802E+03 0.000E+00

     total cpu time spent up to now is      419.1 secs

     total energy              =  -78650.00469560 Ry
     estimated scf accuracy    <      32.32332875 Ry

     iteration # 25     ecut=    50.00 Ry     beta= 0.60
     Davidson diagonalization with overlap
     ethr =  6.59E-04,  avg # of iterations =  2.0

     negative rho (up, down):  5.804E+03 0.000E+00

     total cpu time spent up to now is      428.2 secs

     total energy              =  -78649.12435544 Ry
     estimated scf accuracy    <       6.34122043 Ry

     iteration # 26     ecut=    50.00 Ry     beta= 0.60
     Davidson diagonalization with overlap
     ethr =  6.59E-04,  avg # of iterations =  2.0

     negative rho (up, down):  5.804E+03 0.000E+00

     total cpu time spent up to now is      436.8 secs

     total energy              =  -78647.87974382 Ry
     estimated scf accuracy    <       3.38575781 Ry

     iteration # 27     ecut=    50.00 Ry     beta= 0.60
     Davidson diagonalization with overlap
     ethr =  6.59E-04,  avg # of iterations =  2.0

     negative rho (up, down):  5.804E+03 0.000E+00

     total cpu time spent up to now is      445.5 secs

     total energy              =  -78647.59359109 Ry
     estimated scf accuracy    <       2.15392962 Ry

     iteration # 28     ecut=    50.00 Ry     beta= 0.60
     Davidson diagonalization with overlap
     ethr =  6.59E-04,  avg # of iterations =  2.0

     negative rho (up, down):  5.804E+03 0.000E+00

     total cpu time spent up to now is      454.1 secs

     total energy              =  -78647.55395002 Ry
     estimated scf accuracy    <       0.35134840 Ry

     iteration # 29     ecut=    50.00 Ry     beta= 0.60
     Davidson diagonalization with overlap
     ethr =  2.00E-04,  avg # of iterations = 12.0

     negative rho (up, down):  5.804E+03 0.000E+00

     total cpu time spent up to now is      463.7 secs

     total energy              =  -78647.64458798 Ry
     estimated scf accuracy    <       0.18473411 Ry

     iteration # 30     ecut=    50.00 Ry     beta= 0.60
     Davidson diagonalization with overlap
     c_bands:  2 eigenvalues not converged
     ethr =  1.05E-04,  avg # of iterations = 40.0

     negative rho (up, down):  5.804E+03 0.000E+00

     total cpu time spent up to now is      479.5 secs

     total energy              =  -78647.76147653 Ry
     estimated scf accuracy    <       0.09639622 Ry

     iteration # 31     ecut=    50.00 Ry     beta= 0.60
     Davidson diagonalization with overlap
     c_bands:  2 eigenvalues not converged
     ethr =  5.48E-05,  avg # of iterations = 20.0

     negative rho (up, down):  5.804E+03 0.000E+00

     total cpu time spent up to now is      490.4 secs

     total energy              =  -78647.76613892 Ry
     estimated scf accuracy    <       0.08952829 Ry

     iteration # 32     ecut=    50.00 Ry     beta= 0.60
     Davidson diagonalization with overlap
     ethr =  5.09E-05,  avg # of iterations =  2.0

     negative rho (up, down):  5.804E+03 0.000E+00

     total cpu time spent up to now is      499.1 secs

     total energy              =  -78647.81919059 Ry
     estimated scf accuracy    <       0.12641797 Ry

     iteration # 33     ecut=    50.00 Ry     beta= 0.60
     Davidson diagonalization with overlap
     ethr =  5.09E-05,  avg # of iterations =  2.0

     negative rho (up, down):  5.804E+03 0.000E+00

     total cpu time spent up to now is      508.0 secs

     total energy              =  -78647.84163601 Ry
     estimated scf accuracy    <       0.14826050 Ry

     iteration # 34     ecut=    50.00 Ry     beta= 0.60
     Davidson diagonalization with overlap
     ethr =  5.09E-05,  avg # of iterations =  2.0

     negative rho (up, down):  5.804E+03 0.000E+00

     total cpu time spent up to now is      516.6 secs

     total energy              =  -78647.88039404 Ry
     estimated scf accuracy    <       0.12550317 Ry

     iteration # 35     ecut=    50.00 Ry     beta= 0.60
     Davidson diagonalization with overlap
     ethr =  5.09E-05,  avg # of iterations =  2.0

     negative rho (up, down):  5.804E+03 0.000E+00

     total cpu time spent up to now is      525.4 secs

     total energy              =  -78647.84629172 Ry
     estimated scf accuracy    <       0.19890172 Ry

     iteration # 36     ecut=    50.00 Ry     beta= 0.60
     Davidson diagonalization with overlap
     ethr =  5.09E-05,  avg # of iterations =  2.0

     negative rho (up, down):  5.804E+03 0.000E+00

     total cpu time spent up to now is      534.0 secs

     total energy              =  -78647.78887002 Ry
     estimated scf accuracy    <       0.24142412 Ry

     iteration # 37     ecut=    50.00 Ry     beta= 0.60
     Davidson diagonalization with overlap
     ethr =  5.09E-05,  avg # of iterations =  2.0

     negative rho (up, down):  5.804E+03 0.000E+00

     total cpu time spent up to now is      542.8 secs

     total energy              =  -78647.84987788 Ry
     estimated scf accuracy    <       0.23575362 Ry

     iteration # 38     ecut=    50.00 Ry     beta= 0.60
     Davidson diagonalization with overlap
     ethr =  5.09E-05,  avg # of iterations =  2.0

     negative rho (up, down):  5.804E+03 0.000E+00

     total cpu time spent up to now is      551.4 secs

     total energy              =  -78647.29349206 Ry
     estimated scf accuracy    <       0.18206413 Ry

     iteration # 39     ecut=    50.00 Ry     beta= 0.60
     Davidson diagonalization with overlap
     ethr =  5.09E-05,  avg # of iterations =  3.0

     negative rho (up, down):  5.804E+03 0.000E+00

     total cpu time spent up to now is      561.0 secs

     total energy              =  -78647.55782468 Ry
     estimated scf accuracy    <       0.67782579 Ry

     iteration # 40     ecut=    50.00 Ry     beta= 0.60
     Davidson diagonalization with overlap
     ethr =  5.09E-05,  avg # of iterations =  4.0

     negative rho (up, down):  5.804E+03 0.000E+00

     total cpu time spent up to now is      570.4 secs

     total energy              =  -78647.66107792 Ry
     estimated scf accuracy    <       1.56367925 Ry

     iteration # 41     ecut=    50.00 Ry     beta= 0.60
     Davidson diagonalization with overlap
     ethr =  5.09E-05,  avg # of iterations =  2.0

     negative rho (up, down):  5.804E+03 0.000E+00

     total cpu time spent up to now is      579.1 secs

     total energy              =  -78647.79205881 Ry
     estimated scf accuracy    <       1.51504359 Ry

     iteration # 42     ecut=    50.00 Ry     beta= 0.60
     Davidson diagonalization with overlap
     ethr =  5.09E-05,  avg # of iterations =  2.0

     negative rho (up, down):  5.804E+03 0.000E+00

     total cpu time spent up to now is      588.1 secs

     total energy              =  -78648.02836557 Ry
     estimated scf accuracy    <       0.80032715 Ry

     iteration # 43     ecut=    50.00 Ry     beta= 0.60
     Davidson diagonalization with overlap
     ethr =  5.09E-05,  avg # of iterations =  2.0

     negative rho (up, down):  5.804E+03 0.000E+00

     total cpu time spent up to now is      597.3 secs

     total energy              =  -78648.13666548 Ry
     estimated scf accuracy    <       0.06295236 Ry

     iteration # 44     ecut=    50.00 Ry     beta= 0.60
     Davidson diagonalization with overlap
     ethr =  3.58E-05,  avg # of iterations =  2.0

     negative rho (up, down):  5.804E+03 0.000E+00

     total cpu time spent up to now is      606.0 secs

     total energy              =  -78648.22642043 Ry
     estimated scf accuracy    <       0.01078286 Ry

     iteration # 45     ecut=    50.00 Ry     beta= 0.60
     Davidson diagonalization with overlap
     c_bands: 12 eigenvalues not converged
     ethr =  6.13E-06,  avg # of iterations =120.0

     negative rho (up, down):  5.804E+03 0.000E+00

     total cpu time spent up to now is      648.7 secs

     total energy              =  -78648.42420893 Ry
     estimated scf accuracy    <       0.20527296 Ry

     iteration # 46     ecut=    50.00 Ry     beta= 0.60
     Davidson diagonalization with overlap
     c_bands:  2 eigenvalues not converged
     ethr =  6.13E-06,  avg # of iterations =100.0

     negative rho (up, down):  5.804E+03 0.000E+00

     total cpu time spent up to now is      678.4 secs

     total energy              =  -78648.46049810 Ry
     estimated scf accuracy    <       0.27996481 Ry

     iteration # 47     ecut=    50.00 Ry     beta= 0.60
     Davidson diagonalization with overlap
     c_bands:  5 eigenvalues not converged
     ethr =  6.13E-06,  avg # of iterations = 20.0

     negative rho (up, down):  5.804E+03 0.000E+00

     total cpu time spent up to now is      689.0 secs

     total energy              =  -78648.46733226 Ry
     estimated scf accuracy    <       0.27716602 Ry

     iteration # 48     ecut=    50.00 Ry     beta= 0.60
     Davidson diagonalization with overlap
     c_bands:  5 eigenvalues not converged
     ethr =  6.13E-06,  avg # of iterations = 20.0

     negative rho (up, down):  5.804E+03 0.000E+00

     total cpu time spent up to now is      699.5 secs

     total energy              =  -78648.47000123 Ry
     estimated scf accuracy    <       0.27544346 Ry

     iteration # 49     ecut=    50.00 Ry     beta= 0.60
     Davidson diagonalization with overlap
     c_bands:  1 eigenvalues not converged
     ethr =  6.13E-06,  avg # of iterations = 20.0

     negative rho (up, down):  5.804E+03 0.000E+00

     total cpu time spent up to now is      709.4 secs

     total energy              =  -78648.46248200 Ry
     estimated scf accuracy    <       0.27747309 Ry

     iteration # 50     ecut=    50.00 Ry     beta= 0.60
     Davidson diagonalization with overlap
     ethr =  6.13E-06,  avg # of iterations =  3.0

     negative rho (up, down):  5.804E+03 0.000E+00

     total cpu time spent up to now is      718.1 secs

     total energy              =  -78648.47439915 Ry
     estimated scf accuracy    <       0.30461176 Ry

     iteration # 51     ecut=    50.00 Ry     beta= 0.60
     Davidson diagonalization with overlap
     ethr =  6.13E-06,  avg # of iterations =  2.0

     negative rho (up, down):  5.804E+03 0.000E+00

     total cpu time spent up to now is      726.9 secs

     total energy              =  -78648.46682394 Ry
     estimated scf accuracy    <       0.28440806 Ry

     iteration # 52     ecut=    50.00 Ry     beta= 0.60
     Davidson diagonalization with overlap
     ethr =  6.13E-06,  avg # of iterations =  2.0

     negative rho (up, down):  5.804E+03 0.000E+00

     total cpu time spent up to now is      735.6 secs

     total energy              =  -78648.44201886 Ry
     estimated scf accuracy    <       0.30621683 Ry

     iteration # 53     ecut=    50.00 Ry     beta= 0.60
     Davidson diagonalization with overlap
     ethr =  6.13E-06,  avg # of iterations =  2.0

     negative rho (up, down):  5.804E+03 0.000E+00

     total cpu time spent up to now is      744.3 secs

     total energy              =  -78648.59700366 Ry
     estimated scf accuracy    <       0.32221147 Ry

     iteration # 54     ecut=    50.00 Ry     beta= 0.60
     Davidson diagonalization with overlap
     ethr =  6.13E-06,  avg # of iterations =  4.0

     negative rho (up, down):  5.804E+03 0.000E+00

     total cpu time spent up to now is      753.7 secs

     total energy              =  -78648.41216151 Ry
     estimated scf accuracy    <       0.32721115 Ry

     iteration # 55     ecut=    50.00 Ry     beta= 0.60
     Davidson diagonalization with overlap
     c_bands:  1 eigenvalues not converged
     ethr =  6.13E-06,  avg # of iterations = 20.0

     negative rho (up, down):  5.804E+03 0.000E+00

     total cpu time spent up to now is      764.0 secs

     total energy              =  -78648.52861724 Ry
     estimated scf accuracy    <       0.29553301 Ry

     iteration # 56     ecut=    50.00 Ry     beta= 0.60
     Davidson diagonalization with overlap
     ethr =  6.13E-06,  avg # of iterations =  3.0

     negative rho (up, down):  5.804E+03 0.000E+00

     total cpu time spent up to now is      773.2 secs

     total energy              =  -78648.68512049 Ry
     estimated scf accuracy    <       0.08589735 Ry

     iteration # 57     ecut=    50.00 Ry     beta= 0.60
     Davidson diagonalization with overlap
     ethr =  6.13E-06,  avg # of iterations =  3.0

     negative rho (up, down):  5.804E+03 0.000E+00

     total cpu time spent up to now is      783.4 secs

     total energy              =  -78648.67539213 Ry
     estimated scf accuracy    <       0.10403977 Ry

     iteration # 58     ecut=    50.00 Ry     beta= 0.60
     Davidson diagonalization with overlap
     ethr =  6.13E-06,  avg # of iterations =  3.0

     negative rho (up, down):  5.804E+03 0.000E+00

     total cpu time spent up to now is      792.2 secs

     total energy              =  -78648.85274954 Ry
     estimated scf accuracy    <       0.19005136 Ry

     iteration # 59     ecut=    50.00 Ry     beta= 0.60
     Davidson diagonalization with overlap
     ethr =  6.13E-06,  avg # of iterations =  3.0

     negative rho (up, down):  5.804E+03 0.000E+00

     total cpu time spent up to now is      802.4 secs

     total energy              =  -78648.90062184 Ry
     estimated scf accuracy    <       0.16404810 Ry

     iteration # 60     ecut=    50.00 Ry     beta= 0.60
     Davidson diagonalization with overlap
     ethr =  6.13E-06,  avg # of iterations =  2.0

     negative rho (up, down):  5.804E+03 0.000E+00

     total cpu time spent up to now is      811.4 secs

     total energy              =  -78648.75026382 Ry
     estimated scf accuracy    <       0.21917146 Ry

     iteration # 61     ecut=    50.00 Ry     beta= 0.60
     Davidson diagonalization with overlap
     ethr =  6.13E-06,  avg # of iterations =  3.0

     negative rho (up, down):  5.804E+03 0.000E+00

     total cpu time spent up to now is      820.8 secs

     total energy              =  -78648.34432377 Ry
     estimated scf accuracy    <       0.18668768 Ry

     iteration # 62     ecut=    50.00 Ry     beta= 0.60
     Davidson diagonalization with overlap
     c_bands:  1 eigenvalues not converged
     ethr =  6.13E-06,  avg # of iterations = 20.0

     negative rho (up, down):  5.804E+03 0.000E+00

     total cpu time spent up to now is      834.4 secs

     total energy              =  -78648.23040940 Ry
     estimated scf accuracy    <       0.29709308 Ry

     iteration # 63     ecut=    50.00 Ry     beta= 0.60
     Davidson diagonalization with overlap
     ethr =  6.13E-06,  avg # of iterations = 12.0

     negative rho (up, down):  5.804E+03 0.000E+00

     total cpu time spent up to now is      845.7 secs

     total energy              =  -78647.94632035 Ry
     estimated scf accuracy    <       0.41298637 Ry

     iteration # 64     ecut=    50.00 Ry     beta= 0.60
     Davidson diagonalization with overlap
     ethr =  6.13E-06,  avg # of iterations =  7.0

     negative rho (up, down):  5.803E+03 0.000E+00

     total cpu time spent up to now is      857.4 secs

     total energy              =  -78648.84748686 Ry
     estimated scf accuracy    <       0.96829591 Ry

     iteration # 65     ecut=    50.00 Ry     beta= 0.60
     Davidson diagonalization with overlap
     ethr =  6.13E-06,  avg # of iterations = 10.0

     negative rho (up, down):  5.804E+03 0.000E+00

     total cpu time spent up to now is      875.1 secs

     total energy              =  -78648.71938555 Ry
     estimated scf accuracy    <       0.12918472 Ry

     iteration # 66     ecut=    50.00 Ry     beta= 0.60
     Davidson diagonalization with overlap
     c_bands:  4 eigenvalues not converged
     ethr =  6.13E-06,  avg # of iterations = 20.0

     negative rho (up, down):  5.804E+03 0.000E+00

     total cpu time spent up to now is      888.1 secs

     total energy              =  -78648.64857694 Ry
     estimated scf accuracy    <       0.21649416 Ry

     iteration # 67     ecut=    50.00 Ry     beta= 0.60
     Davidson diagonalization with overlap
     ethr =  6.13E-06,  avg # of iterations = 11.0

     negative rho (up, down):  5.804E+03 0.000E+00

     total cpu time spent up to now is      899.1 secs

     total energy              =  -78648.73642932 Ry
     estimated scf accuracy    <       0.10807023 Ry

     iteration # 68     ecut=    50.00 Ry     beta= 0.60
     Davidson diagonalization with overlap
     ethr =  6.13E-06,  avg # of iterations =  2.0

     negative rho (up, down):  5.804E+03 0.000E+00

     total cpu time spent up to now is      908.0 secs

     total energy              =  -78648.82771927 Ry
     estimated scf accuracy    <       0.02137571 Ry

     iteration # 69     ecut=    50.00 Ry     beta= 0.60
     Davidson diagonalization with overlap
     ethr =  6.13E-06,  avg # of iterations =  2.0

     negative rho (up, down):  5.804E+03 0.000E+00

     total cpu time spent up to now is      917.2 secs

     total energy              =  -78648.80260641 Ry
     estimated scf accuracy    <       0.05535076 Ry

     iteration # 70     ecut=    50.00 Ry     beta= 0.60
     Davidson diagonalization with overlap
     ethr =  6.13E-06,  avg # of iterations =  2.0

     negative rho (up, down):  5.804E+03 0.000E+00

     total cpu time spent up to now is      925.8 secs

     total energy              =  -78648.77409647 Ry
     estimated scf accuracy    <       0.00867834 Ry

     iteration # 71     ecut=    50.00 Ry     beta= 0.60
     Davidson diagonalization with overlap
     ethr =  4.93E-06,  avg # of iterations =  2.0

     negative rho (up, down):  5.804E+03 0.000E+00

     total cpu time spent up to now is      934.5 secs

     total energy              =  -78648.77460530 Ry
     estimated scf accuracy    <       0.02489608 Ry

     iteration # 72     ecut=    50.00 Ry     beta= 0.60
     Davidson diagonalization with overlap
     ethr =  4.93E-06,  avg # of iterations =  2.0

     negative rho (up, down):  5.804E+03 0.000E+00

     total cpu time spent up to now is      943.1 secs

     total energy              =  -78648.78602004 Ry
     estimated scf accuracy    <       0.00877996 Ry

     iteration # 73     ecut=    50.00 Ry     beta= 0.60
     Davidson diagonalization with overlap
     ethr =  4.93E-06,  avg # of iterations =  2.0

     negative rho (up, down):  5.804E+03 0.000E+00

     total cpu time spent up to now is      951.7 secs

     total energy              =  -78648.78785889 Ry
     estimated scf accuracy    <       0.00068541 Ry

     iteration # 74     ecut=    50.00 Ry     beta= 0.60
     Davidson diagonalization with overlap
     ethr =  3.89E-07,  avg # of iterations = 42.0

     negative rho (up, down):  5.804E+03 0.000E+00

     total cpu time spent up to now is      971.1 secs

     total energy              =  -78648.79723373 Ry
     estimated scf accuracy    <       0.02000241 Ry

     iteration # 75     ecut=    50.00 Ry     beta= 0.60
     Davidson diagonalization with overlap
     ethr =  3.89E-07,  avg # of iterations =  2.0

     negative rho (up, down):  5.804E+03 0.000E+00

     total cpu time spent up to now is      979.7 secs

     total energy              =  -78648.79970333 Ry
     estimated scf accuracy    <       0.00859501 Ry

     iteration # 76     ecut=    50.00 Ry     beta= 0.60
     Davidson diagonalization with overlap
     ethr =  3.89E-07,  avg # of iterations =  1.0

     negative rho (up, down):  5.804E+03 0.000E+00

     total cpu time spent up to now is      988.2 secs

     total energy              =  -78648.79604816 Ry
     estimated scf accuracy    <       0.01095775 Ry

     iteration # 77     ecut=    50.00 Ry     beta= 0.60
     Davidson diagonalization with overlap
     ethr =  3.89E-07,  avg # of iterations =  2.0

     negative rho (up, down):  5.804E+03 0.000E+00

     total cpu time spent up to now is      996.9 secs

     total energy              =  -78648.81202724 Ry
     estimated scf accuracy    <       0.00963862 Ry

     iteration # 78     ecut=    50.00 Ry     beta= 0.60
     Davidson diagonalization with overlap
     ethr =  3.89E-07,  avg # of iterations =  2.0

     negative rho (up, down):  5.804E+03 0.000E+00

     total cpu time spent up to now is     1005.8 secs

     total energy              =  -78648.81039796 Ry
     estimated scf accuracy    <       0.00974380 Ry

     iteration # 79     ecut=    50.00 Ry     beta= 0.60
     Davidson diagonalization with overlap
     ethr =  3.89E-07,  avg # of iterations =  2.0

     negative rho (up, down):  5.804E+03 0.000E+00

     total cpu time spent up to now is     1014.4 secs

     total energy              =  -78648.81049275 Ry
     estimated scf accuracy    <       0.00766675 Ry

     iteration # 80     ecut=    50.00 Ry     beta= 0.60
     Davidson diagonalization with overlap
     ethr =  3.89E-07,  avg # of iterations =  1.0

     negative rho (up, down):  5.804E+03 0.000E+00

     total cpu time spent up to now is     1023.0 secs

     total energy              =  -78648.80643819 Ry
     estimated scf accuracy    <       0.00718095 Ry

     iteration # 81     ecut=    50.00 Ry     beta= 0.60
     Davidson diagonalization with overlap
     ethr =  3.89E-07,  avg # of iterations =  2.0

     negative rho (up, down):  5.804E+03 0.000E+00

     total cpu time spent up to now is     1032.0 secs

     total energy              =  -78648.79616716 Ry
     estimated scf accuracy    <       0.00763280 Ry

     iteration # 82     ecut=    50.00 Ry     beta= 0.60
     Davidson diagonalization with overlap
     ethr =  3.89E-07,  avg # of iterations =  2.0

     negative rho (up, down):  5.804E+03 0.000E+00

     total cpu time spent up to now is     1040.7 secs

     total energy              =  -78648.76536936 Ry
     estimated scf accuracy    <       0.01457041 Ry

     iteration # 83     ecut=    50.00 Ry     beta= 0.60
     Davidson diagonalization with overlap
     ethr =  3.89E-07,  avg # of iterations =  2.0

     negative rho (up, down):  5.803E+03 0.000E+00

     total cpu time spent up to now is     1049.9 secs

     total energy              =  -78648.87238133 Ry
     estimated scf accuracy    <       0.03770720 Ry

     iteration # 84     ecut=    50.00 Ry     beta= 0.60
     Davidson diagonalization with overlap
     ethr =  3.89E-07,  avg # of iterations =  8.0

     negative rho (up, down):  5.804E+03 0.000E+00

     total cpu time spent up to now is     1062.5 secs

     total energy              =  -78648.86803518 Ry
     estimated scf accuracy    <       0.01054184 Ry

     iteration # 85     ecut=    50.00 Ry     beta= 0.60
     Davidson diagonalization with overlap
     ethr =  3.89E-07,  avg # of iterations =  6.0

     negative rho (up, down):  5.804E+03 0.000E+00

     total cpu time spent up to now is     1071.9 secs

     total energy              =  -78648.86815135 Ry
     estimated scf accuracy    <       0.00013013 Ry

     iteration # 86     ecut=    50.00 Ry     beta= 0.60
     Davidson diagonalization with overlap
     c_bands:  7 eigenvalues not converged
     ethr =  7.39E-08,  avg # of iterations =120.0

     negative rho (up, down):  5.804E+03 0.000E+00

     total cpu time spent up to now is     1109.6 secs

     total energy              =  -78648.84697062 Ry
     estimated scf accuracy    <       0.03365818 Ry

     iteration # 87     ecut=    50.00 Ry     beta= 0.60
     Davidson diagonalization with overlap
     ethr =  7.39E-08,  avg # of iterations = 83.0

     negative rho (up, down):  5.804E+03 0.000E+00

     total cpu time spent up to now is     1138.2 secs

     total energy              =  -78648.85700631 Ry
     estimated scf accuracy    <       0.10186978 Ry

     iteration # 88     ecut=    50.00 Ry     beta= 0.60
     Davidson diagonalization with overlap
     c_bands:  5 eigenvalues not converged
     ethr =  7.39E-08,  avg # of iterations = 40.0

     negative rho (up, down):  5.804E+03 0.000E+00

     total cpu time spent up to now is     1154.0 secs

     total energy              =  -78648.85673381 Ry
     estimated scf accuracy    <       0.02204260 Ry

     iteration # 89     ecut=    50.00 Ry     beta= 0.60
     Davidson diagonalization with overlap
     ethr =  7.39E-08,  avg # of iterations =  2.0

     negative rho (up, down):  5.804E+03 0.000E+00

     total cpu time spent up to now is     1162.7 secs

     total energy              =  -78648.85804773 Ry
     estimated scf accuracy    <       0.01987523 Ry

     iteration # 90     ecut=    50.00 Ry     beta= 0.60
     Davidson diagonalization with overlap
     c_bands:  1 eigenvalues not converged
     ethr =  7.39E-08,  avg # of iterations = 20.0

     negative rho (up, down):  5.804E+03 0.000E+00

     total cpu time spent up to now is     1172.6 secs

     total energy              =  -78648.86531008 Ry
     estimated scf accuracy    <       0.14456119 Ry

     iteration # 91     ecut=    50.00 Ry     beta= 0.60
     Davidson diagonalization with overlap
     ethr =  7.39E-08,  avg # of iterations = 62.0

     negative rho (up, down):  5.804E+03 0.000E+00

     total cpu time spent up to now is     1195.4 secs

     total energy              =  -78648.86156138 Ry
     estimated scf accuracy    <       0.05807947 Ry

     iteration # 92     ecut=    50.00 Ry     beta= 0.60
     Davidson diagonalization with overlap
     ethr =  7.39E-08,  avg # of iterations =  2.0

     negative rho (up, down):  5.803E+03 0.000E+00

     total cpu time spent up to now is     1204.2 secs

     total energy              =  -78648.87762493 Ry
     estimated scf accuracy    <       0.04456375 Ry

     iteration # 93     ecut=    50.00 Ry     beta= 0.60
     Davidson diagonalization with overlap
     ethr =  7.39E-08,  avg # of iterations =  3.0

     negative rho (up, down):  5.804E+03 0.000E+00

     total cpu time spent up to now is     1213.7 secs

     total energy              =  -78648.84555211 Ry
     estimated scf accuracy    <       0.05233796 Ry

     iteration # 94     ecut=    50.00 Ry     beta= 0.60
     Davidson diagonalization with overlap
     c_bands:  1 eigenvalues not converged
     ethr =  7.39E-08,  avg # of iterations = 40.0

     negative rho (up, down):  5.804E+03 0.000E+00

     total cpu time spent up to now is     1231.0 secs

     total energy              =  -78648.80536879 Ry
     estimated scf accuracy    <       0.18934205 Ry

     iteration # 95     ecut=    50.00 Ry     beta= 0.60
     Davidson diagonalization with overlap
     ethr =  7.39E-08,  avg # of iterations =  6.0

     negative rho (up, down):  5.804E+03 0.000E+00

     total cpu time spent up to now is     1242.6 secs

     total energy              =  -78648.82279854 Ry
     estimated scf accuracy    <       0.02881913 Ry

     iteration # 96     ecut=    50.00 Ry     beta= 0.60
     Davidson diagonalization with overlap
     ethr =  7.39E-08,  avg # of iterations =  2.0

     negative rho (up, down):  5.804E+03 0.000E+00

     total cpu time spent up to now is     1251.7 secs

     total energy              =  -78648.82474285 Ry
     estimated scf accuracy    <       0.08986564 Ry

     iteration # 97     ecut=    50.00 Ry     beta= 0.60
     Davidson diagonalization with overlap
     ethr =  7.39E-08,  avg # of iterations =  1.0

     negative rho (up, down):  5.804E+03 0.000E+00

     total cpu time spent up to now is     1260.3 secs

     total energy              =  -78648.82826100 Ry
     estimated scf accuracy    <       0.11291260 Ry

     iteration # 98     ecut=    50.00 Ry     beta= 0.60
     Davidson diagonalization with overlap
     ethr =  7.39E-08,  avg # of iterations =  1.0

     negative rho (up, down):  5.804E+03 0.000E+00

     total cpu time spent up to now is     1268.7 secs

     total energy              =  -78648.82534827 Ry
     estimated scf accuracy    <       0.17110205 Ry

     iteration # 99     ecut=    50.00 Ry     beta= 0.60
     Davidson diagonalization with overlap
     ethr =  7.39E-08,  avg # of iterations =  2.0

     negative rho (up, down):  5.804E+03 0.000E+00

     total cpu time spent up to now is     1277.4 secs

     total energy              =  -78648.82654027 Ry
     estimated scf accuracy    <       0.17012565 Ry

     iteration #100     ecut=    50.00 Ry     beta= 0.60
     Davidson diagonalization with overlap
     ethr =  7.39E-08,  avg # of iterations =  1.0

     negative rho (up, down):  5.804E+03 0.000E+00

     total cpu time spent up to now is     1285.8 secs

     total energy              =  -78648.82094904 Ry
     estimated scf accuracy    <       0.17503571 Ry

     End of self-consistent calculation

     convergence NOT achieved after 100 iterations: stopping

     Writing output data file ./out/CsIhex.save/
     Message from routine punch:
     wavefunctions written to file
 
     init_run     :      6.38s CPU      8.22s WALL (       1 calls)
     electrons    :   1191.63s CPU   1255.20s WALL (       1 calls)

     Called by init_run:
     wfcinit      :      1.33s CPU      1.67s WALL (       1 calls)
     wfcinit:atom :      0.02s CPU      0.06s WALL (       1 calls)
     wfcinit:wfcr :      1.28s CPU      1.39s WALL (       1 calls)
     potinit      :      1.25s CPU      1.74s WALL (       1 calls)
     hinit0       :      0.99s CPU      1.19s WALL (       1 calls)

     Called by electrons:
     c_bands      :    667.23s CPU    677.66s WALL (     101 calls)
     sum_band     :    142.54s CPU    176.74s WALL (     101 calls)
     v_of_rho     :      2.67s CPU      2.89s WALL (     101 calls)
     v_h          :      0.25s CPU      0.31s WALL (     101 calls)
     v_xc         :      2.42s CPU      2.57s WALL (     101 calls)
     newd         :    245.77s CPU    261.36s WALL (     101 calls)
     PAW_pot      :    106.38s CPU    106.82s WALL (     101 calls)
     mix_rho      :     26.09s CPU     26.74s WALL (     101 calls)

     Called by c_bands:
     init_us_2    :      2.91s CPU      3.03s WALL (     203 calls)
     cegterg      :    634.77s CPU    643.25s WALL (     136 calls)

     Called by sum_band:
     sum_band:wei :      0.01s CPU      0.02s WALL (     101 calls)
     sum_band:loo :     57.08s CPU     58.19s WALL (     101 calls)
     sum_band:buf :      0.00s CPU      0.00s WALL (     101 calls)
     sum_band:ini :      1.51s CPU      1.54s WALL (     101 calls)
     sum_band:cal :     13.49s CPU     13.82s WALL (     101 calls)
     sum_band:bec :     10.28s CPU     10.29s WALL (     101 calls)
     addusdens    :     78.02s CPU    110.94s WALL (     101 calls)
     addusd:skk   :      0.13s CPU      0.17s WALL (     303 calls)
     addusd:dgemm :     33.70s CPU     66.21s WALL (     303 calls)
     addusd:qvan2 :     43.24s CPU     43.34s WALL (     303 calls)

     Called by *egterg:
     cdiaghg      :     80.25s CPU     80.45s WALL (    1490 calls)
     cegterg:over :     45.14s CPU     45.73s WALL (    1355 calls)
     cegterg:upda :     21.35s CPU     21.44s WALL (    1355 calls)
     cegterg:last :     40.30s CPU     40.41s WALL (     397 calls)
     h_psi        :    338.84s CPU    345.83s WALL (    1492 calls)
     s_psi        :     82.92s CPU     83.36s WALL (    1492 calls)
     g_psi        :      0.55s CPU      0.56s WALL (    1355 calls)

     Called by h_psi:
     h_psi:calbec :     61.84s CPU     63.81s WALL (    1492 calls)
     vloc_psi     :    197.59s CPU    202.15s WALL (    1492 calls)
     add_vuspsi   :     77.04s CPU     77.45s WALL (    1492 calls)

     General routines
     calbec       :     75.30s CPU     77.61s WALL (    1593 calls)
     fft          :      2.68s CPU      2.82s WALL (    1416 calls)
     ffts         :      1.10s CPU      1.11s WALL (     404 calls)
     fftw         :    210.81s CPU    215.75s WALL (  349932 calls)
     davcio       :      0.00s CPU      0.08s WALL (      19 calls)
 
     Parallel routines
     fft_scatt_xy :     11.82s CPU     12.05s WALL (  351752 calls)
     fft_scatt_yz :    136.13s CPU    139.53s WALL (  351752 calls)

     PAW routines
     PAW_pot      :    106.38s CPU    106.82s WALL (     101 calls)
     PAW_symme    :      3.64s CPU      3.67s WALL (     202 calls)
 
     PWSCF        :  20m14.02s CPU  21m27.40s WALL

 
   This run was terminated on:  13:37:50  18Jan2021            

=------------------------------------------------------------------------------=
   JOB DONE.
=------------------------------------------------------------------------------=
