
     Program PWSCF v.6.6 starts on 30Jan2021 at 10:33:48 

     This program is part of the open-source Quantum ESPRESSO suite
     for quantum simulation of materials; please cite
         "P. Giannozzi et al., J. Phys.:Condens. Matter 21 395502 (2009);
         "P. Giannozzi et al., J. Phys.:Condens. Matter 29 465901 (2017);
          URL http://www.quantum-espresso.org", 
     in publications or presentations arising from this work. More details at
     http://www.quantum-espresso.org/quote

     Parallel version (MPI), running on    32 processors

     MPI processes distributed on     1 nodes
     R & G space division:  proc/nbgrp/npool/nimage =      32
     Fft bands division:     nmany     =       1
     Waiting for input...
     Reading input from standard input

     Current dimensions of program PWSCF are:
     Max number of different atomic species (ntypx) = 10
     Max number of k-points (npk) =  40000
     Max angular momentum in pseudopotentials (lmaxx) =  3
     file Cs.rel-pbe-spn-rrkjus_psl.1.0.0.UPF: wavefunction(s)  5S 6S renormalized

     Subspace diagonalization in iterative solution of the eigenvalue problem:
     a serial algorithm will be used

 
     Parallelization info
     --------------------
     sticks:   dense  smooth     PW     G-vecs:    dense   smooth      PW
     Min          30      30      9                  730      730     114
     Max          31      31     11                  735      735     117
     Sum         989     989    293                23439    23439    3695
 

     Title: 
     CsIsalt                                                                    


     bravais-lattice index     =            1
     lattice parameter (alat)  =       8.8160  a.u.
     unit-cell volume          =     685.1896 (a.u.)^3
     number of atoms/cell      =            2
     number of atomic types    =            2
     number of electrons       =        16.00
     number of Kohn-Sham states=           16
     kinetic-energy cutoff     =      40.0000  Ry
     charge density cutoff     =     160.0000  Ry
     convergence threshold     =      1.0E-06
     mixing beta               =       0.6000
     number of iterations used =            8  plain     mixing
     Exchange-correlation= PBE
                           (   1   4   3   4   0   0   0)
     Non magnetic calculation with spin-orbit


     celldm(1)=   8.815973  celldm(2)=   0.000000  celldm(3)=   0.000000
     celldm(4)=   0.000000  celldm(5)=   0.000000  celldm(6)=   0.000000

     crystal axes: (cart. coord. in units of alat)
               a(1) = (   1.000000   0.000000   0.000000 )  
               a(2) = (   0.000000   1.000000   0.000000 )  
               a(3) = (   0.000000   0.000000   1.000000 )  

     reciprocal axes: (cart. coord. in units 2 pi/alat)
               b(1) = (  1.000000  0.000000  0.000000 )  
               b(2) = (  0.000000  1.000000  0.000000 )  
               b(3) = (  0.000000  0.000000  1.000000 )  


     PseudoPot. # 1 for I  read from file:
     /scratch/afiorent/degironcoli/pseudo/pseudo-usp/I.rel-pbe-n-rrkjus_psl.0.2.2.UPF
     MD5 check sum: b9024a078df971004264c9bcc9ff756e
     Pseudo is Ultrasoft + core correction, Zval =  7.0
     Generated using "atomic" code by A. Dal Corso v.5.0.2 svn rev. 9415
     Using radial grid of 1247 points,  6 beta functions with: 
                l(1) =   0
                l(2) =   0
                l(3) =   1
                l(4) =   1
                l(5) =   1
                l(6) =   1
     Q(r) pseudized with 0 coefficients 


     PseudoPot. # 2 for Cs read from file:
     /scratch/afiorent/degironcoli/pseudo/pseudo-usp/Cs.rel-pbe-spn-rrkjus_psl.1.0.0.UPF
     MD5 check sum: 92f45d5fced885c1284380ec35df8368
     Pseudo is Ultrasoft + core correction, Zval =  9.0
     Generated using "atomic" code by A. Dal Corso v.6.4.1
     Using radial grid of 1251 points, 15 beta functions with: 
                l(1) =   0
                l(2) =   0
                l(3) =   0
                l(4) =   1
                l(5) =   1
                l(6) =   1
                l(7) =   1
                l(8) =   2
                l(9) =   2
               l(10) =   2
               l(11) =   2
               l(12) =   3
               l(13) =   3
               l(14) =   3
               l(15) =   3
     Q(r) pseudized with 0 coefficients 


     atomic species   valence    mass     pseudopotential
        I              7.00   126.90000     I ( 1.00)
        Cs             9.00   132.90000     Cs( 1.00)

     48 Sym. Ops., with inversion, found


                                    s                        frac. trans.

      isym =  1     identity                                     

 cryst.   s( 1) = (     1          0          0      )
                  (     0          1          0      )
                  (     0          0          1      )

 cart.    s( 1) = (  1.0000000  0.0000000  0.0000000 )
                  (  0.0000000  1.0000000  0.0000000 )
                  (  0.0000000  0.0000000  1.0000000 )


      isym =  2     180 deg rotation - cart. axis [0,0,1]        

 cryst.   s( 2) = (    -1          0          0      )
                  (     0         -1          0      )
                  (     0          0          1      )

 cart.    s( 2) = ( -1.0000000  0.0000000  0.0000000 )
                  (  0.0000000 -1.0000000  0.0000000 )
                  (  0.0000000  0.0000000  1.0000000 )


      isym =  3     180 deg rotation - cart. axis [0,1,0]        

 cryst.   s( 3) = (    -1          0          0      )
                  (     0          1          0      )
                  (     0          0         -1      )

 cart.    s( 3) = ( -1.0000000  0.0000000  0.0000000 )
                  (  0.0000000  1.0000000  0.0000000 )
                  (  0.0000000  0.0000000 -1.0000000 )


      isym =  4     180 deg rotation - cart. axis [1,0,0]        

 cryst.   s( 4) = (     1          0          0      )
                  (     0         -1          0      )
                  (     0          0         -1      )

 cart.    s( 4) = (  1.0000000  0.0000000  0.0000000 )
                  (  0.0000000 -1.0000000  0.0000000 )
                  (  0.0000000  0.0000000 -1.0000000 )


      isym =  5     180 deg rotation - cart. axis [1,1,0]        

 cryst.   s( 5) = (     0          1          0      )
                  (     1          0          0      )
                  (     0          0         -1      )

 cart.    s( 5) = (  0.0000000  1.0000000  0.0000000 )
                  (  1.0000000  0.0000000  0.0000000 )
                  (  0.0000000  0.0000000 -1.0000000 )


      isym =  6     180 deg rotation - cart. axis [1,-1,0]       

 cryst.   s( 6) = (     0         -1          0      )
                  (    -1          0          0      )
                  (     0          0         -1      )

 cart.    s( 6) = (  0.0000000 -1.0000000  0.0000000 )
                  ( -1.0000000  0.0000000  0.0000000 )
                  (  0.0000000  0.0000000 -1.0000000 )


      isym =  7      90 deg rotation - cart. axis [0,0,-1]       

 cryst.   s( 7) = (     0         -1          0      )
                  (     1          0          0      )
                  (     0          0          1      )

 cart.    s( 7) = (  0.0000000  1.0000000  0.0000000 )
                  ( -1.0000000  0.0000000  0.0000000 )
                  (  0.0000000  0.0000000  1.0000000 )


      isym =  8      90 deg rotation - cart. axis [0,0,1]        

 cryst.   s( 8) = (     0          1          0      )
                  (    -1          0          0      )
                  (     0          0          1      )

 cart.    s( 8) = (  0.0000000 -1.0000000  0.0000000 )
                  (  1.0000000  0.0000000  0.0000000 )
                  (  0.0000000  0.0000000  1.0000000 )


      isym =  9     180 deg rotation - cart. axis [1,0,1]        

 cryst.   s( 9) = (     0          0          1      )
                  (     0         -1          0      )
                  (     1          0          0      )

 cart.    s( 9) = (  0.0000000  0.0000000  1.0000000 )
                  (  0.0000000 -1.0000000  0.0000000 )
                  (  1.0000000  0.0000000  0.0000000 )


      isym = 10     180 deg rotation - cart. axis [-1,0,1]       

 cryst.   s(10) = (     0          0         -1      )
                  (     0         -1          0      )
                  (    -1          0          0      )

 cart.    s(10) = (  0.0000000  0.0000000 -1.0000000 )
                  (  0.0000000 -1.0000000  0.0000000 )
                  ( -1.0000000  0.0000000  0.0000000 )


      isym = 11      90 deg rotation - cart. axis [0,1,0]        

 cryst.   s(11) = (     0          0         -1      )
                  (     0          1          0      )
                  (     1          0          0      )

 cart.    s(11) = (  0.0000000  0.0000000  1.0000000 )
                  (  0.0000000  1.0000000  0.0000000 )
                  ( -1.0000000  0.0000000  0.0000000 )


      isym = 12      90 deg rotation - cart. axis [0,-1,0]       

 cryst.   s(12) = (     0          0          1      )
                  (     0          1          0      )
                  (    -1          0          0      )

 cart.    s(12) = (  0.0000000  0.0000000 -1.0000000 )
                  (  0.0000000  1.0000000  0.0000000 )
                  (  1.0000000  0.0000000  0.0000000 )


      isym = 13     180 deg rotation - cart. axis [0,1,1]        

 cryst.   s(13) = (    -1          0          0      )
                  (     0          0          1      )
                  (     0          1          0      )

 cart.    s(13) = ( -1.0000000  0.0000000  0.0000000 )
                  (  0.0000000  0.0000000  1.0000000 )
                  (  0.0000000  1.0000000  0.0000000 )


      isym = 14     180 deg rotation - cart. axis [0,1,-1]       

 cryst.   s(14) = (    -1          0          0      )
                  (     0          0         -1      )
                  (     0         -1          0      )

 cart.    s(14) = ( -1.0000000  0.0000000  0.0000000 )
                  (  0.0000000  0.0000000 -1.0000000 )
                  (  0.0000000 -1.0000000  0.0000000 )


      isym = 15      90 deg rotation - cart. axis [-1,0,0]       

 cryst.   s(15) = (     1          0          0      )
                  (     0          0         -1      )
                  (     0          1          0      )

 cart.    s(15) = (  1.0000000  0.0000000  0.0000000 )
                  (  0.0000000  0.0000000  1.0000000 )
                  (  0.0000000 -1.0000000  0.0000000 )


      isym = 16      90 deg rotation - cart. axis [1,0,0]        

 cryst.   s(16) = (     1          0          0      )
                  (     0          0          1      )
                  (     0         -1          0      )

 cart.    s(16) = (  1.0000000  0.0000000  0.0000000 )
                  (  0.0000000  0.0000000 -1.0000000 )
                  (  0.0000000  1.0000000  0.0000000 )


      isym = 17     120 deg rotation - cart. axis [-1,-1,-1]     

 cryst.   s(17) = (     0          0          1      )
                  (     1          0          0      )
                  (     0          1          0      )

 cart.    s(17) = (  0.0000000  1.0000000  0.0000000 )
                  (  0.0000000  0.0000000  1.0000000 )
                  (  1.0000000  0.0000000  0.0000000 )


      isym = 18     120 deg rotation - cart. axis [-1,1,1]       

 cryst.   s(18) = (     0          0         -1      )
                  (    -1          0          0      )
                  (     0          1          0      )

 cart.    s(18) = (  0.0000000 -1.0000000  0.0000000 )
                  (  0.0000000  0.0000000  1.0000000 )
                  ( -1.0000000  0.0000000  0.0000000 )


      isym = 19     120 deg rotation - cart. axis [1,1,-1]       

 cryst.   s(19) = (     0          0         -1      )
                  (     1          0          0      )
                  (     0         -1          0      )

 cart.    s(19) = (  0.0000000  1.0000000  0.0000000 )
                  (  0.0000000  0.0000000 -1.0000000 )
                  ( -1.0000000  0.0000000  0.0000000 )


      isym = 20     120 deg rotation - cart. axis [1,-1,1]       

 cryst.   s(20) = (     0          0          1      )
                  (    -1          0          0      )
                  (     0         -1          0      )

 cart.    s(20) = (  0.0000000 -1.0000000  0.0000000 )
                  (  0.0000000  0.0000000 -1.0000000 )
                  (  1.0000000  0.0000000  0.0000000 )


      isym = 21     120 deg rotation - cart. axis [1,1,1]        

 cryst.   s(21) = (     0          1          0      )
                  (     0          0          1      )
                  (     1          0          0      )

 cart.    s(21) = (  0.0000000  0.0000000  1.0000000 )
                  (  1.0000000  0.0000000  0.0000000 )
                  (  0.0000000  1.0000000  0.0000000 )


      isym = 22     120 deg rotation - cart. axis [-1,1,-1]      

 cryst.   s(22) = (     0         -1          0      )
                  (     0          0         -1      )
                  (     1          0          0      )

 cart.    s(22) = (  0.0000000  0.0000000  1.0000000 )
                  ( -1.0000000  0.0000000  0.0000000 )
                  (  0.0000000 -1.0000000  0.0000000 )


      isym = 23     120 deg rotation - cart. axis [1,-1,-1]      

 cryst.   s(23) = (     0         -1          0      )
                  (     0          0          1      )
                  (    -1          0          0      )

 cart.    s(23) = (  0.0000000  0.0000000 -1.0000000 )
                  ( -1.0000000  0.0000000  0.0000000 )
                  (  0.0000000  1.0000000  0.0000000 )


      isym = 24     120 deg rotation - cart. axis [-1,-1,1]      

 cryst.   s(24) = (     0          1          0      )
                  (     0          0         -1      )
                  (    -1          0          0      )

 cart.    s(24) = (  0.0000000  0.0000000 -1.0000000 )
                  (  1.0000000  0.0000000  0.0000000 )
                  (  0.0000000 -1.0000000  0.0000000 )


      isym = 25     inversion                                    

 cryst.   s(25) = (    -1          0          0      )
                  (     0         -1          0      )
                  (     0          0         -1      )

 cart.    s(25) = ( -1.0000000  0.0000000  0.0000000 )
                  (  0.0000000 -1.0000000  0.0000000 )
                  (  0.0000000  0.0000000 -1.0000000 )


      isym = 26     inv. 180 deg rotation - cart. axis [0,0,1]   

 cryst.   s(26) = (     1          0          0      )
                  (     0          1          0      )
                  (     0          0         -1      )

 cart.    s(26) = (  1.0000000  0.0000000  0.0000000 )
                  (  0.0000000  1.0000000  0.0000000 )
                  (  0.0000000  0.0000000 -1.0000000 )


      isym = 27     inv. 180 deg rotation - cart. axis [0,1,0]   

 cryst.   s(27) = (     1          0          0      )
                  (     0         -1          0      )
                  (     0          0          1      )

 cart.    s(27) = (  1.0000000  0.0000000  0.0000000 )
                  (  0.0000000 -1.0000000  0.0000000 )
                  (  0.0000000  0.0000000  1.0000000 )


      isym = 28     inv. 180 deg rotation - cart. axis [1,0,0]   

 cryst.   s(28) = (    -1          0          0      )
                  (     0          1          0      )
                  (     0          0          1      )

 cart.    s(28) = ( -1.0000000  0.0000000  0.0000000 )
                  (  0.0000000  1.0000000  0.0000000 )
                  (  0.0000000  0.0000000  1.0000000 )


      isym = 29     inv. 180 deg rotation - cart. axis [1,1,0]   

 cryst.   s(29) = (     0         -1          0      )
                  (    -1          0          0      )
                  (     0          0          1      )

 cart.    s(29) = (  0.0000000 -1.0000000  0.0000000 )
                  ( -1.0000000  0.0000000  0.0000000 )
                  (  0.0000000  0.0000000  1.0000000 )


      isym = 30     inv. 180 deg rotation - cart. axis [1,-1,0]  

 cryst.   s(30) = (     0          1          0      )
                  (     1          0          0      )
                  (     0          0          1      )

 cart.    s(30) = (  0.0000000  1.0000000  0.0000000 )
                  (  1.0000000  0.0000000  0.0000000 )
                  (  0.0000000  0.0000000  1.0000000 )


      isym = 31     inv.  90 deg rotation - cart. axis [0,0,-1]  

 cryst.   s(31) = (     0          1          0      )
                  (    -1          0          0      )
                  (     0          0         -1      )

 cart.    s(31) = (  0.0000000 -1.0000000  0.0000000 )
                  (  1.0000000  0.0000000  0.0000000 )
                  (  0.0000000  0.0000000 -1.0000000 )


      isym = 32     inv.  90 deg rotation - cart. axis [0,0,1]   

 cryst.   s(32) = (     0         -1          0      )
                  (     1          0          0      )
                  (     0          0         -1      )

 cart.    s(32) = (  0.0000000  1.0000000  0.0000000 )
                  ( -1.0000000  0.0000000  0.0000000 )
                  (  0.0000000  0.0000000 -1.0000000 )


      isym = 33     inv. 180 deg rotation - cart. axis [1,0,1]   

 cryst.   s(33) = (     0          0         -1      )
                  (     0          1          0      )
                  (    -1          0          0      )

 cart.    s(33) = (  0.0000000  0.0000000 -1.0000000 )
                  (  0.0000000  1.0000000  0.0000000 )
                  ( -1.0000000  0.0000000  0.0000000 )


      isym = 34     inv. 180 deg rotation - cart. axis [-1,0,1]  

 cryst.   s(34) = (     0          0          1      )
                  (     0          1          0      )
                  (     1          0          0      )

 cart.    s(34) = (  0.0000000  0.0000000  1.0000000 )
                  (  0.0000000  1.0000000  0.0000000 )
                  (  1.0000000  0.0000000  0.0000000 )


      isym = 35     inv.  90 deg rotation - cart. axis [0,1,0]   

 cryst.   s(35) = (     0          0          1      )
                  (     0         -1          0      )
                  (    -1          0          0      )

 cart.    s(35) = (  0.0000000  0.0000000 -1.0000000 )
                  (  0.0000000 -1.0000000  0.0000000 )
                  (  1.0000000  0.0000000  0.0000000 )


      isym = 36     inv.  90 deg rotation - cart. axis [0,-1,0]  

 cryst.   s(36) = (     0          0         -1      )
                  (     0         -1          0      )
                  (     1          0          0      )

 cart.    s(36) = (  0.0000000  0.0000000  1.0000000 )
                  (  0.0000000 -1.0000000  0.0000000 )
                  ( -1.0000000  0.0000000  0.0000000 )


      isym = 37     inv. 180 deg rotation - cart. axis [0,1,1]   

 cryst.   s(37) = (     1          0          0      )
                  (     0          0         -1      )
                  (     0         -1          0      )

 cart.    s(37) = (  1.0000000  0.0000000  0.0000000 )
                  (  0.0000000  0.0000000 -1.0000000 )
                  (  0.0000000 -1.0000000  0.0000000 )


      isym = 38     inv. 180 deg rotation - cart. axis [0,1,-1]  

 cryst.   s(38) = (     1          0          0      )
                  (     0          0          1      )
                  (     0          1          0      )

 cart.    s(38) = (  1.0000000  0.0000000  0.0000000 )
                  (  0.0000000  0.0000000  1.0000000 )
                  (  0.0000000  1.0000000  0.0000000 )


      isym = 39     inv.  90 deg rotation - cart. axis [-1,0,0]  

 cryst.   s(39) = (    -1          0          0      )
                  (     0          0          1      )
                  (     0         -1          0      )

 cart.    s(39) = ( -1.0000000  0.0000000  0.0000000 )
                  (  0.0000000  0.0000000 -1.0000000 )
                  (  0.0000000  1.0000000  0.0000000 )


      isym = 40     inv.  90 deg rotation - cart. axis [1,0,0]   

 cryst.   s(40) = (    -1          0          0      )
                  (     0          0         -1      )
                  (     0          1          0      )

 cart.    s(40) = ( -1.0000000  0.0000000  0.0000000 )
                  (  0.0000000  0.0000000  1.0000000 )
                  (  0.0000000 -1.0000000  0.0000000 )


      isym = 41     inv. 120 deg rotation - cart. axis [-1,-1,-1]

 cryst.   s(41) = (     0          0         -1      )
                  (    -1          0          0      )
                  (     0         -1          0      )

 cart.    s(41) = (  0.0000000 -1.0000000  0.0000000 )
                  (  0.0000000  0.0000000 -1.0000000 )
                  ( -1.0000000  0.0000000  0.0000000 )


      isym = 42     inv. 120 deg rotation - cart. axis [-1,1,1]  

 cryst.   s(42) = (     0          0          1      )
                  (     1          0          0      )
                  (     0         -1          0      )

 cart.    s(42) = (  0.0000000  1.0000000  0.0000000 )
                  (  0.0000000  0.0000000 -1.0000000 )
                  (  1.0000000  0.0000000  0.0000000 )


      isym = 43     inv. 120 deg rotation - cart. axis [1,1,-1]  

 cryst.   s(43) = (     0          0          1      )
                  (    -1          0          0      )
                  (     0          1          0      )

 cart.    s(43) = (  0.0000000 -1.0000000  0.0000000 )
                  (  0.0000000  0.0000000  1.0000000 )
                  (  1.0000000  0.0000000  0.0000000 )


      isym = 44     inv. 120 deg rotation - cart. axis [1,-1,1]  

 cryst.   s(44) = (     0          0         -1      )
                  (     1          0          0      )
                  (     0          1          0      )

 cart.    s(44) = (  0.0000000  1.0000000  0.0000000 )
                  (  0.0000000  0.0000000  1.0000000 )
                  ( -1.0000000  0.0000000  0.0000000 )


      isym = 45     inv. 120 deg rotation - cart. axis [1,1,1]   

 cryst.   s(45) = (     0         -1          0      )
                  (     0          0         -1      )
                  (    -1          0          0      )

 cart.    s(45) = (  0.0000000  0.0000000 -1.0000000 )
                  ( -1.0000000  0.0000000  0.0000000 )
                  (  0.0000000 -1.0000000  0.0000000 )


      isym = 46     inv. 120 deg rotation - cart. axis [-1,1,-1] 

 cryst.   s(46) = (     0          1          0      )
                  (     0          0          1      )
                  (    -1          0          0      )

 cart.    s(46) = (  0.0000000  0.0000000 -1.0000000 )
                  (  1.0000000  0.0000000  0.0000000 )
                  (  0.0000000  1.0000000  0.0000000 )


      isym = 47     inv. 120 deg rotation - cart. axis [1,-1,-1] 

 cryst.   s(47) = (     0          1          0      )
                  (     0          0         -1      )
                  (     1          0          0      )

 cart.    s(47) = (  0.0000000  0.0000000  1.0000000 )
                  (  1.0000000  0.0000000  0.0000000 )
                  (  0.0000000 -1.0000000  0.0000000 )


      isym = 48     inv. 120 deg rotation - cart. axis [-1,-1,1] 

 cryst.   s(48) = (     0         -1          0      )
                  (     0          0          1      )
                  (     1          0          0      )

 cart.    s(48) = (  0.0000000  0.0000000  1.0000000 )
                  ( -1.0000000  0.0000000  0.0000000 )
                  (  0.0000000  1.0000000  0.0000000 )


     double point group O_h (m-3m) 
     there are 16 classes and  6 irreducible representations
     the character table:

       E     -E    8C3   -8C3   3C2  6C4   -6C4   6C2' i     -i    8S6   -8S6 
                               -3C2              -6C2'                        
G_6+   2.00 -2.00  1.00 -1.00  0.00  1.41 -1.41  0.00  2.00 -2.00  1.00 -1.00
G_7+   2.00 -2.00  1.00 -1.00  0.00 -1.41  1.41  0.00  2.00 -2.00  1.00 -1.00
G_8+   4.00 -4.00 -1.00  1.00  0.00  0.00  0.00  0.00  4.00 -4.00 -1.00  1.00
G_6-   2.00 -2.00  1.00 -1.00  0.00  1.41 -1.41  0.00 -2.00  2.00 -1.00  1.00
G_7-   2.00 -2.00  1.00 -1.00  0.00 -1.41  1.41  0.00 -2.00  2.00 -1.00  1.00
G_8-   4.00 -4.00 -1.00  1.00  0.00  0.00  0.00  0.00 -4.00  4.00  1.00 -1.00

        3s_h 6S4   -6S4   6s_d
       -3s_h             -6s_d
G_6+   0.00  1.41 -1.41  0.00
G_7+   0.00 -1.41  1.41  0.00
G_8+   0.00  0.00  0.00  0.00
G_6-   0.00 -1.41  1.41  0.00
G_7-   0.00  1.41 -1.41  0.00
G_8-   0.00  0.00  0.00  0.00

     the symmetry operations in each class and the name of the first element:

     E             1
          identity                                               
     -E           -1
          identity E                                             
     8C3          17   19   20   18   24   21   22   23
          120 deg rotation - cart. axis [-1,-1,-1]               
     -8C3        -17  -19  -20  -18  -24  -21  -22  -23
          120 deg rotation - cart. axis [-1,-1,-1] E             
      3C2 -3C2     2   -2    4   -4    3   -3
          180 deg rotation - cart. axis [0,0,1]                  
     6C4           7    8   15   16   12   11
           90 deg rotation - cart. axis [0,0,-1]                 
     -6C4         -7   -8  -15  -16  -12  -11
           90 deg rotation - cart. axis [0,0,-1] E               
      6C2'-6C2'    5   -5   -6    6   14  -13  -14   13   10   -9  -10    9
          180 deg rotation - cart. axis [1,1,0]                  
     i            25
          inversion                                              
     -i          -25
          inversion E                                            
     8S6          41   43   44   42   48   45   46   47
          inv. 120 deg rotation - cart. axis [-1,-1,-1]          
     -8S6        -41  -43  -44  -42  -48  -45  -46  -47
          inv. 120 deg rotation - cart. axis [-1,-1,-1] E        
      3s_h-3s_h   26  -26   28  -28   27  -27
          inv. 180 deg rotation - cart. axis [0,0,1]             
     6S4          31   32   39   40   36   35
          inv.  90 deg rotation - cart. axis [0,0,-1]            
     -6S4        -31  -32  -39  -40  -36  -35
          inv.  90 deg rotation - cart. axis [0,0,-1] E          
      6s_d-6s_d   29  -29  -30   30   38  -37  -38   37   34  -33  -34   33
          inv. 180 deg rotation - cart. axis [1,1,0]             

   Cartesian axes

     site n.     atom                  positions (alat units)
         1           Cs  tau(   1) = (   0.0000000   0.0000000   0.0000000  )
         2           I   tau(   2) = (   0.5000000   0.5000000   0.5000000  )

   Crystallographic axes

     site n.     atom                  positions (cryst. coord.)
         1           Cs  tau(   1) = (  0.0000000  0.0000000  0.0000000  )
         2           I   tau(   2) = (  0.5000000  0.5000000  0.5000000  )

     number of k points=     4
                       cart. coord. in units 2pi/alat
        k(    1) = (   0.1250000   0.1250000   0.1250000), wk =   0.1250000
        k(    2) = (   0.1250000   0.1250000   0.3750000), wk =   0.3750000
        k(    3) = (   0.1250000   0.3750000   0.3750000), wk =   0.3750000
        k(    4) = (   0.3750000   0.3750000   0.3750000), wk =   0.1250000

                       cryst. coord.
        k(    1) = (   0.1250000   0.1250000   0.1250000), wk =   0.1250000
        k(    2) = (   0.1250000   0.1250000   0.3750000), wk =   0.3750000
        k(    3) = (   0.1250000   0.3750000   0.3750000), wk =   0.3750000
        k(    4) = (   0.3750000   0.3750000   0.3750000), wk =   0.1250000

     Dense  grid:    23439 G-vectors     FFT dimensions: (  36,  36,  36)

     Dynamical RAM for                 wfc:       0.04 MB

     Dynamical RAM for     wfc (w. buffer):       0.22 MB

     Dynamical RAM for           str. fact:       0.02 MB

     Dynamical RAM for           local pot:       0.00 MB

     Dynamical RAM for          nlocal pot:       0.11 MB

     Dynamical RAM for                qrad:      16.25 MB

     Dynamical RAM for          rho,v,vnew:       0.37 MB

     Dynamical RAM for               rhoin:       0.12 MB

     Dynamical RAM for            rho*nmix:       0.72 MB

     Dynamical RAM for           G-vectors:       0.05 MB

     Dynamical RAM for          h,s,v(r/c):       0.05 MB

     Dynamical RAM for          <psi|beta>:       0.04 MB

     Dynamical RAM for                 psi:       0.09 MB

     Dynamical RAM for                hpsi:       0.09 MB

     Dynamical RAM for                spsi:       0.09 MB

     Dynamical RAM for      wfcinit/wfcrot:       0.08 MB

     Dynamical RAM for           addusdens:      22.86 MB

     Dynamical RAM for          addusforce:      22.91 MB

     Dynamical RAM for         addusstress:      23.19 MB

     Estimated static dynamical RAM per process >      18.05 MB

     Estimated max dynamical RAM per process >      41.24 MB

     Estimated total dynamical RAM >       1.29 GB

     Check: negative core charge=   -0.000001

     Initial potential from superposition of free atoms

     starting charge   15.96027, renormalised to   16.00000
     Starting wfcs are   18 randomized atomic wfcs

     total cpu time spent up to now is      373.5 secs

     Self-consistent Calculation

     iteration #  1     ecut=    40.00 Ry     beta= 0.60
     Davidson diagonalization with overlap
     ethr =  1.00E-02,  avg # of iterations =  1.0

     Threshold (ethr) on eigenvalues was too large:
     Diagonalizing with lowered threshold

     Davidson diagonalization with overlap
     ethr =  3.47E-04,  avg # of iterations =  4.0

     total cpu time spent up to now is      416.5 secs

     total energy              =    -113.24011310 Ry
     estimated scf accuracy    <       0.03429171 Ry

     iteration #  2     ecut=    40.00 Ry     beta= 0.60
     Davidson diagonalization with overlap
     ethr =  2.14E-04,  avg # of iterations =  4.2

     total cpu time spent up to now is      420.7 secs

     total energy              =    -113.25226448 Ry
     estimated scf accuracy    <       0.00270958 Ry

     iteration #  3     ecut=    40.00 Ry     beta= 0.60
     Davidson diagonalization with overlap
     ethr =  1.69E-05,  avg # of iterations =  3.8

     total cpu time spent up to now is      421.7 secs

     total energy              =    -113.25310577 Ry
     estimated scf accuracy    <       0.00053549 Ry

     iteration #  4     ecut=    40.00 Ry     beta= 0.60
     Davidson diagonalization with overlap
     ethr =  3.35E-06,  avg # of iterations =  5.0

     total cpu time spent up to now is      422.6 secs

     total energy              =    -113.25342264 Ry
     estimated scf accuracy    <       0.00013324 Ry

     iteration #  5     ecut=    40.00 Ry     beta= 0.60
     Davidson diagonalization with overlap
     ethr =  8.33E-07,  avg # of iterations =  5.0

     total cpu time spent up to now is      423.9 secs

     total energy              =    -113.25348878 Ry
     estimated scf accuracy    <       0.00002978 Ry

     iteration #  6     ecut=    40.00 Ry     beta= 0.60
     Davidson diagonalization with overlap
     ethr =  1.86E-07,  avg # of iterations =  4.2

     total cpu time spent up to now is      424.7 secs

     total energy              =    -113.25349635 Ry
     estimated scf accuracy    <       0.00000401 Ry

     iteration #  7     ecut=    40.00 Ry     beta= 0.60
     Davidson diagonalization with overlap
     ethr =  2.50E-08,  avg # of iterations =  7.5

     total cpu time spent up to now is      426.1 secs

     total energy              =    -113.25350192 Ry
     estimated scf accuracy    <       0.00000352 Ry

     iteration #  8     ecut=    40.00 Ry     beta= 0.60
     Davidson diagonalization with overlap
     ethr =  2.20E-08,  avg # of iterations =  2.0

     total cpu time spent up to now is      427.5 secs

     End of self-consistent calculation

          k = 0.1250 0.1250 0.1250 (  2920 PWs)   bands (ev):

   -17.8030 -17.8030  -7.9264  -7.9264  -5.6927  -5.6927  -4.0852  -4.0852
    -4.0401  -4.0401   1.6172   1.6172   2.4958   2.4958   2.6634   2.6634

     occupation numbers 
     1.0000   1.0000   1.0000   1.0000   1.0000   1.0000   1.0000   1.0000
     1.0000   1.0000   1.0000   1.0000   1.0000   1.0000   1.0000   1.0000

          k = 0.1250 0.1250 0.3750 (  2912 PWs)   bands (ev):

   -17.7902 -17.7902  -7.9043  -7.9043  -5.7155  -5.7155  -4.1607  -4.1607
    -4.0428  -4.0428   1.2536   1.2536   2.1760   2.1760   2.6162   2.6162

     occupation numbers 
     1.0000   1.0000   1.0000   1.0000   1.0000   1.0000   1.0000   1.0000
     1.0000   1.0000   1.0000   1.0000   1.0000   1.0000   1.0000   1.0000

          k = 0.1250 0.3750 0.3750 (  2925 PWs)   bands (ev):

   -17.7782 -17.7782  -7.8181  -7.8181  -5.7940  -5.7940  -4.2971  -4.2971
    -4.1009  -4.1009   1.3307   1.3307   2.0050   2.0050   2.5241   2.5241

     occupation numbers 
     1.0000   1.0000   1.0000   1.0000   1.0000   1.0000   1.0000   1.0000
     1.0000   1.0000   1.0000   1.0000   1.0000   1.0000   1.0000   1.0000

          k = 0.3750 0.3750 0.3750 (  2941 PWs)   bands (ev):

   -17.7667 -17.7667  -7.7468  -7.7468  -5.8324  -5.8324  -4.2585  -4.2585
    -4.2502  -4.2502   1.1074   1.1074   1.8677   1.8677   1.9448   1.9448

     occupation numbers 
     1.0000   1.0000   1.0000   1.0000   1.0000   1.0000   1.0000   1.0000
     1.0000   1.0000   1.0000   1.0000   1.0000   1.0000   1.0000   1.0000

     highest occupied level (ev):     2.6634

!    total energy              =    -113.25350171 Ry
     estimated scf accuracy    <       0.00000072 Ry

     The total energy is the sum of the following terms:
     one-electron contribution =      -5.75449181 Ry
     hartree contribution      =       8.72238099 Ry
     xc contribution           =     -62.92124977 Ry
     ewald contribution        =     -53.30014112 Ry

     convergence has been achieved in   8 iterations

     Forces acting on atoms (cartesian axes, Ry/au):

     atom    1 type  2   force =     0.00000000    0.00000000    0.00000000
     atom    2 type  1   force =     0.00000000    0.00000000   -0.00000000
     The non-local contrib.  to forces
     atom    1 type  2   force =     0.00000000    0.00000000   -0.00000000
     atom    2 type  1   force =     0.00000000    0.00000000    0.00000000
     The ionic contribution  to forces
     atom    1 type  2   force =    -0.00000000   -0.00000000   -0.00000000
     atom    2 type  1   force =     0.00000000    0.00000000    0.00000000
     The local contribution  to forces
     atom    1 type  2   force =     0.00000000   -0.00000000   -0.00000000
     atom    2 type  1   force =     0.00000000    0.00000000    0.00000000
     The core correction contribution to forces
     atom    1 type  2   force =    -0.00000000    0.00000000    0.00000000
     atom    2 type  1   force =    -0.00000000   -0.00000000   -0.00000000
     The Hubbard contrib.    to forces
     atom    1 type  2   force =     0.00000000    0.00000000    0.00000000
     atom    2 type  1   force =     0.00000000    0.00000000    0.00000000
     The SCF correction term to forces
     atom    1 type  2   force =     0.00000000   -0.00000000   -0.00000000
     atom    2 type  1   force =    -0.00000000    0.00000000   -0.00000000

     Total force =     0.000000     Total SCF correction =     0.000000


     Computing stress (Cartesian axis) and pressure

          total   stress  (Ry/bohr**3)                   (kbar)     P=        0.16
   0.00000110   0.00000000   0.00000000            0.16        0.00        0.00
   0.00000000   0.00000110   0.00000000            0.00        0.16        0.00
   0.00000000   0.00000000   0.00000110            0.00        0.00        0.16

     kinetic stress (kbar)   2974.03      0.00      0.00
                                0.00   2974.03      0.00
                                0.00      0.00   2974.03

     local   stress (kbar)    450.01     -0.00      0.00
                               -0.00    450.01     -0.00
                                0.00     -0.00    450.01

     nonloc. stress (kbar)   1033.04      0.00      0.00
                                0.00   1033.04      0.00
                                0.00      0.00   1033.04

     hartree stress (kbar)    624.21     -0.00     -0.00
                               -0.00    624.21     -0.00
                               -0.00     -0.00    624.21

     exc-cor stress (kbar)   9789.89     -0.00      0.00
                               -0.00   9789.89      0.00
                                0.00      0.00   9789.89

     corecor stress (kbar) -11056.63     -0.00     -0.00
                               -0.00 -11056.63     -0.00
                               -0.00     -0.00 -11056.63

     ewald   stress (kbar)  -3814.38      0.00     -0.00
                                0.00  -3814.38     -0.00
                               -0.00     -0.00  -3814.38

     hubbard stress (kbar)      0.00      0.00      0.00
                                0.00      0.00      0.00
                                0.00      0.00      0.00

     DFT-D   stress (kbar)      0.00      0.00      0.00
                                0.00      0.00      0.00
                                0.00      0.00      0.00

     XDM     stress (kbar)      0.00      0.00      0.00
                                0.00      0.00      0.00
                                0.00      0.00      0.00

     dft-nl  stress (kbar)      0.00      0.00      0.00
                                0.00      0.00      0.00
                                0.00      0.00      0.00

     TS-vdW  stress (kbar)      0.00      0.00      0.00
                                0.00      0.00      0.00
                                0.00      0.00      0.00



     Writing output data file ./out/CsIsalt.save/
 
     init_run     :      2.16s CPU    161.96s WALL (       1 calls)
     electrons    :      7.39s CPU     58.06s WALL (       1 calls)
     forces       :      0.40s CPU     14.59s WALL (       1 calls)
     stress       :      0.95s CPU     17.42s WALL (       1 calls)

     Called by init_run:
     wfcinit      :      0.31s CPU     27.40s WALL (       1 calls)
     wfcinit:atom :      0.00s CPU      4.36s WALL (       4 calls)
     wfcinit:wfcr :      0.30s CPU     15.42s WALL (       4 calls)
     potinit      :      0.27s CPU     31.49s WALL (       1 calls)
     hinit0       :      0.80s CPU     36.61s WALL (       1 calls)

     Called by electrons:
     c_bands      :      2.26s CPU     14.74s WALL (       9 calls)
     sum_band     :      1.66s CPU     14.23s WALL (       9 calls)
     v_of_rho     :      0.35s CPU     26.42s WALL (       9 calls)
     v_h          :      0.05s CPU      1.81s WALL (       9 calls)
     v_xc         :      0.41s CPU     21.04s WALL (      11 calls)
     newd         :      3.37s CPU      8.06s WALL (       9 calls)
     mix_rho      :      0.23s CPU      8.08s WALL (       9 calls)

     Called by c_bands:
     init_us_2    :      0.02s CPU      1.70s WALL (      84 calls)
     cegterg      :      1.78s CPU      7.72s WALL (      36 calls)

     Called by sum_band:
     sum_band:wei :      0.00s CPU      0.86s WALL (       9 calls)
     sum_band:loo :      0.89s CPU      6.67s WALL (       9 calls)
     sum_band:buf :      0.00s CPU      0.00s WALL (      36 calls)
     sum_band:ini :      0.01s CPU      0.01s WALL (      36 calls)
     sum_band:cal :      0.02s CPU      1.85s WALL (      36 calls)
     sum_band:bec :      0.52s CPU      2.10s WALL (      36 calls)
     addusdens    :      0.68s CPU      1.74s WALL (       9 calls)
     addusd:skk   :      0.00s CPU      0.51s WALL (      18 calls)
     addusd:dgemm :      0.34s CPU      0.38s WALL (      18 calls)
     addusd:qvan2 :      0.33s CPU      0.33s WALL (      18 calls)

     Called by *egterg:
     cdiaghg      :      0.08s CPU      1.03s WALL (     179 calls)
     cegterg:over :      0.07s CPU      0.65s WALL (     147 calls)
     cegterg:upda :      0.01s CPU      0.68s WALL (     147 calls)
     cegterg:last :      0.02s CPU      0.02s WALL (     111 calls)
     h_psi        :      1.60s CPU      8.52s WALL (     187 calls)
     s_psi        :      0.17s CPU      2.32s WALL (     187 calls)
     g_psi        :      0.00s CPU      0.00s WALL (     147 calls)

     Called by h_psi:
     h_psi:calbec :      0.08s CPU      1.95s WALL (     187 calls)
     vloc_psi     :      1.37s CPU      3.27s WALL (     187 calls)
     add_vuspsi   :      0.14s CPU      0.92s WALL (     187 calls)

     General routines
     calbec       :      0.26s CPU      0.29s WALL (     243 calls)
     fft          :      0.56s CPU      0.76s WALL (     152 calls)
     ffts         :      0.03s CPU      0.03s WALL (      36 calls)
     fftw         :      1.62s CPU      1.84s WALL (    9460 calls)
 
     Parallel routines
     fft_scatt_xy :      0.07s CPU      0.07s WALL (    9648 calls)
     fft_scatt_yz :      1.58s CPU      1.82s WALL (    9648 calls)
 
     PWSCF        :     20.82s CPU   8m22.25s WALL

 
   This run was terminated on:  10:42: 4  30Jan2021            

=------------------------------------------------------------------------------=
   JOB DONE.
=------------------------------------------------------------------------------=
