
     Program PWSCF v.6.7MaX starts on 14Jan2021 at 13:53:51 

     This program is part of the open-source Quantum ESPRESSO suite
     for quantum simulation of materials; please cite
         "P. Giannozzi et al., J. Phys.:Condens. Matter 21 395502 (2009);
         "P. Giannozzi et al., J. Phys.:Condens. Matter 29 465901 (2017);
          URL http://www.quantum-espresso.org", 
     in publications or presentations arising from this work. More details at
     http://www.quantum-espresso.org/quote

     Parallel version (MPI), running on    19 processors

     MPI processes distributed on     1 nodes
     R & G space division:  proc/nbgrp/npool/nimage =      19
     Waiting for input...
     Reading input from standard input

     Current dimensions of program PWSCF are:
     Max number of different atomic species (ntypx) = 10
     Max number of k-points (npk) =  40000
     Max angular momentum in pseudopotentials (lmaxx) =  3
     file Sn.pbe-dn-kjpaw_psl.1.0.0.UPF: wavefunction(s)  5S 5P 4D renormalized
     file I.pbe-n-kjpaw_psl.1.0.0.UPF: wavefunction(s)  5S renormalized

     Subspace diagonalization in iterative solution of the eigenvalue problem:
     a serial algorithm will be used

     Message from routine setup:
     using ibrav=0 with symmetry is DISCOURAGED, use correct ibrav instead

     Parallelization info
     --------------------
     sticks:   dense  smooth     PW     G-vecs:    dense   smooth      PW
     Min         278     278     77                 9384     9384    1371
     Max         280     280     78                 9385     9385    1372
     Sum        5297    5297   1473               178307   178307   26059


     Title: 
     SnI2tetr                                                                   


     bravais-lattice index     =            0
     lattice parameter (alat)  =      14.4199  a.u.
     unit-cell volume          =    1845.1511 (a.u.)^3
     number of atoms/cell      =            6
     number of atomic types    =            2
     number of electrons       =        56.00
     number of Kohn-Sham states=           28
     kinetic-energy cutoff     =      80.0000  Ry
     charge density cutoff     =     320.0000  Ry
     scf convergence threshold =      1.0E-06
     mixing beta               =       0.5000
     number of iterations used =            8  plain     mixing
     energy convergence thresh.=      1.0E-04
     force convergence thresh. =      1.0E-04
     press convergence thresh. =      5.0E-01
     Exchange-correlation= SLA  PW   PBX  PBC
                           (   1   4   3   4   0   0   0)
     nstep                     =           50


     celldm(1)=  14.419944  celldm(2)=   0.000000  celldm(3)=   0.000000
     celldm(4)=   0.000000  celldm(5)=   0.000000  celldm(6)=   0.000000

     crystal axes: (cart. coord. in units of alat)
               a(1) = (   1.000000   0.000000   0.000000 )  
               a(2) = (   0.000000   1.000000   0.000000 )  
               a(3) = (   0.000000   0.000000   0.615377 )  

     reciprocal axes: (cart. coord. in units 2 pi/alat)
               b(1) = (  1.000000  0.000000  0.000000 )  
               b(2) = (  0.000000  1.000000  0.000000 )  
               b(3) = (  0.000000  0.000000  1.625020 )  


     PseudoPot. # 1 for Sn read from file:
     ../../../pseudo/Sn.pbe-dn-kjpaw_psl.1.0.0.UPF
     MD5 check sum: 67f11dec737d427557dc41ea34975807
     Pseudo is Projector augmented-wave + core cor, Zval = 14.0
     Generated using &quot;atomic&quot; code by A. Dal Corso  v.6.3
     Shape of augmentation charge: PSQ
     Using radial grid of 1243 points,  6 beta functions with: 
                l(1) =   0
                l(2) =   0
                l(3) =   1
                l(4) =   1
                l(5) =   2
                l(6) =   2
     Q(r) pseudized with 0 coefficients 


     PseudoPot. # 2 for I  read from file:
     ../../../pseudo/I.pbe-n-kjpaw_psl.1.0.0.UPF
     MD5 check sum: cd3d296c3308a581e1559a0c8a554cb5
     Pseudo is Projector augmented-wave + core cor, Zval =  7.0
     Generated using &quot;atomic&quot; code by A. Dal Corso  v.6.3
     Shape of augmentation charge: PSQ
     Using radial grid of 1247 points,  6 beta functions with: 
                l(1) =   0
                l(2) =   0
                l(3) =   1
                l(4) =   1
                l(5) =   2
                l(6) =   2
     Q(r) pseudized with 0 coefficients 


     atomic species   valence    mass     pseudopotential
        Sn            14.00   118.70000     Sn( 1.00)
        I              7.00   126.90000     I ( 1.00)

     16 Sym. Ops., with inversion, found ( 8 have fractional translation)


                                    s                        frac. trans.

      isym =  1     identity                                     

 cryst.   s( 1) = (     1          0          0      )
                  (     0          1          0      )
                  (     0          0          1      )

 cart.    s( 1) = (  1.0000000  0.0000000  0.0000000 )
                  (  0.0000000  1.0000000  0.0000000 )
                  (  0.0000000  0.0000000  1.0000000 )


      isym =  2     180 deg rotation - cart. axis [0,0,1]        

 cryst.   s( 2) = (    -1          0          0      )
                  (     0         -1          0      )
                  (     0          0          1      )

 cart.    s( 2) = ( -1.0000000  0.0000000  0.0000000 )
                  (  0.0000000 -1.0000000  0.0000000 )
                  (  0.0000000  0.0000000  1.0000000 )


      isym =  3     180 deg rotation - cart. axis [0,1,0]        

 cryst.   s( 3) = (    -1          0          0      )    f =(  0.5000000 )
                  (     0          1          0      )       ( -0.5000000 )
                  (     0          0         -1      )       (  0.5000000 )

 cart.    s( 3) = ( -1.0000000  0.0000000  0.0000000 )    f =(  0.5000000 )
                  (  0.0000000  1.0000000  0.0000000 )       ( -0.5000000 )
                  (  0.0000000  0.0000000 -1.0000000 )       (  0.3076884 )


      isym =  4     180 deg rotation - cart. axis [1,0,0]        

 cryst.   s( 4) = (     1          0          0      )    f =( -0.5000000 )
                  (     0         -1          0      )       (  0.5000000 )
                  (     0          0         -1      )       (  0.5000000 )

 cart.    s( 4) = (  1.0000000  0.0000000  0.0000000 )    f =( -0.5000000 )
                  (  0.0000000 -1.0000000  0.0000000 )       (  0.5000000 )
                  (  0.0000000  0.0000000 -1.0000000 )       (  0.3076884 )


      isym =  5     180 deg rotation - cart. axis [1,1,0]        

 cryst.   s( 5) = (     0          1          0      )
                  (     1          0          0      )
                  (     0          0         -1      )

 cart.    s( 5) = (  0.0000000  1.0000000  0.0000000 )
                  (  1.0000000  0.0000000  0.0000000 )
                  (  0.0000000  0.0000000 -1.0000000 )


      isym =  6     180 deg rotation - cart. axis [1,-1,0]       

 cryst.   s( 6) = (     0         -1          0      )
                  (    -1          0          0      )
                  (     0          0         -1      )

 cart.    s( 6) = (  0.0000000 -1.0000000  0.0000000 )
                  ( -1.0000000  0.0000000  0.0000000 )
                  (  0.0000000  0.0000000 -1.0000000 )


      isym =  7      90 deg rotation - cart. axis [0,0,-1]       

 cryst.   s( 7) = (     0         -1          0      )    f =( -0.5000000 )
                  (     1          0          0      )       (  0.5000000 )
                  (     0          0          1      )       ( -0.5000000 )

 cart.    s( 7) = (  0.0000000  1.0000000  0.0000000 )    f =( -0.5000000 )
                  ( -1.0000000  0.0000000  0.0000000 )       (  0.5000000 )
                  (  0.0000000  0.0000000  1.0000000 )       ( -0.3076884 )


      isym =  8      90 deg rotation - cart. axis [0,0,1]        

 cryst.   s( 8) = (     0          1          0      )    f =(  0.5000000 )
                  (    -1          0          0      )       ( -0.5000000 )
                  (     0          0          1      )       ( -0.5000000 )

 cart.    s( 8) = (  0.0000000 -1.0000000  0.0000000 )    f =(  0.5000000 )
                  (  1.0000000  0.0000000  0.0000000 )       ( -0.5000000 )
                  (  0.0000000  0.0000000  1.0000000 )       ( -0.3076884 )


      isym =  9     inversion                                    

 cryst.   s( 9) = (    -1          0          0      )
                  (     0         -1          0      )
                  (     0          0         -1      )

 cart.    s( 9) = ( -1.0000000  0.0000000  0.0000000 )
                  (  0.0000000 -1.0000000  0.0000000 )
                  (  0.0000000  0.0000000 -1.0000000 )


      isym = 10     inv. 180 deg rotation - cart. axis [0,0,1]   

 cryst.   s(10) = (     1          0          0      )
                  (     0          1          0      )
                  (     0          0         -1      )

 cart.    s(10) = (  1.0000000  0.0000000  0.0000000 )
                  (  0.0000000  1.0000000  0.0000000 )
                  (  0.0000000  0.0000000 -1.0000000 )


      isym = 11     inv. 180 deg rotation - cart. axis [0,1,0]   

 cryst.   s(11) = (     1          0          0      )    f =( -0.5000000 )
                  (     0         -1          0      )       (  0.5000000 )
                  (     0          0          1      )       ( -0.5000000 )

 cart.    s(11) = (  1.0000000  0.0000000  0.0000000 )    f =( -0.5000000 )
                  (  0.0000000 -1.0000000  0.0000000 )       (  0.5000000 )
                  (  0.0000000  0.0000000  1.0000000 )       ( -0.3076884 )


      isym = 12     inv. 180 deg rotation - cart. axis [1,0,0]   

 cryst.   s(12) = (    -1          0          0      )    f =(  0.5000000 )
                  (     0          1          0      )       ( -0.5000000 )
                  (     0          0          1      )       ( -0.5000000 )

 cart.    s(12) = ( -1.0000000  0.0000000  0.0000000 )    f =(  0.5000000 )
                  (  0.0000000  1.0000000  0.0000000 )       ( -0.5000000 )
                  (  0.0000000  0.0000000  1.0000000 )       ( -0.3076884 )


      isym = 13     inv. 180 deg rotation - cart. axis [1,1,0]   

 cryst.   s(13) = (     0         -1          0      )
                  (    -1          0          0      )
                  (     0          0          1      )

 cart.    s(13) = (  0.0000000 -1.0000000  0.0000000 )
                  ( -1.0000000  0.0000000  0.0000000 )
                  (  0.0000000  0.0000000  1.0000000 )


      isym = 14     inv. 180 deg rotation - cart. axis [1,-1,0]  

 cryst.   s(14) = (     0          1          0      )
                  (     1          0          0      )
                  (     0          0          1      )

 cart.    s(14) = (  0.0000000  1.0000000  0.0000000 )
                  (  1.0000000  0.0000000  0.0000000 )
                  (  0.0000000  0.0000000  1.0000000 )


      isym = 15     inv.  90 deg rotation - cart. axis [0,0,-1]  

 cryst.   s(15) = (     0          1          0      )    f =(  0.5000000 )
                  (    -1          0          0      )       ( -0.5000000 )
                  (     0          0         -1      )       (  0.5000000 )

 cart.    s(15) = (  0.0000000 -1.0000000  0.0000000 )    f =(  0.5000000 )
                  (  1.0000000  0.0000000  0.0000000 )       ( -0.5000000 )
                  (  0.0000000  0.0000000 -1.0000000 )       (  0.3076884 )


      isym = 16     inv.  90 deg rotation - cart. axis [0,0,1]   

 cryst.   s(16) = (     0         -1          0      )    f =( -0.5000000 )
                  (     1          0          0      )       (  0.5000000 )
                  (     0          0         -1      )       (  0.5000000 )

 cart.    s(16) = (  0.0000000  1.0000000  0.0000000 )    f =( -0.5000000 )
                  ( -1.0000000  0.0000000  0.0000000 )       (  0.5000000 )
                  (  0.0000000  0.0000000 -1.0000000 )       (  0.3076884 )


   Cartesian axes

     site n.     atom                  positions (alat units)
         1           Sn  tau(   1) = (   0.0000000   0.0000000   0.0000000  )
         2           Sn  tau(   2) = (   0.5000000   0.5000000   0.3076884  )
         3           I   tau(   3) = (   0.2985210   0.2985210   0.0000000  )
         4           I   tau(   4) = (   0.7014790   0.7014790   0.0000000  )
         5           I   tau(   5) = (   0.7985210   0.2014790   0.3076884  )
         6           I   tau(   6) = (   0.2014790   0.7985210   0.3076884  )

   Crystallographic axes

     site n.     atom                  positions (cryst. coord.)
         1           Sn  tau(   1) = (  0.0000000  0.0000000  0.0000000  )
         2           Sn  tau(   2) = (  0.5000000  0.5000000  0.5000000  )
         3           I   tau(   3) = (  0.2985210  0.2985210  0.0000000  )
         4           I   tau(   4) = (  0.7014790  0.7014790  0.0000000  )
         5           I   tau(   5) = (  0.7985210  0.2014790  0.5000000  )
         6           I   tau(   6) = (  0.2014790  0.7985210  0.5000000  )

     number of k points=     6
                       cart. coord. in units 2pi/alat
        k(    1) = (   0.0000000   0.0000000   0.0000000), wk =   0.2500000
        k(    2) = (   0.0000000   0.0000000  -0.8125102), wk =   0.2500000
        k(    3) = (   0.0000000  -0.5000000   0.0000000), wk =   0.5000000
        k(    4) = (   0.0000000  -0.5000000  -0.8125102), wk =   0.5000000
        k(    5) = (  -0.5000000  -0.5000000   0.0000000), wk =   0.2500000
        k(    6) = (  -0.5000000  -0.5000000  -0.8125102), wk =   0.2500000

                       cryst. coord.
        k(    1) = (   0.0000000   0.0000000   0.0000000), wk =   0.2500000
        k(    2) = (   0.0000000   0.0000000  -0.5000000), wk =   0.2500000
        k(    3) = (   0.0000000  -0.5000000   0.0000000), wk =   0.5000000
        k(    4) = (   0.0000000  -0.5000000  -0.5000000), wk =   0.5000000
        k(    5) = (  -0.5000000  -0.5000000   0.0000000), wk =   0.2500000
        k(    6) = (  -0.5000000  -0.5000000  -0.5000000), wk =   0.2500000

     Dense  grid:   178307 G-vectors     FFT dimensions: (  90,  90,  54)

     Dynamical RAM for                 wfc:       0.50 MB

     Dynamical RAM for     wfc (w. buffer):       3.51 MB

     Dynamical RAM for           str. fact:       0.29 MB

     Dynamical RAM for           local pot:       0.00 MB

     Dynamical RAM for          nlocal pot:       1.93 MB

     Dynamical RAM for                qrad:       5.74 MB

     Dynamical RAM for          rho,v,vnew:       0.99 MB

     Dynamical RAM for               rhoin:       0.33 MB

     Dynamical RAM for            rho*nmix:       2.29 MB

     Dynamical RAM for           G-vectors:       0.61 MB

     Dynamical RAM for          h,s,v(r/c):       0.14 MB

     Dynamical RAM for          <psi|beta>:       0.05 MB

     Dynamical RAM for                 psi:       1.00 MB

     Dynamical RAM for                hpsi:       1.00 MB

     Dynamical RAM for                spsi:       1.00 MB

     Dynamical RAM for      wfcinit/wfcrot:       1.24 MB

     Dynamical RAM for           addusdens:      27.21 MB

     Dynamical RAM for          addusforce:      28.16 MB

     Dynamical RAM for         addusstress:      28.78 MB

     Estimated static dynamical RAM per process >      17.04 MB

     Estimated max dynamical RAM per process >      45.83 MB

     Estimated total dynamical RAM >     870.70 MB

     Initial potential from superposition of free atoms

     starting charge   55.99693, renormalised to   56.00000
     Starting wfcs are   34 randomized atomic wfcs
     Checking if some PAW data can be deallocated... 
       PAW data deallocated on   12 nodes for type:  1
       PAW data deallocated on    7 nodes for type:  2

     total cpu time spent up to now is       12.4 secs

     Self-consistent Calculation

     iteration #  1     ecut=    80.00 Ry     beta= 0.50
     Davidson diagonalization with overlap
     ethr =  1.00E-02,  avg # of iterations =  1.5

     Threshold (ethr) on eigenvalues was too large:
     Diagonalizing with lowered threshold

     Davidson diagonalization with overlap
     ethr =  2.58E-04,  avg # of iterations =  2.5

     total cpu time spent up to now is       17.0 secs

     total energy              =   -2399.94234316 Ry
     estimated scf accuracy    <       0.12994149 Ry

     iteration #  2     ecut=    80.00 Ry     beta= 0.50
     Davidson diagonalization with overlap
     ethr =  2.32E-04,  avg # of iterations =  3.3

     total cpu time spent up to now is       20.0 secs

     total energy              =   -2399.97798036 Ry
     estimated scf accuracy    <       0.00728309 Ry

     iteration #  3     ecut=    80.00 Ry     beta= 0.50
     Davidson diagonalization with overlap
     ethr =  1.30E-05,  avg # of iterations =  3.3

     total cpu time spent up to now is       22.9 secs

     total energy              =   -2399.97913401 Ry
     estimated scf accuracy    <       0.00161325 Ry

     iteration #  4     ecut=    80.00 Ry     beta= 0.50
     Davidson diagonalization with overlap
     ethr =  2.88E-06,  avg # of iterations =  3.7

     total cpu time spent up to now is       25.9 secs

     total energy              =   -2399.97954111 Ry
     estimated scf accuracy    <       0.00037938 Ry

     iteration #  5     ecut=    80.00 Ry     beta= 0.50
     Davidson diagonalization with overlap
     ethr =  6.77E-07,  avg # of iterations =  3.2

     total cpu time spent up to now is       28.7 secs

     total energy              =   -2399.97961923 Ry
     estimated scf accuracy    <       0.00000633 Ry

     iteration #  6     ecut=    80.00 Ry     beta= 0.50
     Davidson diagonalization with overlap
     ethr =  1.13E-08,  avg # of iterations =  5.8

     total cpu time spent up to now is       32.7 secs

     total energy              =   -2399.97962414 Ry
     estimated scf accuracy    <       0.00000487 Ry

     iteration #  7     ecut=    80.00 Ry     beta= 0.50
     Davidson diagonalization with overlap
     ethr =  8.70E-09,  avg # of iterations =  3.2

     total cpu time spent up to now is       35.6 secs

     End of self-consistent calculation

          k = 0.0000 0.0000 0.0000 ( 22385 PWs)   bands (ev):

   -18.3879 -18.3849 -18.3780 -18.3777 -18.3670 -18.3670 -18.3632 -18.3632
   -18.3627 -18.3627  -9.3201  -8.8072  -8.8072  -8.6880  -4.1419  -2.2912
    -0.1044  -0.1044   0.4392   0.7555   1.2607   1.3636   1.6177   1.6177
     2.0255   2.0255   2.4024   2.8722

     occupation numbers 
     1.0000   1.0000   1.0000   1.0000   1.0000   1.0000   1.0000   1.0000
     1.0000   1.0000   1.0000   1.0000   1.0000   1.0000   1.0000   1.0000
     1.0000   1.0000   1.0000   1.0000   1.0000   1.0000   1.0000   1.0000
     1.0000   1.0000   1.0000   1.0000

          k = 0.0000 0.0000-0.8125 ( 22322 PWs)   bands (ev):

   -18.3851 -18.3851 -18.3777 -18.3777 -18.3680 -18.3680 -18.3672 -18.3672
   -18.3589 -18.3589  -8.8572  -8.8572  -8.6840  -8.6840  -3.6878  -3.6878
    -0.0410  -0.0410  -0.0149  -0.0149   0.5289   0.5289   1.5850   1.5850
     1.6384   1.6384   2.3742   2.3742

     occupation numbers 
     1.0000   1.0000   1.0000   1.0000   1.0000   1.0000   1.0000   1.0000
     1.0000   1.0000   1.0000   1.0000   1.0000   1.0000   1.0000   1.0000
     1.0000   1.0000   1.0000   1.0000   1.0000   1.0000   1.0000   1.0000
     1.0000   1.0000   1.0000   1.0000

          k = 0.0000-0.5000 0.0000 ( 22322 PWs)   bands (ev):

   -18.3864 -18.3864 -18.3778 -18.3778 -18.3670 -18.3670 -18.3632 -18.3632
   -18.3627 -18.3627  -9.1074  -9.1074  -8.7207  -8.7207  -3.3979  -3.3979
     0.3841   0.3841   0.7836   0.7836   1.0829   1.0829   1.7071   1.7071
     1.8467   1.8467   2.1959   2.1959

     occupation numbers 
     1.0000   1.0000   1.0000   1.0000   1.0000   1.0000   1.0000   1.0000
     1.0000   1.0000   1.0000   1.0000   1.0000   1.0000   1.0000   1.0000
     1.0000   1.0000   1.0000   1.0000   1.0000   1.0000   1.0000   1.0000
     1.0000   1.0000   1.0000   1.0000

          k = 0.0000-0.5000-0.8125 ( 22240 PWs)   bands (ev):

   -18.3851 -18.3851 -18.3777 -18.3777 -18.3680 -18.3680 -18.3672 -18.3672
   -18.3588 -18.3588  -8.8357  -8.8357  -8.7060  -8.7060  -3.6693  -3.6693
    -0.6411  -0.6411   0.0275   0.0275   1.1869   1.1869   1.7068   1.7068
     1.8284   1.8284   2.6195   2.6195

     occupation numbers 
     1.0000   1.0000   1.0000   1.0000   1.0000   1.0000   1.0000   1.0000
     1.0000   1.0000   1.0000   1.0000   1.0000   1.0000   1.0000   1.0000
     1.0000   1.0000   1.0000   1.0000   1.0000   1.0000   1.0000   1.0000
     1.0000   1.0000   1.0000   1.0000

          k =-0.5000-0.5000 0.0000 ( 22228 PWs)   bands (ev):

   -18.3864 -18.3864 -18.3778 -18.3778 -18.3670 -18.3670 -18.3632 -18.3632
   -18.3627 -18.3627  -9.0241  -9.0241  -8.8202  -8.8202  -3.3050  -3.3050
     0.0743   0.0743   0.8519   0.8519   1.3622   1.3622   1.5930   1.5930
     1.7075   1.7075   2.2038   2.2038

     occupation numbers 
     1.0000   1.0000   1.0000   1.0000   1.0000   1.0000   1.0000   1.0000
     1.0000   1.0000   1.0000   1.0000   1.0000   1.0000   1.0000   1.0000
     1.0000   1.0000   1.0000   1.0000   1.0000   1.0000   1.0000   1.0000
     1.0000   1.0000   1.0000   1.0000

          k =-0.5000-0.5000-0.8125 ( 22248 PWs)   bands (ev):

   -18.3851 -18.3851 -18.3777 -18.3777 -18.3680 -18.3680 -18.3672 -18.3672
   -18.3589 -18.3589  -8.8428  -8.8428  -8.6946  -8.6946  -3.7516  -3.7516
    -0.2308  -0.2308   0.2771   0.2771   0.5572   0.5572   1.8418   1.8418
     1.8584   1.8584   2.0278   2.0278

     occupation numbers 
     1.0000   1.0000   1.0000   1.0000   1.0000   1.0000   1.0000   1.0000
     1.0000   1.0000   1.0000   1.0000   1.0000   1.0000   1.0000   1.0000
     1.0000   1.0000   1.0000   1.0000   1.0000   1.0000   1.0000   1.0000
     1.0000   1.0000   1.0000   1.0000

     highest occupied level (ev):     2.8722

!    total energy              =   -2399.97962549 Ry

     total all-electron energy =    -81641.224973 Ry
     estimated scf accuracy    <       0.00000018 Ry

     The total energy is the sum of the following terms:
     one-electron contribution =    -203.71322878 Ry
     hartree contribution      =     130.10603929 Ry
     xc contribution           =    -159.03651558 Ry
     ewald contribution        =    -219.54274838 Ry
     one-center paw contrib.   =   -1947.79317204 Ry
      -> PAW hartree energy AE =     108.29004744 Ry
      -> PAW hartree energy PS =    -107.52350325 Ry
      -> PAW xc energy AE      =    -328.95686161 Ry
      -> PAW xc energy PS      =      47.25502734 Ry
      -> total E_H with PAW    =     130.87258348 Ry
      -> total E_XC with PAW   =    -440.73834985 Ry

     convergence has been achieved in   7 iterations

     Forces acting on atoms (cartesian axes, Ry/au):

     atom    1 type  1   force =     0.00000000    0.00000000    0.00000000
     atom    2 type  1   force =     0.00000000    0.00000000   -0.00000000
     atom    3 type  2   force =     0.00281284    0.00281284    0.00000000
     atom    4 type  2   force =    -0.00281284   -0.00281284    0.00000000
     atom    5 type  2   force =     0.00281284   -0.00281284   -0.00000000
     atom    6 type  2   force =    -0.00281284    0.00281284   -0.00000000
     The non-local contrib.  to forces
     atom    1 type  1   force =     0.00000000    0.00000000    0.00000000
     atom    2 type  1   force =     0.00000000    0.00000000    0.00000000
     atom    3 type  2   force =     0.01539535    0.01539535    0.00000000
     atom    4 type  2   force =    -0.01539535   -0.01539535    0.00000000
     atom    5 type  2   force =     0.01539535   -0.01539535   -0.00000000
     atom    6 type  2   force =    -0.01539535    0.01539535   -0.00000000
     The ionic contribution  to forces
     atom    1 type  1   force =    -0.00000000   -0.00000000    0.00000000
     atom    2 type  1   force =    -0.00000000   -0.00000000   -0.00000000
     atom    3 type  2   force =    -0.90990984   -0.90990984   -0.00000000
     atom    4 type  2   force =     0.90990984    0.90990984   -0.00000000
     atom    5 type  2   force =    -0.90990984    0.90990984   -0.00000000
     atom    6 type  2   force =     0.90990984   -0.90990984   -0.00000000
     The local contribution  to forces
     atom    1 type  1   force =     0.00000000    0.00000000    0.00000000
     atom    2 type  1   force =     0.00000000    0.00000000    0.00000000
     atom    3 type  2   force =     0.89928687    0.89928687    0.00000000
     atom    4 type  2   force =    -0.89928687   -0.89928687    0.00000000
     atom    5 type  2   force =     0.89928687   -0.89928687    0.00000000
     atom    6 type  2   force =    -0.89928687    0.89928687    0.00000000
     The core correction contribution to forces
     atom    1 type  1   force =     0.00000000    0.00000000    0.00000000
     atom    2 type  1   force =     0.00000000    0.00000000    0.00000000
     atom    3 type  2   force =    -0.00197964   -0.00197964    0.00000000
     atom    4 type  2   force =     0.00197964    0.00197964    0.00000000
     atom    5 type  2   force =    -0.00197964    0.00197964    0.00000000
     atom    6 type  2   force =     0.00197964   -0.00197964    0.00000000
     The Hubbard contrib.    to forces
     atom    1 type  1   force =     0.00000000    0.00000000    0.00000000
     atom    2 type  1   force =     0.00000000    0.00000000    0.00000000
     atom    3 type  2   force =     0.00000000    0.00000000    0.00000000
     atom    4 type  2   force =     0.00000000    0.00000000    0.00000000
     atom    5 type  2   force =     0.00000000    0.00000000    0.00000000
     atom    6 type  2   force =     0.00000000    0.00000000    0.00000000
     The SCF correction term to forces
     atom    1 type  1   force =    -0.00000000    0.00000000   -0.00000000
     atom    2 type  1   force =    -0.00000000   -0.00000000   -0.00000000
     atom    3 type  2   force =     0.00002009    0.00002009   -0.00000000
     atom    4 type  2   force =    -0.00002009   -0.00002009   -0.00000000
     atom    5 type  2   force =     0.00002009   -0.00002009   -0.00000000
     atom    6 type  2   force =    -0.00002009    0.00002009   -0.00000000

     Total force =     0.007956     Total SCF correction =     0.000057


     Computing stress (Cartesian axis) and pressure

          total   stress  (Ry/bohr**3)                   (kbar)     P=        1.25
  -0.00001179   0.00000000   0.00000000           -1.73        0.00        0.00
   0.00000000  -0.00001179   0.00000000            0.00       -1.73        0.00
   0.00000000   0.00000000   0.00004903            0.00        0.00        7.21

     kinetic stress (kbar)   7312.39      0.00      0.00
                                0.00   7312.39      0.00
                                0.00      0.00   7300.34

     local   stress (kbar)  -1439.79      0.00     -0.00
                                0.00  -1439.79      0.00
                               -0.00      0.00  -5857.92

     nonloc. stress (kbar)    116.74      0.00      0.00
                                0.00    116.74      0.00
                                0.00      0.00    120.32

     hartree stress (kbar)   2826.07      0.00      0.00
                                0.00   2826.07      0.00
                                0.00      0.00   4720.58

     exc-cor stress (kbar)   6160.84      0.00      0.00
                                0.00   6160.84      0.00
                                0.00      0.00   6162.04

     corecor stress (kbar)  -8297.23     -0.00      0.00
                               -0.00  -8297.23     -0.00
                                0.00     -0.00  -8296.59

     ewald   stress (kbar)  -6680.77      0.00     -0.00
                                0.00  -6680.77     -0.00
                               -0.00     -0.00  -4141.56

     hubbard stress (kbar)      0.00      0.00      0.00
                                0.00      0.00      0.00
                                0.00      0.00      0.00

     DFT-D   stress (kbar)      0.00      0.00      0.00
                                0.00      0.00      0.00
                                0.00      0.00      0.00

     XDM     stress (kbar)      0.00      0.00      0.00
                                0.00      0.00      0.00
                                0.00      0.00      0.00

     dft-nl  stress (kbar)      0.00      0.00      0.00
                                0.00      0.00      0.00
                                0.00      0.00      0.00

     TS-vdW  stress (kbar)      0.00      0.00      0.00
                                0.00      0.00      0.00
                                0.00      0.00      0.00



     BFGS Geometry Optimization
     Energy error            =      0.0E+00
     Gradient error          =      2.8E-03
     Cell gradient error     =      4.9E-05


     number of scf cycles    =   1
     number of bfgs steps    =   0

     enthalpy new            =   -2399.9796254888 Ry

     new trust radius        =       0.0105305764 bohr
     new conv_thr            =       0.0000010000 Ry

     new unit-cell volume =   1846.32389 a.u.^3 (   273.59697 Ang^3 )
     density =      4.52162 g/cm^3

CELL_PARAMETERS (angstrom)
   7.628456783   0.000000000   0.000000000
   0.000000000   7.628456783   0.000000000
   0.000000000   0.000000000   4.701515885

ATOMIC_POSITIONS (crystal)
Sn            0.0000000000        0.0000000000        0.0000000000
Sn            0.5000000000        0.5000000000        0.5000000000
I             0.2987160656        0.2987160656        0.0000000000
I             0.7012839344        0.7012839344        0.0000000000
I             0.7987160656        0.2012839344        0.5000000000
I             0.2012839344        0.7987160656        0.5000000000



     Writing output data file ./out/SnI2tetr.save/
     NEW-OLD atomic charge density approx. for the potential
     extrapolated charge   56.03557, renormalised to   56.00000

     total cpu time spent up to now is       46.1 secs

     Self-consistent Calculation

     iteration #  1     ecut=    80.00 Ry     beta= 0.50
     Davidson diagonalization with overlap
     ethr =  1.00E-06,  avg # of iterations =  3.2

     Threshold (ethr) on eigenvalues was too large:
     Diagonalizing with lowered threshold

     Davidson diagonalization with overlap
     ethr =  9.11E-08,  avg # of iterations =  4.0

     total cpu time spent up to now is       51.9 secs

     total energy              =   -2399.97972364 Ry
     estimated scf accuracy    <       0.00006156 Ry

     iteration #  2     ecut=    80.00 Ry     beta= 0.50
     Davidson diagonalization with overlap
     ethr =  1.10E-07,  avg # of iterations =  4.2

     total cpu time spent up to now is       55.7 secs

     total energy              =   -2399.97980958 Ry
     estimated scf accuracy    <       0.00005455 Ry

     iteration #  3     ecut=    80.00 Ry     beta= 0.50
     Davidson diagonalization with overlap
     ethr =  9.74E-08,  avg # of iterations =  1.8

     total cpu time spent up to now is       80.8 secs

     total energy              =   -2399.97980583 Ry
     estimated scf accuracy    <       0.00001667 Ry

     iteration #  4     ecut=    80.00 Ry     beta= 0.50
     Davidson diagonalization with overlap
     ethr =  2.98E-08,  avg # of iterations =  3.7

     total cpu time spent up to now is       83.8 secs

     total energy              =   -2399.97981023 Ry
     estimated scf accuracy    <       0.00000138 Ry

     iteration #  5     ecut=    80.00 Ry     beta= 0.50
     Davidson diagonalization with overlap
     ethr =  2.47E-09,  avg # of iterations =  3.5

     total cpu time spent up to now is       86.4 secs

     total energy              =   -2399.97981036 Ry
     estimated scf accuracy    <       0.00000119 Ry

     iteration #  6     ecut=    80.00 Ry     beta= 0.50
     Davidson diagonalization with overlap
     ethr =  2.13E-09,  avg # of iterations =  1.0

     total cpu time spent up to now is       88.7 secs

     total energy              =   -2399.97981053 Ry
     estimated scf accuracy    <       0.00000121 Ry

     iteration #  7     ecut=    80.00 Ry     beta= 0.50
     Davidson diagonalization with overlap
     ethr =  2.13E-09,  avg # of iterations =  1.0

     total cpu time spent up to now is       90.9 secs

     total energy              =   -2399.97981107 Ry
     estimated scf accuracy    <       0.00000115 Ry

     iteration #  8     ecut=    80.00 Ry     beta= 0.50
     Davidson diagonalization with overlap
     ethr =  2.06E-09,  avg # of iterations =  2.0

     total cpu time spent up to now is       93.5 secs

     End of self-consistent calculation

          k = 0.0000 0.0000 0.0000 ( 22385 PWs)   bands (ev):

   -18.4001 -18.3971 -18.3903 -18.3901 -18.3793 -18.3793 -18.3756 -18.3755
   -18.3750 -18.3750  -9.3234  -8.8101  -8.8101  -8.6927  -4.1447  -2.2986
    -0.1038  -0.1038   0.4272   0.7539   1.2522   1.3509   1.6094   1.6094
     2.0217   2.0217   2.3971   2.8570

     occupation numbers 
     1.0000   1.0000   1.0000   1.0000   1.0000   1.0000   1.0000   1.0000
     1.0000   1.0000   1.0000   1.0000   1.0000   1.0000   1.0000   1.0000
     1.0000   1.0000   1.0000   1.0000   1.0000   1.0000   1.0000   1.0000
     1.0000   1.0000   1.0000   1.0000

          k = 0.0000 0.0000-0.8115 ( 22322 PWs)   bands (ev):

   -18.3973 -18.3973 -18.3901 -18.3901 -18.3803 -18.3803 -18.3796 -18.3796
   -18.3712 -18.3712  -8.8619  -8.8619  -8.6878  -8.6878  -3.6959  -3.6959
    -0.0450  -0.0450  -0.0174  -0.0174   0.5276   0.5276   1.5808   1.5808
     1.6335   1.6335   2.3718   2.3718

     occupation numbers 
     1.0000   1.0000   1.0000   1.0000   1.0000   1.0000   1.0000   1.0000
     1.0000   1.0000   1.0000   1.0000   1.0000   1.0000   1.0000   1.0000
     1.0000   1.0000   1.0000   1.0000   1.0000   1.0000   1.0000   1.0000
     1.0000   1.0000   1.0000   1.0000

          k = 0.0000-0.5001 0.0000 ( 22322 PWs)   bands (ev):

   -18.3986 -18.3986 -18.3902 -18.3902 -18.3793 -18.3793 -18.3755 -18.3755
   -18.3750 -18.3750  -9.1108  -9.1108  -8.7241  -8.7241  -3.4019  -3.4019
     0.3794   0.3794   0.7716   0.7716   1.0819   1.0819   1.6984   1.6984
     1.8431   1.8431   2.1897   2.1897

     occupation numbers 
     1.0000   1.0000   1.0000   1.0000   1.0000   1.0000   1.0000   1.0000
     1.0000   1.0000   1.0000   1.0000   1.0000   1.0000   1.0000   1.0000
     1.0000   1.0000   1.0000   1.0000   1.0000   1.0000   1.0000   1.0000
     1.0000   1.0000   1.0000   1.0000

          k = 0.0000-0.5001-0.8115 ( 22240 PWs)   bands (ev):

   -18.3974 -18.3974 -18.3901 -18.3901 -18.3803 -18.3803 -18.3795 -18.3795
   -18.3712 -18.3712  -8.8405  -8.8405  -8.7098  -8.7098  -3.6773  -3.6773
    -0.6444  -0.6444   0.0243   0.0243   1.1845   1.1845   1.7033   1.7033
     1.8242   1.8242   2.6175   2.6175

     occupation numbers 
     1.0000   1.0000   1.0000   1.0000   1.0000   1.0000   1.0000   1.0000
     1.0000   1.0000   1.0000   1.0000   1.0000   1.0000   1.0000   1.0000
     1.0000   1.0000   1.0000   1.0000   1.0000   1.0000   1.0000   1.0000
     1.0000   1.0000   1.0000   1.0000

          k =-0.5001-0.5001 0.0000 ( 22228 PWs)   bands (ev):

   -18.3986 -18.3986 -18.3902 -18.3902 -18.3793 -18.3793 -18.3755 -18.3755
   -18.3750 -18.3750  -9.0279  -9.0279  -8.8231  -8.8231  -3.3098  -3.3098
     0.0744   0.0744   0.8397   0.8397   1.3590   1.3590   1.5846   1.5846
     1.7049   1.7049   2.1918   2.1918

     occupation numbers 
     1.0000   1.0000   1.0000   1.0000   1.0000   1.0000   1.0000   1.0000
     1.0000   1.0000   1.0000   1.0000   1.0000   1.0000   1.0000   1.0000
     1.0000   1.0000   1.0000   1.0000   1.0000   1.0000   1.0000   1.0000
     1.0000   1.0000   1.0000   1.0000

          k =-0.5001-0.5001-0.8115 ( 22248 PWs)   bands (ev):

   -18.3973 -18.3973 -18.3901 -18.3901 -18.3803 -18.3803 -18.3796 -18.3796
   -18.3712 -18.3712  -8.8475  -8.8475  -8.6984  -8.6984  -3.7594  -3.7594
    -0.2335  -0.2335   0.2714   0.2714   0.5559   0.5559   1.8364   1.8364
     1.8546   1.8546   2.0276   2.0276

     occupation numbers 
     1.0000   1.0000   1.0000   1.0000   1.0000   1.0000   1.0000   1.0000
     1.0000   1.0000   1.0000   1.0000   1.0000   1.0000   1.0000   1.0000
     1.0000   1.0000   1.0000   1.0000   1.0000   1.0000   1.0000   1.0000
     1.0000   1.0000   1.0000   1.0000

     highest occupied level (ev):     2.8570

!    total energy              =   -2399.97981092 Ry

     total all-electron energy =    -81641.225159 Ry
     estimated scf accuracy    <       0.00000096 Ry

     The total energy is the sum of the following terms:
     one-electron contribution =    -203.77084235 Ry
     hartree contribution      =     130.12827857 Ry
     xc contribution           =    -159.03632250 Ry
     ewald contribution        =    -219.50808324 Ry
     one-center paw contrib.   =   -1947.79284139 Ry
      -> PAW hartree energy AE =     108.28363085 Ry
      -> PAW hartree energy PS =    -107.51674172 Ry
      -> PAW xc energy AE      =    -328.95718438 Ry
      -> PAW xc energy PS      =      47.25504235 Ry
      -> total E_H with PAW    =     130.89516770 Ry
      -> total E_XC with PAW   =    -440.73846454 Ry

     convergence has been achieved in   8 iterations

     Forces acting on atoms (cartesian axes, Ry/au):

     atom    1 type  1   force =     0.00000000    0.00000000   -0.00000000
     atom    2 type  1   force =     0.00000000    0.00000000    0.00000000
     atom    3 type  2   force =     0.00268416    0.00268416    0.00000000
     atom    4 type  2   force =    -0.00268416   -0.00268416    0.00000000
     atom    5 type  2   force =     0.00268416   -0.00268416    0.00000000
     atom    6 type  2   force =    -0.00268416    0.00268416    0.00000000
     The non-local contrib.  to forces
     atom    1 type  1   force =     0.00000000    0.00000000    0.00000000
     atom    2 type  1   force =     0.00000000    0.00000000    0.00000000
     atom    3 type  2   force =     0.01508538    0.01508538    0.00000000
     atom    4 type  2   force =    -0.01508538   -0.01508538    0.00000000
     atom    5 type  2   force =     0.01508538   -0.01508538    0.00000000
     atom    6 type  2   force =    -0.01508538    0.01508538    0.00000000
     The ionic contribution  to forces
     atom    1 type  1   force =    -0.00000000   -0.00000000    0.00000000
     atom    2 type  1   force =     0.00000000    0.00000000   -0.00000000
     atom    3 type  2   force =    -0.91035222   -0.91035222    0.00000000
     atom    4 type  2   force =     0.91035222    0.91035222   -0.00000000
     atom    5 type  2   force =    -0.91035222    0.91035222   -0.00000000
     atom    6 type  2   force =     0.91035222   -0.91035222   -0.00000000
     The local contribution  to forces
     atom    1 type  1   force =     0.00000000    0.00000000    0.00000000
     atom    2 type  1   force =     0.00000000    0.00000000    0.00000000
     atom    3 type  2   force =     0.90004148    0.90004148    0.00000000
     atom    4 type  2   force =    -0.90004148   -0.90004148    0.00000000
     atom    5 type  2   force =     0.90004148   -0.90004148    0.00000000
     atom    6 type  2   force =    -0.90004148    0.90004148    0.00000000
     The core correction contribution to forces
     atom    1 type  1   force =     0.00000000    0.00000000    0.00000000
     atom    2 type  1   force =    -0.00000000   -0.00000000    0.00000000
     atom    3 type  2   force =    -0.00196176   -0.00196176    0.00000000
     atom    4 type  2   force =     0.00196176    0.00196176    0.00000000
     atom    5 type  2   force =    -0.00196176    0.00196176    0.00000000
     atom    6 type  2   force =     0.00196176   -0.00196176    0.00000000
     The Hubbard contrib.    to forces
     atom    1 type  1   force =     0.00000000    0.00000000    0.00000000
     atom    2 type  1   force =     0.00000000    0.00000000    0.00000000
     atom    3 type  2   force =     0.00000000    0.00000000    0.00000000
     atom    4 type  2   force =     0.00000000    0.00000000    0.00000000
     atom    5 type  2   force =     0.00000000    0.00000000    0.00000000
     atom    6 type  2   force =     0.00000000    0.00000000    0.00000000
     The SCF correction term to forces
     atom    1 type  1   force =    -0.00000000   -0.00000000    0.00000000
     atom    2 type  1   force =     0.00000000    0.00000000    0.00000000
     atom    3 type  2   force =    -0.00012873   -0.00012873    0.00000000
     atom    4 type  2   force =     0.00012873    0.00012873   -0.00000000
     atom    5 type  2   force =    -0.00012873    0.00012873    0.00000000
     atom    6 type  2   force =     0.00012873   -0.00012873    0.00000000

     Total force =     0.007592     Total SCF correction =     0.000364


     Computing stress (Cartesian axis) and pressure

          total   stress  (Ry/bohr**3)                   (kbar)     P=        2.96
   0.00000069   0.00000000   0.00000000            0.10        0.00        0.00
   0.00000000   0.00000069   0.00000000            0.00        0.10        0.00
   0.00000000   0.00000000   0.00005900            0.00        0.00        8.68

     kinetic stress (kbar)   7307.86      0.00      0.00
                                0.00   7307.86      0.00
                                0.00      0.00   7295.23

     local   stress (kbar)  -1437.55      0.00     -0.00
                                0.00  -1437.55     -0.00
                               -0.00     -0.00  -5860.80

     nonloc. stress (kbar)    118.25      0.00      0.00
                                0.00    118.25      0.00
                                0.00      0.00    121.85

     hartree stress (kbar)   2824.17      0.00      0.00
                                0.00   2824.17     -0.00
                                0.00     -0.00   4719.57

     exc-cor stress (kbar)   6156.94      0.00      0.00
                                0.00   6156.94      0.00
                                0.00      0.00   6158.16

     corecor stress (kbar)  -8291.96      0.00     -0.00
                                0.00  -8291.96      0.00
                               -0.00      0.00  -8291.32

     ewald   stress (kbar)  -6677.60     -0.00     -0.00
                               -0.00  -6677.60      0.00
                               -0.00      0.00  -4134.01

     hubbard stress (kbar)      0.00      0.00      0.00
                                0.00      0.00      0.00
                                0.00      0.00      0.00

     DFT-D   stress (kbar)      0.00      0.00      0.00
                                0.00      0.00      0.00
                                0.00      0.00      0.00

     XDM     stress (kbar)      0.00      0.00      0.00
                                0.00      0.00      0.00
                                0.00      0.00      0.00

     dft-nl  stress (kbar)      0.00      0.00      0.00
                                0.00      0.00      0.00
                                0.00      0.00      0.00

     TS-vdW  stress (kbar)      0.00      0.00      0.00
                                0.00      0.00      0.00
                                0.00      0.00      0.00


     Energy error            =      1.9E-04
     Gradient error          =      2.7E-03
     Cell gradient error     =      5.9E-05


     number of scf cycles    =   2
     number of bfgs steps    =   1

     enthalpy old            =   -2399.9796254888 Ry
     enthalpy new            =   -2399.9798109232 Ry

     CASE: enthalpy_new < enthalpy_old


     WARNING: bfgs curvature condition failed, Theta= 0.775
     new trust radius        =       0.0157815393 bohr
     new conv_thr            =       0.0000000185 Ry

     new unit-cell volume =   1847.43392 a.u.^3 (   273.76146 Ang^3 )
     density =      4.51890 g/cm^3

CELL_PARAMETERS (angstrom)
   7.623752712   0.000000000   0.000000000
   0.000000000   7.623752712   0.000000000
   0.000000000   0.000000000   4.710149711

ATOMIC_POSITIONS (crystal)
Sn            0.0000000000        0.0000000000        0.0000000000
Sn            0.5000000000        0.5000000000        0.5000000000
I             0.2990314018        0.2990314018        0.0000000000
I             0.7009685982        0.7009685982        0.0000000000
I             0.7990314018        0.2009685982        0.5000000000
I             0.2009685982        0.7990314018        0.5000000000



     Writing output data file ./out/SnI2tetr.save/
     NEW-OLD atomic charge density approx. for the potential
     extrapolated charge   56.03365, renormalised to   56.00000

     total cpu time spent up to now is      103.9 secs

     Self-consistent Calculation

     iteration #  1     ecut=    80.00 Ry     beta= 0.50
     Davidson diagonalization with overlap
     ethr =  1.00E-06,  avg # of iterations =  4.8

     total cpu time spent up to now is      107.7 secs

     total energy              =   -2399.97999450 Ry
     estimated scf accuracy    <       0.00007866 Ry

     iteration #  2     ecut=    80.00 Ry     beta= 0.50
     Davidson diagonalization with overlap
     ethr =  1.40E-07,  avg # of iterations =  3.8

     total cpu time spent up to now is      111.4 secs

     total energy              =   -2399.98008158 Ry
     estimated scf accuracy    <       0.00004292 Ry

     iteration #  3     ecut=    80.00 Ry     beta= 0.50
     Davidson diagonalization with overlap
     ethr =  7.66E-08,  avg # of iterations =  2.0

     total cpu time spent up to now is      114.1 secs

     total energy              =   -2399.98008308 Ry
     estimated scf accuracy    <       0.00001191 Ry

     iteration #  4     ecut=    80.00 Ry     beta= 0.50
     Davidson diagonalization with overlap
     ethr =  2.13E-08,  avg # of iterations =  3.0

     total cpu time spent up to now is      117.2 secs

     total energy              =   -2399.98008645 Ry
     estimated scf accuracy    <       0.00000204 Ry

     iteration #  5     ecut=    80.00 Ry     beta= 0.50
     Davidson diagonalization with overlap
     ethr =  3.64E-09,  avg # of iterations =  2.5

     total cpu time spent up to now is      119.7 secs

     total energy              =   -2399.98008839 Ry
     estimated scf accuracy    <       0.00000179 Ry

     iteration #  6     ecut=    80.00 Ry     beta= 0.50
     Davidson diagonalization with overlap
     ethr =  3.20E-09,  avg # of iterations =  2.0

     total cpu time spent up to now is      122.2 secs

     total energy              =   -2399.98008781 Ry
     estimated scf accuracy    <       0.00000189 Ry

     iteration #  7     ecut=    80.00 Ry     beta= 0.50
     Davidson diagonalization with overlap
     ethr =  3.20E-09,  avg # of iterations =  2.7

     total cpu time spent up to now is      125.4 secs

     total energy              =   -2399.98008881 Ry
     estimated scf accuracy    <       0.00000045 Ry

     iteration #  8     ecut=    80.00 Ry     beta= 0.50
     Davidson diagonalization with overlap
     ethr =  8.12E-10,  avg # of iterations =  2.7

     total cpu time spent up to now is      128.1 secs

     total energy              =   -2399.98008880 Ry
     estimated scf accuracy    <       0.00000019 Ry

     iteration #  9     ecut=    80.00 Ry     beta= 0.50
     Davidson diagonalization with overlap
     ethr =  3.36E-10,  avg # of iterations =  3.5

     total cpu time spent up to now is      131.3 secs

     End of self-consistent calculation

          k = 0.0000 0.0000 0.0000 ( 22385 PWs)   bands (ev):

   -18.4009 -18.3979 -18.3913 -18.3911 -18.3797 -18.3797 -18.3760 -18.3760
   -18.3756 -18.3756  -9.3271  -8.8129  -8.8129  -8.6980  -4.1424  -2.3005
    -0.0999  -0.0999   0.4109   0.7522   1.2423   1.3340   1.5985   1.5985
     2.0178   2.0178   2.3906   2.8396

     occupation numbers 
     1.0000   1.0000   1.0000   1.0000   1.0000   1.0000   1.0000   1.0000
     1.0000   1.0000   1.0000   1.0000   1.0000   1.0000   1.0000   1.0000
     1.0000   1.0000   1.0000   1.0000   1.0000   1.0000   1.0000   1.0000
     1.0000   1.0000   1.0000   1.0000

          k = 0.0000 0.0000-0.8100 ( 22322 PWs)   bands (ev):

   -18.3981 -18.3981 -18.3911 -18.3911 -18.3807 -18.3807 -18.3801 -18.3801
   -18.3717 -18.3717  -8.8678  -8.8678  -8.6920  -8.6920  -3.7012  -3.7012
    -0.0478  -0.0478  -0.0191  -0.0191   0.5292   0.5292   1.5756   1.5756
     1.6275   1.6275   2.3727   2.3727

     occupation numbers 
     1.0000   1.0000   1.0000   1.0000   1.0000   1.0000   1.0000   1.0000
     1.0000   1.0000   1.0000   1.0000   1.0000   1.0000   1.0000   1.0000
     1.0000   1.0000   1.0000   1.0000   1.0000   1.0000   1.0000   1.0000
     1.0000   1.0000   1.0000   1.0000

          k = 0.0000-0.5005 0.0000 ( 22322 PWs)   bands (ev):

   -18.3994 -18.3994 -18.3912 -18.3912 -18.3797 -18.3797 -18.3760 -18.3760
   -18.3757 -18.3757  -9.1145  -9.1145  -8.7277  -8.7277  -3.4007  -3.4007
     0.3752   0.3752   0.7556   0.7556   1.0828   1.0828   1.6872   1.6872
     1.8417   1.8417   2.1827   2.1827

     occupation numbers 
     1.0000   1.0000   1.0000   1.0000   1.0000   1.0000   1.0000   1.0000
     1.0000   1.0000   1.0000   1.0000   1.0000   1.0000   1.0000   1.0000
     1.0000   1.0000   1.0000   1.0000   1.0000   1.0000   1.0000   1.0000
     1.0000   1.0000   1.0000   1.0000

          k = 0.0000-0.5005-0.8100 ( 22240 PWs)   bands (ev):

   -18.3982 -18.3982 -18.3911 -18.3911 -18.3807 -18.3807 -18.3801 -18.3801
   -18.3717 -18.3717  -8.8464  -8.8464  -8.7139  -8.7139  -3.6824  -3.6824
    -0.6467  -0.6467   0.0219   0.0219   1.1826   1.1826   1.7006   1.7006
     1.8193   1.8193   2.6189   2.6189

     occupation numbers 
     1.0000   1.0000   1.0000   1.0000   1.0000   1.0000   1.0000   1.0000
     1.0000   1.0000   1.0000   1.0000   1.0000   1.0000   1.0000   1.0000
     1.0000   1.0000   1.0000   1.0000   1.0000   1.0000   1.0000   1.0000
     1.0000   1.0000   1.0000   1.0000

          k =-0.5005-0.5005 0.0000 ( 22228 PWs)   bands (ev):

   -18.3994 -18.3994 -18.3912 -18.3912 -18.3797 -18.3797 -18.3760 -18.3760
   -18.3756 -18.3756  -9.0322  -9.0322  -8.8259  -8.8259  -3.3097  -3.3097
     0.0778   0.0778   0.8234   0.8234   1.3559   1.3559   1.5735   1.5735
     1.7024   1.7024   2.1784   2.1784

     occupation numbers 
     1.0000   1.0000   1.0000   1.0000   1.0000   1.0000   1.0000   1.0000
     1.0000   1.0000   1.0000   1.0000   1.0000   1.0000   1.0000   1.0000
     1.0000   1.0000   1.0000   1.0000   1.0000   1.0000   1.0000   1.0000
     1.0000   1.0000   1.0000   1.0000

          k =-0.5005-0.5005-0.8100 ( 22248 PWs)   bands (ev):

   -18.3981 -18.3981 -18.3911 -18.3911 -18.3807 -18.3807 -18.3801 -18.3801
   -18.3717 -18.3717  -8.8533  -8.8533  -8.7027  -8.7027  -3.7646  -3.7646
    -0.2359  -0.2359   0.2668   0.2668   0.5575   0.5575   1.8297   1.8297
     1.8502   1.8502   2.0311   2.0311

     occupation numbers 
     1.0000   1.0000   1.0000   1.0000   1.0000   1.0000   1.0000   1.0000
     1.0000   1.0000   1.0000   1.0000   1.0000   1.0000   1.0000   1.0000
     1.0000   1.0000   1.0000   1.0000   1.0000   1.0000   1.0000   1.0000
     1.0000   1.0000   1.0000   1.0000

     highest occupied level (ev):     2.8396

!    total energy              =   -2399.98008886 Ry

     total all-electron energy =    -81641.225437 Ry
     estimated scf accuracy    <       0.00000001 Ry

     The total energy is the sum of the following terms:
     one-electron contribution =    -203.79674820 Ry
     hartree contribution      =     130.12706663 Ry
     xc contribution           =    -159.03433286 Ry
     ewald contribution        =    -219.48327580 Ry
     one-center paw contrib.   =   -1947.79279864 Ry
      -> PAW hartree energy AE =     108.28543653 Ry
      -> PAW hartree energy PS =    -107.51881307 Ry
      -> PAW xc energy AE      =    -328.95668469 Ry
      -> PAW xc energy PS      =      47.25479836 Ry
      -> total E_H with PAW    =     130.89369010 Ry
      -> total E_XC with PAW   =    -440.73621919 Ry

     convergence has been achieved in   9 iterations

     Forces acting on atoms (cartesian axes, Ry/au):

     atom    1 type  1   force =     0.00000000    0.00000000    0.00000000
     atom    2 type  1   force =     0.00000000    0.00000000    0.00000000
     atom    3 type  2   force =     0.00248481    0.00248481    0.00000000
     atom    4 type  2   force =    -0.00248481   -0.00248481    0.00000000
     atom    5 type  2   force =     0.00248481   -0.00248481   -0.00000000
     atom    6 type  2   force =    -0.00248481    0.00248481   -0.00000000
     The non-local contrib.  to forces
     atom    1 type  1   force =     0.00000000    0.00000000    0.00000000
     atom    2 type  1   force =     0.00000000    0.00000000    0.00000000
     atom    3 type  2   force =     0.01531961    0.01531961    0.00000000
     atom    4 type  2   force =    -0.01531961   -0.01531961   -0.00000000
     atom    5 type  2   force =     0.01531961   -0.01531961   -0.00000000
     atom    6 type  2   force =    -0.01531961    0.01531961    0.00000000
     The ionic contribution  to forces
     atom    1 type  1   force =    -0.00000000   -0.00000000   -0.00000000
     atom    2 type  1   force =     0.00000000    0.00000000    0.00000000
     atom    3 type  2   force =    -0.91129581   -0.91129581   -0.00000000
     atom    4 type  2   force =     0.91129581    0.91129581   -0.00000000
     atom    5 type  2   force =    -0.91129581    0.91129581    0.00000000
     atom    6 type  2   force =     0.91129581   -0.91129581    0.00000000
     The local contribution  to forces
     atom    1 type  1   force =     0.00000000    0.00000000    0.00000000
     atom    2 type  1   force =    -0.00000000   -0.00000000    0.00000000
     atom    3 type  2   force =     0.90046148    0.90046148    0.00000000
     atom    4 type  2   force =    -0.90046148   -0.90046148    0.00000000
     atom    5 type  2   force =     0.90046148   -0.90046148   -0.00000000
     atom    6 type  2   force =    -0.90046148    0.90046148   -0.00000000
     The core correction contribution to forces
     atom    1 type  1   force =     0.00000000    0.00000000    0.00000000
     atom    2 type  1   force =    -0.00000000   -0.00000000   -0.00000000
     atom    3 type  2   force =    -0.00197223   -0.00197223    0.00000000
     atom    4 type  2   force =     0.00197223    0.00197223    0.00000000
     atom    5 type  2   force =    -0.00197223    0.00197223   -0.00000000
     atom    6 type  2   force =     0.00197223   -0.00197223   -0.00000000
     The Hubbard contrib.    to forces
     atom    1 type  1   force =     0.00000000    0.00000000    0.00000000
     atom    2 type  1   force =     0.00000000    0.00000000    0.00000000
     atom    3 type  2   force =     0.00000000    0.00000000    0.00000000
     atom    4 type  2   force =     0.00000000    0.00000000    0.00000000
     atom    5 type  2   force =     0.00000000    0.00000000    0.00000000
     atom    6 type  2   force =     0.00000000    0.00000000    0.00000000
     The SCF correction term to forces
     atom    1 type  1   force =     0.00000000   -0.00000000   -0.00000000
     atom    2 type  1   force =     0.00000000    0.00000000    0.00000000
     atom    3 type  2   force =    -0.00002824   -0.00002824    0.00000000
     atom    4 type  2   force =     0.00002824    0.00002824    0.00000000
     atom    5 type  2   force =    -0.00002824    0.00002824    0.00000000
     atom    6 type  2   force =     0.00002824   -0.00002824   -0.00000000

     Total force =     0.007028     Total SCF correction =     0.000080


     Computing stress (Cartesian axis) and pressure

          total   stress  (Ry/bohr**3)                   (kbar)     P=        1.45
  -0.00000871   0.00000000   0.00000000           -1.28        0.00        0.00
   0.00000000  -0.00000871   0.00000000            0.00       -1.28        0.00
   0.00000000   0.00000000   0.00004700            0.00        0.00        6.91

     kinetic stress (kbar)   7303.61      0.00      0.00
                                0.00   7303.61      0.00
                                0.00      0.00   7290.09

     local   stress (kbar)  -1433.22     -0.00      0.00
                               -0.00  -1433.22      0.00
                                0.00      0.00  -5866.49

     nonloc. stress (kbar)    116.89      0.00      0.00
                                0.00    116.89      0.00
                                0.00      0.00    120.56

     hartree stress (kbar)   2821.47      0.00     -0.00
                                0.00   2821.47     -0.00
                               -0.00     -0.00   4718.66

     exc-cor stress (kbar)   6153.25     -0.00      0.00
                               -0.00   6153.25     -0.00
                                0.00     -0.00   6154.51

     corecor stress (kbar)  -8286.97     -0.00     -0.00
                               -0.00  -8286.97      0.00
                               -0.00      0.00  -8286.30

     ewald   stress (kbar)  -6676.31     -0.00     -0.00
                               -0.00  -6676.31     -0.00
                               -0.00     -0.00  -4124.11

     hubbard stress (kbar)      0.00      0.00      0.00
                                0.00      0.00      0.00
                                0.00      0.00      0.00

     DFT-D   stress (kbar)      0.00      0.00      0.00
                                0.00      0.00      0.00
                                0.00      0.00      0.00

     XDM     stress (kbar)      0.00      0.00      0.00
                                0.00      0.00      0.00
                                0.00      0.00      0.00

     dft-nl  stress (kbar)      0.00      0.00      0.00
                                0.00      0.00      0.00
                                0.00      0.00      0.00

     TS-vdW  stress (kbar)      0.00      0.00      0.00
                                0.00      0.00      0.00
                                0.00      0.00      0.00


     Energy error            =      2.8E-04
     Gradient error          =      2.5E-03
     Cell gradient error     =      4.7E-05


     number of scf cycles    =   3
     number of bfgs steps    =   2

     enthalpy old            =   -2399.9798109232 Ry
     enthalpy new            =   -2399.9800888628 Ry

     CASE: enthalpy_new < enthalpy_old

     new trust radius        =       0.0236360190 bohr
     new conv_thr            =       0.0000000278 Ry

     new unit-cell volume =   1848.65685 a.u.^3 (   273.94268 Ang^3 )
     density =      4.51591 g/cm^3

CELL_PARAMETERS (angstrom)
   7.615812796   0.000000000   0.000000000
   0.000000000   7.615812796   0.000000000
   0.000000000   0.000000000   4.723100452

ATOMIC_POSITIONS (crystal)
Sn            0.0000000000        0.0000000000        0.0000000000
Sn            0.5000000000        0.5000000000        0.5000000000
I             0.2995103340        0.2995103340        0.0000000000
I             0.7004896660        0.7004896660        0.0000000000
I             0.7995103340        0.2004896660        0.5000000000
I             0.2004896660        0.7995103340        0.5000000000



     Writing output data file ./out/SnI2tetr.save/
     NEW-OLD atomic charge density approx. for the potential
     extrapolated charge   56.03704, renormalised to   56.00000

     total cpu time spent up to now is      141.8 secs

     Self-consistent Calculation

     iteration #  1     ecut=    80.00 Ry     beta= 0.50
     Davidson diagonalization with overlap
     ethr =  1.00E-06,  avg # of iterations =  5.3

     total cpu time spent up to now is      146.0 secs

     total energy              =   -2399.98035814 Ry
     estimated scf accuracy    <       0.00010489 Ry

     iteration #  2     ecut=    80.00 Ry     beta= 0.50
     Davidson diagonalization with overlap
     ethr =  1.87E-07,  avg # of iterations =  4.0

     total cpu time spent up to now is      149.7 secs

     total energy              =   -2399.98046197 Ry
     estimated scf accuracy    <       0.00005469 Ry

     iteration #  3     ecut=    80.00 Ry     beta= 0.50
     Davidson diagonalization with overlap
     ethr =  9.77E-08,  avg # of iterations =  2.0

     total cpu time spent up to now is      152.4 secs

     total energy              =   -2399.98046784 Ry
     estimated scf accuracy    <       0.00001376 Ry

     iteration #  4     ecut=    80.00 Ry     beta= 0.50
     Davidson diagonalization with overlap
     ethr =  2.46E-08,  avg # of iterations =  3.8

     total cpu time spent up to now is      155.6 secs

     total energy              =   -2399.98047315 Ry
     estimated scf accuracy    <       0.00000284 Ry

     iteration #  5     ecut=    80.00 Ry     beta= 0.50
     Davidson diagonalization with overlap
     ethr =  5.08E-09,  avg # of iterations =  2.2

     total cpu time spent up to now is      158.0 secs

     total energy              =   -2399.98047651 Ry
     estimated scf accuracy    <       0.00000255 Ry

     iteration #  6     ecut=    80.00 Ry     beta= 0.50
     Davidson diagonalization with overlap
     ethr =  4.56E-09,  avg # of iterations =  2.0

     total cpu time spent up to now is      160.6 secs

     total energy              =   -2399.98047653 Ry
     estimated scf accuracy    <       0.00000225 Ry

     iteration #  7     ecut=    80.00 Ry     beta= 0.50
     Davidson diagonalization with overlap
     ethr =  4.02E-09,  avg # of iterations =  2.3

     total cpu time spent up to now is      163.3 secs

     total energy              =   -2399.98047760 Ry
     estimated scf accuracy    <       0.00000055 Ry

     iteration #  8     ecut=    80.00 Ry     beta= 0.50
     Davidson diagonalization with overlap
     ethr =  9.83E-10,  avg # of iterations =  4.2

     total cpu time spent up to now is      166.6 secs

     total energy              =   -2399.98047787 Ry
     estimated scf accuracy    <       0.00000011 Ry

     iteration #  9     ecut=    80.00 Ry     beta= 0.50
     Davidson diagonalization with overlap
     ethr =  2.00E-10,  avg # of iterations =  2.2

     total cpu time spent up to now is      169.2 secs

     End of self-consistent calculation

          k = 0.0000 0.0000 0.0000 ( 22385 PWs)   bands (ev):

   -18.4046 -18.4017 -18.3953 -18.3951 -18.3831 -18.3831 -18.3794 -18.3794
   -18.3793 -18.3793  -9.3317  -8.8158  -8.8158  -8.7047  -4.1387  -2.3021
    -0.0929  -0.0929   0.3873   0.7511   1.2283   1.3099   1.5839   1.5839
     2.0139   2.0139   2.3829   2.8147

     occupation numbers 
     1.0000   1.0000   1.0000   1.0000   1.0000   1.0000   1.0000   1.0000
     1.0000   1.0000   1.0000   1.0000   1.0000   1.0000   1.0000   1.0000
     1.0000   1.0000   1.0000   1.0000   1.0000   1.0000   1.0000   1.0000
     1.0000   1.0000   1.0000   1.0000

          k = 0.0000 0.0000-0.8078 ( 22322 PWs)   bands (ev):

   -18.4019 -18.4019 -18.3951 -18.3951 -18.3840 -18.3840 -18.3837 -18.3837
   -18.3752 -18.3752  -8.8753  -8.8753  -8.6968  -8.6968  -3.7088  -3.7088
    -0.0511  -0.0511  -0.0202  -0.0202   0.5327   0.5327   1.5694   1.5694
     1.6200   1.6200   2.3762   2.3762

     occupation numbers 
     1.0000   1.0000   1.0000   1.0000   1.0000   1.0000   1.0000   1.0000
     1.0000   1.0000   1.0000   1.0000   1.0000   1.0000   1.0000   1.0000
     1.0000   1.0000   1.0000   1.0000   1.0000   1.0000   1.0000   1.0000
     1.0000   1.0000   1.0000   1.0000

          k = 0.0000-0.5010 0.0000 ( 22322 PWs)   bands (ev):

   -18.4032 -18.4032 -18.3952 -18.3952 -18.3831 -18.3831 -18.3794 -18.3794
   -18.3793 -18.3793  -9.1190  -9.1190  -8.7316  -8.7316  -3.3983  -3.3983
     0.3697   0.3697   0.7325   0.7325   1.0857   1.0857   1.6722   1.6722
     1.8415   1.8415   2.1739   2.1739

     occupation numbers 
     1.0000   1.0000   1.0000   1.0000   1.0000   1.0000   1.0000   1.0000
     1.0000   1.0000   1.0000   1.0000   1.0000   1.0000   1.0000   1.0000
     1.0000   1.0000   1.0000   1.0000   1.0000   1.0000   1.0000   1.0000
     1.0000   1.0000   1.0000   1.0000

          k = 0.0000-0.5010-0.8078 ( 22240 PWs)   bands (ev):

   -18.4020 -18.4020 -18.3951 -18.3951 -18.3840 -18.3840 -18.3837 -18.3837
   -18.3752 -18.3752  -8.8540  -8.8540  -8.7187  -8.7187  -3.6897  -3.6897
    -0.6494  -0.6494   0.0195   0.0195   1.1811   1.1811   1.6986   1.6986
     1.8138   1.8138   2.6234   2.6234

     occupation numbers 
     1.0000   1.0000   1.0000   1.0000   1.0000   1.0000   1.0000   1.0000
     1.0000   1.0000   1.0000   1.0000   1.0000   1.0000   1.0000   1.0000
     1.0000   1.0000   1.0000   1.0000   1.0000   1.0000   1.0000   1.0000
     1.0000   1.0000   1.0000   1.0000

          k =-0.5010-0.5010 0.0000 ( 22228 PWs)   bands (ev):

   -18.4032 -18.4032 -18.3952 -18.3952 -18.3831 -18.3831 -18.3794 -18.3794
   -18.3793 -18.3793  -9.0375  -9.0375  -8.8289  -8.8289  -3.3087  -3.3087
     0.0841   0.0841   0.7999   0.7999   1.3529   1.3529   1.5586   1.5586
     1.7005   1.7005   2.1594   2.1594

     occupation numbers 
     1.0000   1.0000   1.0000   1.0000   1.0000   1.0000   1.0000   1.0000
     1.0000   1.0000   1.0000   1.0000   1.0000   1.0000   1.0000   1.0000
     1.0000   1.0000   1.0000   1.0000   1.0000   1.0000   1.0000   1.0000
     1.0000   1.0000   1.0000   1.0000

          k =-0.5010-0.5010-0.8078 ( 22248 PWs)   bands (ev):

   -18.4019 -18.4019 -18.3951 -18.3951 -18.3840 -18.3840 -18.3837 -18.3837
   -18.3752 -18.3752  -8.8607  -8.8607  -8.7076  -8.7076  -3.7721  -3.7721
    -0.2384  -0.2384   0.2610   0.2610   0.5610   0.5610   1.8214   1.8214
     1.8454   1.8454   2.0382   2.0382

     occupation numbers 
     1.0000   1.0000   1.0000   1.0000   1.0000   1.0000   1.0000   1.0000
     1.0000   1.0000   1.0000   1.0000   1.0000   1.0000   1.0000   1.0000
     1.0000   1.0000   1.0000   1.0000   1.0000   1.0000   1.0000   1.0000
     1.0000   1.0000   1.0000   1.0000

     highest occupied level (ev):     2.8147

!    total energy              =   -2399.98047787 Ry

     total all-electron energy =    -81641.225826 Ry
     estimated scf accuracy    <       0.00000002 Ry

     The total energy is the sum of the following terms:
     one-electron contribution =    -203.81174578 Ry
     hartree contribution      =     130.12303278 Ry
     xc contribution           =    -159.03328989 Ry
     ewald contribution        =    -219.46573719 Ry
     one-center paw contrib.   =   -1947.79273779 Ry
      -> PAW hartree energy AE =     108.28121462 Ry
      -> PAW hartree energy PS =    -107.51459047 Ry
      -> PAW xc energy AE      =    -328.95631146 Ry
      -> PAW xc energy PS      =      47.25445478 Ry
      -> total E_H with PAW    =     130.88965693 Ry
      -> total E_XC with PAW   =    -440.73514657 Ry

     convergence has been achieved in   9 iterations

     Forces acting on atoms (cartesian axes, Ry/au):

     atom    1 type  1   force =     0.00000000    0.00000000    0.00000000
     atom    2 type  1   force =     0.00000000    0.00000000   -0.00000000
     atom    3 type  2   force =     0.00217287    0.00217287   -0.00000000
     atom    4 type  2   force =    -0.00217287   -0.00217287   -0.00000000
     atom    5 type  2   force =     0.00217287   -0.00217287   -0.00000000
     atom    6 type  2   force =    -0.00217287    0.00217287   -0.00000000
     The non-local contrib.  to forces
     atom    1 type  1   force =     0.00000000    0.00000000    0.00000000
     atom    2 type  1   force =     0.00000000    0.00000000   -0.00000000
     atom    3 type  2   force =     0.01529937    0.01529937    0.00000000
     atom    4 type  2   force =    -0.01529937   -0.01529937    0.00000000
     atom    5 type  2   force =     0.01529937   -0.01529937    0.00000000
     atom    6 type  2   force =    -0.01529937    0.01529937    0.00000000
     The ionic contribution  to forces
     atom    1 type  1   force =    -0.00000000   -0.00000000   -0.00000000
     atom    2 type  1   force =     0.00000000    0.00000000   -0.00000000
     atom    3 type  2   force =    -0.91237141   -0.91237141   -0.00000000
     atom    4 type  2   force =     0.91237141    0.91237141   -0.00000000
     atom    5 type  2   force =    -0.91237141    0.91237141   -0.00000000
     atom    6 type  2   force =     0.91237141   -0.91237141   -0.00000000
     The local contribution  to forces
     atom    1 type  1   force =     0.00000000    0.00000000    0.00000000
     atom    2 type  1   force =     0.00000000    0.00000000    0.00000000
     atom    3 type  2   force =     0.90118068    0.90118068    0.00000000
     atom    4 type  2   force =    -0.90118068   -0.90118068    0.00000000
     atom    5 type  2   force =     0.90118068   -0.90118068    0.00000000
     atom    6 type  2   force =    -0.90118068    0.90118068    0.00000000
     The core correction contribution to forces
     atom    1 type  1   force =     0.00000000    0.00000000    0.00000000
     atom    2 type  1   force =    -0.00000000   -0.00000000    0.00000000
     atom    3 type  2   force =    -0.00197206   -0.00197206    0.00000000
     atom    4 type  2   force =     0.00197206    0.00197206    0.00000000
     atom    5 type  2   force =    -0.00197206    0.00197206    0.00000000
     atom    6 type  2   force =     0.00197206   -0.00197206    0.00000000
     The Hubbard contrib.    to forces
     atom    1 type  1   force =     0.00000000    0.00000000    0.00000000
     atom    2 type  1   force =     0.00000000    0.00000000    0.00000000
     atom    3 type  2   force =     0.00000000    0.00000000    0.00000000
     atom    4 type  2   force =     0.00000000    0.00000000    0.00000000
     atom    5 type  2   force =     0.00000000    0.00000000    0.00000000
     atom    6 type  2   force =     0.00000000    0.00000000    0.00000000
     The SCF correction term to forces
     atom    1 type  1   force =    -0.00000000    0.00000000   -0.00000000
     atom    2 type  1   force =     0.00000000   -0.00000000   -0.00000000
     atom    3 type  2   force =     0.00003629    0.00003629   -0.00000000
     atom    4 type  2   force =    -0.00003629   -0.00003629   -0.00000000
     atom    5 type  2   force =     0.00003629   -0.00003629    0.00000000
     atom    6 type  2   force =    -0.00003629    0.00003629    0.00000000

     Total force =     0.006146     Total SCF correction =     0.000103


     Computing stress (Cartesian axis) and pressure

          total   stress  (Ry/bohr**3)                   (kbar)     P=        1.05
  -0.00000997   0.00000000   0.00000000           -1.47        0.00        0.00
   0.00000000  -0.00000997   0.00000000            0.00       -1.47        0.00
   0.00000000   0.00000000   0.00004134            0.00        0.00        6.08

     kinetic stress (kbar)   7299.12      0.00      0.00
                                0.00   7299.12      0.00
                                0.00      0.00   7284.24

     local   stress (kbar)  -1426.20      0.00     -0.00
                                0.00  -1426.20      0.00
                               -0.00      0.00  -5875.86

     nonloc. stress (kbar)    116.48      0.00      0.00
                                0.00    116.48      0.00
                                0.00      0.00    120.24

     hartree stress (kbar)   2817.97     -0.00      0.00
                               -0.00   2817.97     -0.00
                                0.00     -0.00   4718.47

     exc-cor stress (kbar)   6149.17      0.00     -0.00
                                0.00   6149.17     -0.00
                               -0.00     -0.00   6150.50

     corecor stress (kbar)  -8281.49      0.00     -0.00
                                0.00  -8281.49      0.00
                               -0.00      0.00  -8280.80

     ewald   stress (kbar)  -6676.53      0.00     -0.00
                                0.00  -6676.53     -0.00
                               -0.00     -0.00  -4110.71

     hubbard stress (kbar)      0.00      0.00      0.00
                                0.00      0.00      0.00
                                0.00      0.00      0.00

     DFT-D   stress (kbar)      0.00      0.00      0.00
                                0.00      0.00      0.00
                                0.00      0.00      0.00

     XDM     stress (kbar)      0.00      0.00      0.00
                                0.00      0.00      0.00
                                0.00      0.00      0.00

     dft-nl  stress (kbar)      0.00      0.00      0.00
                                0.00      0.00      0.00
                                0.00      0.00      0.00

     TS-vdW  stress (kbar)      0.00      0.00      0.00
                                0.00      0.00      0.00
                                0.00      0.00      0.00


     Energy error            =      3.9E-04
     Gradient error          =      2.2E-03
     Cell gradient error     =      4.1E-05


     number of scf cycles    =   4
     number of bfgs steps    =   3

     enthalpy old            =   -2399.9800888628 Ry
     enthalpy new            =   -2399.9804778690 Ry

     CASE: enthalpy_new < enthalpy_old

     new trust radius        =       0.0353685139 bohr
     new conv_thr            =       0.0000000389 Ry

     new unit-cell volume =   1850.36092 a.u.^3 (   274.19520 Ang^3 )
     density =      4.51176 g/cm^3

CELL_PARAMETERS (angstrom)
   7.603701107   0.000000000   0.000000000
   0.000000000   7.603701107   0.000000000
   0.000000000   0.000000000   4.742526562

ATOMIC_POSITIONS (crystal)
Sn            0.0000000000        0.0000000000        0.0000000000
Sn            0.5000000000        0.5000000000        0.5000000000
I             0.3002188208        0.3002188208        0.0000000000
I             0.6997811792        0.6997811792        0.0000000000
I             0.8002188208        0.1997811792        0.5000000000
I             0.1997811792        0.8002188208        0.5000000000



     Writing output data file ./out/SnI2tetr.save/
     NEW-OLD atomic charge density approx. for the potential
     extrapolated charge   56.05157, renormalised to   56.00000

     total cpu time spent up to now is      179.7 secs

     Self-consistent Calculation

     iteration #  1     ecut=    80.00 Ry     beta= 0.50
     Davidson diagonalization with overlap
     ethr =  1.00E-06,  avg # of iterations =  6.7

     total cpu time spent up to now is      184.3 secs

     total energy              =   -2399.98075174 Ry
     estimated scf accuracy    <       0.00021266 Ry

     iteration #  2     ecut=    80.00 Ry     beta= 0.50
     Davidson diagonalization with overlap
     ethr =  3.80E-07,  avg # of iterations =  4.0

     total cpu time spent up to now is      188.0 secs

     total energy              =   -2399.98095059 Ry
     estimated scf accuracy    <       0.00011150 Ry

     iteration #  3     ecut=    80.00 Ry     beta= 0.50
     Davidson diagonalization with overlap
     ethr =  1.99E-07,  avg # of iterations =  2.2

     total cpu time spent up to now is      190.7 secs

     total energy              =   -2399.98096398 Ry
     estimated scf accuracy    <       0.00002724 Ry

     iteration #  4     ecut=    80.00 Ry     beta= 0.50
     Davidson diagonalization with overlap
     ethr =  4.86E-08,  avg # of iterations =  3.8

     total cpu time spent up to now is      193.9 secs

     total energy              =   -2399.98097513 Ry
     estimated scf accuracy    <       0.00000578 Ry

     iteration #  5     ecut=    80.00 Ry     beta= 0.50
     Davidson diagonalization with overlap
     ethr =  1.03E-08,  avg # of iterations =  1.8

     total cpu time spent up to now is      196.3 secs

     total energy              =   -2399.98098227 Ry
     estimated scf accuracy    <       0.00000521 Ry

     iteration #  6     ecut=    80.00 Ry     beta= 0.50
     Davidson diagonalization with overlap
     ethr =  9.30E-09,  avg # of iterations =  2.0

     total cpu time spent up to now is      198.8 secs

     total energy              =   -2399.98098229 Ry
     estimated scf accuracy    <       0.00000437 Ry

     iteration #  7     ecut=    80.00 Ry     beta= 0.50
     Davidson diagonalization with overlap
     ethr =  7.80E-09,  avg # of iterations =  2.8

     total cpu time spent up to now is      201.9 secs

     total energy              =   -2399.98098484 Ry
     estimated scf accuracy    <       0.00000111 Ry

     iteration #  8     ecut=    80.00 Ry     beta= 0.50
     Davidson diagonalization with overlap
     ethr =  1.98E-09,  avg # of iterations =  2.2

     total cpu time spent up to now is      204.6 secs

     total energy              =   -2399.98098510 Ry
     estimated scf accuracy    <       0.00000020 Ry

     iteration #  9     ecut=    80.00 Ry     beta= 0.50
     Davidson diagonalization with overlap
     ethr =  3.55E-10,  avg # of iterations =  4.5

     total cpu time spent up to now is      208.1 secs

     total energy              =   -2399.98098518 Ry
     estimated scf accuracy    <       0.00000007 Ry

     iteration # 10     ecut=    80.00 Ry     beta= 0.50
     Davidson diagonalization with overlap
     ethr =  1.32E-10,  avg # of iterations =  2.8

     total cpu time spent up to now is      210.8 secs

     End of self-consistent calculation

          k = 0.0000 0.0000 0.0000 ( 22385 PWs)   bands (ev):

   -18.4120 -18.4091 -18.4031 -18.4028 -18.3899 -18.3899 -18.3866 -18.3866
   -18.3864 -18.3863  -9.3377  -8.8188  -8.8188  -8.7135  -4.1337  -2.3048
    -0.0819  -0.0819   0.3529   0.7506   1.2078   1.2751   1.5634   1.5634
     2.0093   2.0093   2.3728   2.7778

     occupation numbers 
     1.0000   1.0000   1.0000   1.0000   1.0000   1.0000   1.0000   1.0000
     1.0000   1.0000   1.0000   1.0000   1.0000   1.0000   1.0000   1.0000
     1.0000   1.0000   1.0000   1.0000   1.0000   1.0000   1.0000   1.0000
     1.0000   1.0000   1.0000   1.0000

          k = 0.0000 0.0000-0.8045 ( 22322 PWs)   bands (ev):

   -18.4094 -18.4094 -18.4028 -18.4028 -18.3910 -18.3910 -18.3908 -18.3908
   -18.3822 -18.3822  -8.8854  -8.8854  -8.7027  -8.7027  -3.7203  -3.7203
    -0.0555  -0.0555  -0.0211  -0.0211   0.5386   0.5386   1.5613   1.5613
     1.6100   1.6100   2.3820   2.3820

     occupation numbers 
     1.0000   1.0000   1.0000   1.0000   1.0000   1.0000   1.0000   1.0000
     1.0000   1.0000   1.0000   1.0000   1.0000   1.0000   1.0000   1.0000
     1.0000   1.0000   1.0000   1.0000   1.0000   1.0000   1.0000   1.0000
     1.0000   1.0000   1.0000   1.0000

          k = 0.0000-0.5018 0.0000 ( 22322 PWs)   bands (ev):

   -18.4105 -18.4105 -18.4030 -18.4030 -18.3899 -18.3899 -18.3866 -18.3866
   -18.3863 -18.3863  -9.1246  -9.1246  -8.7362  -8.7362  -3.3951  -3.3951
     0.3616   0.3616   0.6990   0.6990   1.0909   1.0909   1.6511   1.6511
     1.8423   1.8423   2.1615   2.1615

     occupation numbers 
     1.0000   1.0000   1.0000   1.0000   1.0000   1.0000   1.0000   1.0000
     1.0000   1.0000   1.0000   1.0000   1.0000   1.0000   1.0000   1.0000
     1.0000   1.0000   1.0000   1.0000   1.0000   1.0000   1.0000   1.0000
     1.0000   1.0000   1.0000   1.0000

          k = 0.0000-0.5018-0.8045 ( 22240 PWs)   bands (ev):

   -18.4095 -18.4095 -18.4028 -18.4028 -18.3909 -18.3909 -18.3908 -18.3908
   -18.3822 -18.3822  -8.8641  -8.8641  -8.7246  -8.7246  -3.7008  -3.7008
    -0.6532  -0.6532   0.0168   0.0168   1.1795   1.1795   1.6969   1.6969
[...]
        k(    2) = (   0.0000000   0.0000000  -0.7854630), wk =   0.2500000
        k(    3) = (   0.0000000  -0.5066789   0.0000000), wk =   0.5000000
        k(    4) = (   0.0000000  -0.5066789  -0.7854630), wk =   0.5000000
        k(    5) = (  -0.5066789  -0.5066789   0.0000000), wk =   0.2500000
        k(    6) = (  -0.5066789  -0.5066789  -0.7854630), wk =   0.2500000

                       cryst. coord.
        k(    1) = (   0.0000000   0.0000000   0.0000000), wk =   0.2500000
        k(    2) = (   0.0000000   0.0000000  -0.5000000), wk =   0.2500000
        k(    3) = (   0.0000000  -0.5000000   0.0000000), wk =   0.5000000
        k(    4) = (   0.0000000  -0.5000000  -0.5000000), wk =   0.5000000
        k(    5) = (  -0.5000000  -0.5000000   0.0000000), wk =   0.2500000
        k(    6) = (  -0.5000000  -0.5000000  -0.5000000), wk =   0.2500000

     Dense  grid:   179653 G-vectors     FFT dimensions: (  90,  90,  54)

     Dynamical RAM for                 wfc:       0.51 MB

     Dynamical RAM for     wfc (w. buffer):       3.54 MB

     Dynamical RAM for           str. fact:       0.29 MB

     Dynamical RAM for           local pot:       0.14 MB

     Dynamical RAM for          nlocal pot:       1.95 MB

     Dynamical RAM for                qrad:       5.74 MB

     Dynamical RAM for          rho,v,vnew:       0.99 MB

     Dynamical RAM for               rhoin:       0.33 MB

     Dynamical RAM for            rho*nmix:       2.31 MB

     Dynamical RAM for           G-vectors:       0.61 MB

     Dynamical RAM for          h,s,v(r/c):       0.14 MB

     Dynamical RAM for          <psi|beta>:       0.05 MB

     Dynamical RAM for                 psi:       1.01 MB

     Dynamical RAM for                hpsi:       1.01 MB

     Dynamical RAM for                spsi:       1.01 MB

     Dynamical RAM for      wfcinit/wfcrot:       1.25 MB

     Dynamical RAM for           addusdens:      27.41 MB

     Dynamical RAM for          addusforce:      28.37 MB

     Dynamical RAM for         addusstress:      29.00 MB

     Estimated static dynamical RAM per process >      17.26 MB

     Estimated max dynamical RAM per process >      46.26 MB

     Estimated total dynamical RAM >     878.95 MB

     Initial potential from superposition of free atoms

     starting charge   55.99693, renormalised to   56.00000
     Starting wfcs are   34 randomized atomic wfcs
     Checking if some PAW data can be deallocated... 
       PAW data deallocated on   12 nodes for type:  1
       PAW data deallocated on    7 nodes for type:  2

     total cpu time spent up to now is     1060.9 secs

     Self-consistent Calculation

     iteration #  1     ecut=    80.00 Ry     beta= 0.50
     Davidson diagonalization with overlap
     ethr =  1.00E-06,  avg # of iterations =  8.7

     total cpu time spent up to now is     1067.7 secs

     total energy              =   -2399.95157478 Ry
     estimated scf accuracy    <       0.12276375 Ry

     iteration #  2     ecut=    80.00 Ry     beta= 0.50
     Davidson diagonalization with overlap
     ethr =  2.19E-04,  avg # of iterations =  2.3

     total cpu time spent up to now is     1070.4 secs

     total energy              =   -2399.98107044 Ry
     estimated scf accuracy    <       0.00660792 Ry

     iteration #  3     ecut=    80.00 Ry     beta= 0.50
     Davidson diagonalization with overlap
     ethr =  1.18E-05,  avg # of iterations =  2.0

     total cpu time spent up to now is     1073.2 secs

     total energy              =   -2399.98197502 Ry
     estimated scf accuracy    <       0.00125342 Ry

     iteration #  4     ecut=    80.00 Ry     beta= 0.50
     Davidson diagonalization with overlap
     ethr =  2.24E-06,  avg # of iterations =  4.0

     total cpu time spent up to now is     1076.2 secs

     total energy              =   -2399.98221002 Ry
     estimated scf accuracy    <       0.00025198 Ry

     iteration #  5     ecut=    80.00 Ry     beta= 0.50
     Davidson diagonalization with overlap
     ethr =  4.50E-07,  avg # of iterations =  4.2

     total cpu time spent up to now is     1079.2 secs

     total energy              =   -2399.98227431 Ry
     estimated scf accuracy    <       0.00000672 Ry

     iteration #  6     ecut=    80.00 Ry     beta= 0.50
     Davidson diagonalization with overlap
     ethr =  1.20E-08,  avg # of iterations =  4.3

     total cpu time spent up to now is     1082.3 secs

     total energy              =   -2399.98227590 Ry
     estimated scf accuracy    <       0.00000279 Ry

     iteration #  7     ecut=    80.00 Ry     beta= 0.50
     Davidson diagonalization with overlap
     ethr =  4.98E-09,  avg # of iterations =  3.3

     total cpu time spent up to now is     1085.2 secs

     total energy              =   -2399.98227656 Ry
     estimated scf accuracy    <       0.00000003 Ry

     iteration #  8     ecut=    80.00 Ry     beta= 0.50
     Davidson diagonalization with overlap
     ethr =  5.58E-11,  avg # of iterations =  7.0

     total cpu time spent up to now is     1089.4 secs

     total energy              =   -2399.98227658 Ry
     estimated scf accuracy    <       0.00000007 Ry

     iteration #  9     ecut=    80.00 Ry     beta= 0.50
     Davidson diagonalization with overlap
     ethr =  5.58E-11,  avg # of iterations =  3.8

     total cpu time spent up to now is     1092.5 secs

     End of self-consistent calculation

          k = 0.0000 0.0000 0.0000 ( 22427 PWs)   bands (ev):

   -18.4516 -18.4489 -18.4447 -18.4444 -18.4280 -18.4280 -18.4266 -18.4266
   -18.4257 -18.4253  -9.3616  -8.8270  -8.8270  -8.7474  -4.1155  -2.3187
    -0.0245  -0.0245   0.1808   0.7513   1.0927   1.1170   1.4652   1.4652
     1.9927   1.9927   2.3269   2.5853

     occupation numbers 
     1.0000   1.0000   1.0000   1.0000   1.0000   1.0000   1.0000   1.0000
     1.0000   1.0000   1.0000   1.0000   1.0000   1.0000   1.0000   1.0000
     1.0000   1.0000   1.0000   1.0000   1.0000   1.0000   1.0000   1.0000
     1.0000   1.0000   1.0000   1.0000

          k = 0.0000 0.0000-0.7855 ( 22474 PWs)   bands (ev):

   -18.4496 -18.4496 -18.4445 -18.4445 -18.4316 -18.4316 -18.4273 -18.4273
   -18.4218 -18.4218  -8.9320  -8.9320  -8.7277  -8.7277  -3.7700  -3.7700
    -0.0628  -0.0628  -0.0028  -0.0028   0.5619   0.5619   1.5230   1.5230
     1.5649   1.5649   2.4080   2.4080

     occupation numbers 
     1.0000   1.0000   1.0000   1.0000   1.0000   1.0000   1.0000   1.0000
     1.0000   1.0000   1.0000   1.0000   1.0000   1.0000   1.0000   1.0000
     1.0000   1.0000   1.0000   1.0000   1.0000   1.0000   1.0000   1.0000
     1.0000   1.0000   1.0000   1.0000

          k = 0.0000-0.5067 0.0000 ( 22420 PWs)   bands (ev):

   -18.4503 -18.4503 -18.4446 -18.4446 -18.4280 -18.4280 -18.4267 -18.4267
   -18.4255 -18.4255  -9.1463  -9.1463  -8.7511  -8.7511  -3.3819  -3.3819
     0.3066   0.3066   0.5353   0.5353   1.1226   1.1226   1.5527   1.5527
     1.8671   1.8671   2.0930   2.0930

     occupation numbers 
     1.0000   1.0000   1.0000   1.0000   1.0000   1.0000   1.0000   1.0000
     1.0000   1.0000   1.0000   1.0000   1.0000   1.0000   1.0000   1.0000
     1.0000   1.0000   1.0000   1.0000   1.0000   1.0000   1.0000   1.0000
     1.0000   1.0000   1.0000   1.0000

          k = 0.0000-0.5067-0.7855 ( 22476 PWs)   bands (ev):

   -18.4497 -18.4497 -18.4445 -18.4445 -18.4316 -18.4316 -18.4273 -18.4273
   -18.4218 -18.4218  -8.9102  -8.9102  -8.7504  -8.7504  -3.7474  -3.7474
    -0.6691  -0.6691   0.0235   0.0235   1.1667   1.1667   1.7045   1.7045
     1.7792   1.7792   2.6701   2.6701

     occupation numbers 
     1.0000   1.0000   1.0000   1.0000   1.0000   1.0000   1.0000   1.0000
     1.0000   1.0000   1.0000   1.0000   1.0000   1.0000   1.0000   1.0000
     1.0000   1.0000   1.0000   1.0000   1.0000   1.0000   1.0000   1.0000
     1.0000   1.0000   1.0000   1.0000

          k =-0.5067-0.5067 0.0000 ( 22520 PWs)   bands (ev):

   -18.4503 -18.4503 -18.4446 -18.4446 -18.4280 -18.4280 -18.4266 -18.4266
   -18.4255 -18.4255  -9.0710  -9.0710  -8.8412  -8.8412  -3.3066  -3.3066
     0.1452   0.1452   0.6018   0.6018   1.3313   1.3313   1.4364   1.4364
     1.6996   1.6996   1.9823   1.9823

     occupation numbers 
     1.0000   1.0000   1.0000   1.0000   1.0000   1.0000   1.0000   1.0000
     1.0000   1.0000   1.0000   1.0000   1.0000   1.0000   1.0000   1.0000
     1.0000   1.0000   1.0000   1.0000   1.0000   1.0000   1.0000   1.0000
     1.0000   1.0000   1.0000   1.0000

          k =-0.5067-0.5067-0.7855 ( 22440 PWs)   bands (ev):

   -18.4496 -18.4496 -18.4445 -18.4445 -18.4316 -18.4316 -18.4274 -18.4274
   -18.4218 -18.4218  -8.9160  -8.9160  -8.7398  -8.7398  -3.8337  -3.8337
    -0.2404  -0.2404   0.2372   0.2372   0.5909   0.5909   1.7668   1.7668
     1.8180   1.8180   2.0917   2.0917

     occupation numbers 
     1.0000   1.0000   1.0000   1.0000   1.0000   1.0000   1.0000   1.0000
     1.0000   1.0000   1.0000   1.0000   1.0000   1.0000   1.0000   1.0000
     1.0000   1.0000   1.0000   1.0000   1.0000   1.0000   1.0000   1.0000
     1.0000   1.0000   1.0000   1.0000

     highest occupied level (ev):     2.6701

!    total energy              =   -2399.98227660 Ry

     total all-electron energy =    -81641.227624 Ry
     estimated scf accuracy    <          8.6E-09 Ry

     The total energy is the sum of the following terms:
     one-electron contribution =    -203.52350671 Ry
     hartree contribution      =     129.88962558 Ry
     xc contribution           =    -159.02142536 Ry
     ewald contribution        =    -219.53572262 Ry
     one-center paw contrib.   =   -1947.79124748 Ry
      -> PAW hartree energy AE =     108.24338384 Ry
      -> PAW hartree energy PS =    -107.47645266 Ry
      -> PAW xc energy AE      =    -328.95379303 Ry
      -> PAW xc energy PS      =      47.25190171 Ry
      -> total E_H with PAW    =     130.65655677 Ry
      -> total E_XC with PAW   =    -440.72331668 Ry

     convergence has been achieved in   9 iterations

     Forces acting on atoms (cartesian axes, Ry/au):

     atom    1 type  1   force =     0.00000000    0.00000000   -0.00000000
     atom    2 type  1   force =     0.00000000    0.00000000    0.00000000
     atom    3 type  2   force =    -0.00000475   -0.00000475   -0.00000000
     atom    4 type  2   force =     0.00000475    0.00000475   -0.00000000
     atom    5 type  2   force =    -0.00000475    0.00000475    0.00000000
     atom    6 type  2   force =     0.00000475   -0.00000475    0.00000000
     The non-local contrib.  to forces
     atom    1 type  1   force =     0.00000000    0.00000000    0.00000000
     atom    2 type  1   force =     0.00000000    0.00000000    0.00000000
     atom    3 type  2   force =     0.01432755    0.01432755   -0.00000000
     atom    4 type  2   force =    -0.01432755   -0.01432755    0.00000000
     atom    5 type  2   force =     0.01432755   -0.01432755   -0.00000000
     atom    6 type  2   force =    -0.01432755    0.01432755   -0.00000000
     The ionic contribution  to forces
     atom    1 type  1   force =    -0.00000000   -0.00000000   -0.00000000
     atom    2 type  1   force =     0.00000000    0.00000000    0.00000000
     atom    3 type  2   force =    -0.86243346   -0.86243346   -0.00000000
     atom    4 type  2   force =     0.86243346    0.86243346   -0.00000000
     atom    5 type  2   force =    -0.86243346    0.86243346    0.00000000
     atom    6 type  2   force =     0.86243346   -0.86243346    0.00000000
     The local contribution  to forces
     atom    1 type  1   force =     0.00000000    0.00000000    0.00000000
     atom    2 type  1   force =     0.00000000    0.00000000    0.00000000
     atom    3 type  2   force =     0.84999413    0.84999413    0.00000000
     atom    4 type  2   force =    -0.84999413   -0.84999413    0.00000000
     atom    5 type  2   force =     0.84999413   -0.84999413    0.00000000
     atom    6 type  2   force =    -0.84999413    0.84999413    0.00000000
     The core correction contribution to forces
     atom    1 type  1   force =     0.00000000    0.00000000    0.00000000
     atom    2 type  1   force =     0.00000000    0.00000000    0.00000000
     atom    3 type  2   force =    -0.00188449   -0.00188449    0.00000000
     atom    4 type  2   force =     0.00188449    0.00188449    0.00000000
     atom    5 type  2   force =    -0.00188449    0.00188449   -0.00000000
     atom    6 type  2   force =     0.00188449   -0.00188449   -0.00000000
     The Hubbard contrib.    to forces
     atom    1 type  1   force =     0.00000000    0.00000000    0.00000000
     atom    2 type  1   force =     0.00000000    0.00000000    0.00000000
     atom    3 type  2   force =     0.00000000    0.00000000    0.00000000
     atom    4 type  2   force =     0.00000000    0.00000000    0.00000000
     atom    5 type  2   force =     0.00000000    0.00000000    0.00000000
     atom    6 type  2   force =     0.00000000    0.00000000    0.00000000
     The SCF correction term to forces
     atom    1 type  1   force =     0.00000000   -0.00000000    0.00000000
     atom    2 type  1   force =    -0.00000000   -0.00000000    0.00000000
     atom    3 type  2   force =    -0.00000848   -0.00000848   -0.00000000
     atom    4 type  2   force =     0.00000848    0.00000848    0.00000000
     atom    5 type  2   force =    -0.00000848    0.00000848   -0.00000000
     atom    6 type  2   force =     0.00000848   -0.00000848   -0.00000000

     Total force =     0.000013     Total SCF correction =     0.000024
     SCF correction compared to forces is large: reduce conv_thr to get better values


     Computing stress (Cartesian axis) and pressure

          total   stress  (Ry/bohr**3)                   (kbar)     P=       -0.10
  -0.00000116   0.00000000   0.00000000           -0.17        0.00        0.00
   0.00000000  -0.00000116   0.00000000            0.00       -0.17        0.00
   0.00000000   0.00000000   0.00000023            0.00        0.00        0.03

     kinetic stress (kbar)   7262.77      0.00      0.00
                                0.00   7262.77      0.00
                                0.00      0.00   7235.19

     local   stress (kbar)  -1388.01     -0.00      0.00
                               -0.00  -1388.01     -0.00
                                0.00     -0.00  -5880.60

     nonloc. stress (kbar)    115.39      0.00      0.00
                                0.00    115.39      0.00
                                0.00      0.00    119.27

     hartree stress (kbar)   2796.53     -0.00      0.00
                               -0.00   2796.53      0.00
                                0.00      0.00   4686.93

     exc-cor stress (kbar)   6116.00      0.00     -0.00
                                0.00   6116.00      0.00
                               -0.00      0.00   6117.80

     corecor stress (kbar)  -8236.76      0.00     -0.00
                                0.00  -8236.76      0.00
                               -0.00      0.00  -8235.80

     ewald   stress (kbar)  -6666.09      0.00     -0.00
                                0.00  -6666.09      0.00
                               -0.00      0.00  -4042.77

     hubbard stress (kbar)      0.00      0.00      0.00
                                0.00      0.00      0.00
                                0.00      0.00      0.00

     DFT-D   stress (kbar)      0.00      0.00      0.00
                                0.00      0.00      0.00
                                0.00      0.00      0.00

     XDM     stress (kbar)      0.00      0.00      0.00
                                0.00      0.00      0.00
                                0.00      0.00      0.00

     dft-nl  stress (kbar)      0.00      0.00      0.00
                                0.00      0.00      0.00
                                0.00      0.00      0.00

     TS-vdW  stress (kbar)      0.00      0.00      0.00
                                0.00      0.00      0.00
                                0.00      0.00      0.00



     Writing output data file ./out/SnI2tetr.save/

     init_run     :      7.27s CPU      7.40s WALL (       2 calls)
     electrons    :    746.90s CPU    954.50s WALL (      13 calls)
     update_pot   :     31.37s CPU     31.42s WALL (      11 calls)
     forces       :     25.77s CPU     25.82s WALL (      13 calls)
     stress       :     67.40s CPU     67.45s WALL (      13 calls)

     Called by init_run:
     wfcinit      :      1.72s CPU      1.75s WALL (       2 calls)
     wfcinit:atom :      0.01s CPU      0.01s WALL (      12 calls)
     wfcinit:wfcr :      1.63s CPU      1.64s WALL (      12 calls)
     potinit      :      1.77s CPU      1.80s WALL (       2 calls)
     hinit0       :      3.06s CPU      3.07s WALL (       2 calls)

     Called by electrons:
     c_bands      :    586.91s CPU    762.89s WALL (     113 calls)
     sum_band     :    112.18s CPU    137.66s WALL (     113 calls)
     v_of_rho     :      7.90s CPU      9.21s WALL (     120 calls)
     v_h          :      0.98s CPU      1.23s WALL (     120 calls)
     v_xc         :      7.82s CPU      8.87s WALL (     146 calls)
     newd         :     17.35s CPU     18.05s WALL (     120 calls)
     PAW_pot      :     20.87s CPU     21.71s WALL (     131 calls)
     mix_rho      :      6.48s CPU      8.74s WALL (     113 calls)

     Called by c_bands:
     init_us_2    :      2.13s CPU      2.25s WALL (    1590 calls)
     cegterg      :    578.03s CPU    751.83s WALL (     678 calls)

     Called by sum_band:
     sum_band:wei :      0.00s CPU      0.00s WALL (     113 calls)
     sum_band:loo :     93.16s CPU    117.46s WALL (     113 calls)
     sum_band:buf :      0.13s CPU      0.14s WALL (     678 calls)
     sum_band:ini :      0.91s CPU      0.92s WALL (     678 calls)
     sum_band:cal :     10.70s CPU     11.72s WALL (     744 calls)
     sum_band:bec :      0.11s CPU      0.11s WALL (     744 calls)
     addusdens    :     15.07s CPU     15.45s WALL (     113 calls)
     addusd:skk   :      0.06s CPU      0.06s WALL (     226 calls)
     addusd:dgemm :      4.26s CPU      4.31s WALL (     226 calls)
     addusd:qvan2 :      9.09s CPU      9.35s WALL (     226 calls)

     Called by *egterg:
     cdiaghg      :      4.59s CPU      4.60s WALL (    2782 calls)
     cegterg:over :     24.76s CPU     30.16s WALL (    2206 calls)
     cegterg:upda :      7.70s CPU      8.15s WALL (    2206 calls)
     cegterg:last :     19.30s CPU     19.51s WALL (    1667 calls)
     h_psi        :    487.02s CPU    649.11s WALL (    2896 calls)
     s_psi        :     21.53s CPU     22.58s WALL (    2896 calls)
     g_psi        :      0.50s CPU      0.51s WALL (    2206 calls)

     Called by h_psi:
     h_psi:calbec :     31.46s CPU     36.21s WALL (    2896 calls)
     vloc_psi     :    433.42s CPU    590.65s WALL (    2896 calls)
     add_vuspsi   :     21.77s CPU     21.89s WALL (    2896 calls)

     General routines
     calbec       :     46.78s CPU     52.57s WALL (    4030 calls)
     fft          :      7.26s CPU      8.61s WALL (    1662 calls)
     ffts         :      0.57s CPU      0.72s WALL (     113 calls)
     fftw         :    506.54s CPU    686.97s WALL (  131554 calls)

     Parallel routines
     fft_scatt_xy :     13.18s CPU     13.30s WALL (  133329 calls)
     fft_scatt_yz :    388.95s CPU    569.63s WALL (  133329 calls)

     PAW routines
     PAW_pot      :     20.87s CPU     21.71s WALL (     131 calls)
     PAW_symme    :      0.40s CPU      0.58s WALL (     244 calls)

     PWSCF        :  14m51.27s CPU  18m20.18s WALL


   This run was terminated on:  14:12:11  14Jan2021            

=------------------------------------------------------------------------------=
   JOB DONE.
=------------------------------------------------------------------------------=
