
     Program PWSCF v.6.4.1 starts on 24Jan2021 at 17:56:53 

     This program is part of the open-source Quantum ESPRESSO suite
     for quantum simulation of materials; please cite
         "P. Giannozzi et al., J. Phys.:Condens. Matter 21 395502 (2009);
         "P. Giannozzi et al., J. Phys.:Condens. Matter 29 465901 (2017);
          URL http://www.quantum-espresso.org", 
     in publications or presentations arising from this work. More details at
     http://www.quantum-espresso.org/quote

     Parallel version (MPI & OpenMP), running on      48 processor cores
     Number of MPI processes:                24
     Threads/MPI process:                     2

     MPI processes distributed on     1 nodes
     R & G space division:  proc/nbgrp/npool/nimage =      24
     Waiting for input...
     Reading input from standard input

     Current dimensions of program PWSCF are:
     Max number of different atomic species (ntypx) = 10
     Max number of k-points (npk) =  40000
     Max angular momentum in pseudopotentials (lmaxx) =  3
               file Cs.rel-pbesol-spn-kjpaw_psl.1.0.0.UPF: wavefunction(s)  5S 6S renormalized
               file I.rel-pbesol-n-kjpaw_psl.1.0.0.UPF: wavefunction(s)  5S renormalized

     Subspace diagonalization in iterative solution of the eigenvalue problem:
     one sub-group per band group will be used
     scalapack distributed-memory algorithm (size of sub-group:  3*  3 procs)

     Found symmetry operation: I + (  0.0000 -0.5000 -0.5000)
     This is a supercell, fractional translations are disabled
 
     Parallelization info
     --------------------
     sticks:   dense  smooth     PW     G-vecs:    dense   smooth      PW
     Min         123      82     23                 5061     2762     417
     Max         124      84     24                 5064     2763     422
     Sum        2965    1993    561               121481    66299   10059
 

     Title: 
     CsIsalt                                                                    


     bravais-lattice index     =            1
     lattice parameter (alat)  =       8.8160  a.u.
     unit-cell volume          =     685.1896 (a.u.)^3
     number of atoms/cell      =            8
     number of atomic types    =            2
     number of electrons       =        64.00
     number of Kohn-Sham states=           64
     kinetic-energy cutoff     =      80.0000  Ry
     charge density cutoff     =     480.0000  Ry
     convergence threshold     =      1.0E-06
     mixing beta               =       0.5000
     number of iterations used =            8  plain     mixing
     Exchange-correlation      = SLA PW PSX PSC ( 1  4 10  8 0 0)
     Non magnetic calculation with spin-orbit


     celldm(1)=   8.815973  celldm(2)=   0.000000  celldm(3)=   0.000000
     celldm(4)=   0.000000  celldm(5)=   0.000000  celldm(6)=   0.000000

     crystal axes: (cart. coord. in units of alat)
               a(1) = (   1.000000   0.000000   0.000000 )  
               a(2) = (   0.000000   1.000000   0.000000 )  
               a(3) = (   0.000000   0.000000   1.000000 )  

     reciprocal axes: (cart. coord. in units 2 pi/alat)
               b(1) = (  1.000000  0.000000  0.000000 )  
               b(2) = (  0.000000  1.000000  0.000000 )  
               b(3) = (  0.000000  0.000000  1.000000 )  


     PseudoPot. # 1 for Cs read from file:
     /marconi_scratch/userexternal/cmalosso/degironcoli/pseudo/Cs.rel-pbesol-spn-kjpaw_psl.1.0.0.UPF
     MD5 check sum: 2adfb289dd462649b099d7edbec69378
     Pseudo is Projector augmented-wave + core cor, Zval =  9.0
     Generated using "atomic" code by A. Dal Corso v.6.4.1
     Shape of augmentation charge: PSQ
     Using radial grid of 1251 points, 15 beta functions with: 
                l(1) =   0
                l(2) =   0
                l(3) =   0
                l(4) =   1
                l(5) =   1
                l(6) =   1
                l(7) =   1
                l(8) =   2
                l(9) =   2
               l(10) =   2
               l(11) =   2
               l(12) =   3
               l(13) =   3
               l(14) =   3
               l(15) =   3
     Q(r) pseudized with 0 coefficients 


     PseudoPot. # 2 for I  read from file:
     /marconi_scratch/userexternal/cmalosso/degironcoli/pseudo/I.rel-pbesol-n-kjpaw_psl.1.0.0.UPF
     MD5 check sum: 4478c427bd443f303eca1937a163b991
     Pseudo is Projector augmented-wave + core cor, Zval =  7.0
     Generated using "atomic" code by A. Dal Corso v.6.3
     Shape of augmentation charge: PSQ
     Using radial grid of 1247 points, 10 beta functions with: 
                l(1) =   0
                l(2) =   0
                l(3) =   1
                l(4) =   1
                l(5) =   1
                l(6) =   1
                l(7) =   2
                l(8) =   2
                l(9) =   2
               l(10) =   2
     Q(r) pseudized with 0 coefficients 


     atomic species   valence    mass     pseudopotential
        Cs             9.00   132.90000     Cs( 1.00)
        I              7.00   126.90000     I ( 1.00)

     48 Sym. Ops., with inversion, found


                                    s                        frac. trans.

      isym =  1     identity                                     

 cryst.   s( 1) = (     1          0          0      )
                  (     0          1          0      )
                  (     0          0          1      )

 cart.    s( 1) = (  1.0000000  0.0000000  0.0000000 )
                  (  0.0000000  1.0000000  0.0000000 )
                  (  0.0000000  0.0000000  1.0000000 )


      isym =  2     180 deg rotation - cart. axis [0,0,1]        

 cryst.   s( 2) = (    -1          0          0      )
                  (     0         -1          0      )
                  (     0          0          1      )

 cart.    s( 2) = ( -1.0000000  0.0000000  0.0000000 )
                  (  0.0000000 -1.0000000  0.0000000 )
                  (  0.0000000  0.0000000  1.0000000 )


      isym =  3     180 deg rotation - cart. axis [0,1,0]        

 cryst.   s( 3) = (    -1          0          0      )
                  (     0          1          0      )
                  (     0          0         -1      )

 cart.    s( 3) = ( -1.0000000  0.0000000  0.0000000 )
                  (  0.0000000  1.0000000  0.0000000 )
                  (  0.0000000  0.0000000 -1.0000000 )


      isym =  4     180 deg rotation - cart. axis [1,0,0]        

 cryst.   s( 4) = (     1          0          0      )
                  (     0         -1          0      )
                  (     0          0         -1      )

 cart.    s( 4) = (  1.0000000  0.0000000  0.0000000 )
                  (  0.0000000 -1.0000000  0.0000000 )
                  (  0.0000000  0.0000000 -1.0000000 )


      isym =  5     180 deg rotation - cart. axis [1,1,0]        

 cryst.   s( 5) = (     0          1          0      )
                  (     1          0          0      )
                  (     0          0         -1      )

 cart.    s( 5) = (  0.0000000  1.0000000  0.0000000 )
                  (  1.0000000  0.0000000  0.0000000 )
                  (  0.0000000  0.0000000 -1.0000000 )


      isym =  6     180 deg rotation - cart. axis [1,-1,0]       

 cryst.   s( 6) = (     0         -1          0      )
                  (    -1          0          0      )
                  (     0          0         -1      )

 cart.    s( 6) = (  0.0000000 -1.0000000  0.0000000 )
                  ( -1.0000000  0.0000000  0.0000000 )
                  (  0.0000000  0.0000000 -1.0000000 )


      isym =  7      90 deg rotation - cart. axis [0,0,-1]       

 cryst.   s( 7) = (     0         -1          0      )
                  (     1          0          0      )
                  (     0          0          1      )

 cart.    s( 7) = (  0.0000000  1.0000000  0.0000000 )
                  ( -1.0000000  0.0000000  0.0000000 )
                  (  0.0000000  0.0000000  1.0000000 )


      isym =  8      90 deg rotation - cart. axis [0,0,1]        

 cryst.   s( 8) = (     0          1          0      )
                  (    -1          0          0      )
                  (     0          0          1      )

 cart.    s( 8) = (  0.0000000 -1.0000000  0.0000000 )
                  (  1.0000000  0.0000000  0.0000000 )
                  (  0.0000000  0.0000000  1.0000000 )


      isym =  9     180 deg rotation - cart. axis [1,0,1]        

 cryst.   s( 9) = (     0          0          1      )
                  (     0         -1          0      )
                  (     1          0          0      )

 cart.    s( 9) = (  0.0000000  0.0000000  1.0000000 )
                  (  0.0000000 -1.0000000  0.0000000 )
                  (  1.0000000  0.0000000  0.0000000 )


      isym = 10     180 deg rotation - cart. axis [-1,0,1]       

 cryst.   s(10) = (     0          0         -1      )
                  (     0         -1          0      )
                  (    -1          0          0      )

 cart.    s(10) = (  0.0000000  0.0000000 -1.0000000 )
                  (  0.0000000 -1.0000000  0.0000000 )
                  ( -1.0000000  0.0000000  0.0000000 )


      isym = 11      90 deg rotation - cart. axis [0,1,0]        

 cryst.   s(11) = (     0          0         -1      )
                  (     0          1          0      )
                  (     1          0          0      )

 cart.    s(11) = (  0.0000000  0.0000000  1.0000000 )
                  (  0.0000000  1.0000000  0.0000000 )
                  ( -1.0000000  0.0000000  0.0000000 )


      isym = 12      90 deg rotation - cart. axis [0,-1,0]       

 cryst.   s(12) = (     0          0          1      )
                  (     0          1          0      )
                  (    -1          0          0      )

 cart.    s(12) = (  0.0000000  0.0000000 -1.0000000 )
                  (  0.0000000  1.0000000  0.0000000 )
                  (  1.0000000  0.0000000  0.0000000 )


      isym = 13     180 deg rotation - cart. axis [0,1,1]        

 cryst.   s(13) = (    -1          0          0      )
                  (     0          0          1      )
                  (     0          1          0      )

 cart.    s(13) = ( -1.0000000  0.0000000  0.0000000 )
                  (  0.0000000  0.0000000  1.0000000 )
                  (  0.0000000  1.0000000  0.0000000 )


      isym = 14     180 deg rotation - cart. axis [0,1,-1]       

 cryst.   s(14) = (    -1          0          0      )
                  (     0          0         -1      )
                  (     0         -1          0      )

 cart.    s(14) = ( -1.0000000  0.0000000  0.0000000 )
                  (  0.0000000  0.0000000 -1.0000000 )
                  (  0.0000000 -1.0000000  0.0000000 )


      isym = 15      90 deg rotation - cart. axis [-1,0,0]       

 cryst.   s(15) = (     1          0          0      )
                  (     0          0         -1      )
                  (     0          1          0      )

 cart.    s(15) = (  1.0000000  0.0000000  0.0000000 )
                  (  0.0000000  0.0000000  1.0000000 )
                  (  0.0000000 -1.0000000  0.0000000 )


      isym = 16      90 deg rotation - cart. axis [1,0,0]        

 cryst.   s(16) = (     1          0          0      )
                  (     0          0          1      )
                  (     0         -1          0      )

 cart.    s(16) = (  1.0000000  0.0000000  0.0000000 )
                  (  0.0000000  0.0000000 -1.0000000 )
                  (  0.0000000  1.0000000  0.0000000 )


      isym = 17     120 deg rotation - cart. axis [-1,-1,-1]     

 cryst.   s(17) = (     0          0          1      )
                  (     1          0          0      )
                  (     0          1          0      )

 cart.    s(17) = (  0.0000000  1.0000000  0.0000000 )
                  (  0.0000000  0.0000000  1.0000000 )
                  (  1.0000000  0.0000000  0.0000000 )


      isym = 18     120 deg rotation - cart. axis [-1,1,1]       

 cryst.   s(18) = (     0          0         -1      )
                  (    -1          0          0      )
                  (     0          1          0      )

 cart.    s(18) = (  0.0000000 -1.0000000  0.0000000 )
                  (  0.0000000  0.0000000  1.0000000 )
                  ( -1.0000000  0.0000000  0.0000000 )


      isym = 19     120 deg rotation - cart. axis [1,1,-1]       

 cryst.   s(19) = (     0          0         -1      )
                  (     1          0          0      )
                  (     0         -1          0      )

 cart.    s(19) = (  0.0000000  1.0000000  0.0000000 )
                  (  0.0000000  0.0000000 -1.0000000 )
                  ( -1.0000000  0.0000000  0.0000000 )


      isym = 20     120 deg rotation - cart. axis [1,-1,1]       

 cryst.   s(20) = (     0          0          1      )
                  (    -1          0          0      )
                  (     0         -1          0      )

 cart.    s(20) = (  0.0000000 -1.0000000  0.0000000 )
                  (  0.0000000  0.0000000 -1.0000000 )
                  (  1.0000000  0.0000000  0.0000000 )


      isym = 21     120 deg rotation - cart. axis [1,1,1]        

 cryst.   s(21) = (     0          1          0      )
                  (     0          0          1      )
                  (     1          0          0      )

 cart.    s(21) = (  0.0000000  0.0000000  1.0000000 )
                  (  1.0000000  0.0000000  0.0000000 )
                  (  0.0000000  1.0000000  0.0000000 )


      isym = 22     120 deg rotation - cart. axis [-1,1,-1]      

 cryst.   s(22) = (     0         -1          0      )
                  (     0          0         -1      )
                  (     1          0          0      )

 cart.    s(22) = (  0.0000000  0.0000000  1.0000000 )
                  ( -1.0000000  0.0000000  0.0000000 )
                  (  0.0000000 -1.0000000  0.0000000 )


      isym = 23     120 deg rotation - cart. axis [1,-1,-1]      

 cryst.   s(23) = (     0         -1          0      )
                  (     0          0          1      )
                  (    -1          0          0      )

 cart.    s(23) = (  0.0000000  0.0000000 -1.0000000 )
                  ( -1.0000000  0.0000000  0.0000000 )
                  (  0.0000000  1.0000000  0.0000000 )


      isym = 24     120 deg rotation - cart. axis [-1,-1,1]      

 cryst.   s(24) = (     0          1          0      )
                  (     0          0         -1      )
                  (    -1          0          0      )

 cart.    s(24) = (  0.0000000  0.0000000 -1.0000000 )
                  (  1.0000000  0.0000000  0.0000000 )
                  (  0.0000000 -1.0000000  0.0000000 )


      isym = 25     inversion                                    

 cryst.   s(25) = (    -1          0          0      )
                  (     0         -1          0      )
                  (     0          0         -1      )

 cart.    s(25) = ( -1.0000000  0.0000000  0.0000000 )
                  (  0.0000000 -1.0000000  0.0000000 )
                  (  0.0000000  0.0000000 -1.0000000 )


      isym = 26     inv. 180 deg rotation - cart. axis [0,0,1]   

 cryst.   s(26) = (     1          0          0      )
                  (     0          1          0      )
                  (     0          0         -1      )

 cart.    s(26) = (  1.0000000  0.0000000  0.0000000 )
                  (  0.0000000  1.0000000  0.0000000 )
                  (  0.0000000  0.0000000 -1.0000000 )


      isym = 27     inv. 180 deg rotation - cart. axis [0,1,0]   

 cryst.   s(27) = (     1          0          0      )
                  (     0         -1          0      )
                  (     0          0          1      )

 cart.    s(27) = (  1.0000000  0.0000000  0.0000000 )
                  (  0.0000000 -1.0000000  0.0000000 )
                  (  0.0000000  0.0000000  1.0000000 )


      isym = 28     inv. 180 deg rotation - cart. axis [1,0,0]   

 cryst.   s(28) = (    -1          0          0      )
                  (     0          1          0      )
                  (     0          0          1      )

 cart.    s(28) = ( -1.0000000  0.0000000  0.0000000 )
                  (  0.0000000  1.0000000  0.0000000 )
                  (  0.0000000  0.0000000  1.0000000 )


      isym = 29     inv. 180 deg rotation - cart. axis [1,1,0]   

 cryst.   s(29) = (     0         -1          0      )
                  (    -1          0          0      )
                  (     0          0          1      )

 cart.    s(29) = (  0.0000000 -1.0000000  0.0000000 )
                  ( -1.0000000  0.0000000  0.0000000 )
                  (  0.0000000  0.0000000  1.0000000 )


      isym = 30     inv. 180 deg rotation - cart. axis [1,-1,0]  

 cryst.   s(30) = (     0          1          0      )
                  (     1          0          0      )
                  (     0          0          1      )

 cart.    s(30) = (  0.0000000  1.0000000  0.0000000 )
                  (  1.0000000  0.0000000  0.0000000 )
                  (  0.0000000  0.0000000  1.0000000 )


      isym = 31     inv.  90 deg rotation - cart. axis [0,0,-1]  

 cryst.   s(31) = (     0          1          0      )
                  (    -1          0          0      )
                  (     0          0         -1      )

 cart.    s(31) = (  0.0000000 -1.0000000  0.0000000 )
                  (  1.0000000  0.0000000  0.0000000 )
                  (  0.0000000  0.0000000 -1.0000000 )


      isym = 32     inv.  90 deg rotation - cart. axis [0,0,1]   

 cryst.   s(32) = (     0         -1          0      )
                  (     1          0          0      )
                  (     0          0         -1      )

 cart.    s(32) = (  0.0000000  1.0000000  0.0000000 )
                  ( -1.0000000  0.0000000  0.0000000 )
                  (  0.0000000  0.0000000 -1.0000000 )


      isym = 33     inv. 180 deg rotation - cart. axis [1,0,1]   

 cryst.   s(33) = (     0          0         -1      )
                  (     0          1          0      )
                  (    -1          0          0      )

 cart.    s(33) = (  0.0000000  0.0000000 -1.0000000 )
                  (  0.0000000  1.0000000  0.0000000 )
                  ( -1.0000000  0.0000000  0.0000000 )


      isym = 34     inv. 180 deg rotation - cart. axis [-1,0,1]  

 cryst.   s(34) = (     0          0          1      )
                  (     0          1          0      )
                  (     1          0          0      )

 cart.    s(34) = (  0.0000000  0.0000000  1.0000000 )
                  (  0.0000000  1.0000000  0.0000000 )
                  (  1.0000000  0.0000000  0.0000000 )


      isym = 35     inv.  90 deg rotation - cart. axis [0,1,0]   

 cryst.   s(35) = (     0          0          1      )
                  (     0         -1          0      )
                  (    -1          0          0      )

 cart.    s(35) = (  0.0000000  0.0000000 -1.0000000 )
                  (  0.0000000 -1.0000000  0.0000000 )
                  (  1.0000000  0.0000000  0.0000000 )


      isym = 36     inv.  90 deg rotation - cart. axis [0,-1,0]  

 cryst.   s(36) = (     0          0         -1      )
                  (     0         -1          0      )
                  (     1          0          0      )

 cart.    s(36) = (  0.0000000  0.0000000  1.0000000 )
                  (  0.0000000 -1.0000000  0.0000000 )
                  ( -1.0000000  0.0000000  0.0000000 )


      isym = 37     inv. 180 deg rotation - cart. axis [0,1,1]   

 cryst.   s(37) = (     1          0          0      )
                  (     0          0         -1      )
                  (     0         -1          0      )

 cart.    s(37) = (  1.0000000  0.0000000  0.0000000 )
                  (  0.0000000  0.0000000 -1.0000000 )
                  (  0.0000000 -1.0000000  0.0000000 )


      isym = 38     inv. 180 deg rotation - cart. axis [0,1,-1]  

 cryst.   s(38) = (     1          0          0      )
                  (     0          0          1      )
                  (     0          1          0      )

 cart.    s(38) = (  1.0000000  0.0000000  0.0000000 )
                  (  0.0000000  0.0000000  1.0000000 )
                  (  0.0000000  1.0000000  0.0000000 )


      isym = 39     inv.  90 deg rotation - cart. axis [-1,0,0]  

 cryst.   s(39) = (    -1          0          0      )
                  (     0          0          1      )
                  (     0         -1          0      )

 cart.    s(39) = ( -1.0000000  0.0000000  0.0000000 )
                  (  0.0000000  0.0000000 -1.0000000 )
                  (  0.0000000  1.0000000  0.0000000 )


      isym = 40     inv.  90 deg rotation - cart. axis [1,0,0]   

 cryst.   s(40) = (    -1          0          0      )
                  (     0          0         -1      )
                  (     0          1          0      )

 cart.    s(40) = ( -1.0000000  0.0000000  0.0000000 )
                  (  0.0000000  0.0000000  1.0000000 )
                  (  0.0000000 -1.0000000  0.0000000 )


      isym = 41     inv. 120 deg rotation - cart. axis [-1,-1,-1]

 cryst.   s(41) = (     0          0         -1      )
                  (    -1          0          0      )
                  (     0         -1          0      )

 cart.    s(41) = (  0.0000000 -1.0000000  0.0000000 )
                  (  0.0000000  0.0000000 -1.0000000 )
                  ( -1.0000000  0.0000000  0.0000000 )


      isym = 42     inv. 120 deg rotation - cart. axis [-1,1,1]  

 cryst.   s(42) = (     0          0          1      )
                  (     1          0          0      )
                  (     0         -1          0      )

 cart.    s(42) = (  0.0000000  1.0000000  0.0000000 )
                  (  0.0000000  0.0000000 -1.0000000 )
                  (  1.0000000  0.0000000  0.0000000 )


      isym = 43     inv. 120 deg rotation - cart. axis [1,1,-1]  

 cryst.   s(43) = (     0          0          1      )
                  (    -1          0          0      )
                  (     0          1          0      )

 cart.    s(43) = (  0.0000000 -1.0000000  0.0000000 )
                  (  0.0000000  0.0000000  1.0000000 )
                  (  1.0000000  0.0000000  0.0000000 )


      isym = 44     inv. 120 deg rotation - cart. axis [1,-1,1]  

 cryst.   s(44) = (     0          0         -1      )
                  (     1          0          0      )
                  (     0          1          0      )

 cart.    s(44) = (  0.0000000  1.0000000  0.0000000 )
                  (  0.0000000  0.0000000  1.0000000 )
                  ( -1.0000000  0.0000000  0.0000000 )


      isym = 45     inv. 120 deg rotation - cart. axis [1,1,1]   

 cryst.   s(45) = (     0         -1          0      )
                  (     0          0         -1      )
                  (    -1          0          0      )

 cart.    s(45) = (  0.0000000  0.0000000 -1.0000000 )
                  ( -1.0000000  0.0000000  0.0000000 )
                  (  0.0000000 -1.0000000  0.0000000 )


      isym = 46     inv. 120 deg rotation - cart. axis [-1,1,-1] 

 cryst.   s(46) = (     0          1          0      )
                  (     0          0          1      )
                  (    -1          0          0      )

 cart.    s(46) = (  0.0000000  0.0000000 -1.0000000 )
                  (  1.0000000  0.0000000  0.0000000 )
                  (  0.0000000  1.0000000  0.0000000 )


      isym = 47     inv. 120 deg rotation - cart. axis [1,-1,-1] 

 cryst.   s(47) = (     0          1          0      )
                  (     0          0         -1      )
                  (     1          0          0      )

 cart.    s(47) = (  0.0000000  0.0000000  1.0000000 )
                  (  1.0000000  0.0000000  0.0000000 )
                  (  0.0000000 -1.0000000  0.0000000 )


      isym = 48     inv. 120 deg rotation - cart. axis [-1,-1,1] 

 cryst.   s(48) = (     0         -1          0      )
                  (     0          0          1      )
                  (     1          0          0      )

 cart.    s(48) = (  0.0000000  0.0000000  1.0000000 )
                  ( -1.0000000  0.0000000  0.0000000 )
                  (  0.0000000  1.0000000  0.0000000 )


     double point group O_h (m-3m) 
     there are 16 classes and  6 irreducible representations
     the character table:

       E     -E    8C3   -8C3   3C2  6C4   -6C4   6C2' i     -i    8S6   -8S6 
                               -3C2              -6C2'                        
G_6+   2.00 -2.00  1.00 -1.00  0.00  1.41 -1.41  0.00  2.00 -2.00  1.00 -1.00
G_7+   2.00 -2.00  1.00 -1.00  0.00 -1.41  1.41  0.00  2.00 -2.00  1.00 -1.00
G_8+   4.00 -4.00 -1.00  1.00  0.00  0.00  0.00  0.00  4.00 -4.00 -1.00  1.00
G_6-   2.00 -2.00  1.00 -1.00  0.00  1.41 -1.41  0.00 -2.00  2.00 -1.00  1.00
G_7-   2.00 -2.00  1.00 -1.00  0.00 -1.41  1.41  0.00 -2.00  2.00 -1.00  1.00
G_8-   4.00 -4.00 -1.00  1.00  0.00  0.00  0.00  0.00 -4.00  4.00  1.00 -1.00

        3s_h 6S4   -6S4   6s_d
       -3s_h             -6s_d
G_6+   0.00  1.41 -1.41  0.00
G_7+   0.00 -1.41  1.41  0.00
G_8+   0.00  0.00  0.00  0.00
G_6-   0.00 -1.41  1.41  0.00
G_7-   0.00  1.41 -1.41  0.00
G_8-   0.00  0.00  0.00  0.00

     the symmetry operations in each class and the name of the first element:

     E             1
          identity                                               
     -E           -1
          identity E                                             
     8C3          17   19   20   18   24   21   22   23
          120 deg rotation - cart. axis [-1,-1,-1]               
     -8C3        -17  -19  -20  -18  -24  -21  -22  -23
          120 deg rotation - cart. axis [-1,-1,-1] E             
      3C2 -3C2     2   -2    4   -4    3   -3
          180 deg rotation - cart. axis [0,0,1]                  
     6C4           7    8   15   16   12   11
           90 deg rotation - cart. axis [0,0,-1]                 
     -6C4         -7   -8  -15  -16  -12  -11
           90 deg rotation - cart. axis [0,0,-1] E               
      6C2'-6C2'    5   -5   -6    6   14  -13  -14   13   10   -9  -10    9
          180 deg rotation - cart. axis [1,1,0]                  
     i            25
          inversion                                              
     -i          -25
          inversion E                                            
     8S6          41   43   44   42   48   45   46   47
          inv. 120 deg rotation - cart. axis [-1,-1,-1]          
     -8S6        -41  -43  -44  -42  -48  -45  -46  -47
          inv. 120 deg rotation - cart. axis [-1,-1,-1] E        
      3s_h-3s_h   26  -26   28  -28   27  -27
          inv. 180 deg rotation - cart. axis [0,0,1]             
     6S4          31   32   39   40   36   35
          inv.  90 deg rotation - cart. axis [0,0,-1]            
     -6S4        -31  -32  -39  -40  -36  -35
          inv.  90 deg rotation - cart. axis [0,0,-1] E          
      6s_d-6s_d   29  -29  -30   30   38  -37  -38   37   34  -33  -34   33
          inv. 180 deg rotation - cart. axis [1,1,0]             

   Cartesian axes

     site n.     atom                  positions (alat units)
         1           Cs  tau(   1) = (   0.0000000   0.0000000   0.0000000  )
         2           Cs  tau(   2) = (   0.0000000   0.5000000   0.5000000  )
         3           Cs  tau(   3) = (   0.5000000   0.0000000   0.5000000  )
         4           Cs  tau(   4) = (   0.5000000   0.5000000   0.0000000  )
         5           I   tau(   5) = (   0.5000000   0.0000000   0.0000000  )
         6           I   tau(   6) = (   0.5000000   0.5000000   0.5000000  )
         7           I   tau(   7) = (   0.0000000   0.0000000   0.5000000  )
         8           I   tau(   8) = (   0.0000000   0.5000000   0.0000000  )

   Crystallographic axes

     site n.     atom                  positions (cryst. coord.)
         1           Cs  tau(   1) = (  0.0000000  0.0000000  0.0000000  )
         2           Cs  tau(   2) = (  0.0000000  0.5000000  0.5000000  )
         3           Cs  tau(   3) = (  0.5000000  0.0000000  0.5000000  )
         4           Cs  tau(   4) = (  0.5000000  0.5000000  0.0000000  )
         5           I   tau(   5) = (  0.5000000  0.0000000  0.0000000  )
         6           I   tau(   6) = (  0.5000000  0.5000000  0.5000000  )
         7           I   tau(   7) = (  0.0000000  0.0000000  0.5000000  )
         8           I   tau(   8) = (  0.0000000  0.5000000  0.0000000  )

     number of k points=    56
                       cart. coord. in units 2pi/alat
        k(    1) = (   0.0454545   0.0454545   0.0454545), wk =   0.0060105
        k(    2) = (   0.0454545   0.0454545   0.1363636), wk =   0.0180316
        k(    3) = (   0.0454545   0.0454545   0.2272727), wk =   0.0180316
        k(    4) = (   0.0454545   0.0454545   0.3181818), wk =   0.0180316
        k(    5) = (   0.0454545   0.0454545   0.4090909), wk =   0.0180316
        k(    6) = (   0.0454545   0.0454545  -0.5000000), wk =   0.0090158
        k(    7) = (   0.0454545   0.1363636   0.1363636), wk =   0.0180316
        k(    8) = (   0.0454545   0.1363636   0.2272727), wk =   0.0360631
        k(    9) = (   0.0454545   0.1363636   0.3181818), wk =   0.0360631
        k(   10) = (   0.0454545   0.1363636   0.4090909), wk =   0.0360631
        k(   11) = (   0.0454545   0.1363636  -0.5000000), wk =   0.0180316
        k(   12) = (   0.0454545   0.2272727   0.2272727), wk =   0.0180316
        k(   13) = (   0.0454545   0.2272727   0.3181818), wk =   0.0360631
        k(   14) = (   0.0454545   0.2272727   0.4090909), wk =   0.0360631
        k(   15) = (   0.0454545   0.2272727  -0.5000000), wk =   0.0180316
        k(   16) = (   0.0454545   0.3181818   0.3181818), wk =   0.0180316
        k(   17) = (   0.0454545   0.3181818   0.4090909), wk =   0.0360631
        k(   18) = (   0.0454545   0.3181818  -0.5000000), wk =   0.0180316
        k(   19) = (   0.0454545   0.4090909   0.4090909), wk =   0.0180316
        k(   20) = (   0.0454545   0.4090909  -0.5000000), wk =   0.0180316
        k(   21) = (   0.0454545  -0.5000000  -0.5000000), wk =   0.0045079
        k(   22) = (   0.1363636   0.1363636   0.1363636), wk =   0.0060105
        k(   23) = (   0.1363636   0.1363636   0.2272727), wk =   0.0180316
        k(   24) = (   0.1363636   0.1363636   0.3181818), wk =   0.0180316
        k(   25) = (   0.1363636   0.1363636   0.4090909), wk =   0.0180316
        k(   26) = (   0.1363636   0.1363636  -0.5000000), wk =   0.0090158
        k(   27) = (   0.1363636   0.2272727   0.2272727), wk =   0.0180316
        k(   28) = (   0.1363636   0.2272727   0.3181818), wk =   0.0360631
        k(   29) = (   0.1363636   0.2272727   0.4090909), wk =   0.0360631
        k(   30) = (   0.1363636   0.2272727  -0.5000000), wk =   0.0180316
        k(   31) = (   0.1363636   0.3181818   0.3181818), wk =   0.0180316
        k(   32) = (   0.1363636   0.3181818   0.4090909), wk =   0.0360631
        k(   33) = (   0.1363636   0.3181818  -0.5000000), wk =   0.0180316
        k(   34) = (   0.1363636   0.4090909   0.4090909), wk =   0.0180316
        k(   35) = (   0.1363636   0.4090909  -0.5000000), wk =   0.0180316
        k(   36) = (   0.1363636  -0.5000000  -0.5000000), wk =   0.0045079
        k(   37) = (   0.2272727   0.2272727   0.2272727), wk =   0.0060105
        k(   38) = (   0.2272727   0.2272727   0.3181818), wk =   0.0180316
        k(   39) = (   0.2272727   0.2272727   0.4090909), wk =   0.0180316
        k(   40) = (   0.2272727   0.2272727  -0.5000000), wk =   0.0090158
        k(   41) = (   0.2272727   0.3181818   0.3181818), wk =   0.0180316
        k(   42) = (   0.2272727   0.3181818   0.4090909), wk =   0.0360631
        k(   43) = (   0.2272727   0.3181818  -0.5000000), wk =   0.0180316
        k(   44) = (   0.2272727   0.4090909   0.4090909), wk =   0.0180316
        k(   45) = (   0.2272727   0.4090909  -0.5000000), wk =   0.0180316
        k(   46) = (   0.2272727  -0.5000000  -0.5000000), wk =   0.0045079
        k(   47) = (   0.3181818   0.3181818   0.3181818), wk =   0.0060105
        k(   48) = (   0.3181818   0.3181818   0.4090909), wk =   0.0180316
        k(   49) = (   0.3181818   0.3181818  -0.5000000), wk =   0.0090158
        k(   50) = (   0.3181818   0.4090909   0.4090909), wk =   0.0180316
        k(   51) = (   0.3181818   0.4090909  -0.5000000), wk =   0.0180316
        k(   52) = (   0.3181818  -0.5000000  -0.5000000), wk =   0.0045079
        k(   53) = (   0.4090909   0.4090909   0.4090909), wk =   0.0060105
        k(   54) = (   0.4090909   0.4090909  -0.5000000), wk =   0.0090158
        k(   55) = (   0.4090909  -0.5000000  -0.5000000), wk =   0.0045079
        k(   56) = (  -0.5000000  -0.5000000  -0.5000000), wk =   0.0007513

                       cryst. coord.
        k(    1) = (   0.0454545   0.0454545   0.0454545), wk =   0.0060105
        k(    2) = (   0.0454545   0.0454545   0.1363636), wk =   0.0180316
        k(    3) = (   0.0454545   0.0454545   0.2272727), wk =   0.0180316
        k(    4) = (   0.0454545   0.0454545   0.3181818), wk =   0.0180316
        k(    5) = (   0.0454545   0.0454545   0.4090909), wk =   0.0180316
        k(    6) = (   0.0454545   0.0454545  -0.5000000), wk =   0.0090158
        k(    7) = (   0.0454545   0.1363636   0.1363636), wk =   0.0180316
        k(    8) = (   0.0454545   0.1363636   0.2272727), wk =   0.0360631
        k(    9) = (   0.0454545   0.1363636   0.3181818), wk =   0.0360631
        k(   10) = (   0.0454545   0.1363636   0.4090909), wk =   0.0360631
        k(   11) = (   0.0454545   0.1363636  -0.5000000), wk =   0.0180316
        k(   12) = (   0.0454545   0.2272727   0.2272727), wk =   0.0180316
        k(   13) = (   0.0454545   0.2272727   0.3181818), wk =   0.0360631
        k(   14) = (   0.0454545   0.2272727   0.4090909), wk =   0.0360631
        k(   15) = (   0.0454545   0.2272727  -0.5000000), wk =   0.0180316
        k(   16) = (   0.0454545   0.3181818   0.3181818), wk =   0.0180316
        k(   17) = (   0.0454545   0.3181818   0.4090909), wk =   0.0360631
        k(   18) = (   0.0454545   0.3181818  -0.5000000), wk =   0.0180316
        k(   19) = (   0.0454545   0.4090909   0.4090909), wk =   0.0180316
        k(   20) = (   0.0454545   0.4090909  -0.5000000), wk =   0.0180316
        k(   21) = (   0.0454545  -0.5000000  -0.5000000), wk =   0.0045079
        k(   22) = (   0.1363636   0.1363636   0.1363636), wk =   0.0060105
        k(   23) = (   0.1363636   0.1363636   0.2272727), wk =   0.0180316
        k(   24) = (   0.1363636   0.1363636   0.3181818), wk =   0.0180316
        k(   25) = (   0.1363636   0.1363636   0.4090909), wk =   0.0180316
        k(   26) = (   0.1363636   0.1363636  -0.5000000), wk =   0.0090158
        k(   27) = (   0.1363636   0.2272727   0.2272727), wk =   0.0180316
        k(   28) = (   0.1363636   0.2272727   0.3181818), wk =   0.0360631
        k(   29) = (   0.1363636   0.2272727   0.4090909), wk =   0.0360631
        k(   30) = (   0.1363636   0.2272727  -0.5000000), wk =   0.0180316
        k(   31) = (   0.1363636   0.3181818   0.3181818), wk =   0.0180316
        k(   32) = (   0.1363636   0.3181818   0.4090909), wk =   0.0360631
        k(   33) = (   0.1363636   0.3181818  -0.5000000), wk =   0.0180316
        k(   34) = (   0.1363636   0.4090909   0.4090909), wk =   0.0180316
        k(   35) = (   0.1363636   0.4090909  -0.5000000), wk =   0.0180316
        k(   36) = (   0.1363636  -0.5000000  -0.5000000), wk =   0.0045079
        k(   37) = (   0.2272727   0.2272727   0.2272727), wk =   0.0060105
        k(   38) = (   0.2272727   0.2272727   0.3181818), wk =   0.0180316
        k(   39) = (   0.2272727   0.2272727   0.4090909), wk =   0.0180316
        k(   40) = (   0.2272727   0.2272727  -0.5000000), wk =   0.0090158
        k(   41) = (   0.2272727   0.3181818   0.3181818), wk =   0.0180316
        k(   42) = (   0.2272727   0.3181818   0.4090909), wk =   0.0360631
        k(   43) = (   0.2272727   0.3181818  -0.5000000), wk =   0.0180316
        k(   44) = (   0.2272727   0.4090909   0.4090909), wk =   0.0180316
        k(   45) = (   0.2272727   0.4090909  -0.5000000), wk =   0.0180316
        k(   46) = (   0.2272727  -0.5000000  -0.5000000), wk =   0.0045079
        k(   47) = (   0.3181818   0.3181818   0.3181818), wk =   0.0060105
        k(   48) = (   0.3181818   0.3181818   0.4090909), wk =   0.0180316
        k(   49) = (   0.3181818   0.3181818  -0.5000000), wk =   0.0090158
        k(   50) = (   0.3181818   0.4090909   0.4090909), wk =   0.0180316
        k(   51) = (   0.3181818   0.4090909  -0.5000000), wk =   0.0180316
        k(   52) = (   0.3181818  -0.5000000  -0.5000000), wk =   0.0045079
        k(   53) = (   0.4090909   0.4090909   0.4090909), wk =   0.0060105
        k(   54) = (   0.4090909   0.4090909  -0.5000000), wk =   0.0090158
        k(   55) = (   0.4090909  -0.5000000  -0.5000000), wk =   0.0045079
        k(   56) = (  -0.5000000  -0.5000000  -0.5000000), wk =   0.0007513

     Dense  grid:   121481 G-vectors     FFT dimensions: (  64,  64,  64)

     Smooth grid:    66299 G-vectors     FFT dimensions: (  54,  54,  54)

     Dynamical RAM for                 wfc:       0.67 MB

     Dynamical RAM for     wfc (w. buffer):      38.30 MB

     Dynamical RAM for           str. fact:       0.15 MB

     Dynamical RAM for           local pot:       0.00 MB

     Dynamical RAM for          nlocal pot:       2.04 MB

     Dynamical RAM for                qrad:      39.45 MB

     Dynamical RAM for          rho,v,vnew:       2.05 MB

     Dynamical RAM for               rhoin:       0.68 MB

     Dynamical RAM for            rho*nmix:       4.94 MB

     Dynamical RAM for           G-vectors:       0.31 MB

     Dynamical RAM for          h,s,v(r/c):       0.33 MB

     Dynamical RAM for          <psi|beta>:       0.76 MB

     Dynamical RAM for                 psi:       2.69 MB

     Dynamical RAM for                hpsi:       2.69 MB

     Dynamical RAM for                spsi:       2.69 MB

     Dynamical RAM for      wfcinit/wfcrot:       1.25 MB

     Dynamical RAM for           addusdens:     158.08 MB

     Dynamical RAM for          addusforce:     159.88 MB

     Dynamical RAM for         addusstress:     160.09 MB

     Estimated static dynamical RAM per process >      88.91 MB

     Estimated max dynamical RAM per process >     249.00 MB

     Estimated total dynamical RAM >       5.84 GB

     Initial potential from superposition of free atoms

     starting charge   63.84620, renormalised to   64.00000
     Starting wfcs are   72 randomized atomic wfcs
     Checking if some PAW data can be deallocated... 
       PAW data deallocated on   12 nodes for type:  1
       PAW data deallocated on   12 nodes for type:  2

     total cpu time spent up to now is       40.3 secs

     Self-consistent Calculation

     iteration #  1     ecut=    80.00 Ry     beta= 0.50
     Davidson diagonalization with overlap
     ethr =  1.00E-02,  avg # of iterations =  6.2

     Threshold (ethr) on eigenvalues was too large:
     Diagonalizing with lowered threshold

     Davidson diagonalization with overlap
     ethr =  1.55E-04,  avg # of iterations =  8.9

     total cpu time spent up to now is      377.0 secs

     total energy              =   -3131.15010977 Ry
     Harris-Foulkes estimate   =   -3131.19088460 Ry
     estimated scf accuracy    <       0.12061343 Ry

     iteration #  2     ecut=    80.00 Ry     beta= 0.50
     Davidson diagonalization with overlap
     ethr =  1.88E-04,  avg # of iterations =  1.6

     total cpu time spent up to now is      462.7 secs

     total energy              =   -3131.15218054 Ry
     Harris-Foulkes estimate   =   -3131.15657629 Ry
     estimated scf accuracy    <       0.02058559 Ry

     iteration #  3     ecut=    80.00 Ry     beta= 0.50
     Davidson diagonalization with overlap
     c_bands:  2 eigenvalues not converged
     ethr =  3.22E-05,  avg # of iterations =  5.3

     total cpu time spent up to now is      621.4 secs

     total energy              =   -3131.16309712 Ry
     Harris-Foulkes estimate   =   -3131.16579297 Ry
     estimated scf accuracy    <       0.00515994 Ry

     iteration #  4     ecut=    80.00 Ry     beta= 0.50
     Davidson diagonalization with overlap
     c_bands:  1 eigenvalues not converged
     ethr =  8.06E-06,  avg # of iterations =  3.6

     total cpu time spent up to now is      728.1 secs

     WARNING: integrated charge=    64.00288537, expected=    64.00000000

     total energy              =   -3131.16341649 Ry
     Harris-Foulkes estimate   =   -3131.16370891 Ry
     estimated scf accuracy    <       0.00119840 Ry

     iteration #  5     ecut=    80.00 Ry     beta= 0.50
     Davidson diagonalization with overlap
     ethr =  1.87E-06,  avg # of iterations =  5.2

     total cpu time spent up to now is      866.6 secs

     WARNING: integrated charge=    64.00047045, expected=    64.00000000

     total energy              =   -3131.16403980 Ry
     Harris-Foulkes estimate   =   -3131.16408286 Ry
     estimated scf accuracy    <       0.00010109 Ry

     iteration #  6     ecut=    80.00 Ry     beta= 0.50
     Davidson diagonalization with overlap
     c_bands:  2 eigenvalues not converged
     c_bands:  3 eigenvalues not converged
     ethr =  1.58E-07,  avg # of iterations =  8.1

     total cpu time spent up to now is     1043.2 secs

     WARNING: integrated charge=    64.00155226, expected=    64.00000000

     total energy              =   -3131.16415676 Ry
     Harris-Foulkes estimate   =   -3131.16427202 Ry
     estimated scf accuracy    <       0.00029984 Ry

     iteration #  7     ecut=    80.00 Ry     beta= 0.50
     Davidson diagonalization with overlap
     ethr =  1.58E-07,  avg # of iterations =  7.1

     total cpu time spent up to now is     1212.3 secs

     WARNING: integrated charge=    64.00124368, expected=    64.00000000

     total energy              =   -3131.16438469 Ry
     Harris-Foulkes estimate   =   -3131.16441399 Ry
     estimated scf accuracy    <       0.00020991 Ry

     iteration #  8     ecut=    80.00 Ry     beta= 0.50
     Davidson diagonalization with overlap
     ethr =  1.58E-07,  avg # of iterations =  1.0

     total cpu time spent up to now is     1293.2 secs

     WARNING: integrated charge=    64.00231625, expected=    64.00000000

     total energy              =   -3131.16438500 Ry
     Harris-Foulkes estimate   =   -3131.16438788 Ry
     estimated scf accuracy    <       0.00019574 Ry

     iteration #  9     ecut=    80.00 Ry     beta= 0.50
     Davidson diagonalization with overlap
     ethr =  1.58E-07,  avg # of iterations =  1.2

     total cpu time spent up to now is     1375.7 secs

     WARNING: integrated charge=    64.00287812, expected=    64.00000000

     total energy              =   -3131.16432435 Ry
     Harris-Foulkes estimate   =   -3131.16438927 Ry
     estimated scf accuracy    <       0.00016283 Ry

     iteration # 10     ecut=    80.00 Ry     beta= 0.50
     Davidson diagonalization with overlap
     ethr =  1.58E-07,  avg # of iterations =  6.9

     total cpu time spent up to now is     1526.7 secs

     WARNING: integrated charge=    64.00213589, expected=    64.00000000

     total energy              =   -3131.16437672 Ry
     Harris-Foulkes estimate   =   -3131.16437856 Ry
     estimated scf accuracy    <       0.00005586 Ry

     iteration # 11     ecut=    80.00 Ry     beta= 0.50
     Davidson diagonalization with overlap
     ethr =  8.73E-08,  avg # of iterations =  1.1

     total cpu time spent up to now is     1600.7 secs

     WARNING: integrated charge=    64.00503593, expected=    64.00000000

     total energy              =   -3131.16437673 Ry
     Harris-Foulkes estimate   =   -3131.16437754 Ry
     estimated scf accuracy    <       0.00005336 Ry

     iteration # 12     ecut=    80.00 Ry     beta= 0.50
     Davidson diagonalization with overlap
     ethr =  8.34E-08,  avg # of iterations =  1.0

     total cpu time spent up to now is     1681.5 secs

     WARNING: integrated charge=    64.00982873, expected=    64.00000000

     total energy              =   -3131.16437797 Ry
     Harris-Foulkes estimate   =   -3131.16437735 Ry
     estimated scf accuracy    <       0.00005314 Ry

     iteration # 13     ecut=    80.00 Ry     beta= 0.50
     Davidson diagonalization with overlap
     ethr =  8.30E-08,  avg # of iterations =  1.1

     total cpu time spent up to now is     1759.2 secs

     WARNING: integrated charge=    64.01241505, expected=    64.00000000

     total energy              =   -3131.16436834 Ry
     Harris-Foulkes estimate   =   -3131.16437928 Ry
     estimated scf accuracy    <       0.00005560 Ry

     iteration # 14     ecut=    80.00 Ry     beta= 0.50
     Davidson diagonalization with overlap
     ethr =  8.30E-08,  avg # of iterations =  1.0

     total cpu time spent up to now is     1835.5 secs

     WARNING: integrated charge=    64.01070739, expected=    64.00000000

     total energy              =   -3131.16436919 Ry
     Harris-Foulkes estimate   =   -3131.16436899 Ry
     estimated scf accuracy    <       0.00004405 Ry

     iteration # 15     ecut=    80.00 Ry     beta= 0.50
     Davidson diagonalization with overlap
     ethr =  6.88E-08,  avg # of iterations =  1.0

     total cpu time spent up to now is     1915.7 secs

     WARNING: integrated charge=    64.00962289, expected=    64.00000000

     total energy              =   -3131.16436896 Ry
     Harris-Foulkes estimate   =   -3131.16436956 Ry
     estimated scf accuracy    <       0.00003861 Ry

     iteration # 16     ecut=    80.00 Ry     beta= 0.50
     Davidson diagonalization with overlap
     ethr =  6.03E-08,  avg # of iterations =  1.1

     total cpu time spent up to now is     2004.6 secs

     WARNING: integrated charge=    64.00877510, expected=    64.00000000

     total energy              =   -3131.16436354 Ry
     Harris-Foulkes estimate   =   -3131.16436874 Ry
     estimated scf accuracy    <       0.00003622 Ry

     iteration # 17     ecut=    80.00 Ry     beta= 0.50
     Davidson diagonalization with overlap
     c_bands:  2 eigenvalues not converged
     ethr =  5.66E-08,  avg # of iterations =  4.1

     total cpu time spent up to now is     2125.6 secs

     WARNING: integrated charge=    64.00136568, expected=    64.00000000

     total energy              =   -3131.16436077 Ry
     Harris-Foulkes estimate   =   -3131.16436657 Ry
     estimated scf accuracy    <       0.00000996 Ry

     iteration # 18     ecut=    80.00 Ry     beta= 0.50
     Davidson diagonalization with overlap
     ethr =  1.56E-08,  avg # of iterations =  6.7

     total cpu time spent up to now is     2311.6 secs

     WARNING: integrated charge=    64.00491051, expected=    64.00000000

     total energy              =   -3131.16436917 Ry
     Harris-Foulkes estimate   =   -3131.16437687 Ry
     estimated scf accuracy    <       0.00005266 Ry

     iteration # 19     ecut=    80.00 Ry     beta= 0.50
     Davidson diagonalization with overlap
     c_bands:  2 eigenvalues not converged
     ethr =  1.56E-08,  avg # of iterations =  4.1

     total cpu time spent up to now is     2427.2 secs

     WARNING: integrated charge=    64.00982247, expected=    64.00000000

     total energy              =   -3131.16435323 Ry
     Harris-Foulkes estimate   =   -3131.16437004 Ry
     estimated scf accuracy    <       0.00002937 Ry

     iteration # 20     ecut=    80.00 Ry     beta= 0.50
     Davidson diagonalization with overlap
     c_bands:  2 eigenvalues not converged
     c_bands:  2 eigenvalues not converged
     c_bands:  2 eigenvalues not converged
     c_bands:  1 eigenvalues not converged
     c_bands:  2 eigenvalues not converged
     c_bands:  4 eigenvalues not converged
     c_bands:  2 eigenvalues not converged
     c_bands:  2 eigenvalues not converged
     ethr =  1.56E-08,  avg # of iterations = 10.8

     total cpu time spent up to now is     2637.3 secs

     WARNING: integrated charge=    64.00307661, expected=    64.00000000

     total energy              =   -3131.16434589 Ry
     Harris-Foulkes estimate   =   -3131.16439143 Ry
     estimated scf accuracy    <       0.00012175 Ry

     iteration # 21     ecut=    80.00 Ry     beta= 0.50
     Davidson diagonalization with overlap
     c_bands:  2 eigenvalues not converged
     c_bands:  2 eigenvalues not converged
     c_bands:  2 eigenvalues not converged
     c_bands:  2 eigenvalues not converged
     c_bands:  4 eigenvalues not converged
     ethr =  1.56E-08,  avg # of iterations =  9.1

     total cpu time spent up to now is     2809.3 secs

     WARNING: integrated charge=    64.00337986, expected=    64.00000000

     total energy              =   -3131.16436921 Ry
     Harris-Foulkes estimate   =   -3131.16436882 Ry
     estimated scf accuracy    <       0.00000105 Ry

     iteration # 22     ecut=    80.00 Ry     beta= 0.50
     Davidson diagonalization with overlap
     c_bands:  2 eigenvalues not converged
     c_bands:  2 eigenvalues not converged
     c_bands:  2 eigenvalues not converged
     c_bands:  2 eigenvalues not converged
     c_bands:  1 eigenvalues not converged
     ethr =  1.64E-09,  avg # of iterations =  8.0

     total cpu time spent up to now is     2938.6 secs

     WARNING: integrated charge=    64.00304180, expected=    64.00000000

     total energy              =   -3131.16436944 Ry
     Harris-Foulkes estimate   =   -3131.16436969 Ry
     estimated scf accuracy    <       0.00000222 Ry

     iteration # 23     ecut=    80.00 Ry     beta= 0.50
     Davidson diagonalization with overlap
     c_bands:  1 eigenvalues not converged
     c_bands:  1 eigenvalues not converged
     ethr =  1.64E-09,  avg # of iterations =  1.9

     total cpu time spent up to now is     3017.2 secs

     WARNING: integrated charge=    64.00296403, expected=    64.00000000

     total energy              =   -3131.16436934 Ry
     Harris-Foulkes estimate   =   -3131.16436951 Ry
     estimated scf accuracy    <       0.00000184 Ry

     iteration # 24     ecut=    80.00 Ry     beta= 0.50
     Davidson diagonalization with overlap
     c_bands:  2 eigenvalues not converged
     c_bands:  1 eigenvalues not converged
     ethr =  1.64E-09,  avg # of iterations =  3.5

     total cpu time spent up to now is     3104.7 secs

     WARNING: integrated charge=    63.99986734, expected=    64.00000000

     total energy              =   -3131.16436926 Ry
     Harris-Foulkes estimate   =   -3131.16436938 Ry
     estimated scf accuracy    <       0.00000139 Ry

     iteration # 25     ecut=    80.00 Ry     beta= 0.50
     Davidson diagonalization with overlap
     c_bands:  2 eigenvalues not converged
     c_bands:  2 eigenvalues not converged
     c_bands:  2 eigenvalues not converged
     c_bands:  2 eigenvalues not converged
     c_bands:  4 eigenvalues not converged
     c_bands:  2 eigenvalues not converged
     c_bands:  2 eigenvalues not converged
     ethr =  1.64E-09,  avg # of iterations = 11.0

     total cpu time spent up to now is     3290.1 secs

     WARNING: integrated charge=    63.99979449, expected=    64.00000000

     total energy              =   -3131.16437689 Ry
     Harris-Foulkes estimate   =   -3131.16437404 Ry
     estimated scf accuracy    <       0.00002455 Ry

     iteration # 26     ecut=    80.00 Ry     beta= 0.50
     Davidson diagonalization with overlap
     c_bands:  2 eigenvalues not converged
     ethr =  1.64E-09,  avg # of iterations =  7.5

     total cpu time spent up to now is     3436.9 secs

     WARNING: integrated charge=    63.99991263, expected=    64.00000000

     total energy              =   -3131.16437704 Ry
     Harris-Foulkes estimate   =   -3131.16438015 Ry
     estimated scf accuracy    <       0.00007299 Ry

     iteration # 27     ecut=    80.00 Ry     beta= 0.50
     Davidson diagonalization with overlap
     c_bands:  2 eigenvalues not converged
     c_bands:  2 eigenvalues not converged
     c_bands:  2 eigenvalues not converged
     c_bands:  2 eigenvalues not converged
     ethr =  1.64E-09,  avg # of iterations =  5.5

     total cpu time spent up to now is     3556.8 secs

     WARNING: integrated charge=    63.99972141, expected=    64.00000000

     total energy              =   -3131.16437658 Ry
     Harris-Foulkes estimate   =   -3131.16437731 Ry
     estimated scf accuracy    <       0.00006171 Ry

     iteration # 28     ecut=    80.00 Ry     beta= 0.50
     Davidson diagonalization with overlap
     c_bands:  2 eigenvalues not converged
     ethr =  1.64E-09,  avg # of iterations =  1.8

     total cpu time spent up to now is     3636.6 secs

     WARNING: integrated charge=    63.99996844, expected=    64.00000000

     total energy              =   -3131.16436887 Ry
     Harris-Foulkes estimate   =   -3131.16437663 Ry
     estimated scf accuracy    <       0.00006015 Ry

     iteration # 29     ecut=    80.00 Ry     beta= 0.50
     Davidson diagonalization with overlap
     ethr =  1.64E-09,  avg # of iterations =  6.3

     total cpu time spent up to now is     3793.7 secs

     WARNING: integrated charge=    64.00007097, expected=    64.00000000

     total energy              =   -3131.16437127 Ry
     Harris-Foulkes estimate   =   -3131.16437072 Ry
     estimated scf accuracy    <       0.00001706 Ry

     iteration # 30     ecut=    80.00 Ry     beta= 0.50
     Davidson diagonalization with overlap
     c_bands:  2 eigenvalues not converged
     c_bands:  2 eigenvalues not converged
     c_bands:  4 eigenvalues not converged
     c_bands:  2 eigenvalues not converged
     c_bands:  2 eigenvalues not converged
     ethr =  1.64E-09,  avg # of iterations =  7.1

     total cpu time spent up to now is     3981.0 secs

     WARNING: integrated charge=    64.00021341, expected=    64.00000000

     total energy              =   -3131.16436938 Ry
     Harris-Foulkes estimate   =   -3131.16437259 Ry
     estimated scf accuracy    <       0.00001826 Ry

     iteration # 31     ecut=    80.00 Ry     beta= 0.50
     Davidson diagonalization with overlap
     c_bands:  1 eigenvalues not converged
     c_bands:  1 eigenvalues not converged
     ethr =  1.64E-09,  avg # of iterations =  7.1

     total cpu time spent up to now is     4183.1 secs

     WARNING: integrated charge=    64.00001671, expected=    64.00000000

     total energy              =   -3131.16436618 Ry
     Harris-Foulkes estimate   =   -3131.16437058 Ry
     estimated scf accuracy    <       0.00001291 Ry

     iteration # 32     ecut=    80.00 Ry     beta= 0.50
     Davidson diagonalization with overlap
     c_bands:  2 eigenvalues not converged
     ethr =  1.64E-09,  avg # of iterations =  5.6

     total cpu time spent up to now is     4386.0 secs

     WARNING: integrated charge=    63.99998418, expected=    64.00000000

     total energy              =   -3131.16436650 Ry
     Harris-Foulkes estimate   =   -3131.16436711 Ry
     estimated scf accuracy    <       0.00000236 Ry

     iteration # 33     ecut=    80.00 Ry     beta= 0.50
     Davidson diagonalization with overlap
     c_bands:  2 eigenvalues not converged
     c_bands:  2 eigenvalues not converged
     ethr =  1.64E-09,  avg # of iterations =  2.3

     total cpu time spent up to now is     4496.9 secs

     WARNING: integrated charge=    64.00001477, expected=    64.00000000

     total energy              =   -3131.16436645 Ry
     Harris-Foulkes estimate   =   -3131.16436657 Ry
     estimated scf accuracy    <       0.00000115 Ry

     iteration # 34     ecut=    80.00 Ry     beta= 0.50
     Davidson diagonalization with overlap
     c_bands:  2 eigenvalues not converged
     ethr =  1.64E-09,  avg # of iterations =  1.5

     total cpu time spent up to now is     4594.5 secs

     End of self-consistent calculation

          k = 0.0455 0.0455 0.0455 (  8295 PWs)   bands (ev):

    -1.8978  -1.8978   2.5913   2.5913   2.5913   2.5913   2.5967   2.5967
     8.7968   8.7968   8.7969   8.7969   8.7972   8.7972  10.8534  10.8534
    10.8536  10.8536  10.8576  10.8576  12.3041  12.3041  12.3051  12.3051
    12.3074  12.3074  13.2494  13.2494  13.2518  13.2518  13.2529  13.2529
    14.6623  14.6623  16.1824  16.1824  16.6293  16.6293  18.8895  18.8895
    22.2959  22.2959  22.2959  22.2959  22.2959  22.2959  25.2054  25.2054
    26.5493  26.5493  26.6011  26.6011  26.8498  26.8498  26.8844  26.8844
    27.0389  27.0389  29.6161  29.6161  29.6166  29.6166  29.6189  29.6189

     occupation numbers 
     1.0000   1.0000   1.0000   1.0000   1.0000   1.0000   1.0000   1.0000
     1.0000   1.0000   1.0000   1.0000   1.0000   1.0000   1.0000   1.0000
     1.0000   1.0000   1.0000   1.0000   1.0000   1.0000   1.0000   1.0000
     1.0000   1.0000   1.0000   1.0000   1.0000   1.0000   1.0000   1.0000
     1.0000   1.0000   1.0000   1.0000   1.0000   1.0000   1.0000   1.0000
     1.0000   1.0000   1.0000   1.0000   1.0000   1.0000   1.0000   1.0000
     1.0000   1.0000   1.0000   1.0000   1.0000   1.0000   1.0000   1.0000
     1.0000   1.0000   1.0000   1.0000   1.0000   1.0000   1.0000   1.0000

          k = 0.0455 0.0455 0.1364 (  8303 PWs)   bands (ev):

    -1.7894  -1.7894   2.2192   2.2192   2.6439   2.6439   2.6475   2.6475
     8.8649   8.8649   8.8652   8.8652   9.1403   9.1403  10.0154  10.0154
    10.0184  10.0184  11.2046  11.2046  12.3170  12.3170  12.3174  12.3174
    12.4330  12.4330  13.3696  13.3696  14.1809  14.1809  14.1843  14.1843
    14.1979  14.1979  15.6764  15.6764  16.4881  16.4881  19.8116  19.8116
    22.3905  22.3905  22.7229  22.7229  22.7230  22.7230  24.4377  24.4377
    25.9764  25.9764  26.2528  26.2528  26.7326  26.7326  27.2713  27.2713
    27.4845  27.4845  28.6897  28.6897  28.6927  28.6927  29.3319  29.3319

     occupation numbers 
     1.0000   1.0000   1.0000   1.0000   1.0000   1.0000   1.0000   1.0000
     1.0000   1.0000   1.0000   1.0000   1.0000   1.0000   1.0000   1.0000
     1.0000   1.0000   1.0000   1.0000   1.0000   1.0000   1.0000   1.0000
     1.0000   1.0000   1.0000   1.0000   1.0000   1.0000   1.0000   1.0000
     1.0000   1.0000   1.0000   1.0000   1.0000   1.0000   1.0000   1.0000
     1.0000   1.0000   1.0000   1.0000   1.0000   1.0000   1.0000   1.0000
     1.0000   1.0000   1.0000   1.0000   1.0000   1.0000   1.0000   1.0000
     1.0000   1.0000   1.0000   1.0000   1.0000   1.0000   1.0000   1.0000

          k = 0.0455 0.0455 0.2273 (  8289 PWs)   bands (ev):

    -1.5736  -1.5736   1.6225   1.6225   2.7380   2.7380   2.7417   2.7417
     8.8076   8.8076   8.8092   8.8092   9.4303   9.4303   9.4320   9.4320
     9.6220   9.6220  11.8930  11.8930  11.9482  11.9482  11.9484  11.9484
    12.7302  12.7302  13.4601  13.4601  13.6198  13.6198  15.1575  15.1575
    15.6015  15.6015  15.6051  15.6051  16.1205  16.1205  20.9967  20.9967
    22.5793  22.5793  22.9309  22.9309  23.5133  23.5133  23.5133  23.5133
    25.5132  25.5132  26.0205  26.0205  26.8631  26.8631  26.9907  26.9907
    26.9940  26.9940  28.0581  28.0581  28.2782  28.2782  28.8429  28.8429

     occupation numbers 
     1.0000   1.0000   1.0000   1.0000   1.0000   1.0000   1.0000   1.0000
     1.0000   1.0000   1.0000   1.0000   1.0000   1.0000   1.0000   1.0000
     1.0000   1.0000   1.0000   1.0000   1.0000   1.0000   1.0000   1.0000
     1.0000   1.0000   1.0000   1.0000   1.0000   1.0000   1.0000   1.0000
     1.0000   1.0000   1.0000   1.0000   1.0000   1.0000   1.0000   1.0000
     1.0000   1.0000   1.0000   1.0000   1.0000   1.0000   1.0000   1.0000
     1.0000   1.0000   1.0000   1.0000   1.0000   1.0000   1.0000   1.0000
     1.0000   1.0000   1.0000   1.0000   1.0000   1.0000   1.0000   1.0000

          k = 0.0455 0.0455 0.3182 (  8281 PWs)   bands (ev):

    -1.2521  -1.2521   0.9505   0.9505   2.8502   2.8502   2.8539   2.8539
     8.3140   8.3140   8.3169   8.3169   9.5523   9.5523   9.5527   9.5527
    10.1210  10.1210  11.4496  11.4496  11.4498  11.4498  12.6018  12.6018
    12.6663  12.6663  13.3667  13.3667  14.1057  14.1057  14.6336  14.6336
    15.6352  15.6352  17.1982  17.1982  17.2018  17.2018  20.4414  20.4414
    22.8615  22.8615  23.1626  23.1626  24.5677  24.5677  24.5679  24.5679
    24.8655  24.8655  25.1006  25.1006  25.1039  25.1039  26.2268  26.2268
    27.1776  27.1776  28.2495  28.2495  29.0832  29.0832  29.2967  29.2967

     occupation numbers 
     1.0000   1.0000   1.0000   1.0000   1.0000   1.0000   1.0000   1.0000
     1.0000   1.0000   1.0000   1.0000   1.0000   1.0000   1.0000   1.0000
     1.0000   1.0000   1.0000   1.0000   1.0000   1.0000   1.0000   1.0000
     1.0000   1.0000   1.0000   1.0000   1.0000   1.0000   1.0000   1.0000
     1.0000   1.0000   1.0000   1.0000   1.0000   1.0000   1.0000   1.0000
     1.0000   1.0000   1.0000   1.0000   1.0000   1.0000   1.0000   1.0000
     1.0000   1.0000   1.0000   1.0000   1.0000   1.0000   1.0000   1.0000
     1.0000   1.0000   1.0000   1.0000   1.0000   1.0000   1.0000   1.0000

          k = 0.0455 0.0455 0.4091 (  8279 PWs)   bands (ev):

    -0.8287  -0.8287   0.2910   0.2910   2.9444   2.9444   2.9481   2.9481
     7.9076   7.9076   7.9108   7.9108   9.9043   9.9043   9.9047   9.9047
    10.6506  10.6506  10.9232  10.9232  10.9232  10.9232  11.9170  11.9170
    13.1044  13.1044  14.0413  14.0413  14.1045  14.1045  15.1050  15.1050
    15.2225  15.2225  18.6315  18.6315  18.8500  18.8500  18.8535  18.8535
    23.2113  23.2113  23.2149  23.2149  23.2353  23.2353  24.2373  24.2373
    24.8147  24.8147  25.8667  25.8667  25.8668  25.8668  26.6121  26.6121
    27.6202  27.6202  27.6264  27.6264  28.4822  28.4822  28.8192  28.8192

     occupation numbers 
     1.0000   1.0000   1.0000   1.0000   1.0000   1.0000   1.0000   1.0000
     1.0000   1.0000   1.0000   1.0000   1.0000   1.0000   1.0000   1.0000
     1.0000   1.0000   1.0000   1.0000   1.0000   1.0000   1.0000   1.0000
     1.0000   1.0000   1.0000   1.0000   1.0000   1.0000   1.0000   1.0000
     1.0000   1.0000   1.0000   1.0000   1.0000   1.0000   1.0000   1.0000
     1.0000   1.0000   1.0000   1.0000   1.0000   1.0000   1.0000   1.0000
     1.0000   1.0000   1.0000   1.0000   1.0000   1.0000   1.0000   1.0000
     1.0000   1.0000   1.0000   1.0000   1.0000   1.0000   1.0000   1.0000

          k = 0.0455 0.0455-0.5000 (  8280 PWs)   bands (ev):

    -0.3109  -0.3109  -0.3092  -0.3092   2.9818   2.9818   2.9855   2.9855
     7.7617   7.7617   7.7649   7.7649  10.2355  10.2355  10.2363  10.2363
    10.5331  10.5331  10.5336  10.5336  11.2432  11.2432  11.2448  11.2448
    13.5902  13.5902  13.5912  13.5912  14.5730  14.5730  14.5740  14.5740
    16.8328  16.8328  16.8331  16.8331  19.9544  19.9544  19.9578  19.9578
    22.0333  22.0333  22.0370  22.0370  23.6973  23.6973  23.6978  23.6978
    26.5939  26.5939  26.5942  26.5942  27.1549  27.1549  27.1551  27.1551
    27.2152  27.2152  27.2154  27.2154  27.3687  27.3687  27.3688  27.3688

     occupation numbers 
     1.0000   1.0000   1.0000   1.0000   1.0000   1.0000   1.0000   1.0000
     1.0000   1.0000   1.0000   1.0000   1.0000   1.0000   1.0000   1.0000
     1.0000   1.0000   1.0000   1.0000   1.0000   1.0000   1.0000   1.0000
     1.0000   1.0000   1.0000   1.0000   1.0000   1.0000   1.0000   1.0000
     1.0000   1.0000   1.0000   1.0000   1.0000   1.0000   1.0000   1.0000
     1.0000   1.0000   1.0000   1.0000   1.0000   1.0000   1.0000   1.0000
     1.0000   1.0000   1.0000   1.0000   1.0000   1.0000   1.0000   1.0000
     1.0000   1.0000   1.0000   1.0000   1.0000   1.0000   1.0000   1.0000

          k = 0.0455 0.1364 0.1364 (  8302 PWs)   bands (ev):

    -1.6815  -1.6815   2.2819   2.2819   2.2853   2.2853   2.6888   2.6888
     8.8380   8.8380   9.0016   9.0016   9.0020   9.0020   9.4614   9.4614
    10.5630  10.5630  10.5650  10.5650  12.4304  12.4304  12.4339  12.4339
    12.7625  12.7625  13.5734  13.5734  14.3085  14.3085  14.3095  14.3095
    14.4869  14.4869  15.4754  15.4754  16.6283  16.6283  20.2840  20.2840
    22.8163  22.8163  22.8164  22.8164  23.1619  23.1619  24.1584  24.1584
    25.2741  25.2741  26.0528  26.0528  26.9800  26.9800  27.0459  27.0459
    27.7516  27.7516  28.2979  28.2979  28.3567  28.3567  28.3575  28.3575

     occupation numbers 
     1.0000   1.0000   1.0000   1.0000   1.0000   1.0000   1.0000   1.0000
     1.0000   1.0000   1.0000   1.0000   1.0000   1.0000   1.0000   1.0000
     1.0000   1.0000   1.0000   1.0000   1.0000   1.0000   1.0000   1.0000
     1.0000   1.0000   1.0000   1.0000   1.0000   1.0000   1.0000   1.0000
     1.0000   1.0000   1.0000   1.0000   1.0000   1.0000   1.0000   1.0000
     1.0000   1.0000   1.0000   1.0000   1.0000   1.0000   1.0000   1.0000
     1.0000   1.0000   1.0000   1.0000   1.0000   1.0000   1.0000   1.0000
     1.0000   1.0000   1.0000   1.0000   1.0000   1.0000   1.0000   1.0000

          k = 0.0455 0.1364 0.2273 (  8285 PWs)   bands (ev):

    -1.4665  -1.4665   1.7007   1.7007   2.4036   2.4036   2.7614   2.7614
     8.3867   8.3867   8.5864   8.5864   9.2412   9.2412   9.3690   9.3690
    10.3162  10.3162  11.5146  11.5146  12.0627  12.0627  12.6761  12.6761
    12.6776  12.6776  12.7595  12.7595  14.5739  14.5739  15.1109  15.1109
    15.5253  15.5253  15.7214  15.7214  16.5070  16.5070  21.1532  21.1532
    22.8877  22.8877  23.0024  23.0024  23.6041  23.6041  23.9653  23.9653
    25.0032  25.0032  25.7573  25.7573  26.6269  26.6269  26.8221  26.8221
    26.9396  26.9396  27.7820  27.7820  27.8117  27.8117  28.5462  28.5462

     occupation numbers 
     1.0000   1.0000   1.0000   1.0000   1.0000   1.0000   1.0000   1.0000
     1.0000   1.0000   1.0000   1.0000   1.0000   1.0000   1.0000   1.0000
     1.0000   1.0000   1.0000   1.0000   1.0000   1.0000   1.0000   1.0000
     1.0000   1.0000   1.0000   1.0000   1.0000   1.0000   1.0000   1.0000
     1.0000   1.0000   1.0000   1.0000   1.0000   1.0000   1.0000   1.0000
     1.0000   1.0000   1.0000   1.0000   1.0000   1.0000   1.0000   1.0000
     1.0000   1.0000   1.0000   1.0000   1.0000   1.0000   1.0000   1.0000
     1.0000   1.0000   1.0000   1.0000   1.0000   1.0000   1.0000   1.0000

          k = 0.0455 0.1364 0.3182 (  8303 PWs)   bands (ev):

    -1.1464  -1.1464   1.0391   1.0391   2.5588   2.5588   2.8352   2.8352
     7.8325   7.8325   8.0429   8.0429   9.5792   9.5792   9.6250   9.6250
    10.4398  10.4398  11.5723  11.5723  11.9512  11.9512  12.2548  12.2548
    12.5315  12.5315  13.1850  13.1850  14.6462  14.6462  15.0245  15.0245
    16.1279  16.1279  16.9894  16.9894  17.3068  17.3068  20.6189  20.6189
    22.9220  22.9220  23.2793  23.2793  24.5934  24.5934  24.7975  24.7975
    24.8728  24.8728  25.1080  25.1080  25.2964  25.2964  25.3438  25.3438
    27.0105  27.0105  27.1787  27.1787  28.7997  28.7997  29.0847  29.0847

     occupation numbers 
     1.0000   1.0000   1.0000   1.0000   1.0000   1.0000   1.0000   1.0000
     1.0000   1.0000   1.0000   1.0000   1.0000   1.0000   1.0000   1.0000
     1.0000   1.0000   1.0000   1.0000   1.0000   1.0000   1.0000   1.0000
     1.0000   1.0000   1.0000   1.0000   1.0000   1.0000   1.0000   1.0000
     1.0000   1.0000   1.0000   1.0000   1.0000   1.0000   1.0000   1.0000
     1.0000   1.0000   1.0000   1.0000   1.0000   1.0000   1.0000   1.0000
     1.0000   1.0000   1.0000   1.0000   1.0000   1.0000   1.0000   1.0000
     1.0000   1.0000   1.0000   1.0000   1.0000   1.0000   1.0000   1.0000

          k = 0.0455 0.1364 0.4091 (  8285 PWs)   bands (ev):

    -0.7251  -0.7251   0.3866   0.3866   2.7156   2.7156   2.8697   2.8697
     7.4809   7.4809   7.6100   7.6100   9.9987   9.9987  10.0201  10.0201
    10.6846  10.6846  11.1160  11.1160  11.2120  11.2120  11.7529  11.7529
    13.1423  13.1423  14.1401  14.1401  14.1427  14.1427  15.6051  15.6051
    15.8198  15.8198  18.5968  18.5968  18.8398  18.8398  18.9350  18.9350
    22.8730  22.8730  23.2363  23.2363  23.6432  23.6432  24.3122  24.3122
    24.7266  24.7266  25.6717  25.6717  25.9478  25.9478  26.3618  26.3618
    26.5270  26.5270  27.4170  27.4170  28.0910  28.0910  28.7249  28.7249

     occupation numbers 
     1.0000   1.0000   1.0000   1.0000   1.0000   1.0000   1.0000   1.0000
     1.0000   1.0000   1.0000   1.0000   1.0000   1.0000   1.0000   1.0000
     1.0000   1.0000   1.0000   1.0000   1.0000   1.0000   1.0000   1.0000
     1.0000   1.0000   1.0000   1.0000   1.0000   1.0000   1.0000   1.0000
     1.0000   1.0000   1.0000   1.0000   1.0000   1.0000   1.0000   1.0000
     1.0000   1.0000   1.0000   1.0000   1.0000   1.0000   1.0000   1.0000
     1.0000   1.0000   1.0000   1.0000   1.0000   1.0000   1.0000   1.0000
     1.0000   1.0000   1.0000   1.0000   1.0000   1.0000   1.0000   1.0000

          k = 0.0455 0.1364-0.5000 (  8278 PWs)   bands (ev):

    -0.2105  -0.2105  -0.2088  -0.2088   2.8287   2.8287   2.8323   2.8323
     7.4037   7.4037   7.4064   7.4064  10.4369  10.4369  10.4377  10.4377
    10.5647  10.5647  10.5658  10.5658  11.2796  11.2796  11.2799  11.2799
    13.6343  13.6343  13.6352  13.6352  14.9737  14.9737  14.9740  14.9740
    17.1476  17.1476  17.1481  17.1481  19.8443  19.8443  19.8475  19.8475
    21.8970  21.8970  21.9004  21.9004  24.0832  24.0832  24.0838  24.0838
    25.7961  25.7961  25.7964  25.7964  26.5388  26.5388  26.5390  26.5390
    27.3438  27.3438  27.3439  27.3439  27.7941  27.7941  27.7942  27.7942

     occupation numbers 
     1.0000   1.0000   1.0000   1.0000   1.0000   1.0000   1.0000   1.0000
     1.0000   1.0000   1.0000   1.0000   1.0000   1.0000   1.0000   1.0000
     1.0000   1.0000   1.0000   1.0000   1.0000   1.0000   1.0000   1.0000
     1.0000   1.0000   1.0000   1.0000   1.0000   1.0000   1.0000   1.0000
     1.0000   1.0000   1.0000   1.0000   1.0000   1.0000   1.0000   1.0000
     1.0000   1.0000   1.0000   1.0000   1.0000   1.0000   1.0000   1.0000
     1.0000   1.0000   1.0000   1.0000   1.0000   1.0000   1.0000   1.0000
     1.0000   1.0000   1.0000   1.0000   1.0000   1.0000   1.0000   1.0000

          k = 0.0455 0.2273 0.2273 (  8287 PWs)   bands (ev):

    -1.2533  -1.2533   1.8490   1.8490   1.8522   1.8522   2.7857   2.7857
     7.7780   7.7780   8.6149   8.6149   8.6160   8.6160   9.5283   9.5283
    11.4527  11.4527  11.4544  11.4544  11.9104  11.9104  12.3149  12.3149
    12.3184  12.3184  13.3205  13.3205  14.7901  14.7901  15.7552  15.7552
    15.9617  15.9617  15.9629  15.9629  16.8535  16.8535  21.6098  21.6098
    22.5860  22.5860  23.6937  23.6937  23.7837  23.7837  23.7840  23.7840
    24.7746  24.7746  25.8786  25.8786  26.0507  26.0507  26.0516  26.0516
    26.4557  26.4557  27.3590  27.3590  27.4118  27.4118  28.7784  28.7784

     occupation numbers 
     1.0000   1.0000   1.0000   1.0000   1.0000   1.0000   1.0000   1.0000
     1.0000   1.0000   1.0000   1.0000   1.0000   1.0000   1.0000   1.0000
     1.0000   1.0000   1.0000   1.0000   1.0000   1.0000   1.0000   1.0000
     1.0000   1.0000   1.0000   1.0000   1.0000   1.0000   1.0000   1.0000
     1.0000   1.0000   1.0000   1.0000   1.0000   1.0000   1.0000   1.0000
     1.0000   1.0000   1.0000   1.0000   1.0000   1.0000   1.0000   1.0000
     1.0000   1.0000   1.0000   1.0000   1.0000   1.0000   1.0000   1.0000
     1.0000   1.0000   1.0000   1.0000   1.0000   1.0000   1.0000   1.0000

          k = 0.0455 0.2273 0.3182 (  8290 PWs)   bands (ev):

    -0.9362  -0.9362   1.2120   1.2120   2.0579   2.0579   2.7765   2.7765
     7.2986   7.2986   7.9713   7.9713   8.8395   8.8395   9.8174   9.8174
    11.0926  11.0926  11.4995  11.4995  11.9609  11.9609  12.3860  12.3860
    13.0523  13.0523  13.3149  13.3149  14.3321  14.3321  16.3434  16.3434
    16.7502  16.7502  16.8136  16.8136  17.5200  17.5200  20.9899  20.9899
    22.6583  22.6583  23.5656  23.5656  24.0472  24.0472  24.1304  24.1304
    24.8611  24.8611  24.9998  24.9998  25.4091  25.4091  25.7324  25.7324
    25.9199  25.9199  27.3107  27.3107  28.3168  28.3168  28.6448  28.6448

     occupation numbers 
     1.0000   1.0000   1.0000   1.0000   1.0000   1.0000   1.0000   1.0000
     1.0000   1.0000   1.0000   1.0000   1.0000   1.0000   1.0000   1.0000
     1.0000   1.0000   1.0000   1.0000   1.0000   1.0000   1.0000   1.0000
     1.0000   1.0000   1.0000   1.0000   1.0000   1.0000   1.0000   1.0000
     1.0000   1.0000   1.0000   1.0000   1.0000   1.0000   1.0000   1.0000
     1.0000   1.0000   1.0000   1.0000   1.0000   1.0000   1.0000   1.0000
     1.0000   1.0000   1.0000   1.0000   1.0000   1.0000   1.0000   1.0000
     1.0000   1.0000   1.0000   1.0000   1.0000   1.0000   1.0000   1.0000

          k = 0.0455 0.2273 0.4091 (  8295 PWs)   bands (ev):

    -0.5194  -0.5194   0.5752   0.5752   2.2960   2.2960   2.6937   2.6937
     7.0692   7.0692   7.4479   7.4479   9.2182   9.2182  10.2015  10.2015
    10.3583  10.3583  11.1479  11.1479  12.1077  12.1077  12.8554  12.8554
    12.9418  12.9418  13.8258  13.8258  14.3808  14.3808  16.3881  16.3881
    16.9260  16.9260  18.2070  18.2070  19.0906  19.0906  19.3022  19.3022
    22.3564  22.3564  23.2968  23.2968  23.6149  23.6149  24.2407  24.2407
    24.3660  24.3660  24.8028  24.8028  25.3535  25.3535  26.1036  26.1036
    27.0908  27.0908  27.5617  27.5617  27.6126  27.6126  28.7530  28.7530

     occupation numbers 
     1.0000   1.0000   1.0000   1.0000   1.0000   1.0000   1.0000   1.0000
     1.0000   1.0000   1.0000   1.0000   1.0000   1.0000   1.0000   1.0000
     1.0000   1.0000   1.0000   1.0000   1.0000   1.0000   1.0000   1.0000
     1.0000   1.0000   1.0000   1.0000   1.0000   1.0000   1.0000   1.0000
     1.0000   1.0000   1.0000   1.0000   1.0000   1.0000   1.0000   1.0000
     1.0000   1.0000   1.0000   1.0000   1.0000   1.0000   1.0000   1.0000
     1.0000   1.0000   1.0000   1.0000   1.0000   1.0000   1.0000   1.0000
     1.0000   1.0000   1.0000   1.0000   1.0000   1.0000   1.0000   1.0000

          k = 0.0455 0.2273-0.5000 (  8272 PWs)   bands (ev):

    -0.0117  -0.0117  -0.0099  -0.0099   2.5224   2.5224   2.5257   2.5257
     7.1260   7.1260   7.1283   7.1283   9.7286   9.7286   9.7296   9.7296
    10.6572  10.6572  10.6581  10.6581  12.4986  12.4986  12.4987  12.4987
    13.3236  13.3236  13.3246  13.3246  15.5843  15.5843  15.5847  15.5847
    17.8731  17.8731  17.8741  17.8741  19.5935  19.5935  19.5962  19.5962
    21.7960  21.7960  21.7990  21.7990  24.1602  24.1602  24.1605  24.1605
    24.8184  24.8184  24.8190  24.8190  25.8582  25.8582  25.8585  25.8585
    27.4652  27.4652  27.4653  27.4653  28.1182  28.1182  28.1186  28.1186

     occupation numbers 
     1.0000   1.0000   1.0000   1.0000   1.0000   1.0000   1.0000   1.0000
     1.0000   1.0000   1.0000   1.0000   1.0000   1.0000   1.0000   1.0000
     1.0000   1.0000   1.0000   1.0000   1.0000   1.0000   1.0000   1.0000
     1.0000   1.0000   1.0000   1.0000   1.0000   1.0000   1.0000   1.0000
     1.0000   1.0000   1.0000   1.0000   1.0000   1.0000   1.0000   1.0000
     1.0000   1.0000   1.0000   1.0000   1.0000   1.0000   1.0000   1.0000
     1.0000   1.0000   1.0000   1.0000   1.0000   1.0000   1.0000   1.0000
     1.0000   1.0000   1.0000   1.0000   1.0000   1.0000   1.0000   1.0000

          k = 0.0455 0.3182 0.3182 (  8302 PWs)   bands (ev):

    -0.6240  -0.6240   1.4583   1.4583   1.4613   1.4613   2.6384   2.6384
     6.9543   6.9543   8.1197   8.1197   8.1210   8.1210  10.1153  10.1153
    10.2736  10.2736  11.9795  11.9795  11.9831  11.9831  13.2030  13.2030
    13.2045  13.2045  13.8675  13.8675  14.1021  14.1021  16.9124  16.9124
    17.1890  17.1890  17.8411  17.8411  17.8424  17.8424  21.2067  21.2067
    22.0802  22.0802  22.7911  22.7911  23.5116  23.5116  23.5124  23.5124
    24.5693  24.5693  25.1016  25.1016  25.1020  25.1020  26.1368  26.1368
    26.5344  26.5344  27.8772  27.8772  28.0442  28.0442  28.0839  28.0839

     occupation numbers 
     1.0000   1.0000   1.0000   1.0000   1.0000   1.0000   1.0000   1.0000
     1.0000   1.0000   1.0000   1.0000   1.0000   1.0000   1.0000   1.0000
     1.0000   1.0000   1.0000   1.0000   1.0000   1.0000   1.0000   1.0000
     1.0000   1.0000   1.0000   1.0000   1.0000   1.0000   1.0000   1.0000
     1.0000   1.0000   1.0000   1.0000   1.0000   1.0000   1.0000   1.0000
     1.0000   1.0000   1.0000   1.0000   1.0000   1.0000   1.0000   1.0000
     1.0000   1.0000   1.0000   1.0000   1.0000   1.0000   1.0000   1.0000
     1.0000   1.0000   1.0000   1.0000   1.0000   1.0000   1.0000   1.0000

          k = 0.0455 0.3182 0.4091 (  8278 PWs)   bands (ev):

    -0.2148  -0.2148   0.8502   0.8502   1.7642   1.7642   2.4025   2.4025
     6.8844   6.8844   7.5169   7.5169   8.4510   8.4510   9.5461   9.5461
    10.5035  10.5035  11.4723  11.4723  12.3882  12.3882  13.3547  13.3547
    13.5161  13.5161  14.1877  14.1877  14.6790  14.6790  16.9685  16.9685
    17.8919  17.8919  18.2909  18.2909  19.2943  19.2943  20.0130  20.0130
    21.8311  21.8311  22.0985  22.0985  22.9267  22.9267  23.2989  23.2989
    23.6797  23.6797  25.3918  25.3918  26.1424  26.1424  26.3061  26.3061
    26.8255  26.8255  26.9137  26.9137  27.9872  27.9872  28.0314  28.0314

     occupation numbers 
     1.0000   1.0000   1.0000   1.0000   1.0000   1.0000   1.0000   1.0000
     1.0000   1.0000   1.0000   1.0000   1.0000   1.0000   1.0000   1.0000
     1.0000   1.0000   1.0000   1.0000   1.0000   1.0000   1.0000   1.0000
     1.0000   1.0000   1.0000   1.0000   1.0000   1.0000   1.0000   1.0000
     1.0000   1.0000   1.0000   1.0000   1.0000   1.0000   1.0000   1.0000
     1.0000   1.0000   1.0000   1.0000   1.0000   1.0000   1.0000   1.0000
     1.0000   1.0000   1.0000   1.0000   1.0000   1.0000   1.0000   1.0000
     1.0000   1.0000   1.0000   1.0000   1.0000   1.0000   1.0000   1.0000

          k = 0.0455 0.3182-0.5000 (  8268 PWs)   bands (ev):

     0.2812   0.2812   0.2830   0.2830   2.0925   2.0925   2.0955   2.0955
     7.0862   7.0862   7.0880   7.0880   8.9325   8.9325   8.9335   8.9335
    10.9640  10.9640  10.9649  10.9649  12.8498  12.8498  12.8508  12.8508
    13.8853  13.8853  13.8854  13.8854  16.0536  16.0536  16.0543  16.0543
    18.9512  18.9512  18.9527  18.9527  19.2506  19.2506  19.2526  19.2526
    21.8135  21.8135  21.8159  21.8159  22.4400  22.4400  22.4406  22.4406
    25.0577  25.0577  25.0580  25.0580  25.9162  25.9162  25.9170  25.9170
    27.1646  27.1646  27.1648  27.1648  27.8795  27.8795  27.8798  27.8798

     occupation numbers 
     1.0000   1.0000   1.0000   1.0000   1.0000   1.0000   1.0000   1.0000
     1.0000   1.0000   1.0000   1.0000   1.0000   1.0000   1.0000   1.0000
     1.0000   1.0000   1.0000   1.0000   1.0000   1.0000   1.0000   1.0000
     1.0000   1.0000   1.0000   1.0000   1.0000   1.0000   1.0000   1.0000
     1.0000   1.0000   1.0000   1.0000   1.0000   1.0000   1.0000   1.0000
     1.0000   1.0000   1.0000   1.0000   1.0000   1.0000   1.0000   1.0000
     1.0000   1.0000   1.0000   1.0000   1.0000   1.0000   1.0000   1.0000
     1.0000   1.0000   1.0000   1.0000   1.0000   1.0000   1.0000   1.0000

          k = 0.0455 0.4091 0.4091 (  8276 PWs)   bands (ev):

     0.1823   0.1823   1.1982   1.1982   1.2011   1.2011   2.0203   2.0203
     6.9665   6.9665   7.7918   7.7918   7.7931   7.7931   8.8310   8.8310
    10.8935  10.8935  11.8648  11.8648  11.8684  11.8684  12.8361  12.8361
    14.9976  14.9976  14.9994  14.9994  15.0814  15.0814  17.0419  17.0419
    18.0537  18.0537  19.5170  19.5170  19.5182  19.5182  20.4740  20.4740
    20.9288  20.9288  21.4195  21.4195  21.4202  21.4202  22.8895  22.8895
[...]
     1.0000   1.0000   1.0000   1.0000   1.0000   1.0000   1.0000   1.0000
     1.0000   1.0000   1.0000   1.0000   1.0000   1.0000   1.0000   1.0000
     1.0000   1.0000   1.0000   1.0000   1.0000   1.0000   1.0000   1.0000
     1.0000   1.0000   1.0000   1.0000   1.0000   1.0000   1.0000   1.0000
     1.0000   1.0000   1.0000   1.0000   1.0000   1.0000   1.0000   1.0000
     1.0000   1.0000   1.0000   1.0000   1.0000   1.0000   1.0000   1.0000

          k = 0.3182 0.3182-0.5000 (  8272 PWs)   bands (ev):

     0.8051   0.8051   0.8073   0.8073   1.9693   1.9693   1.9726   1.9726
     5.7601   5.7601   5.7620   5.7620   6.9299   6.9299   6.9309   6.9309
    13.8533  13.8533  13.8549  13.8549  14.8419  14.8419  14.8429  14.8429
    15.2189  15.2189  15.2203  15.2203  16.2583  16.2583  16.2593  16.2593
    18.9800  18.9800  18.9813  18.9813  19.4349  19.4349  19.4375  19.4375
    20.8798  20.8798  20.8828  20.8828  22.1865  22.1865  22.1870  22.1870
    22.7900  22.7900  22.7904  22.7904  24.6244  24.6244  24.6249  24.6249
    24.6451  24.6451  24.6452  24.6452  26.4242  26.4242  26.4249  26.4249

     occupation numbers 
     1.0000   1.0000   1.0000   1.0000   1.0000   1.0000   1.0000   1.0000
     1.0000   1.0000   1.0000   1.0000   1.0000   1.0000   1.0000   1.0000
     1.0000   1.0000   1.0000   1.0000   1.0000   1.0000   1.0000   1.0000
     1.0000   1.0000   1.0000   1.0000   1.0000   1.0000   1.0000   1.0000
     1.0000   1.0000   1.0000   1.0000   1.0000   1.0000   1.0000   1.0000
     1.0000   1.0000   1.0000   1.0000   1.0000   1.0000   1.0000   1.0000
     1.0000   1.0000   1.0000   1.0000   1.0000   1.0000   1.0000   1.0000
     1.0000   1.0000   1.0000   1.0000   1.0000   1.0000   1.0000   1.0000

          k = 0.3182 0.4091 0.4091 (  8261 PWs)   bands (ev):

     0.7100   0.7100   1.5399   1.5399   1.5429   1.5429   1.8923   1.8923
     5.6476   5.6476   5.9985   5.9985   6.0003   6.0003   6.8331   6.8331
    14.1247  14.1247  14.6920  14.6920  14.6942  14.6942  15.5877  15.5877
    15.6494  15.6494  15.6514  15.6514  15.6667  15.6667  17.0418  17.0418
    18.7054  18.7054  18.9586  18.9586  18.9601  18.9601  20.2243  20.2243
    21.0484  21.0484  21.4438  21.4438  21.4448  21.4448  21.6665  21.6665
    21.8255  21.8255  23.5293  23.5293  23.5303  23.5303  23.5424  23.5424
    23.8908  23.8908  25.3194  25.3194  25.3209  25.3209  25.8906  25.8906

     occupation numbers 
     1.0000   1.0000   1.0000   1.0000   1.0000   1.0000   1.0000   1.0000
     1.0000   1.0000   1.0000   1.0000   1.0000   1.0000   1.0000   1.0000
     1.0000   1.0000   1.0000   1.0000   1.0000   1.0000   1.0000   1.0000
     1.0000   1.0000   1.0000   1.0000   1.0000   1.0000   1.0000   1.0000
     1.0000   1.0000   1.0000   1.0000   1.0000   1.0000   1.0000   1.0000
     1.0000   1.0000   1.0000   1.0000   1.0000   1.0000   1.0000   1.0000
     1.0000   1.0000   1.0000   1.0000   1.0000   1.0000   1.0000   1.0000
     1.0000   1.0000   1.0000   1.0000   1.0000   1.0000   1.0000   1.0000

          k = 0.3182 0.4091-0.5000 (  8266 PWs)   bands (ev):

     1.1176   1.1176   1.1201   1.1201   1.7567   1.7567   1.7598   1.7598
     5.6813   5.6813   5.6830   5.6830   6.3225   6.3225   6.3237   6.3237
    14.4741  14.4741  14.4754  14.4754  15.2264  15.2264  15.2276  15.2276
    15.8426  15.8426  15.8433  15.8433  16.6286  16.6286  16.6295  16.6295
    19.4524  19.4524  19.4544  19.4544  19.5671  19.5671  19.5688  19.5688
    20.7776  20.7776  20.7802  20.7802  21.0683  21.0683  21.0691  21.0691
    22.4601  22.4601  22.4604  22.4604  23.3919  23.3919  23.3921  23.3921
    24.4112  24.4112  24.4115  24.4115  25.4146  25.4146  25.4152  25.4152

     occupation numbers 
     1.0000   1.0000   1.0000   1.0000   1.0000   1.0000   1.0000   1.0000
     1.0000   1.0000   1.0000   1.0000   1.0000   1.0000   1.0000   1.0000
     1.0000   1.0000   1.0000   1.0000   1.0000   1.0000   1.0000   1.0000
     1.0000   1.0000   1.0000   1.0000   1.0000   1.0000   1.0000   1.0000
     1.0000   1.0000   1.0000   1.0000   1.0000   1.0000   1.0000   1.0000
     1.0000   1.0000   1.0000   1.0000   1.0000   1.0000   1.0000   1.0000
     1.0000   1.0000   1.0000   1.0000   1.0000   1.0000   1.0000   1.0000
     1.0000   1.0000   1.0000   1.0000   1.0000   1.0000   1.0000   1.0000

          k = 0.3182-0.5000-0.5000 (  8268 PWs)   bands (ev):

     1.4529   1.4529   1.4529   1.4529   1.4532   1.4532   1.4586   1.4586
     5.8858   5.8858   5.8859   5.8859   5.8863   5.8863   5.8892   5.8892
    14.9037  14.9037  14.9044  14.9044  14.9057  14.9057  14.9076  14.9076
    16.5990  16.5990  16.6002  16.6002  16.6019  16.6019  16.6021  16.6021
    19.7537  19.7537  19.7549  19.7549  19.7550  19.7550  19.7560  19.7560
    20.5858  20.5858  20.5878  20.5878  20.5886  20.5886  20.5890  20.5890
    22.5199  22.5199  22.5200  22.5200  22.5202  22.5202  22.5203  22.5203
    24.7454  24.7454  24.7455  24.7455  24.7470  24.7470  24.7479  24.7479

     occupation numbers 
     1.0000   1.0000   1.0000   1.0000   1.0000   1.0000   1.0000   1.0000
     1.0000   1.0000   1.0000   1.0000   1.0000   1.0000   1.0000   1.0000
     1.0000   1.0000   1.0000   1.0000   1.0000   1.0000   1.0000   1.0000
     1.0000   1.0000   1.0000   1.0000   1.0000   1.0000   1.0000   1.0000
     1.0000   1.0000   1.0000   1.0000   1.0000   1.0000   1.0000   1.0000
     1.0000   1.0000   1.0000   1.0000   1.0000   1.0000   1.0000   1.0000
     1.0000   1.0000   1.0000   1.0000   1.0000   1.0000   1.0000   1.0000
     1.0000   1.0000   1.0000   1.0000   1.0000   1.0000   1.0000   1.0000

          k = 0.4091 0.4091 0.4091 (  8261 PWs)   bands (ev):

     1.0256   1.0256   1.6729   1.6729   1.6730   1.6730   1.6776   1.6776
     5.5727   5.5727   5.5729   5.5729   5.5756   5.5756   6.2236   6.2236
    15.2726  15.2726  15.2733  15.2733  15.2755  15.2755  16.0305  16.0305
    16.1612  16.1612  16.1633  16.1633  16.1640  16.1640  17.1527  17.1527
    19.1317  19.1317  19.1319  19.1319  19.1347  19.1347  20.0850  20.0850
    20.8869  20.8869  21.1859  21.1859  21.1888  21.1888  21.1893  21.1893
    21.5587  21.5587  22.6501  22.6501  22.6504  22.6504  22.6510  22.6510
    23.1735  23.1735  24.4682  24.4682  24.4683  24.4683  24.4696  24.4696

     occupation numbers 
     1.0000   1.0000   1.0000   1.0000   1.0000   1.0000   1.0000   1.0000
     1.0000   1.0000   1.0000   1.0000   1.0000   1.0000   1.0000   1.0000
     1.0000   1.0000   1.0000   1.0000   1.0000   1.0000   1.0000   1.0000
     1.0000   1.0000   1.0000   1.0000   1.0000   1.0000   1.0000   1.0000
     1.0000   1.0000   1.0000   1.0000   1.0000   1.0000   1.0000   1.0000
     1.0000   1.0000   1.0000   1.0000   1.0000   1.0000   1.0000   1.0000
     1.0000   1.0000   1.0000   1.0000   1.0000   1.0000   1.0000   1.0000
     1.0000   1.0000   1.0000   1.0000   1.0000   1.0000   1.0000   1.0000

          k = 0.4091 0.4091-0.5000 (  8274 PWs)   bands (ev):

     1.3640   1.3640   1.3667   1.3667   1.7276   1.7276   1.7308   1.7308
     5.4183   5.4183   5.4201   5.4201   5.7827   5.7827   5.7842   5.7842
    15.4326  15.4326  15.4344  15.4344  15.8630  15.8630  15.8647  15.8647
    16.3899  16.3899  16.3913  16.3913  16.8997  16.8997  16.9011  16.9011
    19.6246  19.6246  19.6266  19.6266  19.6556  19.6556  19.6573  19.6573
    20.5455  20.5455  20.5482  20.5482  20.8479  20.8479  20.8489  20.8489
    21.8699  21.8699  21.8703  21.8703  22.4639  22.4639  22.4641  22.4641
    23.4931  23.4931  23.4936  23.4936  24.1677  24.1677  24.1684  24.1684

     occupation numbers 
     1.0000   1.0000   1.0000   1.0000   1.0000   1.0000   1.0000   1.0000
     1.0000   1.0000   1.0000   1.0000   1.0000   1.0000   1.0000   1.0000
     1.0000   1.0000   1.0000   1.0000   1.0000   1.0000   1.0000   1.0000
     1.0000   1.0000   1.0000   1.0000   1.0000   1.0000   1.0000   1.0000
     1.0000   1.0000   1.0000   1.0000   1.0000   1.0000   1.0000   1.0000
     1.0000   1.0000   1.0000   1.0000   1.0000   1.0000   1.0000   1.0000
     1.0000   1.0000   1.0000   1.0000   1.0000   1.0000   1.0000   1.0000
     1.0000   1.0000   1.0000   1.0000   1.0000   1.0000   1.0000   1.0000

          k = 0.4091-0.5000-0.5000 (  8268 PWs)   bands (ev):

     1.5876   1.5876   1.5877   1.5877   1.5878   1.5878   1.5937   1.5937
     5.4585   5.4585   5.4586   5.4586   5.4588   5.4588   5.4621   5.4621
    15.8525  15.8525  15.8541  15.8541  15.8544  15.8544  15.8569  15.8569
    16.9589  16.9589  16.9595  16.9595  16.9618  16.9618  16.9622  16.9622
    19.8040  19.8040  19.8058  19.8058  19.8059  19.8059  19.8080  19.8080
    20.4530  20.4530  20.4534  20.4534  20.4557  20.4557  20.4561  20.4561
    21.8345  21.8345  21.8348  21.8348  21.8349  21.8349  21.8352  21.8352
    23.4688  23.4688  23.4688  23.4688  23.4695  23.4695  23.4709  23.4709

     occupation numbers 
     1.0000   1.0000   1.0000   1.0000   1.0000   1.0000   1.0000   1.0000
     1.0000   1.0000   1.0000   1.0000   1.0000   1.0000   1.0000   1.0000
     1.0000   1.0000   1.0000   1.0000   1.0000   1.0000   1.0000   1.0000
     1.0000   1.0000   1.0000   1.0000   1.0000   1.0000   1.0000   1.0000
     1.0000   1.0000   1.0000   1.0000   1.0000   1.0000   1.0000   1.0000
     1.0000   1.0000   1.0000   1.0000   1.0000   1.0000   1.0000   1.0000
     1.0000   1.0000   1.0000   1.0000   1.0000   1.0000   1.0000   1.0000
     1.0000   1.0000   1.0000   1.0000   1.0000   1.0000   1.0000   1.0000

          k =-0.5000-0.5000-0.5000 (  8240 PWs)   bands (ev):

     1.6431   1.6431   1.6431   1.6431   1.6431   1.6431   1.6493   1.6493
     5.3032   5.3032   5.3032   5.3032   5.3035   5.3035   5.3069   5.3069
    16.1493  16.1493  16.1511  16.1511  16.1511  16.1511  16.1540  16.1540
    17.2763  17.2763  17.2763  17.2763  17.2794  17.2794  17.2794  17.2794
    19.7084  19.7084  19.7104  19.7104  19.7104  19.7104  19.7128  19.7128
    20.4883  20.4883  20.4883  20.4883  20.4911  20.4911  20.4911  20.4911
    21.5464  21.5464  21.5469  21.5469  21.5469  21.5469  21.5472  21.5472
    22.9506  22.9506  22.9508  22.9508  22.9508  22.9508  22.9524  22.9524

     occupation numbers 
     1.0000   1.0000   1.0000   1.0000   1.0000   1.0000   1.0000   1.0000
     1.0000   1.0000   1.0000   1.0000   1.0000   1.0000   1.0000   1.0000
     1.0000   1.0000   1.0000   1.0000   1.0000   1.0000   1.0000   1.0000
     1.0000   1.0000   1.0000   1.0000   1.0000   1.0000   1.0000   1.0000
     1.0000   1.0000   1.0000   1.0000   1.0000   1.0000   1.0000   1.0000
     1.0000   1.0000   1.0000   1.0000   1.0000   1.0000   1.0000   1.0000
     1.0000   1.0000   1.0000   1.0000   1.0000   1.0000   1.0000   1.0000
     1.0000   1.0000   1.0000   1.0000   1.0000   1.0000   1.0000   1.0000

     highest occupied level (ev):    29.6189

!    total energy              =   -3131.16436563 Ry
     Harris-Foulkes estimate   =   -3131.16436648 Ry
     estimated scf accuracy    <       0.00000097 Ry

     total all-electron energy =   -119218.220493 Ry

     The total energy is the sum of the following terms:

     one-electron contribution =     153.67262599 Ry
     hartree contribution      =       5.40947406 Ry
     xc contribution           =    -157.40508133 Ry
     ewald contribution        =    -332.73169529 Ry
     one-center paw contrib.   =   -2800.10968906 Ry
      -> PAW hartree energy AE =      42.89866242 Ry
      -> PAW hartree energy PS =     -42.78568818 Ry
      -> PAW xc energy AE      =    -381.08531532 Ry
      -> PAW xc energy PS      =      22.83980876 Ry
      -> total E_H with PAW    =       5.52244830 Ry
      -> total E_XC with PAW   =    -515.65058789 Ry

     convergence has been achieved in  34 iterations

     Forces acting on atoms (cartesian axes, Ry/au):

     atom    1 type  1   force =     0.00000000    0.00000000    0.00000000
     atom    2 type  1   force =     0.00000000    0.00000000    0.00000000
     atom    3 type  1   force =     0.00000000    0.00000000    0.00000000
     atom    4 type  1   force =     0.00000000    0.00000000    0.00000000
     atom    5 type  2   force =     0.00000000    0.00000000    0.00000000
     atom    6 type  2   force =     0.00000000    0.00000000   -0.00000000
     atom    7 type  2   force =     0.00000000    0.00000000    0.00000000
     atom    8 type  2   force =     0.00000000    0.00000000    0.00000000
     The non-local contrib.  to forces
     atom    1 type  1   force =     0.00000000    0.00000000    0.00000000
     atom    2 type  1   force =     0.00000000    0.00000000    0.00000000
     atom    3 type  1   force =     0.00000000    0.00000000   -0.00000000
     atom    4 type  1   force =     0.00000000    0.00000000    0.00000000
     atom    5 type  2   force =     0.00000000    0.00000000    0.00000000
     atom    6 type  2   force =     0.00000000    0.00000000    0.00000000
     atom    7 type  2   force =     0.00000000   -0.00000000    0.00000000
     atom    8 type  2   force =     0.00000000    0.00000000    0.00000000
     The ionic contribution  to forces
     atom    1 type  1   force =    -0.00000000   -0.00000000   -0.00000000
     atom    2 type  1   force =    -0.00000000    0.00000000    0.00000000
     atom    3 type  1   force =     0.00000000   -0.00000000    0.00000000
     atom    4 type  1   force =     0.00000000    0.00000000   -0.00000000
     atom    5 type  2   force =     0.00000000   -0.00000000   -0.00000000
     atom    6 type  2   force =     0.00000000    0.00000000    0.00000000
     atom    7 type  2   force =    -0.00000000   -0.00000000    0.00000000
     atom    8 type  2   force =    -0.00000000    0.00000000   -0.00000000
     The local contribution  to forces
     atom    1 type  1   force =    -0.00000000    0.00000000   -0.00000000
     atom    2 type  1   force =    -0.00000000    0.00000000    0.00000000
     atom    3 type  1   force =     0.00000000   -0.00000000    0.00000000
     atom    4 type  1   force =     0.00000000    0.00000000   -0.00000000
     atom    5 type  2   force =     0.00000000    0.00000000   -0.00000000
     atom    6 type  2   force =     0.00000000    0.00000000    0.00000000
     atom    7 type  2   force =    -0.00000000   -0.00000000    0.00000000
     atom    8 type  2   force =    -0.00000000    0.00000000   -0.00000000
     The core correction contribution to forces
     atom    1 type  1   force =    -0.00000000   -0.00000000   -0.00000000
     atom    2 type  1   force =    -0.00000000   -0.00000000   -0.00000000
     atom    3 type  1   force =    -0.00000000   -0.00000000   -0.00000000
     atom    4 type  1   force =    -0.00000000   -0.00000000   -0.00000000
     atom    5 type  2   force =    -0.00000000   -0.00000000   -0.00000000
     atom    6 type  2   force =    -0.00000000   -0.00000000   -0.00000000
     atom    7 type  2   force =     0.00000000    0.00000000   -0.00000000
     atom    8 type  2   force =     0.00000000   -0.00000000   -0.00000000
     The Hubbard contrib.    to forces
     atom    1 type  1   force =     0.00000000    0.00000000    0.00000000
     atom    2 type  1   force =     0.00000000    0.00000000    0.00000000
     atom    3 type  1   force =     0.00000000    0.00000000    0.00000000
     atom    4 type  1   force =     0.00000000    0.00000000    0.00000000
     atom    5 type  2   force =     0.00000000    0.00000000    0.00000000
     atom    6 type  2   force =     0.00000000    0.00000000    0.00000000
     atom    7 type  2   force =     0.00000000    0.00000000    0.00000000
     atom    8 type  2   force =     0.00000000    0.00000000    0.00000000
     The SCF correction term to forces
     atom    1 type  1   force =     0.00000000   -0.00000000   -0.00000000
     atom    2 type  1   force =     0.00000000   -0.00000000   -0.00000000
     atom    3 type  1   force =     0.00000000    0.00000000   -0.00000000
     atom    4 type  1   force =    -0.00000000   -0.00000000   -0.00000000
     atom    5 type  2   force =     0.00000000   -0.00000000   -0.00000000
     atom    6 type  2   force =     0.00000000    0.00000000   -0.00000000
     atom    7 type  2   force =    -0.00000000    0.00000000    0.00000000
     atom    8 type  2   force =     0.00000000    0.00000000    0.00000000

     Total force =     0.000000     Total SCF correction =     0.000000


     Computing stress (Cartesian axis) and pressure

     Message from routine stres:
     noncollinear stress + GGA not implemented

     Writing output data file CsIsalt.save/
 
     init_run     :     20.65s CPU     32.89s WALL (       1 calls)
     electrons    :   3163.29s CPU   4554.46s WALL (       1 calls)
     forces       :     26.99s CPU     37.96s WALL (       1 calls)

     Called by init_run:
     wfcinit      :     17.56s CPU     28.79s WALL (       1 calls)
     wfcinit:atom :      0.02s CPU      0.03s WALL (      56 calls)
     wfcinit:wfcr :     17.29s CPU     28.45s WALL (      56 calls)
     potinit      :      1.02s CPU      1.40s WALL (       1 calls)
     hinit0       :      0.77s CPU      1.11s WALL (       1 calls)

     Called by electrons:
     c_bands      :   2634.57s CPU   3773.65s WALL (      35 calls)
     sum_band     :    449.50s CPU    681.99s WALL (      35 calls)
     v_of_rho     :      0.70s CPU      1.14s WALL (      35 calls)
     v_h          :      0.02s CPU      0.03s WALL (      35 calls)
     v_xc         :      1.08s CPU      1.63s WALL (      36 calls)
     newd         :     42.95s CPU     50.27s WALL (      35 calls)
     PAW_pot      :     26.19s CPU     32.28s WALL (      35 calls)
     mix_rho      :      4.85s CPU      7.61s WALL (      35 calls)

     Called by c_bands:
     init_us_2    :      7.34s CPU     10.90s WALL (    4032 calls)
     cegterg      :   2479.00s CPU   3580.25s WALL (    1963 calls)

     Called by sum_band:
     sum_band:bec :    106.10s CPU    152.36s WALL (    1960 calls)
     addusdens    :     13.62s CPU     18.04s WALL (      35 calls)

     Called by *egterg:
     h_psi        :   1256.65s CPU   1728.35s WALL (   11282 calls)
     s_psi        :     86.20s CPU    115.61s WALL (   11282 calls)
     g_psi        :      2.33s CPU      2.46s WALL (    9263 calls)
     cdiaghg      :    460.28s CPU    725.68s WALL (   11170 calls)
     cegterg:over :    296.28s CPU    426.62s WALL (    9263 calls)
     cegterg:upda :    191.66s CPU    290.64s WALL (    9263 calls)
     cegterg:last :     47.90s CPU     72.22s WALL (    2313 calls)
     cdiaghg:chol :     23.44s CPU     34.78s WALL (   11170 calls)
     cdiaghg:inve :     14.43s CPU     25.15s WALL (   11170 calls)
     cdiaghg:para :     92.23s CPU    153.63s WALL (   22340 calls)

     Called by h_psi:
     h_psi:pot    :   1250.75s CPU   1722.16s WALL (   11282 calls)
     h_psi:calbec :     38.27s CPU     48.78s WALL (   11282 calls)
     vloc_psi     :   1123.62s CPU   1553.36s WALL (   11282 calls)
     add_vuspsi   :     88.79s CPU    119.94s WALL (   11282 calls)

     General routines
     calbec       :     55.97s CPU     72.60s WALL (   13466 calls)
     fft          :      7.01s CPU     11.75s WALL (     771 calls)
     ffts         :      2.82s CPU      5.32s WALL (     280 calls)
     fftw         :   1405.76s CPU   2000.20s WALL ( 1723676 calls)
     interpolate  :      2.77s CPU      5.13s WALL (     140 calls)
 
     Parallel routines
     fft_scatt_xy :     41.25s CPU     52.78s WALL ( 1724727 calls)
     fft_scatt_yz :   1188.54s CPU   1725.47s WALL ( 1724727 calls)

     PAW routines
     PAW_pot      :     26.19s CPU     32.28s WALL (      35 calls)
     PAW_symme    :      1.07s CPU      1.43s WALL (      70 calls)
 
     PWSCF        :  53m43.45s CPU      1h17m WALL

 
   This run was terminated on:  19:14:18  24Jan2021            

=------------------------------------------------------------------------------=
   JOB DONE.
=------------------------------------------------------------------------------=
