
     Program PWSCF v.6.4.1 starts on 25Jan2021 at 10:19:43 

     This program is part of the open-source Quantum ESPRESSO suite
     for quantum simulation of materials; please cite
         "P. Giannozzi et al., J. Phys.:Condens. Matter 21 395502 (2009);
         "P. Giannozzi et al., J. Phys.:Condens. Matter 29 465901 (2017);
          URL http://www.quantum-espresso.org", 
     in publications or presentations arising from this work. More details at
     http://www.quantum-espresso.org/quote

     Parallel version (MPI & OpenMP), running on      48 processor cores
     Number of MPI processes:                24
     Threads/MPI process:                     2

     MPI processes distributed on     1 nodes
     R & G space division:  proc/nbgrp/npool/nimage =      24
     Waiting for input...
     Reading input from standard input

     Current dimensions of program PWSCF are:
     Max number of different atomic species (ntypx) = 10
     Max number of k-points (npk) =  40000
     Max angular momentum in pseudopotentials (lmaxx) =  3
               file Cs.rel-pbesol-spn-kjpaw_psl.1.0.0.UPF: wavefunction(s)  5S 6S renormalized
               file I.rel-pbesol-n-kjpaw_psl.1.0.0.UPF: wavefunction(s)  5S renormalized

     Subspace diagonalization in iterative solution of the eigenvalue problem:
     one sub-group per band group will be used
     scalapack distributed-memory algorithm (size of sub-group:  3*  3 procs)

     Found symmetry operation: I + (  0.0000 -0.5000 -0.5000)
     This is a supercell, fractional translations are disabled
 
     Parallelization info
     --------------------
     sticks:   dense  smooth     PW     G-vecs:    dense   smooth      PW
     Min         123      82     23                 5059     2762     413
     Max         124      84     24                 5064     2763     418
     Sum        2965    1993    561               121481    66299    9939
 

     Title: 
     CsIsalt                                                                    


     bravais-lattice index     =            1
     lattice parameter (alat)  =       8.8160  a.u.
     unit-cell volume          =     685.1896 (a.u.)^3
     number of atoms/cell      =            8
     number of atomic types    =            2
     number of electrons       =        64.00
     number of Kohn-Sham states=           64
     kinetic-energy cutoff     =      80.0000  Ry
     charge density cutoff     =     480.0000  Ry
     convergence threshold     =      1.0E-06
     mixing beta               =       0.3500
     number of iterations used =            8  plain     mixing
     Exchange-correlation      = SLA PW PSX PSC ( 1  4 10  8 0 0)
     Non magnetic calculation with spin-orbit


     celldm(1)=   8.815973  celldm(2)=   0.000000  celldm(3)=   0.000000
     celldm(4)=   0.000000  celldm(5)=   0.000000  celldm(6)=   0.000000

     crystal axes: (cart. coord. in units of alat)
               a(1) = (   1.000000   0.000000   0.000000 )  
               a(2) = (   0.000000   1.000000   0.000000 )  
               a(3) = (   0.000000   0.000000   1.000000 )  

     reciprocal axes: (cart. coord. in units 2 pi/alat)
               b(1) = (  1.000000  0.000000  0.000000 )  
               b(2) = (  0.000000  1.000000  0.000000 )  
               b(3) = (  0.000000  0.000000  1.000000 )  


     PseudoPot. # 1 for Cs read from file:
     /marconi_scratch/userexternal/cmalosso/degironcoli/pseudo/Cs.rel-pbesol-spn-kjpaw_psl.1.0.0.UPF
     MD5 check sum: 2adfb289dd462649b099d7edbec69378
     Pseudo is Projector augmented-wave + core cor, Zval =  9.0
     Generated using "atomic" code by A. Dal Corso v.6.4.1
     Shape of augmentation charge: PSQ
     Using radial grid of 1251 points, 15 beta functions with: 
                l(1) =   0
                l(2) =   0
                l(3) =   0
                l(4) =   1
                l(5) =   1
                l(6) =   1
                l(7) =   1
                l(8) =   2
                l(9) =   2
               l(10) =   2
               l(11) =   2
               l(12) =   3
               l(13) =   3
               l(14) =   3
               l(15) =   3
     Q(r) pseudized with 0 coefficients 


     PseudoPot. # 2 for I  read from file:
     /marconi_scratch/userexternal/cmalosso/degironcoli/pseudo/I.rel-pbesol-n-kjpaw_psl.1.0.0.UPF
     MD5 check sum: 4478c427bd443f303eca1937a163b991
     Pseudo is Projector augmented-wave + core cor, Zval =  7.0
     Generated using "atomic" code by A. Dal Corso v.6.3
     Shape of augmentation charge: PSQ
     Using radial grid of 1247 points, 10 beta functions with: 
                l(1) =   0
                l(2) =   0
                l(3) =   1
                l(4) =   1
                l(5) =   1
                l(6) =   1
                l(7) =   2
                l(8) =   2
                l(9) =   2
               l(10) =   2
     Q(r) pseudized with 0 coefficients 


     atomic species   valence    mass     pseudopotential
        Cs             9.00   132.90000     Cs( 1.00)
        I              7.00   126.90000     I ( 1.00)

     48 Sym. Ops., with inversion, found


                                    s                        frac. trans.

      isym =  1     identity                                     

 cryst.   s( 1) = (     1          0          0      )
                  (     0          1          0      )
                  (     0          0          1      )

 cart.    s( 1) = (  1.0000000  0.0000000  0.0000000 )
                  (  0.0000000  1.0000000  0.0000000 )
                  (  0.0000000  0.0000000  1.0000000 )


      isym =  2     180 deg rotation - cart. axis [0,0,1]        

 cryst.   s( 2) = (    -1          0          0      )
                  (     0         -1          0      )
                  (     0          0          1      )

 cart.    s( 2) = ( -1.0000000  0.0000000  0.0000000 )
                  (  0.0000000 -1.0000000  0.0000000 )
                  (  0.0000000  0.0000000  1.0000000 )


      isym =  3     180 deg rotation - cart. axis [0,1,0]        

 cryst.   s( 3) = (    -1          0          0      )
                  (     0          1          0      )
                  (     0          0         -1      )

 cart.    s( 3) = ( -1.0000000  0.0000000  0.0000000 )
                  (  0.0000000  1.0000000  0.0000000 )
                  (  0.0000000  0.0000000 -1.0000000 )


      isym =  4     180 deg rotation - cart. axis [1,0,0]        

 cryst.   s( 4) = (     1          0          0      )
                  (     0         -1          0      )
                  (     0          0         -1      )

 cart.    s( 4) = (  1.0000000  0.0000000  0.0000000 )
                  (  0.0000000 -1.0000000  0.0000000 )
                  (  0.0000000  0.0000000 -1.0000000 )


      isym =  5     180 deg rotation - cart. axis [1,1,0]        

 cryst.   s( 5) = (     0          1          0      )
                  (     1          0          0      )
                  (     0          0         -1      )

 cart.    s( 5) = (  0.0000000  1.0000000  0.0000000 )
                  (  1.0000000  0.0000000  0.0000000 )
                  (  0.0000000  0.0000000 -1.0000000 )


      isym =  6     180 deg rotation - cart. axis [1,-1,0]       

 cryst.   s( 6) = (     0         -1          0      )
                  (    -1          0          0      )
                  (     0          0         -1      )

 cart.    s( 6) = (  0.0000000 -1.0000000  0.0000000 )
                  ( -1.0000000  0.0000000  0.0000000 )
                  (  0.0000000  0.0000000 -1.0000000 )


      isym =  7      90 deg rotation - cart. axis [0,0,-1]       

 cryst.   s( 7) = (     0         -1          0      )
                  (     1          0          0      )
                  (     0          0          1      )

 cart.    s( 7) = (  0.0000000  1.0000000  0.0000000 )
                  ( -1.0000000  0.0000000  0.0000000 )
                  (  0.0000000  0.0000000  1.0000000 )


      isym =  8      90 deg rotation - cart. axis [0,0,1]        

 cryst.   s( 8) = (     0          1          0      )
                  (    -1          0          0      )
                  (     0          0          1      )

 cart.    s( 8) = (  0.0000000 -1.0000000  0.0000000 )
                  (  1.0000000  0.0000000  0.0000000 )
                  (  0.0000000  0.0000000  1.0000000 )


      isym =  9     180 deg rotation - cart. axis [1,0,1]        

 cryst.   s( 9) = (     0          0          1      )
                  (     0         -1          0      )
                  (     1          0          0      )

 cart.    s( 9) = (  0.0000000  0.0000000  1.0000000 )
                  (  0.0000000 -1.0000000  0.0000000 )
                  (  1.0000000  0.0000000  0.0000000 )


      isym = 10     180 deg rotation - cart. axis [-1,0,1]       

 cryst.   s(10) = (     0          0         -1      )
                  (     0         -1          0      )
                  (    -1          0          0      )

 cart.    s(10) = (  0.0000000  0.0000000 -1.0000000 )
                  (  0.0000000 -1.0000000  0.0000000 )
                  ( -1.0000000  0.0000000  0.0000000 )


      isym = 11      90 deg rotation - cart. axis [0,1,0]        

 cryst.   s(11) = (     0          0         -1      )
                  (     0          1          0      )
                  (     1          0          0      )

 cart.    s(11) = (  0.0000000  0.0000000  1.0000000 )
                  (  0.0000000  1.0000000  0.0000000 )
                  ( -1.0000000  0.0000000  0.0000000 )


      isym = 12      90 deg rotation - cart. axis [0,-1,0]       

 cryst.   s(12) = (     0          0          1      )
                  (     0          1          0      )
                  (    -1          0          0      )

 cart.    s(12) = (  0.0000000  0.0000000 -1.0000000 )
                  (  0.0000000  1.0000000  0.0000000 )
                  (  1.0000000  0.0000000  0.0000000 )


      isym = 13     180 deg rotation - cart. axis [0,1,1]        

 cryst.   s(13) = (    -1          0          0      )
                  (     0          0          1      )
                  (     0          1          0      )

 cart.    s(13) = ( -1.0000000  0.0000000  0.0000000 )
                  (  0.0000000  0.0000000  1.0000000 )
                  (  0.0000000  1.0000000  0.0000000 )


      isym = 14     180 deg rotation - cart. axis [0,1,-1]       

 cryst.   s(14) = (    -1          0          0      )
                  (     0          0         -1      )
                  (     0         -1          0      )

 cart.    s(14) = ( -1.0000000  0.0000000  0.0000000 )
                  (  0.0000000  0.0000000 -1.0000000 )
                  (  0.0000000 -1.0000000  0.0000000 )


      isym = 15      90 deg rotation - cart. axis [-1,0,0]       

 cryst.   s(15) = (     1          0          0      )
                  (     0          0         -1      )
                  (     0          1          0      )

 cart.    s(15) = (  1.0000000  0.0000000  0.0000000 )
                  (  0.0000000  0.0000000  1.0000000 )
                  (  0.0000000 -1.0000000  0.0000000 )


      isym = 16      90 deg rotation - cart. axis [1,0,0]        

 cryst.   s(16) = (     1          0          0      )
                  (     0          0          1      )
                  (     0         -1          0      )

 cart.    s(16) = (  1.0000000  0.0000000  0.0000000 )
                  (  0.0000000  0.0000000 -1.0000000 )
                  (  0.0000000  1.0000000  0.0000000 )


      isym = 17     120 deg rotation - cart. axis [-1,-1,-1]     

 cryst.   s(17) = (     0          0          1      )
                  (     1          0          0      )
                  (     0          1          0      )

 cart.    s(17) = (  0.0000000  1.0000000  0.0000000 )
                  (  0.0000000  0.0000000  1.0000000 )
                  (  1.0000000  0.0000000  0.0000000 )


      isym = 18     120 deg rotation - cart. axis [-1,1,1]       

 cryst.   s(18) = (     0          0         -1      )
                  (    -1          0          0      )
                  (     0          1          0      )

 cart.    s(18) = (  0.0000000 -1.0000000  0.0000000 )
                  (  0.0000000  0.0000000  1.0000000 )
                  ( -1.0000000  0.0000000  0.0000000 )


      isym = 19     120 deg rotation - cart. axis [1,1,-1]       

 cryst.   s(19) = (     0          0         -1      )
                  (     1          0          0      )
                  (     0         -1          0      )

 cart.    s(19) = (  0.0000000  1.0000000  0.0000000 )
                  (  0.0000000  0.0000000 -1.0000000 )
                  ( -1.0000000  0.0000000  0.0000000 )


      isym = 20     120 deg rotation - cart. axis [1,-1,1]       

 cryst.   s(20) = (     0          0          1      )
                  (    -1          0          0      )
                  (     0         -1          0      )

 cart.    s(20) = (  0.0000000 -1.0000000  0.0000000 )
                  (  0.0000000  0.0000000 -1.0000000 )
                  (  1.0000000  0.0000000  0.0000000 )


      isym = 21     120 deg rotation - cart. axis [1,1,1]        

 cryst.   s(21) = (     0          1          0      )
                  (     0          0          1      )
                  (     1          0          0      )

 cart.    s(21) = (  0.0000000  0.0000000  1.0000000 )
                  (  1.0000000  0.0000000  0.0000000 )
                  (  0.0000000  1.0000000  0.0000000 )


      isym = 22     120 deg rotation - cart. axis [-1,1,-1]      

 cryst.   s(22) = (     0         -1          0      )
                  (     0          0         -1      )
                  (     1          0          0      )

 cart.    s(22) = (  0.0000000  0.0000000  1.0000000 )
                  ( -1.0000000  0.0000000  0.0000000 )
                  (  0.0000000 -1.0000000  0.0000000 )


      isym = 23     120 deg rotation - cart. axis [1,-1,-1]      

 cryst.   s(23) = (     0         -1          0      )
                  (     0          0          1      )
                  (    -1          0          0      )

 cart.    s(23) = (  0.0000000  0.0000000 -1.0000000 )
                  ( -1.0000000  0.0000000  0.0000000 )
                  (  0.0000000  1.0000000  0.0000000 )


      isym = 24     120 deg rotation - cart. axis [-1,-1,1]      

 cryst.   s(24) = (     0          1          0      )
                  (     0          0         -1      )
                  (    -1          0          0      )

 cart.    s(24) = (  0.0000000  0.0000000 -1.0000000 )
                  (  1.0000000  0.0000000  0.0000000 )
                  (  0.0000000 -1.0000000  0.0000000 )


      isym = 25     inversion                                    

 cryst.   s(25) = (    -1          0          0      )
                  (     0         -1          0      )
                  (     0          0         -1      )

 cart.    s(25) = ( -1.0000000  0.0000000  0.0000000 )
                  (  0.0000000 -1.0000000  0.0000000 )
                  (  0.0000000  0.0000000 -1.0000000 )


      isym = 26     inv. 180 deg rotation - cart. axis [0,0,1]   

 cryst.   s(26) = (     1          0          0      )
                  (     0          1          0      )
                  (     0          0         -1      )

 cart.    s(26) = (  1.0000000  0.0000000  0.0000000 )
                  (  0.0000000  1.0000000  0.0000000 )
                  (  0.0000000  0.0000000 -1.0000000 )


      isym = 27     inv. 180 deg rotation - cart. axis [0,1,0]   

 cryst.   s(27) = (     1          0          0      )
                  (     0         -1          0      )
                  (     0          0          1      )

 cart.    s(27) = (  1.0000000  0.0000000  0.0000000 )
                  (  0.0000000 -1.0000000  0.0000000 )
                  (  0.0000000  0.0000000  1.0000000 )


      isym = 28     inv. 180 deg rotation - cart. axis [1,0,0]   

 cryst.   s(28) = (    -1          0          0      )
                  (     0          1          0      )
                  (     0          0          1      )

 cart.    s(28) = ( -1.0000000  0.0000000  0.0000000 )
                  (  0.0000000  1.0000000  0.0000000 )
                  (  0.0000000  0.0000000  1.0000000 )


      isym = 29     inv. 180 deg rotation - cart. axis [1,1,0]   

 cryst.   s(29) = (     0         -1          0      )
                  (    -1          0          0      )
                  (     0          0          1      )

 cart.    s(29) = (  0.0000000 -1.0000000  0.0000000 )
                  ( -1.0000000  0.0000000  0.0000000 )
                  (  0.0000000  0.0000000  1.0000000 )


      isym = 30     inv. 180 deg rotation - cart. axis [1,-1,0]  

 cryst.   s(30) = (     0          1          0      )
                  (     1          0          0      )
                  (     0          0          1      )

 cart.    s(30) = (  0.0000000  1.0000000  0.0000000 )
                  (  1.0000000  0.0000000  0.0000000 )
                  (  0.0000000  0.0000000  1.0000000 )


      isym = 31     inv.  90 deg rotation - cart. axis [0,0,-1]  

 cryst.   s(31) = (     0          1          0      )
                  (    -1          0          0      )
                  (     0          0         -1      )

 cart.    s(31) = (  0.0000000 -1.0000000  0.0000000 )
                  (  1.0000000  0.0000000  0.0000000 )
                  (  0.0000000  0.0000000 -1.0000000 )


      isym = 32     inv.  90 deg rotation - cart. axis [0,0,1]   

 cryst.   s(32) = (     0         -1          0      )
                  (     1          0          0      )
                  (     0          0         -1      )

 cart.    s(32) = (  0.0000000  1.0000000  0.0000000 )
                  ( -1.0000000  0.0000000  0.0000000 )
                  (  0.0000000  0.0000000 -1.0000000 )


      isym = 33     inv. 180 deg rotation - cart. axis [1,0,1]   

 cryst.   s(33) = (     0          0         -1      )
                  (     0          1          0      )
                  (    -1          0          0      )

 cart.    s(33) = (  0.0000000  0.0000000 -1.0000000 )
                  (  0.0000000  1.0000000  0.0000000 )
                  ( -1.0000000  0.0000000  0.0000000 )


      isym = 34     inv. 180 deg rotation - cart. axis [-1,0,1]  

 cryst.   s(34) = (     0          0          1      )
                  (     0          1          0      )
                  (     1          0          0      )

 cart.    s(34) = (  0.0000000  0.0000000  1.0000000 )
                  (  0.0000000  1.0000000  0.0000000 )
                  (  1.0000000  0.0000000  0.0000000 )


      isym = 35     inv.  90 deg rotation - cart. axis [0,1,0]   

 cryst.   s(35) = (     0          0          1      )
                  (     0         -1          0      )
                  (    -1          0          0      )

 cart.    s(35) = (  0.0000000  0.0000000 -1.0000000 )
                  (  0.0000000 -1.0000000  0.0000000 )
                  (  1.0000000  0.0000000  0.0000000 )


      isym = 36     inv.  90 deg rotation - cart. axis [0,-1,0]  

 cryst.   s(36) = (     0          0         -1      )
                  (     0         -1          0      )
                  (     1          0          0      )

 cart.    s(36) = (  0.0000000  0.0000000  1.0000000 )
                  (  0.0000000 -1.0000000  0.0000000 )
                  ( -1.0000000  0.0000000  0.0000000 )


      isym = 37     inv. 180 deg rotation - cart. axis [0,1,1]   

 cryst.   s(37) = (     1          0          0      )
                  (     0          0         -1      )
                  (     0         -1          0      )

 cart.    s(37) = (  1.0000000  0.0000000  0.0000000 )
                  (  0.0000000  0.0000000 -1.0000000 )
                  (  0.0000000 -1.0000000  0.0000000 )


      isym = 38     inv. 180 deg rotation - cart. axis [0,1,-1]  

 cryst.   s(38) = (     1          0          0      )
                  (     0          0          1      )
                  (     0          1          0      )

 cart.    s(38) = (  1.0000000  0.0000000  0.0000000 )
                  (  0.0000000  0.0000000  1.0000000 )
                  (  0.0000000  1.0000000  0.0000000 )


      isym = 39     inv.  90 deg rotation - cart. axis [-1,0,0]  

 cryst.   s(39) = (    -1          0          0      )
                  (     0          0          1      )
                  (     0         -1          0      )

 cart.    s(39) = ( -1.0000000  0.0000000  0.0000000 )
                  (  0.0000000  0.0000000 -1.0000000 )
                  (  0.0000000  1.0000000  0.0000000 )


      isym = 40     inv.  90 deg rotation - cart. axis [1,0,0]   

 cryst.   s(40) = (    -1          0          0      )
                  (     0          0         -1      )
                  (     0          1          0      )

 cart.    s(40) = ( -1.0000000  0.0000000  0.0000000 )
                  (  0.0000000  0.0000000  1.0000000 )
                  (  0.0000000 -1.0000000  0.0000000 )


      isym = 41     inv. 120 deg rotation - cart. axis [-1,-1,-1]

 cryst.   s(41) = (     0          0         -1      )
                  (    -1          0          0      )
                  (     0         -1          0      )

 cart.    s(41) = (  0.0000000 -1.0000000  0.0000000 )
                  (  0.0000000  0.0000000 -1.0000000 )
                  ( -1.0000000  0.0000000  0.0000000 )


      isym = 42     inv. 120 deg rotation - cart. axis [-1,1,1]  

 cryst.   s(42) = (     0          0          1      )
                  (     1          0          0      )
                  (     0         -1          0      )

 cart.    s(42) = (  0.0000000  1.0000000  0.0000000 )
                  (  0.0000000  0.0000000 -1.0000000 )
                  (  1.0000000  0.0000000  0.0000000 )


      isym = 43     inv. 120 deg rotation - cart. axis [1,1,-1]  

 cryst.   s(43) = (     0          0          1      )
                  (    -1          0          0      )
                  (     0          1          0      )

 cart.    s(43) = (  0.0000000 -1.0000000  0.0000000 )
                  (  0.0000000  0.0000000  1.0000000 )
                  (  1.0000000  0.0000000  0.0000000 )


      isym = 44     inv. 120 deg rotation - cart. axis [1,-1,1]  

 cryst.   s(44) = (     0          0         -1      )
                  (     1          0          0      )
                  (     0          1          0      )

 cart.    s(44) = (  0.0000000  1.0000000  0.0000000 )
                  (  0.0000000  0.0000000  1.0000000 )
                  ( -1.0000000  0.0000000  0.0000000 )


      isym = 45     inv. 120 deg rotation - cart. axis [1,1,1]   

 cryst.   s(45) = (     0         -1          0      )
                  (     0          0         -1      )
                  (    -1          0          0      )

 cart.    s(45) = (  0.0000000  0.0000000 -1.0000000 )
                  ( -1.0000000  0.0000000  0.0000000 )
                  (  0.0000000 -1.0000000  0.0000000 )


      isym = 46     inv. 120 deg rotation - cart. axis [-1,1,-1] 

 cryst.   s(46) = (     0          1          0      )
                  (     0          0          1      )
                  (    -1          0          0      )

 cart.    s(46) = (  0.0000000  0.0000000 -1.0000000 )
                  (  1.0000000  0.0000000  0.0000000 )
                  (  0.0000000  1.0000000  0.0000000 )


      isym = 47     inv. 120 deg rotation - cart. axis [1,-1,-1] 

 cryst.   s(47) = (     0          1          0      )
                  (     0          0         -1      )
                  (     1          0          0      )

 cart.    s(47) = (  0.0000000  0.0000000  1.0000000 )
                  (  1.0000000  0.0000000  0.0000000 )
                  (  0.0000000 -1.0000000  0.0000000 )


      isym = 48     inv. 120 deg rotation - cart. axis [-1,-1,1] 

 cryst.   s(48) = (     0         -1          0      )
                  (     0          0          1      )
                  (     1          0          0      )

 cart.    s(48) = (  0.0000000  0.0000000  1.0000000 )
                  ( -1.0000000  0.0000000  0.0000000 )
                  (  0.0000000  1.0000000  0.0000000 )


     double point group O_h (m-3m) 
     there are 16 classes and  6 irreducible representations
     the character table:

       E     -E    8C3   -8C3   3C2  6C4   -6C4   6C2' i     -i    8S6   -8S6 
                               -3C2              -6C2'                        
G_6+   2.00 -2.00  1.00 -1.00  0.00  1.41 -1.41  0.00  2.00 -2.00  1.00 -1.00
G_7+   2.00 -2.00  1.00 -1.00  0.00 -1.41  1.41  0.00  2.00 -2.00  1.00 -1.00
G_8+   4.00 -4.00 -1.00  1.00  0.00  0.00  0.00  0.00  4.00 -4.00 -1.00  1.00
G_6-   2.00 -2.00  1.00 -1.00  0.00  1.41 -1.41  0.00 -2.00  2.00 -1.00  1.00
G_7-   2.00 -2.00  1.00 -1.00  0.00 -1.41  1.41  0.00 -2.00  2.00 -1.00  1.00
G_8-   4.00 -4.00 -1.00  1.00  0.00  0.00  0.00  0.00 -4.00  4.00  1.00 -1.00

        3s_h 6S4   -6S4   6s_d
       -3s_h             -6s_d
G_6+   0.00  1.41 -1.41  0.00
G_7+   0.00 -1.41  1.41  0.00
G_8+   0.00  0.00  0.00  0.00
G_6-   0.00 -1.41  1.41  0.00
G_7-   0.00  1.41 -1.41  0.00
G_8-   0.00  0.00  0.00  0.00

     the symmetry operations in each class and the name of the first element:

     E             1
          identity                                               
     -E           -1
          identity E                                             
     8C3          17   19   20   18   24   21   22   23
          120 deg rotation - cart. axis [-1,-1,-1]               
     -8C3        -17  -19  -20  -18  -24  -21  -22  -23
          120 deg rotation - cart. axis [-1,-1,-1] E             
      3C2 -3C2     2   -2    4   -4    3   -3
          180 deg rotation - cart. axis [0,0,1]                  
     6C4           7    8   15   16   12   11
           90 deg rotation - cart. axis [0,0,-1]                 
     -6C4         -7   -8  -15  -16  -12  -11
           90 deg rotation - cart. axis [0,0,-1] E               
      6C2'-6C2'    5   -5   -6    6   14  -13  -14   13   10   -9  -10    9
          180 deg rotation - cart. axis [1,1,0]                  
     i            25
          inversion                                              
     -i          -25
          inversion E                                            
     8S6          41   43   44   42   48   45   46   47
          inv. 120 deg rotation - cart. axis [-1,-1,-1]          
     -8S6        -41  -43  -44  -42  -48  -45  -46  -47
          inv. 120 deg rotation - cart. axis [-1,-1,-1] E        
      3s_h-3s_h   26  -26   28  -28   27  -27
          inv. 180 deg rotation - cart. axis [0,0,1]             
     6S4          31   32   39   40   36   35
          inv.  90 deg rotation - cart. axis [0,0,-1]            
     -6S4        -31  -32  -39  -40  -36  -35
          inv.  90 deg rotation - cart. axis [0,0,-1] E          
      6s_d-6s_d   29  -29  -30   30   38  -37  -38   37   34  -33  -34   33
          inv. 180 deg rotation - cart. axis [1,1,0]             

   Cartesian axes

     site n.     atom                  positions (alat units)
         1           Cs  tau(   1) = (   0.0000000   0.0000000   0.0000000  )
         2           Cs  tau(   2) = (   0.0000000   0.5000000   0.5000000  )
         3           Cs  tau(   3) = (   0.5000000   0.0000000   0.5000000  )
         4           Cs  tau(   4) = (   0.5000000   0.5000000   0.0000000  )
         5           I   tau(   5) = (   0.5000000   0.0000000   0.0000000  )
         6           I   tau(   6) = (   0.5000000   0.5000000   0.5000000  )
         7           I   tau(   7) = (   0.0000000   0.0000000   0.5000000  )
         8           I   tau(   8) = (   0.0000000   0.5000000   0.0000000  )

   Crystallographic axes

     site n.     atom                  positions (cryst. coord.)
         1           Cs  tau(   1) = (  0.0000000  0.0000000  0.0000000  )
         2           Cs  tau(   2) = (  0.0000000  0.5000000  0.5000000  )
         3           Cs  tau(   3) = (  0.5000000  0.0000000  0.5000000  )
         4           Cs  tau(   4) = (  0.5000000  0.5000000  0.0000000  )
         5           I   tau(   5) = (  0.5000000  0.0000000  0.0000000  )
         6           I   tau(   6) = (  0.5000000  0.5000000  0.5000000  )
         7           I   tau(   7) = (  0.0000000  0.0000000  0.5000000  )
         8           I   tau(   8) = (  0.0000000  0.5000000  0.0000000  )

     number of k points=    56
                       cart. coord. in units 2pi/alat
        k(    1) = (   0.0416667   0.0416667   0.0416667), wk =   0.0046296
        k(    2) = (   0.0416667   0.0416667   0.1250000), wk =   0.0138889
        k(    3) = (   0.0416667   0.0416667   0.2083333), wk =   0.0138889
        k(    4) = (   0.0416667   0.0416667   0.2916667), wk =   0.0138889
        k(    5) = (   0.0416667   0.0416667   0.3750000), wk =   0.0138889
        k(    6) = (   0.0416667   0.0416667   0.4583333), wk =   0.0138889
        k(    7) = (   0.0416667   0.1250000   0.1250000), wk =   0.0138889
        k(    8) = (   0.0416667   0.1250000   0.2083333), wk =   0.0277778
        k(    9) = (   0.0416667   0.1250000   0.2916667), wk =   0.0277778
        k(   10) = (   0.0416667   0.1250000   0.3750000), wk =   0.0277778
        k(   11) = (   0.0416667   0.1250000   0.4583333), wk =   0.0277778
        k(   12) = (   0.0416667   0.2083333   0.2083333), wk =   0.0138889
        k(   13) = (   0.0416667   0.2083333   0.2916667), wk =   0.0277778
        k(   14) = (   0.0416667   0.2083333   0.3750000), wk =   0.0277778
        k(   15) = (   0.0416667   0.2083333   0.4583333), wk =   0.0277778
        k(   16) = (   0.0416667   0.2916667   0.2916667), wk =   0.0138889
        k(   17) = (   0.0416667   0.2916667   0.3750000), wk =   0.0277778
        k(   18) = (   0.0416667   0.2916667   0.4583333), wk =   0.0277778
        k(   19) = (   0.0416667   0.3750000   0.3750000), wk =   0.0138889
        k(   20) = (   0.0416667   0.3750000   0.4583333), wk =   0.0277778
        k(   21) = (   0.0416667   0.4583333   0.4583333), wk =   0.0138889
        k(   22) = (   0.1250000   0.1250000   0.1250000), wk =   0.0046296
        k(   23) = (   0.1250000   0.1250000   0.2083333), wk =   0.0138889
        k(   24) = (   0.1250000   0.1250000   0.2916667), wk =   0.0138889
        k(   25) = (   0.1250000   0.1250000   0.3750000), wk =   0.0138889
        k(   26) = (   0.1250000   0.1250000   0.4583333), wk =   0.0138889
        k(   27) = (   0.1250000   0.2083333   0.2083333), wk =   0.0138889
        k(   28) = (   0.1250000   0.2083333   0.2916667), wk =   0.0277778
        k(   29) = (   0.1250000   0.2083333   0.3750000), wk =   0.0277778
        k(   30) = (   0.1250000   0.2083333   0.4583333), wk =   0.0277778
        k(   31) = (   0.1250000   0.2916667   0.2916667), wk =   0.0138889
        k(   32) = (   0.1250000   0.2916667   0.3750000), wk =   0.0277778
        k(   33) = (   0.1250000   0.2916667   0.4583333), wk =   0.0277778
        k(   34) = (   0.1250000   0.3750000   0.3750000), wk =   0.0138889
        k(   35) = (   0.1250000   0.3750000   0.4583333), wk =   0.0277778
        k(   36) = (   0.1250000   0.4583333   0.4583333), wk =   0.0138889
        k(   37) = (   0.2083333   0.2083333   0.2083333), wk =   0.0046296
        k(   38) = (   0.2083333   0.2083333   0.2916667), wk =   0.0138889
        k(   39) = (   0.2083333   0.2083333   0.3750000), wk =   0.0138889
        k(   40) = (   0.2083333   0.2083333   0.4583333), wk =   0.0138889
        k(   41) = (   0.2083333   0.2916667   0.2916667), wk =   0.0138889
        k(   42) = (   0.2083333   0.2916667   0.3750000), wk =   0.0277778
        k(   43) = (   0.2083333   0.2916667   0.4583333), wk =   0.0277778
        k(   44) = (   0.2083333   0.3750000   0.3750000), wk =   0.0138889
        k(   45) = (   0.2083333   0.3750000   0.4583333), wk =   0.0277778
        k(   46) = (   0.2083333   0.4583333   0.4583333), wk =   0.0138889
        k(   47) = (   0.2916667   0.2916667   0.2916667), wk =   0.0046296
        k(   48) = (   0.2916667   0.2916667   0.3750000), wk =   0.0138889
        k(   49) = (   0.2916667   0.2916667   0.4583333), wk =   0.0138889
        k(   50) = (   0.2916667   0.3750000   0.3750000), wk =   0.0138889
        k(   51) = (   0.2916667   0.3750000   0.4583333), wk =   0.0277778
        k(   52) = (   0.2916667   0.4583333   0.4583333), wk =   0.0138889
        k(   53) = (   0.3750000   0.3750000   0.3750000), wk =   0.0046296
        k(   54) = (   0.3750000   0.3750000   0.4583333), wk =   0.0138889
        k(   55) = (   0.3750000   0.4583333   0.4583333), wk =   0.0138889
        k(   56) = (   0.4583333   0.4583333   0.4583333), wk =   0.0046296

                       cryst. coord.
        k(    1) = (   0.0416667   0.0416667   0.0416667), wk =   0.0046296
        k(    2) = (   0.0416667   0.0416667   0.1250000), wk =   0.0138889
        k(    3) = (   0.0416667   0.0416667   0.2083333), wk =   0.0138889
        k(    4) = (   0.0416667   0.0416667   0.2916667), wk =   0.0138889
        k(    5) = (   0.0416667   0.0416667   0.3750000), wk =   0.0138889
        k(    6) = (   0.0416667   0.0416667   0.4583333), wk =   0.0138889
        k(    7) = (   0.0416667   0.1250000   0.1250000), wk =   0.0138889
        k(    8) = (   0.0416667   0.1250000   0.2083333), wk =   0.0277778
        k(    9) = (   0.0416667   0.1250000   0.2916667), wk =   0.0277778
        k(   10) = (   0.0416667   0.1250000   0.3750000), wk =   0.0277778
        k(   11) = (   0.0416667   0.1250000   0.4583333), wk =   0.0277778
        k(   12) = (   0.0416667   0.2083333   0.2083333), wk =   0.0138889
        k(   13) = (   0.0416667   0.2083333   0.2916667), wk =   0.0277778
        k(   14) = (   0.0416667   0.2083333   0.3750000), wk =   0.0277778
        k(   15) = (   0.0416667   0.2083333   0.4583333), wk =   0.0277778
        k(   16) = (   0.0416667   0.2916667   0.2916667), wk =   0.0138889
        k(   17) = (   0.0416667   0.2916667   0.3750000), wk =   0.0277778
        k(   18) = (   0.0416667   0.2916667   0.4583333), wk =   0.0277778
        k(   19) = (   0.0416667   0.3750000   0.3750000), wk =   0.0138889
        k(   20) = (   0.0416667   0.3750000   0.4583333), wk =   0.0277778
        k(   21) = (   0.0416667   0.4583333   0.4583333), wk =   0.0138889
        k(   22) = (   0.1250000   0.1250000   0.1250000), wk =   0.0046296
        k(   23) = (   0.1250000   0.1250000   0.2083333), wk =   0.0138889
        k(   24) = (   0.1250000   0.1250000   0.2916667), wk =   0.0138889
        k(   25) = (   0.1250000   0.1250000   0.3750000), wk =   0.0138889
        k(   26) = (   0.1250000   0.1250000   0.4583333), wk =   0.0138889
        k(   27) = (   0.1250000   0.2083333   0.2083333), wk =   0.0138889
        k(   28) = (   0.1250000   0.2083333   0.2916667), wk =   0.0277778
        k(   29) = (   0.1250000   0.2083333   0.3750000), wk =   0.0277778
        k(   30) = (   0.1250000   0.2083333   0.4583333), wk =   0.0277778
        k(   31) = (   0.1250000   0.2916667   0.2916667), wk =   0.0138889
        k(   32) = (   0.1250000   0.2916667   0.3750000), wk =   0.0277778
        k(   33) = (   0.1250000   0.2916667   0.4583333), wk =   0.0277778
        k(   34) = (   0.1250000   0.3750000   0.3750000), wk =   0.0138889
        k(   35) = (   0.1250000   0.3750000   0.4583333), wk =   0.0277778
        k(   36) = (   0.1250000   0.4583333   0.4583333), wk =   0.0138889
        k(   37) = (   0.2083333   0.2083333   0.2083333), wk =   0.0046296
        k(   38) = (   0.2083333   0.2083333   0.2916667), wk =   0.0138889
        k(   39) = (   0.2083333   0.2083333   0.3750000), wk =   0.0138889
        k(   40) = (   0.2083333   0.2083333   0.4583333), wk =   0.0138889
        k(   41) = (   0.2083333   0.2916667   0.2916667), wk =   0.0138889
        k(   42) = (   0.2083333   0.2916667   0.3750000), wk =   0.0277778
        k(   43) = (   0.2083333   0.2916667   0.4583333), wk =   0.0277778
        k(   44) = (   0.2083333   0.3750000   0.3750000), wk =   0.0138889
        k(   45) = (   0.2083333   0.3750000   0.4583333), wk =   0.0277778
        k(   46) = (   0.2083333   0.4583333   0.4583333), wk =   0.0138889
        k(   47) = (   0.2916667   0.2916667   0.2916667), wk =   0.0046296
        k(   48) = (   0.2916667   0.2916667   0.3750000), wk =   0.0138889
        k(   49) = (   0.2916667   0.2916667   0.4583333), wk =   0.0138889
        k(   50) = (   0.2916667   0.3750000   0.3750000), wk =   0.0138889
        k(   51) = (   0.2916667   0.3750000   0.4583333), wk =   0.0277778
        k(   52) = (   0.2916667   0.4583333   0.4583333), wk =   0.0138889
        k(   53) = (   0.3750000   0.3750000   0.3750000), wk =   0.0046296
        k(   54) = (   0.3750000   0.3750000   0.4583333), wk =   0.0138889
        k(   55) = (   0.3750000   0.4583333   0.4583333), wk =   0.0138889
        k(   56) = (   0.4583333   0.4583333   0.4583333), wk =   0.0046296

     Dense  grid:   121481 G-vectors     FFT dimensions: (  64,  64,  64)

     Smooth grid:    66299 G-vectors     FFT dimensions: (  54,  54,  54)

     Dynamical RAM for                 wfc:       0.67 MB

     Dynamical RAM for     wfc (w. buffer):      38.30 MB

     Dynamical RAM for           str. fact:       0.15 MB

     Dynamical RAM for           local pot:       0.00 MB

     Dynamical RAM for          nlocal pot:       2.04 MB

     Dynamical RAM for                qrad:      39.45 MB

     Dynamical RAM for          rho,v,vnew:       2.05 MB

     Dynamical RAM for               rhoin:       0.68 MB

     Dynamical RAM for            rho*nmix:       4.94 MB

     Dynamical RAM for           G-vectors:       0.31 MB

     Dynamical RAM for          h,s,v(r/c):       0.33 MB

     Dynamical RAM for          <psi|beta>:       0.76 MB

     Dynamical RAM for                 psi:       2.69 MB

     Dynamical RAM for                hpsi:       2.69 MB

     Dynamical RAM for                spsi:       2.69 MB

     Dynamical RAM for      wfcinit/wfcrot:       1.25 MB

     Dynamical RAM for           addusdens:     158.08 MB

     Dynamical RAM for          addusforce:     159.88 MB

     Dynamical RAM for         addusstress:     160.09 MB

     Estimated static dynamical RAM per process >      88.91 MB

     Estimated max dynamical RAM per process >     249.00 MB

     Estimated total dynamical RAM >       5.84 GB

     Initial potential from superposition of free atoms

     starting charge   63.84620, renormalised to   64.00000
     Starting wfcs are   72 randomized atomic wfcs
     Checking if some PAW data can be deallocated... 
       PAW data deallocated on   12 nodes for type:  1
       PAW data deallocated on   12 nodes for type:  2

     total cpu time spent up to now is       39.2 secs

     Self-consistent Calculation

     iteration #  1     ecut=    80.00 Ry     beta= 0.35
     Davidson diagonalization with overlap
     ethr =  1.00E-02,  avg # of iterations =  6.6

     Threshold (ethr) on eigenvalues was too large:
     Diagonalizing with lowered threshold

     Davidson diagonalization with overlap
     c_bands:  1 eigenvalues not converged
     ethr =  1.54E-04,  avg # of iterations =  9.6

     total cpu time spent up to now is      468.7 secs

     total energy              =   -3131.15575423 Ry
     Harris-Foulkes estimate   =   -3131.18640755 Ry
     estimated scf accuracy    <       0.11839377 Ry

     iteration #  2     ecut=    80.00 Ry     beta= 0.35
     Davidson diagonalization with overlap
     ethr =  1.85E-04,  avg # of iterations =  1.2

     total cpu time spent up to now is      573.7 secs

     total energy              =   -3131.14601269 Ry
     Harris-Foulkes estimate   =   -3131.15918053 Ry
     estimated scf accuracy    <       0.04086075 Ry

     iteration #  3     ecut=    80.00 Ry     beta= 0.35
     Davidson diagonalization with overlap
     ethr =  6.38E-05,  avg # of iterations =  5.1

     total cpu time spent up to now is      755.2 secs

     total energy              =   -3131.16375389 Ry
     Harris-Foulkes estimate   =   -3131.16186460 Ry
     estimated scf accuracy    <       0.00630511 Ry

     iteration #  4     ecut=    80.00 Ry     beta= 0.35
     Davidson diagonalization with overlap
     c_bands:  1 eigenvalues not converged
     ethr =  9.85E-06,  avg # of iterations =  4.9

     total cpu time spent up to now is      915.9 secs

     total energy              =   -3131.16057118 Ry
     Harris-Foulkes estimate   =   -3131.16626697 Ry
     estimated scf accuracy    <       0.01156670 Ry

     iteration #  5     ecut=    80.00 Ry     beta= 0.35
     Davidson diagonalization with overlap
     ethr =  9.85E-06,  avg # of iterations =  2.8

     total cpu time spent up to now is     1057.6 secs

     WARNING: integrated charge=    64.01101918, expected=    64.00000000

     total energy              =   -3131.15977485 Ry
     Harris-Foulkes estimate   =   -3131.16144364 Ry
     estimated scf accuracy    <       0.00283847 Ry

     iteration #  6     ecut=    80.00 Ry     beta= 0.35
     Davidson diagonalization with overlap
     ethr =  4.44E-06,  avg # of iterations =  5.1

     total cpu time spent up to now is     1253.3 secs

     WARNING: integrated charge=    64.00727094, expected=    64.00000000

     total energy              =   -3131.16121019 Ry
     Harris-Foulkes estimate   =   -3131.16148364 Ry
     estimated scf accuracy    <       0.00032292 Ry

     iteration #  7     ecut=    80.00 Ry     beta= 0.35
     Davidson diagonalization with overlap
     ethr =  5.05E-07,  avg # of iterations =  5.8

     total cpu time spent up to now is     1463.4 secs

     WARNING: integrated charge=    64.00594074, expected=    64.00000000

     total energy              =   -3131.16176054 Ry
     Harris-Foulkes estimate   =   -3131.16177496 Ry
     estimated scf accuracy    <       0.00007755 Ry

     iteration #  8     ecut=    80.00 Ry     beta= 0.35
     Davidson diagonalization with overlap
     c_bands:  1 eigenvalues not converged
     ethr =  1.21E-07,  avg # of iterations =  2.0

     total cpu time spent up to now is     1579.4 secs

     WARNING: integrated charge=    64.00228424, expected=    64.00000000

     total energy              =   -3131.16178048 Ry
     Harris-Foulkes estimate   =   -3131.16179462 Ry
     estimated scf accuracy    <       0.00006030 Ry

     iteration #  9     ecut=    80.00 Ry     beta= 0.35
     Davidson diagonalization with overlap
     c_bands:  1 eigenvalues not converged
     ethr =  9.42E-08,  avg # of iterations =  1.3

     total cpu time spent up to now is     1690.6 secs

     WARNING: integrated charge=    63.99948295, expected=    64.00000000

     total energy              =   -3131.16178312 Ry
     Harris-Foulkes estimate   =   -3131.16180566 Ry
     estimated scf accuracy    <       0.00004112 Ry

     iteration # 10     ecut=    80.00 Ry     beta= 0.35
     Davidson diagonalization with overlap
     c_bands:  1 eigenvalues not converged
     c_bands:  1 eigenvalues not converged
     c_bands:  4 eigenvalues not converged
     ethr =  6.43E-08,  avg # of iterations =  8.0

     total cpu time spent up to now is     1910.6 secs

     WARNING: integrated charge=    63.99963287, expected=    64.00000000

     total energy              =   -3131.16179542 Ry
     Harris-Foulkes estimate   =   -3131.16179416 Ry
     estimated scf accuracy    <       0.00000437 Ry

     iteration # 11     ecut=    80.00 Ry     beta= 0.35
     Davidson diagonalization with overlap
     c_bands:  4 eigenvalues not converged
     c_bands:  1 eigenvalues not converged
     ethr =  6.82E-09,  avg # of iterations =  6.9

     total cpu time spent up to now is     2149.6 secs

     WARNING: integrated charge=    63.99967189, expected=    64.00000000

     total energy              =   -3131.16179701 Ry
     Harris-Foulkes estimate   =   -3131.16179779 Ry
     estimated scf accuracy    <       0.00000828 Ry

     iteration # 12     ecut=    80.00 Ry     beta= 0.35
     Davidson diagonalization with overlap
     c_bands:  1 eigenvalues not converged
     ethr =  6.82E-09,  avg # of iterations =  1.8

     total cpu time spent up to now is     2274.7 secs

     WARNING: integrated charge=    64.00039504, expected=    64.00000000

     total energy              =   -3131.16179247 Ry
     Harris-Foulkes estimate   =   -3131.16179710 Ry
     estimated scf accuracy    <       0.00001003 Ry

     iteration # 13     ecut=    80.00 Ry     beta= 0.35
     Davidson diagonalization with overlap
     ethr =  6.82E-09,  avg # of iterations =  6.5

     total cpu time spent up to now is     2503.9 secs

     WARNING: integrated charge=    64.00017526, expected=    64.00000000

     total energy              =   -3131.16179675 Ry
     Harris-Foulkes estimate   =   -3131.16179761 Ry
     estimated scf accuracy    <       0.00001789 Ry

     iteration # 14     ecut=    80.00 Ry     beta= 0.35
     Davidson diagonalization with overlap
     ethr =  6.82E-09,  avg # of iterations =  1.0

     total cpu time spent up to now is     2620.0 secs

     WARNING: integrated charge=    63.99935436, expected=    64.00000000

     total energy              =   -3131.16179703 Ry
     Harris-Foulkes estimate   =   -3131.16179684 Ry
     estimated scf accuracy    <       0.00001253 Ry

     iteration # 15     ecut=    80.00 Ry     beta= 0.35
     Davidson diagonalization with overlap
     ethr =  6.82E-09,  avg # of iterations =  1.3

     total cpu time spent up to now is     2735.9 secs

     WARNING: integrated charge=    63.99969520, expected=    64.00000000

     total energy              =   -3131.16179226 Ry
     Harris-Foulkes estimate   =   -3131.16179632 Ry
     estimated scf accuracy    <       0.00001439 Ry

     iteration # 16     ecut=    80.00 Ry     beta= 0.35
     Davidson diagonalization with overlap
     ethr =  6.82E-09,  avg # of iterations =  6.9

     total cpu time spent up to now is     2953.9 secs

     End of self-consistent calculation

          k = 0.0417 0.0417 0.0417 (  8283 PWs)   bands (ev):

    -1.9029  -1.9029   2.6008   2.6008   2.6011   2.6011   2.6011   2.6011
     8.7862   8.7862   8.7863   8.7863   8.7864   8.7864  10.9077  10.9077
    10.9078  10.9078  10.9093  10.9093  12.2783  12.2783  12.2786  12.2786
    12.2794  12.2794  13.2139  13.2139  13.2147  13.2147  13.2150  13.2150
    14.6934  14.6934  16.2365  16.2365  16.6307  16.6307  18.8227  18.8227
    22.2755  22.2755  22.2756  22.2756  22.2756  22.2756  25.2389  25.2389
    26.5813  26.5813  26.6403  26.6403  26.8469  26.8469  26.8822  26.8822
    27.0364  27.0364  29.6543  29.6543  29.6544  29.6544  29.6549  29.6549

     occupation numbers 
     1.0000   1.0000   1.0000   1.0000   1.0000   1.0000   1.0000   1.0000
     1.0000   1.0000   1.0000   1.0000   1.0000   1.0000   1.0000   1.0000
     1.0000   1.0000   1.0000   1.0000   1.0000   1.0000   1.0000   1.0000
     1.0000   1.0000   1.0000   1.0000   1.0000   1.0000   1.0000   1.0000
     1.0000   1.0000   1.0000   1.0000   1.0000   1.0000   1.0000   1.0000
     1.0000   1.0000   1.0000   1.0000   1.0000   1.0000   1.0000   1.0000
     1.0000   1.0000   1.0000   1.0000   1.0000   1.0000   1.0000   1.0000
     1.0000   1.0000   1.0000   1.0000   1.0000   1.0000   1.0000   1.0000

          k = 0.0417 0.0417 0.1250 (  8295 PWs)   bands (ev):

    -1.8119  -1.8119   2.2809   2.2809   2.6452   2.6452   2.6455   2.6455
     8.8503   8.8503   8.8505   8.8505   9.0887   9.0887  10.1319  10.1319
    10.1331  10.1331  11.1962  11.1962  12.3267  12.3267  12.3269  12.3269
    12.3856  12.3856  13.3124  13.3124  14.0213  14.0213  14.0224  14.0224
    14.3081  14.3081  15.7557  15.7557  16.5106  16.5106  19.6494  19.6494
    22.3551  22.3551  22.6363  22.6363  22.6363  22.6363  24.6049  24.6049
    26.0557  26.0557  26.3131  26.3131  26.7462  26.7462  27.1980  27.1980
    27.4160  27.4160  28.8790  28.8790  28.8797  28.8797  29.4135  29.4135

     occupation numbers 
     1.0000   1.0000   1.0000   1.0000   1.0000   1.0000   1.0000   1.0000
     1.0000   1.0000   1.0000   1.0000   1.0000   1.0000   1.0000   1.0000
     1.0000   1.0000   1.0000   1.0000   1.0000   1.0000   1.0000   1.0000
     1.0000   1.0000   1.0000   1.0000   1.0000   1.0000   1.0000   1.0000
     1.0000   1.0000   1.0000   1.0000   1.0000   1.0000   1.0000   1.0000
     1.0000   1.0000   1.0000   1.0000   1.0000   1.0000   1.0000   1.0000
     1.0000   1.0000   1.0000   1.0000   1.0000   1.0000   1.0000   1.0000
     1.0000   1.0000   1.0000   1.0000   1.0000   1.0000   1.0000   1.0000

          k = 0.0417 0.0417 0.2083 (  8296 PWs)   bands (ev):

    -1.6303  -1.6303   1.7556   1.7556   2.7263   2.7263   2.7266   2.7266
     8.8784   8.8784   8.8790   8.8790   9.4767   9.4767   9.4775   9.4775
     9.5332   9.5332  11.7750  11.7750  12.0200  12.0200  12.0202  12.0202
    12.6281  12.6281  13.5157  13.5157  13.6631  13.6631  15.2624  15.2624
    15.2891  15.2891  15.2902  15.2902  16.1942  16.1942  20.7710  20.7710
    22.5139  22.5139  23.2329  23.2329  23.3111  23.3111  23.3111  23.3111
    25.6371  25.6371  26.0355  26.0355  26.8421  26.8421  27.3845  27.3845
    27.3855  27.3855  27.8756  27.8756  28.1018  28.1018  28.9908  28.9908

     occupation numbers 
     1.0000   1.0000   1.0000   1.0000   1.0000   1.0000   1.0000   1.0000
     1.0000   1.0000   1.0000   1.0000   1.0000   1.0000   1.0000   1.0000
     1.0000   1.0000   1.0000   1.0000   1.0000   1.0000   1.0000   1.0000
     1.0000   1.0000   1.0000   1.0000   1.0000   1.0000   1.0000   1.0000
     1.0000   1.0000   1.0000   1.0000   1.0000   1.0000   1.0000   1.0000
     1.0000   1.0000   1.0000   1.0000   1.0000   1.0000   1.0000   1.0000
     1.0000   1.0000   1.0000   1.0000   1.0000   1.0000   1.0000   1.0000
     1.0000   1.0000   1.0000   1.0000   1.0000   1.0000   1.0000   1.0000

          k = 0.0417 0.0417 0.2917 (  8283 PWs)   bands (ev):

    -1.3595  -1.3595   1.1462   1.1462   2.8276   2.8276   2.8280   2.8280
     8.4941   8.4941   8.4955   8.4955   9.4516   9.4516   9.4517   9.4517
     9.9988   9.9988  11.5804  11.5804  11.5806  11.5806  12.4411  12.4411
    12.9369  12.9369  13.1455  13.1455  13.8753  13.8753  14.7778  14.7778
    15.7671  15.7671  16.7259  16.7259  16.7269  16.7269  20.8819  20.8819
    22.7515  22.7515  22.8099  22.8099  24.2320  24.2320  24.2320  24.2320
    25.0411  25.0411  25.6593  25.6593  25.6603  25.6603  26.1725  26.1725
    27.0993  27.0993  28.4639  28.4639  28.7673  28.7673  28.9872  28.9872

     occupation numbers 
     1.0000   1.0000   1.0000   1.0000   1.0000   1.0000   1.0000   1.0000
     1.0000   1.0000   1.0000   1.0000   1.0000   1.0000   1.0000   1.0000
     1.0000   1.0000   1.0000   1.0000   1.0000   1.0000   1.0000   1.0000
     1.0000   1.0000   1.0000   1.0000   1.0000   1.0000   1.0000   1.0000
     1.0000   1.0000   1.0000   1.0000   1.0000   1.0000   1.0000   1.0000
     1.0000   1.0000   1.0000   1.0000   1.0000   1.0000   1.0000   1.0000
     1.0000   1.0000   1.0000   1.0000   1.0000   1.0000   1.0000   1.0000
     1.0000   1.0000   1.0000   1.0000   1.0000   1.0000   1.0000   1.0000

          k = 0.0417 0.0417 0.3750 (  8285 PWs)   bands (ev):

    -1.0019  -1.0019   0.5310   0.5310   2.9236   2.9236   2.9241   2.9241
     8.0582   8.0582   8.0597   8.0597   9.7376   9.7376   9.7378   9.7378
    10.4779  10.4779  11.0971  11.0971  11.0974  11.0974  12.2304  12.2304
    12.9196  12.9196  13.8258  13.8258  14.2898  14.2898  14.6865  14.6865
    15.2894  15.2894  18.2425  18.2425  18.2435  18.2435  19.3177  19.3177
    23.0667  23.0667  23.8984  23.8984  23.8995  23.8995  24.1619  24.1619
    24.4658  24.4658  25.3583  25.3583  25.3583  25.3583  26.4809  26.4809
    27.4745  27.4745  27.8954  27.8954  28.9543  28.9543  29.3948  29.3948

     occupation numbers 
     1.0000   1.0000   1.0000   1.0000   1.0000   1.0000   1.0000   1.0000
     1.0000   1.0000   1.0000   1.0000   1.0000   1.0000   1.0000   1.0000
     1.0000   1.0000   1.0000   1.0000   1.0000   1.0000   1.0000   1.0000
     1.0000   1.0000   1.0000   1.0000   1.0000   1.0000   1.0000   1.0000
     1.0000   1.0000   1.0000   1.0000   1.0000   1.0000   1.0000   1.0000
     1.0000   1.0000   1.0000   1.0000   1.0000   1.0000   1.0000   1.0000
     1.0000   1.0000   1.0000   1.0000   1.0000   1.0000   1.0000   1.0000
     1.0000   1.0000   1.0000   1.0000   1.0000   1.0000   1.0000   1.0000

          k = 0.0417 0.0417 0.4583 (  8286 PWs)   bands (ev):

    -0.5616  -0.5616  -0.0462  -0.0462   2.9832   2.9832   2.9837   2.9837
     7.8165   7.8165   7.8181   7.8181  10.1002  10.1002  10.1008  10.1008
    10.6374  10.6374  10.6381  10.6381  10.9988  10.9988  11.5811  11.5811
    13.3532  13.3532  13.8100  13.8100  14.3246  14.3246  14.8018  14.8018
    16.0465  16.0465  17.6349  17.6349  19.6464  19.6464  19.6472  19.6472
    22.3740  22.3740  22.3752  22.3752  23.4577  23.4577  23.9210  23.9210
    25.8022  25.8022  26.6072  26.6072  26.6072  26.6072  26.9098  26.9098
    27.2649  27.2649  27.6563  27.6563  27.9486  27.9486  27.9737  27.9737

     occupation numbers 
     1.0000   1.0000   1.0000   1.0000   1.0000   1.0000   1.0000   1.0000
     1.0000   1.0000   1.0000   1.0000   1.0000   1.0000   1.0000   1.0000
     1.0000   1.0000   1.0000   1.0000   1.0000   1.0000   1.0000   1.0000
     1.0000   1.0000   1.0000   1.0000   1.0000   1.0000   1.0000   1.0000
     1.0000   1.0000   1.0000   1.0000   1.0000   1.0000   1.0000   1.0000
     1.0000   1.0000   1.0000   1.0000   1.0000   1.0000   1.0000   1.0000
     1.0000   1.0000   1.0000   1.0000   1.0000   1.0000   1.0000   1.0000
     1.0000   1.0000   1.0000   1.0000   1.0000   1.0000   1.0000   1.0000

          k = 0.0417 0.1250 0.1250 (  8297 PWs)   bands (ev):

    -1.7211  -1.7211   2.3338   2.3338   2.3341   2.3341   2.6831   2.6831
     8.8699   8.8699   9.0085   9.0085   9.0091   9.0091   9.5758   9.5758
    10.5560  10.5560  10.5563  10.5563  12.4233  12.4233  12.4243  12.4243
    12.7058  12.7058  13.7805  13.7805  14.1278  14.1278  14.1283  14.1283
    14.3191  14.3191  15.5459  15.5459  16.6212  16.6212  20.0992  20.0992
    22.7150  22.7150  22.7150  22.7150  23.0060  23.0060  24.3397  24.3397
    25.4694  25.4694  26.1111  26.1111  26.9605  26.9605  27.0135  27.0135
    27.6149  27.6149  28.5180  28.5180  28.5996  28.5996  28.5997  28.5997

     occupation numbers 
     1.0000   1.0000   1.0000   1.0000   1.0000   1.0000   1.0000   1.0000
     1.0000   1.0000   1.0000   1.0000   1.0000   1.0000   1.0000   1.0000
     1.0000   1.0000   1.0000   1.0000   1.0000   1.0000   1.0000   1.0000
     1.0000   1.0000   1.0000   1.0000   1.0000   1.0000   1.0000   1.0000
     1.0000   1.0000   1.0000   1.0000   1.0000   1.0000   1.0000   1.0000
     1.0000   1.0000   1.0000   1.0000   1.0000   1.0000   1.0000   1.0000
     1.0000   1.0000   1.0000   1.0000   1.0000   1.0000   1.0000   1.0000
     1.0000   1.0000   1.0000   1.0000   1.0000   1.0000   1.0000   1.0000

          k = 0.0417 0.1250 0.2083 (  8291 PWs)   bands (ev):

    -1.5401  -1.5401   1.8194   1.8194   2.4336   2.4336   2.7495   2.7495
     8.5942   8.5942   8.7119   8.7119   9.2538   9.2538   9.3152   9.3152
    10.2120  10.2120  11.3422  11.3422  12.1153  12.1153  12.6275  12.6275
    12.6395  12.6395  13.0525  13.0525  14.3490  14.3490  15.2143  15.2143
    15.2529  15.2529  15.3904  15.3904  16.5093  16.5093  20.9290  20.9290
    22.8720  22.8720  23.2034  23.2034  23.3881  23.3881  23.6923  23.6923
    25.1673  25.1673  25.8290  25.8290  26.7999  26.7999  27.0747  27.0747
    27.3187  27.3187  27.6510  27.6510  28.1286  28.1286  28.2907  28.2907

     occupation numbers 
     1.0000   1.0000   1.0000   1.0000   1.0000   1.0000   1.0000   1.0000
     1.0000   1.0000   1.0000   1.0000   1.0000   1.0000   1.0000   1.0000
     1.0000   1.0000   1.0000   1.0000   1.0000   1.0000   1.0000   1.0000
     1.0000   1.0000   1.0000   1.0000   1.0000   1.0000   1.0000   1.0000
     1.0000   1.0000   1.0000   1.0000   1.0000   1.0000   1.0000   1.0000
     1.0000   1.0000   1.0000   1.0000   1.0000   1.0000   1.0000   1.0000
     1.0000   1.0000   1.0000   1.0000   1.0000   1.0000   1.0000   1.0000
     1.0000   1.0000   1.0000   1.0000   1.0000   1.0000   1.0000   1.0000

          k = 0.0417 0.1250 0.2917 (  8298 PWs)   bands (ev):

    -1.2703  -1.2703   1.2186   1.2186   2.5655   2.5655   2.8250   2.8250
     8.0628   8.0628   8.2335   8.2335   9.4989   9.4989   9.5649   9.5649
    10.2498  10.2498  11.6792  11.6792  12.2705  12.2705  12.2818  12.2818
    12.3042  12.3042  13.0055  13.0055  14.7162  14.7162  14.7988  14.7988
    16.1784  16.1784  16.5660  16.5660  16.8192  16.8192  21.0307  21.0307
    22.6409  22.6409  23.1062  23.1062  24.3043  24.3043  24.6039  24.6039
    25.2053  25.2053  25.3461  25.3461  25.4503  25.4503  25.6985  25.6985
    26.9350  26.9350  27.5639  27.5639  28.5353  28.5353  29.2087  29.2087

     occupation numbers 
     1.0000   1.0000   1.0000   1.0000   1.0000   1.0000   1.0000   1.0000
     1.0000   1.0000   1.0000   1.0000   1.0000   1.0000   1.0000   1.0000
     1.0000   1.0000   1.0000   1.0000   1.0000   1.0000   1.0000   1.0000
     1.0000   1.0000   1.0000   1.0000   1.0000   1.0000   1.0000   1.0000
     1.0000   1.0000   1.0000   1.0000   1.0000   1.0000   1.0000   1.0000
     1.0000   1.0000   1.0000   1.0000   1.0000   1.0000   1.0000   1.0000
     1.0000   1.0000   1.0000   1.0000   1.0000   1.0000   1.0000   1.0000
     1.0000   1.0000   1.0000   1.0000   1.0000   1.0000   1.0000   1.0000

          k = 0.0417 0.1250 0.3750 (  8289 PWs)   bands (ev):

    -0.9140  -0.9140   0.6096   0.6096   2.7061   2.7061   2.8806   2.8806
     7.6574   7.6574   7.7940   7.7940   9.8120   9.8120   9.9507   9.9507
    10.4774  10.4774  11.2137  11.2137  11.6013  11.6013  11.8114  11.8114
    12.9513  12.9513  13.7666  13.7666  14.3394  14.3394  15.3353  15.3353
    15.7232  15.7232  18.0311  18.0311  18.3235  18.3235  19.4772  19.4772
    23.4155  23.4155  23.5957  23.5957  23.8684  23.8684  23.9137  23.9137
    24.7820  24.7820  25.4280  25.4280  25.6756  25.6756  25.7862  25.7862
    26.9696  26.9696  27.2665  27.2665  28.6142  28.6142  29.2520  29.2520

     occupation numbers 
     1.0000   1.0000   1.0000   1.0000   1.0000   1.0000   1.0000   1.0000
     1.0000   1.0000   1.0000   1.0000   1.0000   1.0000   1.0000   1.0000
     1.0000   1.0000   1.0000   1.0000   1.0000   1.0000   1.0000   1.0000
     1.0000   1.0000   1.0000   1.0000   1.0000   1.0000   1.0000   1.0000
     1.0000   1.0000   1.0000   1.0000   1.0000   1.0000   1.0000   1.0000
     1.0000   1.0000   1.0000   1.0000   1.0000   1.0000   1.0000   1.0000
     1.0000   1.0000   1.0000   1.0000   1.0000   1.0000   1.0000   1.0000
     1.0000   1.0000   1.0000   1.0000   1.0000   1.0000   1.0000   1.0000

          k = 0.0417 0.1250 0.4583 (  8278 PWs)   bands (ev):

    -0.4758  -0.4758   0.0366   0.0366   2.8231   2.8231   2.8852   2.8852
     7.4676   7.4676   7.5190   7.5190  10.1959  10.1959  10.4182  10.4182
    10.5747  10.5747  10.9693  10.9693  10.9927  10.9927  11.3524  11.3524
    13.4139  13.4139  13.8708  13.8708  14.5742  14.5742  15.1955  15.1955
    16.3943  16.3943  17.8454  17.8454  19.4524  19.4524  19.6729  19.6729
    22.1311  22.1311  22.3622  22.3622  23.7957  23.7957  24.2317  24.2317
    25.3711  25.3711  26.1846  26.1846  26.3494  26.3494  26.6724  26.6724
    27.0231  27.0231  27.3237  27.3237  27.7232  27.7232  28.0337  28.0337

     occupation numbers 
     1.0000   1.0000   1.0000   1.0000   1.0000   1.0000   1.0000   1.0000
     1.0000   1.0000   1.0000   1.0000   1.0000   1.0000   1.0000   1.0000
     1.0000   1.0000   1.0000   1.0000   1.0000   1.0000   1.0000   1.0000
     1.0000   1.0000   1.0000   1.0000   1.0000   1.0000   1.0000   1.0000
     1.0000   1.0000   1.0000   1.0000   1.0000   1.0000   1.0000   1.0000
     1.0000   1.0000   1.0000   1.0000   1.0000   1.0000   1.0000   1.0000
     1.0000   1.0000   1.0000   1.0000   1.0000   1.0000   1.0000   1.0000
     1.0000   1.0000   1.0000   1.0000   1.0000   1.0000   1.0000   1.0000

          k = 0.0417 0.2083 0.2083 (  8288 PWs)   bands (ev):

    -1.3604  -1.3604   1.9419   1.9419   1.9422   1.9422   2.7831   2.7831
     8.0364   8.0364   8.7368   8.7368   8.7378   8.7378   9.4169   9.4169
    11.2058  11.2058  11.2061  11.2061  12.2819  12.2819  12.3168  12.3168
    12.3178  12.3178  13.1851  13.1851  14.9429  14.9429  15.5012  15.5012
    15.5955  15.5955  15.5961  15.5961  16.7888  16.7888  21.3607  21.3607
    22.9183  22.9183  23.5411  23.5411  23.5412  23.5412  24.0241  24.0241
    24.3897  24.3897  25.8771  25.8771  26.5694  26.5694  26.5695  26.5695
    26.8555  26.8555  27.2670  27.2670  27.3237  27.3237  28.9846  28.9846

     occupation numbers 
     1.0000   1.0000   1.0000   1.0000   1.0000   1.0000   1.0000   1.0000
     1.0000   1.0000   1.0000   1.0000   1.0000   1.0000   1.0000   1.0000
     1.0000   1.0000   1.0000   1.0000   1.0000   1.0000   1.0000   1.0000
     1.0000   1.0000   1.0000   1.0000   1.0000   1.0000   1.0000   1.0000
     1.0000   1.0000   1.0000   1.0000   1.0000   1.0000   1.0000   1.0000
     1.0000   1.0000   1.0000   1.0000   1.0000   1.0000   1.0000   1.0000
     1.0000   1.0000   1.0000   1.0000   1.0000   1.0000   1.0000   1.0000
     1.0000   1.0000   1.0000   1.0000   1.0000   1.0000   1.0000   1.0000

          k = 0.0417 0.2083 0.2917 (  8290 PWs)   bands (ev):

    -1.0925  -1.0925   1.3601   1.3601   2.1130   2.1130   2.8026   2.8026
     7.5336   7.5336   8.1548   8.1548   8.9236   8.9236   9.6544   9.6544
    11.2832  11.2832  11.5194  11.5194  11.9144  11.9144  12.2188  12.2188
    12.7613  12.7613  13.1822  13.1822  14.5428  14.5428  15.9191  15.9191
    16.3965  16.3965  16.7617  16.7617  17.0053  17.0053  21.3588  21.3588
    22.4304  22.4304  23.7677  23.7677  23.8548  23.8548  24.4373  24.4373
    24.8520  24.8520  25.2168  25.2168  25.7176  25.7176  25.7182  25.7182
    25.9851  25.9851  27.1963  27.1963  28.1084  28.1084  28.8732  28.8732

     occupation numbers 
     1.0000   1.0000   1.0000   1.0000   1.0000   1.0000   1.0000   1.0000
     1.0000   1.0000   1.0000   1.0000   1.0000   1.0000   1.0000   1.0000
     1.0000   1.0000   1.0000   1.0000   1.0000   1.0000   1.0000   1.0000
     1.0000   1.0000   1.0000   1.0000   1.0000   1.0000   1.0000   1.0000
     1.0000   1.0000   1.0000   1.0000   1.0000   1.0000   1.0000   1.0000
     1.0000   1.0000   1.0000   1.0000   1.0000   1.0000   1.0000   1.0000
     1.0000   1.0000   1.0000   1.0000   1.0000   1.0000   1.0000   1.0000
     1.0000   1.0000   1.0000   1.0000   1.0000   1.0000   1.0000   1.0000

          k = 0.0417 0.2083 0.3750 (  8284 PWs)   bands (ev):

    -0.7393  -0.7393   0.7644   0.7644   2.3133   2.3133   2.7754   2.7754
     7.2144   7.2144   7.6442   7.6442   9.2394   9.2394   9.9795   9.9795
    10.8169  10.8169  11.2260  11.2260  11.7461  11.7461  12.7521  12.7521
    12.8476  12.8476  13.8338  13.8338  14.0868  14.0868  16.4016  16.4016
    16.4369  16.4369  17.7070  17.7070  18.4812  18.4812  19.8196  19.8196
    23.1109  23.1109  23.4462  23.4462  23.9540  23.9540  24.0621  24.0621
    24.1983  24.1983  25.3481  25.3481  25.3956  25.3956  25.5656  25.5656
    26.4770  26.4770  27.4235  27.4235  28.3473  28.3473  29.0311  29.0311

     occupation numbers 
     1.0000   1.0000   1.0000   1.0000   1.0000   1.0000   1.0000   1.0000
     1.0000   1.0000   1.0000   1.0000   1.0000   1.0000   1.0000   1.0000
     1.0000   1.0000   1.0000   1.0000   1.0000   1.0000   1.0000   1.0000
     1.0000   1.0000   1.0000   1.0000   1.0000   1.0000   1.0000   1.0000
     1.0000   1.0000   1.0000   1.0000   1.0000   1.0000   1.0000   1.0000
     1.0000   1.0000   1.0000   1.0000   1.0000   1.0000   1.0000   1.0000
     1.0000   1.0000   1.0000   1.0000   1.0000   1.0000   1.0000   1.0000
     1.0000   1.0000   1.0000   1.0000   1.0000   1.0000   1.0000   1.0000

          k = 0.0417 0.2083 0.4583 (  8267 PWs)   bands (ev):

    -0.3054  -0.3054   0.2007   0.2007   2.5138   2.5138   2.6779   2.6779
     7.1301   7.1301   7.2845   7.2845   9.6670   9.6670  10.1957  10.1957
    10.3729  10.3729  10.8116  10.8116  12.0302  12.0302  12.4290  12.4290
    13.1737  13.1737  13.6208  13.6208  14.9861  14.9861  15.8623  15.8623
    17.1566  17.1566  18.3238  18.3238  19.1153  19.1153  19.6950  19.6950
    21.7856  21.7856  22.3892  22.3892  24.2367  24.2367  24.3955  24.3955
    24.8323  24.8323  24.8573  24.8573  25.3088  25.3088  26.7710  26.7710
    26.7952  26.7952  27.6276  27.6276  27.8400  27.8400  28.1647  28.1647

     occupation numbers 
     1.0000   1.0000   1.0000   1.0000   1.0000   1.0000   1.0000   1.0000
     1.0000   1.0000   1.0000   1.0000   1.0000   1.0000   1.0000   1.0000
     1.0000   1.0000   1.0000   1.0000   1.0000   1.0000   1.0000   1.0000
     1.0000   1.0000   1.0000   1.0000   1.0000   1.0000   1.0000   1.0000
     1.0000   1.0000   1.0000   1.0000   1.0000   1.0000   1.0000   1.0000
     1.0000   1.0000   1.0000   1.0000   1.0000   1.0000   1.0000   1.0000
     1.0000   1.0000   1.0000   1.0000   1.0000   1.0000   1.0000   1.0000
     1.0000   1.0000   1.0000   1.0000   1.0000   1.0000   1.0000   1.0000

          k = 0.0417 0.2917 0.2917 (  8287 PWs)   bands (ev):

    -0.8279  -0.8279   1.5632   1.5632   1.5634   1.5634   2.7314   2.7314
     7.1255   7.1255   8.2654   8.2654   8.2664   8.2664   9.9040   9.9040
    10.7518  10.7518  11.9829  11.9829  11.9838  11.9838  12.7326  12.7326
    12.7328  12.7328  13.8507  13.8507  14.1400  14.1400  16.5802  16.5802
    17.1118  17.1118  17.2880  17.2880  17.2886  17.2886  21.5538  21.5538
    22.3214  22.3214  22.6926  22.6926  24.2276  24.2276  24.2276  24.2276
    24.6996  24.6996  24.6998  24.6998  25.0975  25.0975  26.0130  26.0130
    26.1707  26.1707  27.7025  27.7025  27.8858  27.8858  28.0932  28.0932

     occupation numbers 
     1.0000   1.0000   1.0000   1.0000   1.0000   1.0000   1.0000   1.0000
     1.0000   1.0000   1.0000   1.0000   1.0000   1.0000   1.0000   1.0000
     1.0000   1.0000   1.0000   1.0000   1.0000   1.0000   1.0000   1.0000
     1.0000   1.0000   1.0000   1.0000   1.0000   1.0000   1.0000   1.0000
     1.0000   1.0000   1.0000   1.0000   1.0000   1.0000   1.0000   1.0000
     1.0000   1.0000   1.0000   1.0000   1.0000   1.0000   1.0000   1.0000
     1.0000   1.0000   1.0000   1.0000   1.0000   1.0000   1.0000   1.0000
     1.0000   1.0000   1.0000   1.0000   1.0000   1.0000   1.0000   1.0000

          k = 0.0417 0.2917 0.3750 (  8291 PWs)   bands (ev):

    -0.4796  -0.4796   0.9906   0.9906   1.8148   1.8148   2.5851   2.5851
     6.9317   6.9317   7.6876   7.6876   8.5328   8.5328  10.0518  10.0518
    10.2336  10.2336  11.5487  11.5487  12.3595  12.3595  12.9608  12.9608
    13.6786  13.6786  13.9267  13.9267  14.0383  14.0383  17.0228  17.0228
    17.4545  17.4545  17.6828  17.6828  18.7093  18.7093  20.3391  20.3391
    22.4730  22.4730  22.5719  22.5719  23.3064  23.3064  23.6702  23.6702
    23.9232  23.9232  24.9625  24.9625  25.7623  25.7623  25.9892  25.9892
    26.8680  26.8680  27.7620  27.7620  27.7974  27.7974  28.3511  28.3511

     occupation numbers 
     1.0000   1.0000   1.0000   1.0000   1.0000   1.0000   1.0000   1.0000
     1.0000   1.0000   1.0000   1.0000   1.0000   1.0000   1.0000   1.0000
     1.0000   1.0000   1.0000   1.0000   1.0000   1.0000   1.0000   1.0000
     1.0000   1.0000   1.0000   1.0000   1.0000   1.0000   1.0000   1.0000
     1.0000   1.0000   1.0000   1.0000   1.0000   1.0000   1.0000   1.0000
     1.0000   1.0000   1.0000   1.0000   1.0000   1.0000   1.0000   1.0000
     1.0000   1.0000   1.0000   1.0000   1.0000   1.0000   1.0000   1.0000
     1.0000   1.0000   1.0000   1.0000   1.0000   1.0000   1.0000   1.0000

          k = 0.0417 0.2917 0.4583 (  8268 PWs)   bands (ev):

    -0.0530  -0.0530   0.4425   0.4425   2.0923   2.0923   2.3624   2.3624
     6.9777   6.9777   7.2432   7.2432   8.9297   8.9297   9.4401   9.4401
    10.6307  10.6307  11.0782  11.0782  12.7634  12.7634  13.2091  13.2091
    13.2916  13.2916  13.6504  13.6504  15.3518  15.3518  16.4249  16.4249
    18.2415  18.2415  18.7384  18.7384  19.0978  19.0978  19.6554  19.6554
    21.5096  21.5096  22.4568  22.4568  22.7471  22.7471  23.1603  23.1603
    24.5589  24.5589  25.2462  25.2462  25.7355  25.7355  26.2011  26.2011
    26.9390  26.9390  27.3965  27.3965  28.1313  28.1313  28.1381  28.1381

     occupation numbers 
     1.0000   1.0000   1.0000   1.0000   1.0000   1.0000   1.0000   1.0000
     1.0000   1.0000   1.0000   1.0000   1.0000   1.0000   1.0000   1.0000
     1.0000   1.0000   1.0000   1.0000   1.0000   1.0000   1.0000   1.0000
     1.0000   1.0000   1.0000   1.0000   1.0000   1.0000   1.0000   1.0000
     1.0000   1.0000   1.0000   1.0000   1.0000   1.0000   1.0000   1.0000
     1.0000   1.0000   1.0000   1.0000   1.0000   1.0000   1.0000   1.0000
     1.0000   1.0000   1.0000   1.0000   1.0000   1.0000   1.0000   1.0000
     1.0000   1.0000   1.0000   1.0000   1.0000   1.0000   1.0000   1.0000

          k = 0.0417 0.3750 0.3750 (  8281 PWs)   bands (ev):

    -0.1388  -0.1388   1.2787   1.2787   1.2790   1.2790   2.3066   2.3066
     6.8753   6.8753   7.9048   7.9048   7.9058   7.9058   9.3583   9.3583
    10.5654  10.5654  11.8906  11.8906  11.8917  11.8917  13.2114  13.2114
    14.3185  14.3185  14.3190  14.3190  14.6941  14.6941  17.1992  17.1992
    17.6204  17.6204  19.0013  19.0013  19.0020  19.0020  20.7186  20.7186
    21.2370  21.2370  22.0677  22.0677  22.0678  22.0678  23.4220  23.4220
    23.4995  23.4995  25.9776  25.9776  25.9778  25.9778  26.3345  26.3345
    26.4815  26.4815  27.1858  27.1858  27.1861  27.1861  28.2717  28.2717

     occupation numbers 
     1.0000   1.0000   1.0000   1.0000   1.0000   1.0000   1.0000   1.0000
     1.0000   1.0000   1.0000   1.0000   1.0000   1.0000   1.0000   1.0000
     1.0000   1.0000   1.0000   1.0000   1.0000   1.0000   1.0000   1.0000
     1.0000   1.0000   1.0000   1.0000   1.0000   1.0000   1.0000   1.0000
     1.0000   1.0000   1.0000   1.0000   1.0000   1.0000   1.0000   1.0000
     1.0000   1.0000   1.0000   1.0000   1.0000   1.0000   1.0000   1.0000
     1.0000   1.0000   1.0000   1.0000   1.0000   1.0000   1.0000   1.0000
     1.0000   1.0000   1.0000   1.0000   1.0000   1.0000   1.0000   1.0000

          k = 0.0417 0.3750 0.4583 (  8273 PWs)   bands (ev):

     0.2766   0.2766   0.7555   0.7555   1.6133   1.6133   1.9684   1.9684
     7.0415   7.0415   7.3970   7.3970   8.2696   8.2696   8.7592   8.7592
    10.9638  10.9638  11.4135  11.4135  12.2908  12.2908  12.7378  12.7378
    14.6216  14.6216  14.8396  14.8396  15.6586  15.6586  16.7345  16.7345
    18.4908  18.4908  19.3745  19.3745  19.5344  19.5344  19.9436  19.9436
    21.3543  21.3543  21.3956  21.3956  21.6580  21.6580  22.4555  22.4555
    24.2301  24.2301  25.4824  25.4824  26.2197  26.2197  26.4229  26.4229
    26.4743  26.4743  26.5716  26.5716  27.3319  27.3319  28.4384  28.4384

     occupation numbers 
     1.0000   1.0000   1.0000   1.0000   1.0000   1.0000   1.0000   1.0000
     1.0000   1.0000   1.0000   1.0000   1.0000   1.0000   1.0000   1.0000
     1.0000   1.0000   1.0000   1.0000   1.0000   1.0000   1.0000   1.0000
     1.0000   1.0000   1.0000   1.0000   1.0000   1.0000   1.0000   1.0000
     1.0000   1.0000   1.0000   1.0000   1.0000   1.0000   1.0000   1.0000
     1.0000   1.0000   1.0000   1.0000   1.0000   1.0000   1.0000   1.0000
     1.0000   1.0000   1.0000   1.0000   1.0000   1.0000   1.0000   1.0000
     1.0000   1.0000   1.0000   1.0000   1.0000   1.0000   1.0000   1.0000

          k = 0.0417 0.4583 0.4583 (  8277 PWs)   bands (ev):

     0.6752   0.6752   1.1285   1.1285   1.1287   1.1287   1.5429   1.5429
     7.2991   7.2991   7.7173   7.7173   7.7183   7.7183   8.1788   8.1788
    11.3626  11.3626  11.8118  11.8118  11.8129  11.8129  12.2610  12.2610
    15.6650  15.6650  15.8475  15.8475  15.8481  15.8481  16.6231  16.6231
    18.6946  18.6946  19.4853  19.4853  19.4855  19.4855  19.8363  19.8363
    21.1130  21.1130  21.3457  21.3457  21.3465  21.3465  22.1079  22.1079
    24.3681  24.3681  25.2046  25.2046  25.2048  25.2048  25.3589  25.3589
    27.2270  27.2270  27.4045  27.4045  27.4048  27.4048  28.1997  28.1997

     occupation numbers 
     1.0000   1.0000   1.0000   1.0000   1.0000   1.0000   1.0000   1.0000
     1.0000   1.0000   1.0000   1.0000   1.0000   1.0000   1.0000   1.0000
     1.0000   1.0000   1.0000   1.0000   1.0000   1.0000   1.0000   1.0000
     1.0000   1.0000   1.0000   1.0000   1.0000   1.0000   1.0000   1.0000
     1.0000   1.0000   1.0000   1.0000   1.0000   1.0000   1.0000   1.0000
     1.0000   1.0000   1.0000   1.0000   1.0000   1.0000   1.0000   1.0000
     1.0000   1.0000   1.0000   1.0000   1.0000   1.0000   1.0000   1.0000
     1.0000   1.0000   1.0000   1.0000   1.0000   1.0000   1.0000   1.0000

          k = 0.1250 0.1250 0.1250 (  8283 PWs)   bands (ev):

    -1.6306  -1.6306   2.3814   2.3814   2.3818   2.3818   2.3818   2.3818
     8.8092   8.8092   8.8093   8.8093   8.8106   8.8106  10.2076  10.2076
    10.2077  10.2077  10.2080  10.2080  12.7987  12.7987  12.7994  12.7994
    12.7997  12.7997  13.2187  13.2187  14.4275  14.4275  14.4277  14.4277
    14.4288  14.4288  15.5969  15.5969  16.6518  16.6518  20.3749  20.3749
    23.0832  23.0832  23.0832  23.0832  23.0833  23.0833  24.1575  24.1575
    25.2643  25.2643  25.7100  25.7100  26.8809  26.8810  27.3365  27.3365
    27.4124  27.4124  28.2503  28.2503  28.2510  28.2510  28.2512  28.2512

     occupation numbers 
     1.0000   1.0000   1.0000   1.0000   1.0000   1.0000   1.0000   1.0000
     1.0000   1.0000   1.0000   1.0000   1.0000   1.0000   1.0000   1.0000
     1.0000   1.0000   1.0000   1.0000   1.0000   1.0000   1.0000   1.0000
     1.0000   1.0000   1.0000   1.0000   1.0000   1.0000   1.0000   1.0000
     1.0000   1.0000   1.0000   1.0000   1.0000   1.0000   1.0000   1.0000
     1.0000   1.0000   1.0000   1.0000   1.0000   1.0000   1.0000   1.0000
     1.0000   1.0000   1.0000   1.0000   1.0000   1.0000   1.0000   1.0000
     1.0000   1.0000   1.0000   1.0000   1.0000   1.0000   1.0000   1.0000

          k = 0.1250 0.1250 0.2083 (  8291 PWs)   bands (ev):

    -1.4503  -1.4503   1.8794   1.8794   2.4692   2.4692   2.4695   2.4695
     8.3573   8.3573   8.3585   8.3585   8.8933   8.8933  10.1040  10.1040
    10.1042  10.1042  11.1478  11.1478  12.4796  12.4796  12.7340  12.7340
    12.7344  12.7344  12.9904  12.9904  14.6545  14.6545  15.3557  15.3557
    15.3567  15.3567  15.4207  15.4207  16.5809  16.5809  20.9916  20.9916
    23.1822  23.1822  23.2368  23.2368  23.7660  23.7660  23.7660  23.7660
    24.9104  24.9104  25.6537  25.6537  26.6307  26.6307  27.0259  27.0259
    27.0268  27.0268  27.7993  27.7993  27.8180  27.8180  28.0556  28.0556

     occupation numbers 
     1.0000   1.0000   1.0000   1.0000   1.0000   1.0000   1.0000   1.0000
     1.0000   1.0000   1.0000   1.0000   1.0000   1.0000   1.0000   1.0000
     1.0000   1.0000   1.0000   1.0000   1.0000   1.0000   1.0000   1.0000
     1.0000   1.0000   1.0000   1.0000   1.0000   1.0000   1.0000   1.0000
     1.0000   1.0000   1.0000   1.0000   1.0000   1.0000   1.0000   1.0000
     1.0000   1.0000   1.0000   1.0000   1.0000   1.0000   1.0000   1.0000
     1.0000   1.0000   1.0000   1.0000   1.0000   1.0000   1.0000   1.0000
     1.0000   1.0000   1.0000   1.0000   1.0000   1.0000   1.0000   1.0000

          k = 0.1250 0.1250 0.2917 (  8296 PWs)   bands (ev):

    -1.1814  -1.1814   1.2885   1.2885   2.5797   2.5797   2.5801   2.5801
     7.8324   7.8324   7.8337   7.8337   9.1131   9.1131  10.2437  10.2437
    10.2440  10.2440  11.7335  11.7335  12.2245  12.2245  12.3711  12.3711
    12.3716  12.3716  13.3031  13.3031  15.0273  15.0273  15.0739  15.0739
    16.3003  16.3003  16.6602  16.6602  16.6612  16.6612  21.1317  21.1317
    22.4438  22.4438  23.4642  23.4642  24.6539  24.6539  24.6540  24.6540
    25.0033  25.0033  25.4107  25.4107  25.4116  25.4116  25.5862  25.5862
    26.4043  26.4043  27.2580  27.2580  28.4581  28.4581  28.7403  28.7403

     occupation numbers 
     1.0000   1.0000   1.0000   1.0000   1.0000   1.0000   1.0000   1.0000
     1.0000   1.0000   1.0000   1.0000   1.0000   1.0000   1.0000   1.0000
     1.0000   1.0000   1.0000   1.0000   1.0000   1.0000   1.0000   1.0000
     1.0000   1.0000   1.0000   1.0000   1.0000   1.0000   1.0000   1.0000
     1.0000   1.0000   1.0000   1.0000   1.0000   1.0000   1.0000   1.0000
     1.0000   1.0000   1.0000   1.0000   1.0000   1.0000   1.0000   1.0000
     1.0000   1.0000   1.0000   1.0000   1.0000   1.0000   1.0000   1.0000
     1.0000   1.0000   1.0000   1.0000   1.0000   1.0000   1.0000   1.0000

          k = 0.1250 0.1250 0.3750 (  8282 PWs)   bands (ev):

    -0.8268  -0.8268   0.6865   0.6865   2.6854   2.6854   2.6859   2.6859
     7.4090   7.4090   7.4104   7.4104   9.4480   9.4480  10.5103  10.5103
    10.5107  10.5107  11.0385  11.0385  11.9273  11.9273  11.9278  11.9278
    13.1508  13.1508  13.8598  13.8598  14.6465  14.6465  15.6313  15.6313
    15.8594  15.8594  18.1141  18.1141  18.1150  18.1150  19.6047  19.6047
    23.5188  23.5188  23.6150  23.6150  23.6161  23.6161  23.7594  23.7594
    25.1203  25.1203  25.4187  25.4187  25.8454  25.8454  25.8454  25.8454
    26.6177  26.6177  26.6939  26.6939  27.6826  27.6826  29.0212  29.0212

     occupation numbers 
     1.0000   1.0000   1.0000   1.0000   1.0000   1.0000   1.0000   1.0000
     1.0000   1.0000   1.0000   1.0000   1.0000   1.0000   1.0000   1.0000
     1.0000   1.0000   1.0000   1.0000   1.0000   1.0000   1.0000   1.0000
     1.0000   1.0000   1.0000   1.0000   1.0000   1.0000   1.0000   1.0000
     1.0000   1.0000   1.0000   1.0000   1.0000   1.0000   1.0000   1.0000
     1.0000   1.0000   1.0000   1.0000   1.0000   1.0000   1.0000   1.0000
     1.0000   1.0000   1.0000   1.0000   1.0000   1.0000   1.0000   1.0000
     1.0000   1.0000   1.0000   1.0000   1.0000   1.0000   1.0000   1.0000

          k = 0.1250 0.1250 0.4583 (  8283 PWs)   bands (ev):

    -0.3908  -0.3908   0.1183   0.1183   2.7517   2.7517   2.7522   2.7522
     7.1755   7.1755   7.1770   7.1770   9.8859   9.8859  10.4186  10.4186
    10.8085  10.8085  10.8094  10.8094  11.5324  11.5324  11.5335  11.5335
    13.7198  13.7198  14.1898  14.1898  14.6431  14.6431  15.3121  15.3121
    16.6218  16.6218  18.0074  18.0074  19.4935  19.4935  19.4943  19.4943
    22.1074  22.1074  22.1086  22.1086  24.1037  24.1037  24.3548  24.3548
    25.2929  25.2929  25.7722  25.7722  26.1330  26.1330  26.6519  26.6519
    27.0689  27.0689  27.0690  27.0690  27.0903  27.0903  27.8168  27.8168

     occupation numbers 
     1.0000   1.0000   1.0000   1.0000   1.0000   1.0000   1.0000   1.0000
     1.0000   1.0000   1.0000   1.0000   1.0000   1.0000   1.0000   1.0000
     1.0000   1.0000   1.0000   1.0000   1.0000   1.0000   1.0000   1.0000
     1.0000   1.0000   1.0000   1.0000   1.0000   1.0000   1.0000   1.0000
     1.0000   1.0000   1.0000   1.0000   1.0000   1.0000   1.0000   1.0000
     1.0000   1.0000   1.0000   1.0000   1.0000   1.0000   1.0000   1.0000
     1.0000   1.0000   1.0000   1.0000   1.0000   1.0000   1.0000   1.0000
     1.0000   1.0000   1.0000   1.0000   1.0000   1.0000   1.0000   1.0000

[...]
     1.0000   1.0000   1.0000   1.0000   1.0000   1.0000   1.0000   1.0000
     1.0000   1.0000   1.0000   1.0000   1.0000   1.0000   1.0000   1.0000
     1.0000   1.0000   1.0000   1.0000   1.0000   1.0000   1.0000   1.0000
     1.0000   1.0000   1.0000   1.0000   1.0000   1.0000   1.0000   1.0000
     1.0000   1.0000   1.0000   1.0000   1.0000   1.0000   1.0000   1.0000
     1.0000   1.0000   1.0000   1.0000   1.0000   1.0000   1.0000   1.0000

          k = 0.2917 0.2917 0.4583 (  8260 PWs)   bands (ev):

     0.4191   0.4191   0.8768   0.8768   2.0563   2.0563   2.0569   2.0569
     5.9350   5.9350   5.9365   5.9365   7.1221   7.1221   7.5822   7.5822
    13.3360  13.3360  13.3369  13.3369  14.3815  14.3815  14.3827  14.3827
    14.7804  14.7804  15.2293  15.2293  15.6239  15.6239  16.4480  16.4480
    18.3034  18.3034  19.1481  19.1481  19.1489  19.1489  19.2747  19.2747
    21.3215  21.3215  21.3226  21.3226  22.4172  22.4172  22.7023  22.7023
    22.8843  22.8843  23.6123  23.6123  24.6509  24.6509  25.3023  25.3023
    25.3032  25.3032  25.4854  25.4854  27.1790  27.1790  27.1801  27.1801

     occupation numbers 
     1.0000   1.0000   1.0000   1.0000   1.0000   1.0000   1.0000   1.0000
     1.0000   1.0000   1.0000   1.0000   1.0000   1.0000   1.0000   1.0000
     1.0000   1.0000   1.0000   1.0000   1.0000   1.0000   1.0000   1.0000
     1.0000   1.0000   1.0000   1.0000   1.0000   1.0000   1.0000   1.0000
     1.0000   1.0000   1.0000   1.0000   1.0000   1.0000   1.0000   1.0000
     1.0000   1.0000   1.0000   1.0000   1.0000   1.0000   1.0000   1.0000
     1.0000   1.0000   1.0000   1.0000   1.0000   1.0000   1.0000   1.0000
     1.0000   1.0000   1.0000   1.0000   1.0000   1.0000   1.0000   1.0000

          k = 0.2917 0.3750 0.3750 (  8261 PWs)   bands (ev):

     0.3357   0.3357   1.5743   1.5743   1.5748   1.5748   1.9924   1.9924
     5.8443   5.8443   6.2629   6.2629   6.2642   6.2642   7.5077   7.5077
    13.4587  13.4587  14.1820  14.1820  14.1825  14.1825  15.0541  15.0541
    15.0544  15.0544  15.2001  15.2001  15.5551  15.5551  17.0205  17.0205
    18.1911  18.1911  18.4025  18.4025  18.4034  18.4034  20.5098  20.5098
    21.4345  21.4345  21.7966  21.7966  22.1786  22.1786  22.1789  22.1789
    22.3774  22.3774  24.0370  24.0370  24.2450  24.2450  24.3044  24.3044
    24.3046  24.3046  26.1727  26.1727  26.1734  26.1734  26.8225  26.8225

     occupation numbers 
     1.0000   1.0000   1.0000   1.0000   1.0000   1.0000   1.0000   1.0000
     1.0000   1.0000   1.0000   1.0000   1.0000   1.0000   1.0000   1.0000
     1.0000   1.0000   1.0000   1.0000   1.0000   1.0000   1.0000   1.0000
     1.0000   1.0000   1.0000   1.0000   1.0000   1.0000   1.0000   1.0000
     1.0000   1.0000   1.0000   1.0000   1.0000   1.0000   1.0000   1.0000
     1.0000   1.0000   1.0000   1.0000   1.0000   1.0000   1.0000   1.0000
     1.0000   1.0000   1.0000   1.0000   1.0000   1.0000   1.0000   1.0000
     1.0000   1.0000   1.0000   1.0000   1.0000   1.0000   1.0000   1.0000

          k = 0.2917 0.3750 0.4583 (  8257 PWs)   bands (ev):

     0.7162   0.7162   1.1396   1.1396   1.7770   1.7770   1.9278   1.9278
     5.7424   5.7424   5.8936   5.8936   6.5334   6.5334   6.9582   6.9582
    13.7917  13.7917  14.0733  14.0733  14.8084  14.8084  15.2309  15.2309
    15.2345  15.2345  15.3701  15.3701  15.9999  15.9999  16.7971  16.7971
    18.9426  18.9426  18.9790  18.9790  19.3708  19.3708  19.7229  19.7229
    20.9464  20.9464  21.3611  21.3611  21.4062  21.4062  21.7277  21.7277
    22.3292  22.3292  23.2936  23.2936  24.0796  24.0796  24.2170  24.2170
    24.4483  24.4483  25.1505  25.1505  26.0775  26.0775  26.3351  26.3351

     occupation numbers 
     1.0000   1.0000   1.0000   1.0000   1.0000   1.0000   1.0000   1.0000
     1.0000   1.0000   1.0000   1.0000   1.0000   1.0000   1.0000   1.0000
     1.0000   1.0000   1.0000   1.0000   1.0000   1.0000   1.0000   1.0000
     1.0000   1.0000   1.0000   1.0000   1.0000   1.0000   1.0000   1.0000
     1.0000   1.0000   1.0000   1.0000   1.0000   1.0000   1.0000   1.0000
     1.0000   1.0000   1.0000   1.0000   1.0000   1.0000   1.0000   1.0000
     1.0000   1.0000   1.0000   1.0000   1.0000   1.0000   1.0000   1.0000
     1.0000   1.0000   1.0000   1.0000   1.0000   1.0000   1.0000   1.0000

          k = 0.2917 0.4583 0.4583 (  8258 PWs)   bands (ev):

     1.0619   1.0619   1.4289   1.4289   1.4294   1.4294   1.7077   1.7077
     5.7963   5.7963   6.0749   6.0749   6.0762   6.0762   6.4439   6.4439
    14.1791  14.1791  14.5382  14.5382  14.5391  14.5391  14.9318  14.9318
    16.1065  16.1065  16.2531  16.2531  16.2538  16.2538  16.8577  16.8577
    19.2005  19.2005  19.6466  19.6466  19.6473  19.6473  20.0716  20.0716
    20.5710  20.5710  20.7088  20.7088  20.7094  20.7094  21.1157  21.1157
    22.3568  22.3568  23.0863  23.0863  23.0864  23.0864  23.2067  23.2067
    24.7371  24.7371  25.2847  25.2847  25.2854  25.2854  25.7096  25.7096

     occupation numbers 
     1.0000   1.0000   1.0000   1.0000   1.0000   1.0000   1.0000   1.0000
     1.0000   1.0000   1.0000   1.0000   1.0000   1.0000   1.0000   1.0000
     1.0000   1.0000   1.0000   1.0000   1.0000   1.0000   1.0000   1.0000
     1.0000   1.0000   1.0000   1.0000   1.0000   1.0000   1.0000   1.0000
     1.0000   1.0000   1.0000   1.0000   1.0000   1.0000   1.0000   1.0000
     1.0000   1.0000   1.0000   1.0000   1.0000   1.0000   1.0000   1.0000
     1.0000   1.0000   1.0000   1.0000   1.0000   1.0000   1.0000   1.0000
     1.0000   1.0000   1.0000   1.0000   1.0000   1.0000   1.0000   1.0000

          k = 0.3750 0.3750 0.3750 (  8258 PWs)   bands (ev):

     0.6347   0.6347   1.7067   1.7067   1.7075   1.7075   1.7075   1.7075
     5.8070   5.8070   5.8070   5.8070   5.8091   5.8091   6.8830   6.8830
    14.6312  14.6312  14.6318  14.6318  14.6321  14.6321  15.5888  15.5888
    15.5895  15.5895  15.5899  15.5899  15.9462  15.9462  17.0677  17.0677
    18.5832  18.5832  18.5832  18.5832  18.5847  18.5847  20.3943  20.3943
    21.2142  21.2142  21.5720  21.5720  21.8904  21.8904  21.8914  21.8914
    21.8917  21.8917  23.3620  23.3620  23.4055  23.4055  23.4061  23.4061
    23.4063  23.4063  25.4261  25.4261  25.4262  25.4262  25.4274  25.4274

     occupation numbers 
     1.0000   1.0000   1.0000   1.0000   1.0000   1.0000   1.0000   1.0000
     1.0000   1.0000   1.0000   1.0000   1.0000   1.0000   1.0000   1.0000
     1.0000   1.0000   1.0000   1.0000   1.0000   1.0000   1.0000   1.0000
     1.0000   1.0000   1.0000   1.0000   1.0000   1.0000   1.0000   1.0000
     1.0000   1.0000   1.0000   1.0000   1.0000   1.0000   1.0000   1.0000
     1.0000   1.0000   1.0000   1.0000   1.0000   1.0000   1.0000   1.0000
     1.0000   1.0000   1.0000   1.0000   1.0000   1.0000   1.0000   1.0000
     1.0000   1.0000   1.0000   1.0000   1.0000   1.0000   1.0000   1.0000

          k = 0.3750 0.3750 0.4583 (  8276 PWs)   bands (ev):

     0.9831   0.9831   1.3543   1.3543   1.7924   1.7924   1.7930   1.7930
     5.5546   5.5546   5.5561   5.5561   5.9947   5.9947   6.3666   6.3666
    14.8525  14.8525  14.8533  14.8533  15.4193  15.4193  15.8116  15.8116
    15.8268  15.8268  15.8278  15.8278  16.2826  16.2826  16.9411  16.9411
    19.1134  19.1134  19.2764  19.2764  19.2774  19.2774  19.8177  19.8177
    20.9457  20.9457  20.9468  20.9468  21.1530  21.1530  21.4573  21.4573
    21.8395  21.8395  22.5512  22.5512  23.2017  23.2017  23.2026  23.2026
    23.5738  23.5738  24.3043  24.3043  25.0186  25.0186  25.0196  25.0196

     occupation numbers 
     1.0000   1.0000   1.0000   1.0000   1.0000   1.0000   1.0000   1.0000
     1.0000   1.0000   1.0000   1.0000   1.0000   1.0000   1.0000   1.0000
     1.0000   1.0000   1.0000   1.0000   1.0000   1.0000   1.0000   1.0000
     1.0000   1.0000   1.0000   1.0000   1.0000   1.0000   1.0000   1.0000
     1.0000   1.0000   1.0000   1.0000   1.0000   1.0000   1.0000   1.0000
     1.0000   1.0000   1.0000   1.0000   1.0000   1.0000   1.0000   1.0000
     1.0000   1.0000   1.0000   1.0000   1.0000   1.0000   1.0000   1.0000
     1.0000   1.0000   1.0000   1.0000   1.0000   1.0000   1.0000   1.0000

          k = 0.3750 0.4583 0.4583 (  8267 PWs)   bands (ev):

     1.2785   1.2785   1.5643   1.5643   1.5648   1.5648   1.7231   1.7231
     5.4584   5.4584   5.6165   5.6165   5.6179   5.6179   5.9036   5.9036
    15.2710  15.2710  15.4884  15.4884  15.4891  15.4891  15.8042  15.8042
    16.4390  16.4390  16.5625  16.5625  16.5631  16.5631  17.0399  17.0399
    19.4843  19.4843  19.6270  19.6270  19.6279  19.6279  19.9395  19.9395
    20.6233  20.6233  20.6531  20.6531  20.6536  20.6536  20.7347  20.7347
    21.7846  21.7846  22.3215  22.3215  22.3217  22.3217  22.4410  22.4410
    23.5256  23.5256  24.0589  24.0589  24.0596  24.0596  24.3419  24.3419

     occupation numbers 
     1.0000   1.0000   1.0000   1.0000   1.0000   1.0000   1.0000   1.0000
     1.0000   1.0000   1.0000   1.0000   1.0000   1.0000   1.0000   1.0000
     1.0000   1.0000   1.0000   1.0000   1.0000   1.0000   1.0000   1.0000
     1.0000   1.0000   1.0000   1.0000   1.0000   1.0000   1.0000   1.0000
     1.0000   1.0000   1.0000   1.0000   1.0000   1.0000   1.0000   1.0000
     1.0000   1.0000   1.0000   1.0000   1.0000   1.0000   1.0000   1.0000
     1.0000   1.0000   1.0000   1.0000   1.0000   1.0000   1.0000   1.0000
     1.0000   1.0000   1.0000   1.0000   1.0000   1.0000   1.0000   1.0000

          k = 0.4583 0.4583 0.4583 (  8234 PWs)   bands (ev):

     1.4911   1.4911   1.6514   1.6514   1.6524   1.6524   1.6524   1.6524
     5.3621   5.3621   5.3621   5.3621   5.3644   5.3644   5.5239   5.5239
    15.9467  15.9467  15.9474  15.9474  15.9479  15.9479  16.1248  16.1248
    16.9639  16.9639  16.9644  16.9644  16.9650  16.9650  17.2498  17.2498
    19.7014  19.7014  19.7015  19.7015  19.7031  19.7031  19.7934  19.7934
    20.5211  20.5211  20.5220  20.5220  20.5224  20.5224  20.5777  20.5777
    21.5493  21.5493  21.8025  21.8025  21.8032  21.8032  21.8035  21.8035
    23.0003  23.0003  23.3545  23.3545  23.3546  23.3546  23.3557  23.3557

     occupation numbers 
     1.0000   1.0000   1.0000   1.0000   1.0000   1.0000   1.0000   1.0000
     1.0000   1.0000   1.0000   1.0000   1.0000   1.0000   1.0000   1.0000
     1.0000   1.0000   1.0000   1.0000   1.0000   1.0000   1.0000   1.0000
     1.0000   1.0000   1.0000   1.0000   1.0000   1.0000   1.0000   1.0000
     1.0000   1.0000   1.0000   1.0000   1.0000   1.0000   1.0000   1.0000
     1.0000   1.0000   1.0000   1.0000   1.0000   1.0000   1.0000   1.0000
     1.0000   1.0000   1.0000   1.0000   1.0000   1.0000   1.0000   1.0000
     1.0000   1.0000   1.0000   1.0000   1.0000   1.0000   1.0000   1.0000

     highest occupied level (ev):    29.6549

!    total energy              =   -3131.16179357 Ry
     Harris-Foulkes estimate   =   -3131.16179414 Ry
     estimated scf accuracy    <       0.00000089 Ry

     total all-electron energy =   -119218.217921 Ry

     The total energy is the sum of the following terms:

     one-electron contribution =     153.67793359 Ry
     hartree contribution      =       5.41717480 Ry
     xc contribution           =    -157.41103737 Ry
     ewald contribution        =    -332.73169529 Ry
     one-center paw contrib.   =   -2800.11416930 Ry
      -> PAW hartree energy AE =      42.88625642 Ry
      -> PAW hartree energy PS =     -42.77326103 Ry
      -> PAW xc energy AE      =    -381.08363170 Ry
      -> PAW xc energy PS      =      22.83817689 Ry
      -> total E_H with PAW    =       5.53017019 Ry
      -> total E_XC with PAW   =    -515.65649217 Ry

     convergence has been achieved in  16 iterations

     Forces acting on atoms (cartesian axes, Ry/au):

     atom    1 type  1   force =     0.00000000    0.00000000    0.00000000
     atom    2 type  1   force =     0.00000000    0.00000000    0.00000000
     atom    3 type  1   force =     0.00000000   -0.00000000    0.00000000
     atom    4 type  1   force =     0.00000000   -0.00000000    0.00000000
     atom    5 type  2   force =     0.00000000    0.00000000    0.00000000
     atom    6 type  2   force =     0.00000000    0.00000000    0.00000000
     atom    7 type  2   force =     0.00000000    0.00000000   -0.00000000
     atom    8 type  2   force =     0.00000000    0.00000000   -0.00000000
     The non-local contrib.  to forces
     atom    1 type  1   force =     0.00000000    0.00000000    0.00000000
     atom    2 type  1   force =     0.00000000    0.00000000    0.00000000
     atom    3 type  1   force =     0.00000000    0.00000000    0.00000000
     atom    4 type  1   force =     0.00000000    0.00000000    0.00000000
     atom    5 type  2   force =     0.00000000   -0.00000000    0.00000000
     atom    6 type  2   force =     0.00000000   -0.00000000    0.00000000
     atom    7 type  2   force =     0.00000000    0.00000000   -0.00000000
     atom    8 type  2   force =     0.00000000    0.00000000    0.00000000
     The ionic contribution  to forces
     atom    1 type  1   force =    -0.00000000   -0.00000000   -0.00000000
     atom    2 type  1   force =    -0.00000000    0.00000000    0.00000000
     atom    3 type  1   force =     0.00000000   -0.00000000    0.00000000
     atom    4 type  1   force =     0.00000000    0.00000000   -0.00000000
     atom    5 type  2   force =     0.00000000   -0.00000000   -0.00000000
     atom    6 type  2   force =     0.00000000    0.00000000    0.00000000
     atom    7 type  2   force =    -0.00000000   -0.00000000    0.00000000
     atom    8 type  2   force =    -0.00000000    0.00000000   -0.00000000
     The local contribution  to forces
     atom    1 type  1   force =    -0.00000000   -0.00000000   -0.00000000
     atom    2 type  1   force =    -0.00000000    0.00000000    0.00000000
     atom    3 type  1   force =     0.00000000   -0.00000000    0.00000000
     atom    4 type  1   force =     0.00000000    0.00000000   -0.00000000
     atom    5 type  2   force =     0.00000000   -0.00000000   -0.00000000
     atom    6 type  2   force =     0.00000000    0.00000000    0.00000000
     atom    7 type  2   force =    -0.00000000   -0.00000000    0.00000000
     atom    8 type  2   force =    -0.00000000    0.00000000   -0.00000000
     The core correction contribution to forces
     atom    1 type  1   force =    -0.00000000   -0.00000000   -0.00000000
     atom    2 type  1   force =    -0.00000000   -0.00000000   -0.00000000
     atom    3 type  1   force =    -0.00000000   -0.00000000   -0.00000000
     atom    4 type  1   force =    -0.00000000   -0.00000000   -0.00000000
     atom    5 type  2   force =    -0.00000000    0.00000000   -0.00000000
     atom    6 type  2   force =    -0.00000000   -0.00000000    0.00000000
     atom    7 type  2   force =    -0.00000000   -0.00000000   -0.00000000
     atom    8 type  2   force =    -0.00000000   -0.00000000   -0.00000000
     The Hubbard contrib.    to forces
     atom    1 type  1   force =     0.00000000    0.00000000    0.00000000
     atom    2 type  1   force =     0.00000000    0.00000000    0.00000000
     atom    3 type  1   force =     0.00000000    0.00000000    0.00000000
     atom    4 type  1   force =     0.00000000    0.00000000    0.00000000
     atom    5 type  2   force =     0.00000000    0.00000000    0.00000000
     atom    6 type  2   force =     0.00000000    0.00000000    0.00000000
     atom    7 type  2   force =     0.00000000    0.00000000    0.00000000
     atom    8 type  2   force =     0.00000000    0.00000000    0.00000000
     The SCF correction term to forces
     atom    1 type  1   force =    -0.00000000   -0.00000000    0.00000000
     atom    2 type  1   force =    -0.00000000    0.00000000    0.00000000
     atom    3 type  1   force =     0.00000000    0.00000000    0.00000000
     atom    4 type  1   force =     0.00000000    0.00000000    0.00000000
     atom    5 type  2   force =    -0.00000000   -0.00000000    0.00000000
     atom    6 type  2   force =     0.00000000    0.00000000    0.00000000
     atom    7 type  2   force =    -0.00000000   -0.00000000   -0.00000000
     atom    8 type  2   force =    -0.00000000   -0.00000000    0.00000000

     Total force =     0.000000     Total SCF correction =     0.000000


     Computing stress (Cartesian axis) and pressure

     Message from routine stres:
     noncollinear stress + GGA not implemented

     Writing output data file CsIsalt.save/
 
     init_run     :     20.99s CPU     31.72s WALL (       1 calls)
     electrons    :   1890.33s CPU   2914.85s WALL (       1 calls)
     forces       :     26.99s CPU     38.46s WALL (       1 calls)

     Called by init_run:
     wfcinit      :     17.92s CPU     27.57s WALL (       1 calls)
     wfcinit:atom :      0.03s CPU      0.03s WALL (      56 calls)
     wfcinit:wfcr :     17.62s CPU     27.20s WALL (      56 calls)
     potinit      :      0.87s CPU      1.17s WALL (       1 calls)
     hinit0       :      0.87s CPU      1.35s WALL (       1 calls)

     Called by electrons:
     c_bands      :   1573.10s CPU   2429.32s WALL (      17 calls)
     sum_band     :    277.00s CPU    434.06s WALL (      17 calls)
     v_of_rho     :      0.82s CPU      1.20s WALL (      17 calls)
     v_h          :      0.01s CPU      0.01s WALL (      17 calls)
     v_xc         :      0.82s CPU      1.18s WALL (      18 calls)
     newd         :     21.01s CPU     24.77s WALL (      17 calls)
     PAW_pot      :     13.08s CPU     16.22s WALL (      17 calls)
     mix_rho      :      2.66s CPU      4.31s WALL (      17 calls)

     Called by c_bands:
     init_us_2    :      3.59s CPU      5.65s WALL (    2016 calls)
     cegterg      :   1495.27s CPU   2330.08s WALL (     952 calls)

     Called by sum_band:
     sum_band:bec :     53.42s CPU     75.74s WALL (     952 calls)
     addusdens    :      7.01s CPU      9.22s WALL (      17 calls)

     Called by *egterg:
     h_psi        :    773.50s CPU   1217.63s WALL (    5309 calls)
     s_psi        :     40.66s CPU     54.72s WALL (    5309 calls)
     g_psi        :      1.42s CPU      1.50s WALL (    4301 calls)
     cdiaghg      :    261.79s CPU    411.56s WALL (    5197 calls)
     cegterg:over :    161.14s CPU    234.88s WALL (    4301 calls)
     cegterg:upda :    138.43s CPU    218.89s WALL (    4301 calls)
     cegterg:last :     24.26s CPU     38.78s WALL (    1044 calls)
     cdiaghg:chol :     15.27s CPU     21.27s WALL (    5197 calls)
     cdiaghg:inve :      8.58s CPU     13.37s WALL (    5197 calls)
     cdiaghg:para :     57.17s CPU     92.61s WALL (   10394 calls)

     Called by h_psi:
     h_psi:pot    :    770.44s CPU   1214.36s WALL (    5309 calls)
     h_psi:calbec :     21.04s CPU     27.59s WALL (    5309 calls)
     vloc_psi     :    706.28s CPU   1128.47s WALL (    5309 calls)
     add_vuspsi   :     43.09s CPU     58.26s WALL (    5309 calls)

     General routines
     calbec       :     33.26s CPU     45.17s WALL (    6485 calls)
     fft          :      4.68s CPU      7.97s WALL (     375 calls)
     ffts         :      2.70s CPU      4.50s WALL (     136 calls)
     fftw         :    897.98s CPU   1444.74s WALL (  842800 calls)
     interpolate  :      2.63s CPU      4.57s WALL (      68 calls)
 
     Parallel routines
     fft_scatt_xy :     22.15s CPU     27.87s WALL (  843311 calls)
     fft_scatt_yz :    785.83s CPU   1305.77s WALL (  843311 calls)

     PAW routines
     PAW_pot      :     13.08s CPU     16.22s WALL (      17 calls)
     PAW_symme    :      0.51s CPU      0.69s WALL (      34 calls)
 
     PWSCF        :  32m32.07s CPU  50m 6.03s WALL

 
   This run was terminated on:  11: 9:49  25Jan2021            

=------------------------------------------------------------------------------=
   JOB DONE.
=------------------------------------------------------------------------------=
