
     Program PWSCF v.6.4.1 starts on 25Jan2021 at 15:42:22 

     This program is part of the open-source Quantum ESPRESSO suite
     for quantum simulation of materials; please cite
         "P. Giannozzi et al., J. Phys.:Condens. Matter 21 395502 (2009);
         "P. Giannozzi et al., J. Phys.:Condens. Matter 29 465901 (2017);
          URL http://www.quantum-espresso.org", 
     in publications or presentations arising from this work. More details at
     http://www.quantum-espresso.org/quote

     Parallel version (MPI & OpenMP), running on      48 processor cores
     Number of MPI processes:                24
     Threads/MPI process:                     2

     MPI processes distributed on     1 nodes
     R & G space division:  proc/nbgrp/npool/nimage =      24
     Waiting for input...
     Reading input from standard input

     Current dimensions of program PWSCF are:
     Max number of different atomic species (ntypx) = 10
     Max number of k-points (npk) =  40000
     Max angular momentum in pseudopotentials (lmaxx) =  3
               file Cs.rel-pbesol-spn-rrkjus_psl.1.0.0.UPF: wavefunction(s)  5S 6S renormalized
               file Sn.rel-pbesol-dn-rrkjus_psl.1.0.0.UPF: wavefunction(s)  5S 4D 4D renormalized
               file I.rel-pbesol-n-rrkjus_psl.1.0.0.UPF: wavefunction(s)  5S renormalized

     Subspace diagonalization in iterative solution of the eigenvalue problem:
     one sub-group per band group will be used
     scalapack distributed-memory algorithm (size of sub-group:  3*  3 procs)

 
     Parallelization info
     --------------------
     sticks:   dense  smooth     PW     G-vecs:    dense   smooth      PW
     Min         333     222     58                56247    30624    4064
     Max         334     223     59                56253    30632    4068
     Sum        7993    5329   1395              1350001   735059   97595
 

     Title: 
     CsSnI3                                                                     


     bravais-lattice index     =            8
     lattice parameter (alat)  =       9.1317  a.u.
     unit-cell volume          =    6370.5385 (a.u.)^3
     number of atoms/cell      =           20
     number of atomic types    =            3
     number of electrons       =       176.00
     number of Kohn-Sham states=          176
     kinetic-energy cutoff     =      90.0000  Ry
     charge density cutoff     =     540.0000  Ry
     convergence threshold     =      1.0E-06
     mixing beta               =       0.3500
     number of iterations used =            8  plain     mixing
     Exchange-correlation      = PBESOL ( 1  4 10  8 0 0)
     Non magnetic calculation with spin-orbit


     celldm(1)=   9.131705  celldm(2)=   2.227728  celldm(3)=   3.755420
     celldm(4)=   0.000000  celldm(5)=   0.000000  celldm(6)=   0.000000

     crystal axes: (cart. coord. in units of alat)
               a(1) = (   1.000000   0.000000   0.000000 )  
               a(2) = (   0.000000   2.227728   0.000000 )  
               a(3) = (   0.000000   0.000000   3.755420 )  

     reciprocal axes: (cart. coord. in units 2 pi/alat)
               b(1) = (  1.000000  0.000000  0.000000 )  
               b(2) = (  0.000000  0.448888  0.000000 )  
               b(3) = (  0.000000  0.000000  0.266282 )  


     PseudoPot. # 1 for Cs read from file:
     /marconi_scratch/userexternal/cmalosso/degironcoli/pseudo/pseudo-usp/Cs.rel-pbesol-spn-rrkjus_psl.1.0.0.UPF
     MD5 check sum: 846889b67fb1b19751b5b37931589d70
     Pseudo is Ultrasoft + core correction, Zval =  9.0
     Generated using "atomic" code by A. Dal Corso v.6.4.1
     Using radial grid of 1251 points, 15 beta functions with: 
                l(1) =   0
                l(2) =   0
                l(3) =   0
                l(4) =   1
                l(5) =   1
                l(6) =   1
                l(7) =   1
                l(8) =   2
                l(9) =   2
               l(10) =   2
               l(11) =   2
               l(12) =   3
               l(13) =   3
               l(14) =   3
               l(15) =   3
     Q(r) pseudized with 0 coefficients 


     PseudoPot. # 2 for Sn read from file:
     /marconi_scratch/userexternal/cmalosso/degironcoli/pseudo/pseudo-usp/Sn.rel-pbesol-dn-rrkjus_psl.1.0.0.UPF
     MD5 check sum: c1cf6ea56b96a3656bdf0d1db379e093
     Pseudo is Ultrasoft + core correction, Zval = 14.0
     Generated using "atomic" code by A. Dal Corso v.6.3
     Using radial grid of 1243 points, 10 beta functions with: 
                l(1) =   0
                l(2) =   0
                l(3) =   1
                l(4) =   1
                l(5) =   1
                l(6) =   1
                l(7) =   2
                l(8) =   2
                l(9) =   2
               l(10) =   2
     Q(r) pseudized with 0 coefficients 


     PseudoPot. # 3 for I  read from file:
     /marconi_scratch/userexternal/cmalosso/degironcoli/pseudo/pseudo-usp/I.rel-pbesol-n-rrkjus_psl.1.0.0.UPF
     MD5 check sum: 0f96c6bfb1b448f280658f96eb466b08
     Pseudo is Ultrasoft + core correction, Zval =  7.0
     Generated using "atomic" code by A. Dal Corso v.6.3
     Using radial grid of 1247 points, 10 beta functions with: 
                l(1) =   0
                l(2) =   0
                l(3) =   1
                l(4) =   1
                l(5) =   1
                l(6) =   1
                l(7) =   2
                l(8) =   2
                l(9) =   2
               l(10) =   2
     Q(r) pseudized with 0 coefficients 


     atomic species   valence    mass     pseudopotential
        Cs             9.00   132.90000     Cs( 1.00)
        Sn            14.00   118.70000     Sn( 1.00)
        I              7.00   126.90000     I ( 1.00)

      8 Sym. Ops., with inversion, found ( 6 have fractional translation)


                                    s                        frac. trans.

      isym =  1     identity                                     

 cryst.   s( 1) = (     1          0          0      )
                  (     0          1          0      )
                  (     0          0          1      )

 cart.    s( 1) = (  1.0000000  0.0000000  0.0000000 )
                  (  0.0000000  1.0000000  0.0000000 )
                  (  0.0000000  0.0000000  1.0000000 )


      isym =  2     180 deg rotation - cart. axis [0,0,1]        

 cryst.   s( 2) = (    -1          0          0      )    f =(  0.0000000 )
                  (     0         -1          0      )       (  0.5000000 )
                  (     0          0          1      )       (  0.5000000 )

 cart.    s( 2) = ( -1.0000000  0.0000000  0.0000000 )    f =(  0.0000000 )
                  (  0.0000000 -1.0000000  0.0000000 )       (  1.1138638 )
                  (  0.0000000  0.0000000  1.0000000 )       (  1.8777098 )


      isym =  3     180 deg rotation - cart. axis [0,1,0]        

 cryst.   s( 3) = (    -1          0          0      )    f =(  0.5000000 )
                  (     0          1          0      )       ( -0.5000000 )
                  (     0          0         -1      )       ( -0.5000000 )

 cart.    s( 3) = ( -1.0000000  0.0000000  0.0000000 )    f =(  0.5000000 )
                  (  0.0000000  1.0000000  0.0000000 )       ( -1.1138638 )
                  (  0.0000000  0.0000000 -1.0000000 )       ( -1.8777098 )


      isym =  4     180 deg rotation - cart. axis [1,0,0]        

 cryst.   s( 4) = (     1          0          0      )    f =( -0.5000000 )
                  (     0         -1          0      )       (  0.0000000 )
                  (     0          0         -1      )       (  0.0000000 )

 cart.    s( 4) = (  1.0000000  0.0000000  0.0000000 )    f =( -0.5000000 )
                  (  0.0000000 -1.0000000  0.0000000 )       (  0.0000000 )
                  (  0.0000000  0.0000000 -1.0000000 )       (  0.0000000 )


      isym =  5     inversion                                    

 cryst.   s( 5) = (    -1          0          0      )
                  (     0         -1          0      )
                  (     0          0         -1      )

 cart.    s( 5) = ( -1.0000000  0.0000000  0.0000000 )
                  (  0.0000000 -1.0000000  0.0000000 )
                  (  0.0000000  0.0000000 -1.0000000 )


      isym =  6     inv. 180 deg rotation - cart. axis [0,0,1]   

 cryst.   s( 6) = (     1          0          0      )    f =(  0.0000000 )
                  (     0          1          0      )       ( -0.5000000 )
                  (     0          0         -1      )       ( -0.5000000 )

 cart.    s( 6) = (  1.0000000  0.0000000  0.0000000 )    f =(  0.0000000 )
                  (  0.0000000  1.0000000  0.0000000 )       ( -1.1138638 )
                  (  0.0000000  0.0000000 -1.0000000 )       ( -1.8777098 )


      isym =  7     inv. 180 deg rotation - cart. axis [0,1,0]   

 cryst.   s( 7) = (     1          0          0      )    f =( -0.5000000 )
                  (     0         -1          0      )       (  0.5000000 )
                  (     0          0          1      )       (  0.5000000 )

 cart.    s( 7) = (  1.0000000  0.0000000  0.0000000 )    f =( -0.5000000 )
                  (  0.0000000 -1.0000000  0.0000000 )       (  1.1138638 )
                  (  0.0000000  0.0000000  1.0000000 )       (  1.8777098 )


      isym =  8     inv. 180 deg rotation - cart. axis [1,0,0]   

 cryst.   s( 8) = (    -1          0          0      )    f =(  0.5000000 )
                  (     0          1          0      )       (  0.0000000 )
                  (     0          0          1      )       (  0.0000000 )

 cart.    s( 8) = ( -1.0000000  0.0000000  0.0000000 )    f =(  0.5000000 )
                  (  0.0000000  1.0000000  0.0000000 )       (  0.0000000 )
                  (  0.0000000  0.0000000  1.0000000 )       (  0.0000000 )


     double point group D_2h (mmm) 
     there are 10 classes and  2 irreducible representations
     the character table:

       E     -E     C2    C2'  C2''  i     -i     s_v   s_v' s_v''
                   -C2   -C2'  -C2''             -s_v  -s_v' -s_v'
G_5+   2.00 -2.00  0.00  0.00  0.00  2.00 -2.00  0.00  0.00  0.00
G_5-   2.00 -2.00  0.00  0.00  0.00 -2.00  2.00  0.00  0.00  0.00

     the symmetry operations in each class and the name of the first element:

     E             1
          identity                                               
     -E           -1
          identity E                                             
      C2  -C2      2   -2
          180 deg rotation - cart. axis [0,0,1]                  
      C2' -C2'     4   -4
          180 deg rotation - cart. axis [1,0,0]                  
     C2'' -C2''    3   -3
          180 deg rotation - cart. axis [0,1,0]                  
     i             5
          inversion                                              
     -i           -5
          inversion E                                            
      s_v -s_v     6   -6
          inv. 180 deg rotation - cart. axis [0,0,1]             
      s_v'-s_v'    8   -8
          inv. 180 deg rotation - cart. axis [1,0,0]             
     s_v''-s_v'    7   -7
          inv. 180 deg rotation - cart. axis [0,1,0]             

   Cartesian axes

     site n.     atom                  positions (alat units)
         1           Cs  tau(   1) = (   0.2500000   0.1859640   2.5168147  )
         2           Cs  tau(   2) = (   0.7500000   2.0417636   1.2386050  )
         3           Cs  tau(   3) = (   0.2500000   1.2998278   3.1163149  )
         4           Cs  tau(   4) = (   0.7500000   0.9278998   0.6391048  )
         5           Sn  tau(   5) = (   0.2500000   0.7615710   1.6485466  )
         6           Sn  tau(   6) = (   0.7500000   1.4661567   2.1068731  )
         7           Sn  tau(   7) = (   0.2500000   1.8754348   0.2291632  )
         8           Sn  tau(   8) = (   0.7500000   0.3522928   3.5262565  )
         9           I   tau(   9) = (   0.7500000   0.0581437   0.4202578  )
        10           I   tau(  10) = (   0.2500000   2.1695839   3.3351619  )
        11           I   tau(  11) = (   0.7500000   1.1720075   1.4574521  )
        12           I   tau(  12) = (   0.2500000   1.0557201   2.2979676  )
        13           I   tau(  13) = (   0.7500000   0.6531118   2.9738192  )
        14           I   tau(  14) = (   0.2500000   1.5746158   0.7816005  )
        15           I   tau(  15) = (   0.7500000   1.7669756   2.6593103  )
        16           I   tau(  16) = (   0.2500000   0.4607520   1.0961094  )
        17           I   tau(  17) = (   0.7500000   0.3753632   1.8734812  )
        18           I   tau(  18) = (   0.2500000   1.8523644   1.8819384  )
        19           I   tau(  19) = (   0.7500000   1.4892270   0.0042286  )
        20           I   tau(  20) = (   0.2500000   0.7385006   3.7511911  )

   Crystallographic axes

     site n.     atom                  positions (cryst. coord.)
         1           Cs  tau(   1) = (  0.2500000  0.0834770  0.6701820  )
         2           Cs  tau(   2) = (  0.7500000  0.9165230  0.3298180  )
         3           Cs  tau(   3) = (  0.2500000  0.5834770  0.8298180  )
         4           Cs  tau(   4) = (  0.7500000  0.4165230  0.1701820  )
         5           Sn  tau(   5) = (  0.2500000  0.3418600  0.4389780  )
         6           Sn  tau(   6) = (  0.7500000  0.6581400  0.5610220  )
         7           Sn  tau(   7) = (  0.2500000  0.8418600  0.0610220  )
         8           Sn  tau(   8) = (  0.7500000  0.1581400  0.9389780  )
         9           I   tau(   9) = (  0.7500000  0.0261000  0.1119070  )
        10           I   tau(  10) = (  0.2500000  0.9739000  0.8880930  )
        11           I   tau(  11) = (  0.7500000  0.5261000  0.3880930  )
        12           I   tau(  12) = (  0.2500000  0.4739000  0.6119070  )
        13           I   tau(  13) = (  0.7500000  0.2931740  0.7918740  )
        14           I   tau(  14) = (  0.2500000  0.7068260  0.2081260  )
        15           I   tau(  15) = (  0.7500000  0.7931740  0.7081260  )
        16           I   tau(  16) = (  0.2500000  0.2068260  0.2918740  )
        17           I   tau(  17) = (  0.7500000  0.1684960  0.4988740  )
        18           I   tau(  18) = (  0.2500000  0.8315040  0.5011260  )
        19           I   tau(  19) = (  0.7500000  0.6684960  0.0011260  )
        20           I   tau(  20) = (  0.2500000  0.3315040  0.9988740  )

     number of k points=     1
                       cart. coord. in units 2pi/alat
        k(    1) = (   0.2500000   0.1122220   0.0665705), wk =   1.0000000

                       cryst. coord.
        k(    1) = (   0.2500000   0.2500000   0.2500000), wk =   1.0000000

     Dense  grid:  1350001 G-vectors     FFT dimensions: (  72, 160, 256)

     Smooth grid:   735059 G-vectors     FFT dimensions: (  60, 128, 216)

     Dynamical RAM for                 wfc:      20.56 MB

     Dynamical RAM for     wfc (w. buffer):      20.56 MB

     Dynamical RAM for           str. fact:       2.57 MB

     Dynamical RAM for           local pot:       0.00 MB

     Dynamical RAM for          nlocal pot:      46.48 MB

     Dynamical RAM for                qrad:      65.00 MB

     Dynamical RAM for          rho,v,vnew:      21.90 MB

     Dynamical RAM for               rhoin:       7.30 MB

     Dynamical RAM for            rho*nmix:      54.93 MB

     Dynamical RAM for           G-vectors:       3.45 MB

     Dynamical RAM for          h,s,v(r/c):       2.51 MB

     Dynamical RAM for          <psi|beta>:       4.28 MB

     Dynamical RAM for                 psi:      82.22 MB

     Dynamical RAM for                hpsi:      82.22 MB

     Dynamical RAM for                spsi:      82.22 MB

     Dynamical RAM for      wfcinit/wfcrot:      37.43 MB

     Dynamical RAM for           addusdens:    1763.79 MB

     Dynamical RAM for          addusforce:    1804.62 MB

     Dynamical RAM for         addusstress:    1779.24 MB

     Estimated static dynamical RAM per process >     233.37 MB

     Estimated max dynamical RAM per process >       1.99 GB

     Estimated total dynamical RAM >      47.77 GB

     Initial potential from superposition of free atoms

     starting charge  175.84164, renormalised to  176.00000
     Starting wfcs are  208 randomized atomic wfcs

     total cpu time spent up to now is       29.5 secs

     Self-consistent Calculation

     iteration #  1     ecut=    90.00 Ry     beta= 0.35
     Davidson diagonalization with overlap
     ethr =  1.00E-02,  avg # of iterations =  1.0

     Threshold (ethr) on eigenvalues was too large:
     Diagonalizing with lowered threshold

     Davidson diagonalization with overlap
     ethr =  3.08E-04,  avg # of iterations =  3.0

     total cpu time spent up to now is      118.3 secs

     total energy              =   -1268.08306349 Ry
     Harris-Foulkes estimate   =   -1268.27784849 Ry
     estimated scf accuracy    <       0.41791129 Ry

     iteration #  2     ecut=    90.00 Ry     beta= 0.35
     Davidson diagonalization with overlap
     ethr =  2.37E-04,  avg # of iterations =  2.0

     total cpu time spent up to now is      165.9 secs

     total energy              =   -1268.15485949 Ry
     Harris-Foulkes estimate   =   -1268.16957930 Ry
     estimated scf accuracy    <       0.05325998 Ry

     iteration #  3     ecut=    90.00 Ry     beta= 0.35
     Davidson diagonalization with overlap
     ethr =  3.03E-05,  avg # of iterations =  3.0

     total cpu time spent up to now is      209.3 secs

     total energy              =   -1268.16280381 Ry
     Harris-Foulkes estimate   =   -1268.16331325 Ry
     estimated scf accuracy    <       0.01029431 Ry

     iteration #  4     ecut=    90.00 Ry     beta= 0.35
     Davidson diagonalization with overlap
     ethr =  5.85E-06,  avg # of iterations =  2.0

     total cpu time spent up to now is      251.7 secs

     total energy              =   -1268.16408012 Ry
     Harris-Foulkes estimate   =   -1268.16369150 Ry
     estimated scf accuracy    <       0.00197189 Ry

     iteration #  5     ecut=    90.00 Ry     beta= 0.35
     Davidson diagonalization with overlap
     ethr =  1.12E-06,  avg # of iterations =  3.0

     total cpu time spent up to now is      293.9 secs

     total energy              =   -1268.16432745 Ry
     Harris-Foulkes estimate   =   -1268.16434225 Ry
     estimated scf accuracy    <       0.00020403 Ry

     iteration #  6     ecut=    90.00 Ry     beta= 0.35
     Davidson diagonalization with overlap
     ethr =  1.16E-07,  avg # of iterations =  4.0

     total cpu time spent up to now is      349.4 secs

     total energy              =   -1268.16440004 Ry
     Harris-Foulkes estimate   =   -1268.16439761 Ry
     estimated scf accuracy    <       0.00002018 Ry

     iteration #  7     ecut=    90.00 Ry     beta= 0.35
     Davidson diagonalization with overlap
     ethr =  1.15E-08,  avg # of iterations =  2.0

     total cpu time spent up to now is      394.5 secs

     total energy              =   -1268.16440494 Ry
     Harris-Foulkes estimate   =   -1268.16440268 Ry
     estimated scf accuracy    <       0.00000497 Ry

     iteration #  8     ecut=    90.00 Ry     beta= 0.35
     Davidson diagonalization with overlap
     ethr =  2.83E-09,  avg # of iterations =  4.0

     total cpu time spent up to now is      449.2 secs

     End of self-consistent calculation

          k = 0.2500 0.1122 0.0666 ( 91828 PWs)   bands (ev):

   -18.4226 -18.4226 -18.4226 -18.4226 -18.4225 -18.4225 -18.4225 -18.4225
   -18.4108 -18.4108 -18.4108 -18.4108 -18.4107 -18.4107 -18.4107 -18.4107
   -17.8381 -17.8381 -17.8380 -17.8380 -17.8375 -17.8375 -17.8374 -17.8374
   -17.3848 -17.3848 -17.3848 -17.3848 -17.3847 -17.3847 -17.3847 -17.3847
   -17.3728 -17.3728 -17.3728 -17.3728 -17.3726 -17.3726 -17.3726 -17.3726
   -17.3695 -17.3695 -17.3695 -17.3695 -17.3693 -17.3693 -17.3693 -17.3693
    -8.8092  -8.8092  -8.7979  -8.7979  -8.6593  -8.6593  -8.6434  -8.6434
    -8.5480  -8.5480  -8.5423  -8.5423  -8.4764  -8.4764  -8.4594  -8.4594
    -8.4026  -8.4026  -8.3980  -8.3980  -8.3824  -8.3824  -8.3770  -8.3770
    -5.8019  -5.8019  -5.7980  -5.7980  -5.7943  -5.7943  -5.7902  -5.7902
    -4.2235  -4.2235  -4.2182  -4.2182  -4.2070  -4.2070  -4.1999  -4.1999
    -4.1619  -4.1619  -4.1588  -4.1588  -4.1538  -4.1538  -4.1489  -4.1489
    -3.1729  -3.1729  -3.1689  -3.1689  -3.0805  -3.0805  -3.0705  -3.0705
    -0.0210  -0.0210   0.0391   0.0391   0.1307   0.1307   0.1634   0.1634
     0.2805   0.2805   0.3712   0.3712   0.5000   0.5000   0.5580   0.5580
     0.6743   0.6743   0.7073   0.7073   0.7414   0.7414   0.8078   0.8078
     1.0140   1.0140   1.0800   1.0800   1.2820   1.2820   1.3561   1.3561
     1.4098   1.4098   1.4765   1.4765   1.5946   1.5946   1.6542   1.6542
     1.7278   1.7278   1.7667   1.7667   1.8188   1.8188   1.8469   1.8469
     1.8790   1.8790   1.9580   1.9580   2.0061   2.0061   2.0772   2.0772
     2.1318   2.1318   2.1594   2.1594   2.3124   2.3124   2.3450   2.3450
     2.6535   2.6535   2.7508   2.7508   2.9419   2.9419   2.9897   2.9897

     occupation numbers 
     1.0000   1.0000   1.0000   1.0000   1.0000   1.0000   1.0000   1.0000
     1.0000   1.0000   1.0000   1.0000   1.0000   1.0000   1.0000   1.0000
     1.0000   1.0000   1.0000   1.0000   1.0000   1.0000   1.0000   1.0000
     1.0000   1.0000   1.0000   1.0000   1.0000   1.0000   1.0000   1.0000
     1.0000   1.0000   1.0000   1.0000   1.0000   1.0000   1.0000   1.0000
     1.0000   1.0000   1.0000   1.0000   1.0000   1.0000   1.0000   1.0000
     1.0000   1.0000   1.0000   1.0000   1.0000   1.0000   1.0000   1.0000
     1.0000   1.0000   1.0000   1.0000   1.0000   1.0000   1.0000   1.0000
     1.0000   1.0000   1.0000   1.0000   1.0000   1.0000   1.0000   1.0000
     1.0000   1.0000   1.0000   1.0000   1.0000   1.0000   1.0000   1.0000
     1.0000   1.0000   1.0000   1.0000   1.0000   1.0000   1.0000   1.0000
     1.0000   1.0000   1.0000   1.0000   1.0000   1.0000   1.0000   1.0000
     1.0000   1.0000   1.0000   1.0000   1.0000   1.0000   1.0000   1.0000
     1.0000   1.0000   1.0000   1.0000   1.0000   1.0000   1.0000   1.0000
     1.0000   1.0000   1.0000   1.0000   1.0000   1.0000   1.0000   1.0000
     1.0000   1.0000   1.0000   1.0000   1.0000   1.0000   1.0000   1.0000
     1.0000   1.0000   1.0000   1.0000   1.0000   1.0000   1.0000   1.0000
     1.0000   1.0000   1.0000   1.0000   1.0000   1.0000   1.0000   1.0000
     1.0000   1.0000   1.0000   1.0000   1.0000   1.0000   1.0000   1.0000
     1.0000   1.0000   1.0000   1.0000   1.0000   1.0000   1.0000   1.0000
     1.0000   1.0000   1.0000   1.0000   1.0000   1.0000   1.0000   1.0000
     1.0000   1.0000   1.0000   1.0000   1.0000   1.0000   1.0000   1.0000

     highest occupied level (ev):     2.9897

!    total energy              =   -1268.16440588 Ry
     Harris-Foulkes estimate   =   -1268.16440619 Ry
     estimated scf accuracy    <       0.00000086 Ry

     The total energy is the sum of the following terms:

     one-electron contribution =    -488.14928674 Ry
     hartree contribution      =     316.29781531 Ry
     xc contribution           =    -462.74333283 Ry
     ewald contribution        =    -633.56960162 Ry

     convergence has been achieved in   8 iterations

     Forces acting on atoms (cartesian axes, Ry/au):

     atom    1 type  1   force =     0.00000000   -0.00085520    0.00015403
     atom    2 type  1   force =     0.00000000    0.00085520   -0.00015403
     atom    3 type  1   force =    -0.00000000   -0.00085520   -0.00015403
     atom    4 type  1   force =     0.00000000    0.00085520    0.00015403
     atom    5 type  2   force =     0.00000000   -0.00130300   -0.00036616
     atom    6 type  2   force =    -0.00000000    0.00130300    0.00036616
     atom    7 type  2   force =     0.00000000   -0.00130300    0.00036616
     atom    8 type  2   force =     0.00000000    0.00130300   -0.00036616
     atom    9 type  3   force =     0.00000000    0.00104429   -0.00186632
     atom   10 type  3   force =     0.00000000   -0.00104429    0.00186632
     atom   11 type  3   force =     0.00000000    0.00104429    0.00186632
     atom   12 type  3   force =    -0.00000000   -0.00104429   -0.00186632
     atom   13 type  3   force =     0.00000000   -0.00162282    0.00218290
     atom   14 type  3   force =     0.00000000    0.00162282   -0.00218290
     atom   15 type  3   force =     0.00000000   -0.00162282   -0.00218290
     atom   16 type  3   force =     0.00000000    0.00162282    0.00218290
     atom   17 type  3   force =     0.00000000   -0.00208079    0.00059978
     atom   18 type  3   force =     0.00000000    0.00208079   -0.00059978
     atom   19 type  3   force =     0.00000000   -0.00208079   -0.00059978
     atom   20 type  3   force =     0.00000000    0.00208079    0.00059978
     The non-local contrib.  to forces
     atom    1 type  1   force =     0.00000000    0.00262047   -0.00363678
     atom    2 type  1   force =     0.00000000   -0.00262047    0.00363678
     atom    3 type  1   force =     0.00000000    0.00262047    0.00363678
     atom    4 type  1   force =     0.00000000   -0.00262047   -0.00363678
     atom    5 type  2   force =     0.00000000   -0.08416171   -0.12920512
     atom    6 type  2   force =     0.00000000    0.08416171    0.12920512
     atom    7 type  2   force =     0.00000000   -0.08416171    0.12920512
     atom    8 type  2   force =     0.00000000    0.08416171   -0.12920512
     atom    9 type  3   force =     0.00000000   -0.05025897   -0.04899209
     atom   10 type  3   force =     0.00000000    0.05025897    0.04899209
     atom   11 type  3   force =     0.00000000   -0.05025897    0.04899209
     atom   12 type  3   force =    -0.00000000    0.05025897   -0.04899209
     atom   13 type  3   force =     0.00000000   -0.03225514    0.05466042
     atom   14 type  3   force =     0.00000000    0.03225514   -0.05466042
     atom   15 type  3   force =     0.00000000   -0.03225514   -0.05466042
     atom   16 type  3   force =     0.00000000    0.03225514    0.05466042
     atom   17 type  3   force =     0.00000000    0.05653248   -0.01765816
     atom   18 type  3   force =     0.00000000   -0.05653248    0.01765816
     atom   19 type  3   force =     0.00000000    0.05653248    0.01765816
     atom   20 type  3   force =     0.00000000   -0.05653248   -0.01765816
     The ionic contribution  to forces
     atom    1 type  1   force =     0.00000000    0.02273773    0.42856976
     atom    2 type  1   force =    -0.00000000   -0.02273773   -0.42856976
     atom    3 type  1   force =    -0.00000000    0.02273773   -0.42856976
     atom    4 type  1   force =    -0.00000000   -0.02273773    0.42856976
     atom    5 type  2   force =    -0.00000000   -2.44382133   -1.60292982
     atom    6 type  2   force =     0.00000000    2.44382133    1.60292982
     atom    7 type  2   force =    -0.00000000   -2.44382133    1.60292982
     atom    8 type  2   force =     0.00000000    2.44382133   -1.60292982
     atom    9 type  3   force =    -0.00000000    3.00608889    5.13288889
     atom   10 type  3   force =    -0.00000000   -3.00608889   -5.13288889
     atom   11 type  3   force =    -0.00000000    3.00608889   -5.13288889
     atom   12 type  3   force =    -0.00000000   -3.00608889    5.13288889
     atom   13 type  3   force =     0.00000000    2.02422847   -3.75281495
     atom   14 type  3   force =    -0.00000000   -2.02422847    3.75281495
     atom   15 type  3   force =    -0.00000000    2.02422847    3.75281495
     atom   16 type  3   force =    -0.00000000   -2.02422847   -3.75281495
     atom   17 type  3   force =    -0.00000000   -4.20564469    2.10270402
     atom   18 type  3   force =     0.00000000    4.20564469   -2.10270402
     atom   19 type  3   force =     0.00000000   -4.20564469   -2.10270402
     atom   20 type  3   force =     0.00000000    4.20564469    2.10270402
     The local contribution  to forces
     atom    1 type  1   force =    -0.00000000   -0.02600956   -0.42472608
     atom    2 type  1   force =     0.00000000    0.02600956    0.42472608
     atom    3 type  1   force =    -0.00000000   -0.02600956    0.42472608
     atom    4 type  1   force =     0.00000000    0.02600956   -0.42472608
     atom    5 type  2   force =    -0.00000000    2.52638220    1.73136463
     atom    6 type  2   force =    -0.00000000   -2.52638220   -1.73136463
     atom    7 type  2   force =    -0.00000000    2.52638220   -1.73136463
     atom    8 type  2   force =    -0.00000000   -2.52638220    1.73136463
     atom    9 type  3   force =     0.00000000   -2.95999755   -5.09066279
     atom   10 type  3   force =    -0.00000000    2.95999755    5.09066279
     atom   11 type  3   force =     0.00000000   -2.95999755    5.09066279
     atom   12 type  3   force =    -0.00000000    2.95999755   -5.09066279
     atom   13 type  3   force =     0.00000000   -1.99678827    3.70545942
     atom   14 type  3   force =    -0.00000000    1.99678827   -3.70545942
     atom   15 type  3   force =     0.00000000   -1.99678827   -3.70545942
     atom   16 type  3   force =    -0.00000000    1.99678827    3.70545942
     atom   17 type  3   force =     0.00000000    4.15320818   -2.08636911
     atom   18 type  3   force =    -0.00000000   -4.15320818    2.08636911
     atom   19 type  3   force =    -0.00000000    4.15320818    2.08636911
     atom   20 type  3   force =     0.00000000   -4.15320818   -2.08636911
     The core correction contribution to forces
     atom    1 type  1   force =    -0.00000000   -0.00005924    0.00023081
     atom    2 type  1   force =     0.00000000    0.00005924   -0.00023081
     atom    3 type  1   force =    -0.00000000   -0.00005924   -0.00023081
     atom    4 type  1   force =     0.00000000    0.00005924    0.00023081
     atom    5 type  2   force =    -0.00000000    0.00017817    0.00016546
     atom    6 type  2   force =    -0.00000000   -0.00017817   -0.00016546
     atom    7 type  2   force =    -0.00000000    0.00017817   -0.00016546
     atom    8 type  2   force =    -0.00000000   -0.00017817    0.00016546
     atom    9 type  3   force =    -0.00000000    0.00539049    0.00547956
     atom   10 type  3   force =     0.00000000   -0.00539049   -0.00547956
     atom   11 type  3   force =    -0.00000000    0.00539049   -0.00547956
     atom   12 type  3   force =     0.00000000   -0.00539049    0.00547956
     atom   13 type  3   force =     0.00000000    0.00318856   -0.00548050
     atom   14 type  3   force =    -0.00000000   -0.00318856    0.00548050
     atom   15 type  3   force =     0.00000000    0.00318856    0.00548050
     atom   16 type  3   force =    -0.00000000   -0.00318856   -0.00548050
     atom   17 type  3   force =     0.00000000   -0.00641664    0.00211083
     atom   18 type  3   force =    -0.00000000    0.00641664   -0.00211083
     atom   19 type  3   force =     0.00000000   -0.00641664   -0.00211083
     atom   20 type  3   force =    -0.00000000    0.00641664    0.00211083
     The Hubbard contrib.    to forces
     atom    1 type  1   force =     0.00000000    0.00000000    0.00000000
     atom    2 type  1   force =     0.00000000    0.00000000    0.00000000
     atom    3 type  1   force =     0.00000000    0.00000000    0.00000000
     atom    4 type  1   force =     0.00000000    0.00000000    0.00000000
     atom    5 type  2   force =     0.00000000    0.00000000    0.00000000
     atom    6 type  2   force =     0.00000000    0.00000000    0.00000000
     atom    7 type  2   force =     0.00000000    0.00000000    0.00000000
     atom    8 type  2   force =     0.00000000    0.00000000    0.00000000
     atom    9 type  3   force =     0.00000000    0.00000000    0.00000000
     atom   10 type  3   force =     0.00000000    0.00000000    0.00000000
     atom   11 type  3   force =     0.00000000    0.00000000    0.00000000
     atom   12 type  3   force =     0.00000000    0.00000000    0.00000000
     atom   13 type  3   force =     0.00000000    0.00000000    0.00000000
     atom   14 type  3   force =     0.00000000    0.00000000    0.00000000
     atom   15 type  3   force =     0.00000000    0.00000000    0.00000000
     atom   16 type  3   force =     0.00000000    0.00000000    0.00000000
     atom   17 type  3   force =     0.00000000    0.00000000    0.00000000
     atom   18 type  3   force =     0.00000000    0.00000000    0.00000000
     atom   19 type  3   force =     0.00000000    0.00000000    0.00000000
     atom   20 type  3   force =     0.00000000    0.00000000    0.00000000
     The SCF correction term to forces
     atom    1 type  1   force =     0.00000000   -0.00014460   -0.00028368
     atom    2 type  1   force =    -0.00000000    0.00014460    0.00028368
     atom    3 type  1   force =     0.00000000   -0.00014460    0.00028368
     atom    4 type  1   force =    -0.00000000    0.00014460   -0.00028368
     atom    5 type  2   force =    -0.00000000    0.00011967    0.00023869
     atom    6 type  2   force =     0.00000000   -0.00011967   -0.00023869
     atom    7 type  2   force =    -0.00000000    0.00011967   -0.00023869
     atom    8 type  2   force =     0.00000000   -0.00011967    0.00023869
     atom    9 type  3   force =     0.00000000   -0.00017856   -0.00057989
     atom   10 type  3   force =    -0.00000000    0.00017856    0.00057989
     atom   11 type  3   force =     0.00000000   -0.00017856    0.00057989
     atom   12 type  3   force =    -0.00000000    0.00017856   -0.00057989
     atom   13 type  3   force =     0.00000000    0.00000356    0.00035851
     atom   14 type  3   force =    -0.00000000   -0.00000356   -0.00035851
     atom   15 type  3   force =    -0.00000000    0.00000356   -0.00035851
     atom   16 type  3   force =     0.00000000   -0.00000356    0.00035851
     atom   17 type  3   force =    -0.00000000    0.00023988   -0.00018780
     atom   18 type  3   force =     0.00000000   -0.00023988    0.00018780
     atom   19 type  3   force =    -0.00000000    0.00023988    0.00018780
     atom   20 type  3   force =     0.00000000   -0.00023988   -0.00018780

     Total force =     0.008775     Total SCF correction =     0.001746
     SCF correction compared to forces is large: reduce conv_thr to get better values


     Computing stress (Cartesian axis) and pressure

     Message from routine stres:
     noncollinear stress + GGA not implemented

     Writing output data file CsSnI3.save/
 
     init_run     :     16.60s CPU     22.17s WALL (       1 calls)
     electrons    :    315.32s CPU    419.95s WALL (       1 calls)
     forces       :     12.97s CPU     15.38s WALL (       1 calls)

     Called by init_run:
     wfcinit      :      6.51s CPU      9.84s WALL (       1 calls)
     wfcinit:atom :      0.01s CPU      0.03s WALL (       1 calls)
     wfcinit:wfcr :      6.38s CPU      9.64s WALL (       1 calls)
     potinit      :      1.13s CPU      1.27s WALL (       1 calls)
     hinit0       :      2.29s CPU      2.74s WALL (       1 calls)

     Called by electrons:
     c_bands      :    167.71s CPU    228.40s WALL (       9 calls)
     sum_band     :     92.42s CPU    120.28s WALL (       9 calls)
     v_of_rho     :      2.65s CPU      3.88s WALL (       9 calls)
     v_h          :      0.19s CPU      0.26s WALL (       9 calls)
     v_xc         :      2.67s CPU      3.90s WALL (      10 calls)
     newd         :     54.66s CPU     69.02s WALL (       9 calls)
     mix_rho      :      2.80s CPU      4.28s WALL (       9 calls)

     Called by c_bands:
     init_us_2    :      0.52s CPU      0.58s WALL (      19 calls)
     cegterg      :    156.94s CPU    217.01s WALL (       9 calls)

     Called by sum_band:
     sum_band:bec :      0.66s CPU      0.97s WALL (       9 calls)
     addusdens    :     52.46s CPU     63.86s WALL (       9 calls)

     Called by *egterg:
     h_psi        :    133.74s CPU    187.49s WALL (      34 calls)
     s_psi        :      6.13s CPU      6.64s WALL (      34 calls)
     g_psi        :      0.13s CPU      0.14s WALL (      24 calls)
     cdiaghg      :      6.90s CPU     10.38s WALL (      32 calls)
     cegterg:over :      5.75s CPU      7.20s WALL (      24 calls)
     cegterg:upda :      5.11s CPU      6.85s WALL (      24 calls)
     cegterg:last :      1.41s CPU      1.60s WALL (       9 calls)
     cdiaghg:chol :      0.33s CPU      0.50s WALL (      32 calls)
     cdiaghg:inve :      0.49s CPU      0.59s WALL (      32 calls)
     cdiaghg:para :      0.69s CPU      1.04s WALL (      64 calls)

     Called by h_psi:
     h_psi:pot    :    133.49s CPU    187.07s WALL (      34 calls)
     h_psi:calbec :      5.55s CPU      6.12s WALL (      34 calls)
     vloc_psi     :    121.89s CPU    174.34s WALL (      34 calls)
     add_vuspsi   :      6.04s CPU      6.62s WALL (      34 calls)

     General routines
     calbec       :      8.35s CPU      9.21s WALL (      47 calls)
     fft          :      4.80s CPU      7.30s WALL (     199 calls)
     ffts         :      1.40s CPU      2.62s WALL (      72 calls)
     fftw         :    140.52s CPU    206.46s WALL (   20812 calls)
     interpolate  :      0.48s CPU      0.62s WALL (      36 calls)
 
     Parallel routines
     fft_scatt_xy :      6.48s CPU      6.83s WALL (   21083 calls)
     fft_scatt_yz :    111.42s CPU    169.85s WALL (   21083 calls)
 
     PWSCF        :   5m52.63s CPU   7m45.96s WALL

 
   This run was terminated on:  15:50: 8  25Jan2021            

=------------------------------------------------------------------------------=
   JOB DONE.
=------------------------------------------------------------------------------=
