
     Program PWSCF v.6.4.1 starts on 23Jan2021 at 12:19:28 

     This program is part of the open-source Quantum ESPRESSO suite
     for quantum simulation of materials; please cite
         "P. Giannozzi et al., J. Phys.:Condens. Matter 21 395502 (2009);
         "P. Giannozzi et al., J. Phys.:Condens. Matter 29 465901 (2017);
          URL http://www.quantum-espresso.org", 
     in publications or presentations arising from this work. More details at
     http://www.quantum-espresso.org/quote

     Parallel version (MPI & OpenMP), running on      48 processor cores
     Number of MPI processes:                24
     Threads/MPI process:                     2

     MPI processes distributed on     1 nodes
     R & G space division:  proc/nbgrp/npool/nimage =      24
     Waiting for input...
     Reading input from standard input

     Current dimensions of program PWSCF are:
     Max number of different atomic species (ntypx) = 10
     Max number of k-points (npk) =  40000
     Max angular momentum in pseudopotentials (lmaxx) =  3
               file Cs.rel-pbesol-spn-kjpaw_psl.1.0.0.UPF: wavefunction(s)  5S 6S renormalized
               file I.rel-pbesol-n-kjpaw_psl.1.0.0.UPF: wavefunction(s)  5S renormalized

     Subspace diagonalization in iterative solution of the eigenvalue problem:
     one sub-group per band group will be used
     scalapack distributed-memory algorithm (size of sub-group:  3*  3 procs)

     Found symmetry operation: I + (  0.0000 -0.5000 -0.5000)
     This is a supercell, fractional translations are disabled
 
     Parallelization info
     --------------------
     sticks:   dense  smooth     PW     G-vecs:    dense   smooth      PW
     Min          92      61     17                 3288     1789     275
     Max          93      62     18                 3295     1794     280
     Sum        2225    1481    429                78997    43003    6667
 

     Title: 
     CsIsalt                                                                    


     bravais-lattice index     =            1
     lattice parameter (alat)  =       8.8160  a.u.
     unit-cell volume          =     685.1896 (a.u.)^3
     number of atoms/cell      =            8
     number of atomic types    =            2
     number of electrons       =        64.00
     number of Kohn-Sham states=           64
     kinetic-energy cutoff     =      60.0000  Ry
     charge density cutoff     =     360.0000  Ry
     convergence threshold     =      1.0E-06
     mixing beta               =       0.5000
     number of iterations used =            8  plain     mixing
     Exchange-correlation      = SLA PW PSX PSC ( 1  4 10  8 0 0)
     Non magnetic calculation with spin-orbit


     celldm(1)=   8.815973  celldm(2)=   0.000000  celldm(3)=   0.000000
     celldm(4)=   0.000000  celldm(5)=   0.000000  celldm(6)=   0.000000

     crystal axes: (cart. coord. in units of alat)
               a(1) = (   1.000000   0.000000   0.000000 )  
               a(2) = (   0.000000   1.000000   0.000000 )  
               a(3) = (   0.000000   0.000000   1.000000 )  

     reciprocal axes: (cart. coord. in units 2 pi/alat)
               b(1) = (  1.000000  0.000000  0.000000 )  
               b(2) = (  0.000000  1.000000  0.000000 )  
               b(3) = (  0.000000  0.000000  1.000000 )  


     PseudoPot. # 1 for Cs read from file:
     /marconi_scratch/userexternal/cmalosso/degironcoli/pseudo/Cs.rel-pbesol-spn-kjpaw_psl.1.0.0.UPF
     MD5 check sum: 2adfb289dd462649b099d7edbec69378
     Pseudo is Projector augmented-wave + core cor, Zval =  9.0
     Generated using "atomic" code by A. Dal Corso v.6.4.1
     Shape of augmentation charge: PSQ
     Using radial grid of 1251 points, 15 beta functions with: 
                l(1) =   0
                l(2) =   0
                l(3) =   0
                l(4) =   1
                l(5) =   1
                l(6) =   1
                l(7) =   1
                l(8) =   2
                l(9) =   2
               l(10) =   2
               l(11) =   2
               l(12) =   3
               l(13) =   3
               l(14) =   3
               l(15) =   3
     Q(r) pseudized with 0 coefficients 


     PseudoPot. # 2 for I  read from file:
     /marconi_scratch/userexternal/cmalosso/degironcoli/pseudo/I.rel-pbesol-n-kjpaw_psl.1.0.0.UPF
     MD5 check sum: 4478c427bd443f303eca1937a163b991
     Pseudo is Projector augmented-wave + core cor, Zval =  7.0
     Generated using "atomic" code by A. Dal Corso v.6.3
     Shape of augmentation charge: PSQ
     Using radial grid of 1247 points, 10 beta functions with: 
                l(1) =   0
                l(2) =   0
                l(3) =   1
                l(4) =   1
                l(5) =   1
                l(6) =   1
                l(7) =   2
                l(8) =   2
                l(9) =   2
               l(10) =   2
     Q(r) pseudized with 0 coefficients 


     atomic species   valence    mass     pseudopotential
        Cs             9.00   132.90000     Cs( 1.00)
        I              7.00   126.90000     I ( 1.00)

     48 Sym. Ops., with inversion, found


                                    s                        frac. trans.

      isym =  1     identity                                     

 cryst.   s( 1) = (     1          0          0      )
                  (     0          1          0      )
                  (     0          0          1      )

 cart.    s( 1) = (  1.0000000  0.0000000  0.0000000 )
                  (  0.0000000  1.0000000  0.0000000 )
                  (  0.0000000  0.0000000  1.0000000 )


      isym =  2     180 deg rotation - cart. axis [0,0,1]        

 cryst.   s( 2) = (    -1          0          0      )
                  (     0         -1          0      )
                  (     0          0          1      )

 cart.    s( 2) = ( -1.0000000  0.0000000  0.0000000 )
                  (  0.0000000 -1.0000000  0.0000000 )
                  (  0.0000000  0.0000000  1.0000000 )


      isym =  3     180 deg rotation - cart. axis [0,1,0]        

 cryst.   s( 3) = (    -1          0          0      )
                  (     0          1          0      )
                  (     0          0         -1      )

 cart.    s( 3) = ( -1.0000000  0.0000000  0.0000000 )
                  (  0.0000000  1.0000000  0.0000000 )
                  (  0.0000000  0.0000000 -1.0000000 )


      isym =  4     180 deg rotation - cart. axis [1,0,0]        

 cryst.   s( 4) = (     1          0          0      )
                  (     0         -1          0      )
                  (     0          0         -1      )

 cart.    s( 4) = (  1.0000000  0.0000000  0.0000000 )
                  (  0.0000000 -1.0000000  0.0000000 )
                  (  0.0000000  0.0000000 -1.0000000 )


      isym =  5     180 deg rotation - cart. axis [1,1,0]        

 cryst.   s( 5) = (     0          1          0      )
                  (     1          0          0      )
                  (     0          0         -1      )

 cart.    s( 5) = (  0.0000000  1.0000000  0.0000000 )
                  (  1.0000000  0.0000000  0.0000000 )
                  (  0.0000000  0.0000000 -1.0000000 )


      isym =  6     180 deg rotation - cart. axis [1,-1,0]       

 cryst.   s( 6) = (     0         -1          0      )
                  (    -1          0          0      )
                  (     0          0         -1      )

 cart.    s( 6) = (  0.0000000 -1.0000000  0.0000000 )
                  ( -1.0000000  0.0000000  0.0000000 )
                  (  0.0000000  0.0000000 -1.0000000 )


      isym =  7      90 deg rotation - cart. axis [0,0,-1]       

 cryst.   s( 7) = (     0         -1          0      )
                  (     1          0          0      )
                  (     0          0          1      )

 cart.    s( 7) = (  0.0000000  1.0000000  0.0000000 )
                  ( -1.0000000  0.0000000  0.0000000 )
                  (  0.0000000  0.0000000  1.0000000 )


      isym =  8      90 deg rotation - cart. axis [0,0,1]        

 cryst.   s( 8) = (     0          1          0      )
                  (    -1          0          0      )
                  (     0          0          1      )

 cart.    s( 8) = (  0.0000000 -1.0000000  0.0000000 )
                  (  1.0000000  0.0000000  0.0000000 )
                  (  0.0000000  0.0000000  1.0000000 )


      isym =  9     180 deg rotation - cart. axis [1,0,1]        

 cryst.   s( 9) = (     0          0          1      )
                  (     0         -1          0      )
                  (     1          0          0      )

 cart.    s( 9) = (  0.0000000  0.0000000  1.0000000 )
                  (  0.0000000 -1.0000000  0.0000000 )
                  (  1.0000000  0.0000000  0.0000000 )


      isym = 10     180 deg rotation - cart. axis [-1,0,1]       

 cryst.   s(10) = (     0          0         -1      )
                  (     0         -1          0      )
                  (    -1          0          0      )

 cart.    s(10) = (  0.0000000  0.0000000 -1.0000000 )
                  (  0.0000000 -1.0000000  0.0000000 )
                  ( -1.0000000  0.0000000  0.0000000 )


      isym = 11      90 deg rotation - cart. axis [0,1,0]        

 cryst.   s(11) = (     0          0         -1      )
                  (     0          1          0      )
                  (     1          0          0      )

 cart.    s(11) = (  0.0000000  0.0000000  1.0000000 )
                  (  0.0000000  1.0000000  0.0000000 )
                  ( -1.0000000  0.0000000  0.0000000 )


      isym = 12      90 deg rotation - cart. axis [0,-1,0]       

 cryst.   s(12) = (     0          0          1      )
                  (     0          1          0      )
                  (    -1          0          0      )

 cart.    s(12) = (  0.0000000  0.0000000 -1.0000000 )
                  (  0.0000000  1.0000000  0.0000000 )
                  (  1.0000000  0.0000000  0.0000000 )


      isym = 13     180 deg rotation - cart. axis [0,1,1]        

 cryst.   s(13) = (    -1          0          0      )
                  (     0          0          1      )
                  (     0          1          0      )

 cart.    s(13) = ( -1.0000000  0.0000000  0.0000000 )
                  (  0.0000000  0.0000000  1.0000000 )
                  (  0.0000000  1.0000000  0.0000000 )


      isym = 14     180 deg rotation - cart. axis [0,1,-1]       

 cryst.   s(14) = (    -1          0          0      )
                  (     0          0         -1      )
                  (     0         -1          0      )

 cart.    s(14) = ( -1.0000000  0.0000000  0.0000000 )
                  (  0.0000000  0.0000000 -1.0000000 )
                  (  0.0000000 -1.0000000  0.0000000 )


      isym = 15      90 deg rotation - cart. axis [-1,0,0]       

 cryst.   s(15) = (     1          0          0      )
                  (     0          0         -1      )
                  (     0          1          0      )

 cart.    s(15) = (  1.0000000  0.0000000  0.0000000 )
                  (  0.0000000  0.0000000  1.0000000 )
                  (  0.0000000 -1.0000000  0.0000000 )


      isym = 16      90 deg rotation - cart. axis [1,0,0]        

 cryst.   s(16) = (     1          0          0      )
                  (     0          0          1      )
                  (     0         -1          0      )

 cart.    s(16) = (  1.0000000  0.0000000  0.0000000 )
                  (  0.0000000  0.0000000 -1.0000000 )
                  (  0.0000000  1.0000000  0.0000000 )


      isym = 17     120 deg rotation - cart. axis [-1,-1,-1]     

 cryst.   s(17) = (     0          0          1      )
                  (     1          0          0      )
                  (     0          1          0      )

 cart.    s(17) = (  0.0000000  1.0000000  0.0000000 )
                  (  0.0000000  0.0000000  1.0000000 )
                  (  1.0000000  0.0000000  0.0000000 )


      isym = 18     120 deg rotation - cart. axis [-1,1,1]       

 cryst.   s(18) = (     0          0         -1      )
                  (    -1          0          0      )
                  (     0          1          0      )

 cart.    s(18) = (  0.0000000 -1.0000000  0.0000000 )
                  (  0.0000000  0.0000000  1.0000000 )
                  ( -1.0000000  0.0000000  0.0000000 )


      isym = 19     120 deg rotation - cart. axis [1,1,-1]       

 cryst.   s(19) = (     0          0         -1      )
                  (     1          0          0      )
                  (     0         -1          0      )

 cart.    s(19) = (  0.0000000  1.0000000  0.0000000 )
                  (  0.0000000  0.0000000 -1.0000000 )
                  ( -1.0000000  0.0000000  0.0000000 )


      isym = 20     120 deg rotation - cart. axis [1,-1,1]       

 cryst.   s(20) = (     0          0          1      )
                  (    -1          0          0      )
                  (     0         -1          0      )

 cart.    s(20) = (  0.0000000 -1.0000000  0.0000000 )
                  (  0.0000000  0.0000000 -1.0000000 )
                  (  1.0000000  0.0000000  0.0000000 )


      isym = 21     120 deg rotation - cart. axis [1,1,1]        

 cryst.   s(21) = (     0          1          0      )
                  (     0          0          1      )
                  (     1          0          0      )

 cart.    s(21) = (  0.0000000  0.0000000  1.0000000 )
                  (  1.0000000  0.0000000  0.0000000 )
                  (  0.0000000  1.0000000  0.0000000 )


      isym = 22     120 deg rotation - cart. axis [-1,1,-1]      

 cryst.   s(22) = (     0         -1          0      )
                  (     0          0         -1      )
                  (     1          0          0      )

 cart.    s(22) = (  0.0000000  0.0000000  1.0000000 )
                  ( -1.0000000  0.0000000  0.0000000 )
                  (  0.0000000 -1.0000000  0.0000000 )


      isym = 23     120 deg rotation - cart. axis [1,-1,-1]      

 cryst.   s(23) = (     0         -1          0      )
                  (     0          0          1      )
                  (    -1          0          0      )

 cart.    s(23) = (  0.0000000  0.0000000 -1.0000000 )
                  ( -1.0000000  0.0000000  0.0000000 )
                  (  0.0000000  1.0000000  0.0000000 )


      isym = 24     120 deg rotation - cart. axis [-1,-1,1]      

 cryst.   s(24) = (     0          1          0      )
                  (     0          0         -1      )
                  (    -1          0          0      )

 cart.    s(24) = (  0.0000000  0.0000000 -1.0000000 )
                  (  1.0000000  0.0000000  0.0000000 )
                  (  0.0000000 -1.0000000  0.0000000 )


      isym = 25     inversion                                    

 cryst.   s(25) = (    -1          0          0      )
                  (     0         -1          0      )
                  (     0          0         -1      )

 cart.    s(25) = ( -1.0000000  0.0000000  0.0000000 )
                  (  0.0000000 -1.0000000  0.0000000 )
                  (  0.0000000  0.0000000 -1.0000000 )


      isym = 26     inv. 180 deg rotation - cart. axis [0,0,1]   

 cryst.   s(26) = (     1          0          0      )
                  (     0          1          0      )
                  (     0          0         -1      )

 cart.    s(26) = (  1.0000000  0.0000000  0.0000000 )
                  (  0.0000000  1.0000000  0.0000000 )
                  (  0.0000000  0.0000000 -1.0000000 )


      isym = 27     inv. 180 deg rotation - cart. axis [0,1,0]   

 cryst.   s(27) = (     1          0          0      )
                  (     0         -1          0      )
                  (     0          0          1      )

 cart.    s(27) = (  1.0000000  0.0000000  0.0000000 )
                  (  0.0000000 -1.0000000  0.0000000 )
                  (  0.0000000  0.0000000  1.0000000 )


      isym = 28     inv. 180 deg rotation - cart. axis [1,0,0]   

 cryst.   s(28) = (    -1          0          0      )
                  (     0          1          0      )
                  (     0          0          1      )

 cart.    s(28) = ( -1.0000000  0.0000000  0.0000000 )
                  (  0.0000000  1.0000000  0.0000000 )
                  (  0.0000000  0.0000000  1.0000000 )


      isym = 29     inv. 180 deg rotation - cart. axis [1,1,0]   

 cryst.   s(29) = (     0         -1          0      )
                  (    -1          0          0      )
                  (     0          0          1      )

 cart.    s(29) = (  0.0000000 -1.0000000  0.0000000 )
                  ( -1.0000000  0.0000000  0.0000000 )
                  (  0.0000000  0.0000000  1.0000000 )


      isym = 30     inv. 180 deg rotation - cart. axis [1,-1,0]  

 cryst.   s(30) = (     0          1          0      )
                  (     1          0          0      )
                  (     0          0          1      )

 cart.    s(30) = (  0.0000000  1.0000000  0.0000000 )
                  (  1.0000000  0.0000000  0.0000000 )
                  (  0.0000000  0.0000000  1.0000000 )


      isym = 31     inv.  90 deg rotation - cart. axis [0,0,-1]  

 cryst.   s(31) = (     0          1          0      )
                  (    -1          0          0      )
                  (     0          0         -1      )

 cart.    s(31) = (  0.0000000 -1.0000000  0.0000000 )
                  (  1.0000000  0.0000000  0.0000000 )
                  (  0.0000000  0.0000000 -1.0000000 )


      isym = 32     inv.  90 deg rotation - cart. axis [0,0,1]   

 cryst.   s(32) = (     0         -1          0      )
                  (     1          0          0      )
                  (     0          0         -1      )

 cart.    s(32) = (  0.0000000  1.0000000  0.0000000 )
                  ( -1.0000000  0.0000000  0.0000000 )
                  (  0.0000000  0.0000000 -1.0000000 )


      isym = 33     inv. 180 deg rotation - cart. axis [1,0,1]   

 cryst.   s(33) = (     0          0         -1      )
                  (     0          1          0      )
                  (    -1          0          0      )

 cart.    s(33) = (  0.0000000  0.0000000 -1.0000000 )
                  (  0.0000000  1.0000000  0.0000000 )
                  ( -1.0000000  0.0000000  0.0000000 )


      isym = 34     inv. 180 deg rotation - cart. axis [-1,0,1]  

 cryst.   s(34) = (     0          0          1      )
                  (     0          1          0      )
                  (     1          0          0      )

 cart.    s(34) = (  0.0000000  0.0000000  1.0000000 )
                  (  0.0000000  1.0000000  0.0000000 )
                  (  1.0000000  0.0000000  0.0000000 )


      isym = 35     inv.  90 deg rotation - cart. axis [0,1,0]   

 cryst.   s(35) = (     0          0          1      )
                  (     0         -1          0      )
                  (    -1          0          0      )

 cart.    s(35) = (  0.0000000  0.0000000 -1.0000000 )
                  (  0.0000000 -1.0000000  0.0000000 )
                  (  1.0000000  0.0000000  0.0000000 )


      isym = 36     inv.  90 deg rotation - cart. axis [0,-1,0]  

 cryst.   s(36) = (     0          0         -1      )
                  (     0         -1          0      )
                  (     1          0          0      )

 cart.    s(36) = (  0.0000000  0.0000000  1.0000000 )
                  (  0.0000000 -1.0000000  0.0000000 )
                  ( -1.0000000  0.0000000  0.0000000 )


      isym = 37     inv. 180 deg rotation - cart. axis [0,1,1]   

 cryst.   s(37) = (     1          0          0      )
                  (     0          0         -1      )
                  (     0         -1          0      )

 cart.    s(37) = (  1.0000000  0.0000000  0.0000000 )
                  (  0.0000000  0.0000000 -1.0000000 )
                  (  0.0000000 -1.0000000  0.0000000 )


      isym = 38     inv. 180 deg rotation - cart. axis [0,1,-1]  

 cryst.   s(38) = (     1          0          0      )
                  (     0          0          1      )
                  (     0          1          0      )

 cart.    s(38) = (  1.0000000  0.0000000  0.0000000 )
                  (  0.0000000  0.0000000  1.0000000 )
                  (  0.0000000  1.0000000  0.0000000 )


      isym = 39     inv.  90 deg rotation - cart. axis [-1,0,0]  

 cryst.   s(39) = (    -1          0          0      )
                  (     0          0          1      )
                  (     0         -1          0      )

 cart.    s(39) = ( -1.0000000  0.0000000  0.0000000 )
                  (  0.0000000  0.0000000 -1.0000000 )
                  (  0.0000000  1.0000000  0.0000000 )


      isym = 40     inv.  90 deg rotation - cart. axis [1,0,0]   

 cryst.   s(40) = (    -1          0          0      )
                  (     0          0         -1      )
                  (     0          1          0      )

 cart.    s(40) = ( -1.0000000  0.0000000  0.0000000 )
                  (  0.0000000  0.0000000  1.0000000 )
                  (  0.0000000 -1.0000000  0.0000000 )


      isym = 41     inv. 120 deg rotation - cart. axis [-1,-1,-1]

 cryst.   s(41) = (     0          0         -1      )
                  (    -1          0          0      )
                  (     0         -1          0      )

 cart.    s(41) = (  0.0000000 -1.0000000  0.0000000 )
                  (  0.0000000  0.0000000 -1.0000000 )
                  ( -1.0000000  0.0000000  0.0000000 )


      isym = 42     inv. 120 deg rotation - cart. axis [-1,1,1]  

 cryst.   s(42) = (     0          0          1      )
                  (     1          0          0      )
                  (     0         -1          0      )

 cart.    s(42) = (  0.0000000  1.0000000  0.0000000 )
                  (  0.0000000  0.0000000 -1.0000000 )
                  (  1.0000000  0.0000000  0.0000000 )


      isym = 43     inv. 120 deg rotation - cart. axis [1,1,-1]  

 cryst.   s(43) = (     0          0          1      )
                  (    -1          0          0      )
                  (     0          1          0      )

 cart.    s(43) = (  0.0000000 -1.0000000  0.0000000 )
                  (  0.0000000  0.0000000  1.0000000 )
                  (  1.0000000  0.0000000  0.0000000 )


      isym = 44     inv. 120 deg rotation - cart. axis [1,-1,1]  

 cryst.   s(44) = (     0          0         -1      )
                  (     1          0          0      )
                  (     0          1          0      )

 cart.    s(44) = (  0.0000000  1.0000000  0.0000000 )
                  (  0.0000000  0.0000000  1.0000000 )
                  ( -1.0000000  0.0000000  0.0000000 )


      isym = 45     inv. 120 deg rotation - cart. axis [1,1,1]   

 cryst.   s(45) = (     0         -1          0      )
                  (     0          0         -1      )
                  (    -1          0          0      )

 cart.    s(45) = (  0.0000000  0.0000000 -1.0000000 )
                  ( -1.0000000  0.0000000  0.0000000 )
                  (  0.0000000 -1.0000000  0.0000000 )


      isym = 46     inv. 120 deg rotation - cart. axis [-1,1,-1] 

 cryst.   s(46) = (     0          1          0      )
                  (     0          0          1      )
                  (    -1          0          0      )

 cart.    s(46) = (  0.0000000  0.0000000 -1.0000000 )
                  (  1.0000000  0.0000000  0.0000000 )
                  (  0.0000000  1.0000000  0.0000000 )


      isym = 47     inv. 120 deg rotation - cart. axis [1,-1,-1] 

 cryst.   s(47) = (     0          1          0      )
                  (     0          0         -1      )
                  (     1          0          0      )

 cart.    s(47) = (  0.0000000  0.0000000  1.0000000 )
                  (  1.0000000  0.0000000  0.0000000 )
                  (  0.0000000 -1.0000000  0.0000000 )


      isym = 48     inv. 120 deg rotation - cart. axis [-1,-1,1] 

 cryst.   s(48) = (     0         -1          0      )
                  (     0          0          1      )
                  (     1          0          0      )

 cart.    s(48) = (  0.0000000  0.0000000  1.0000000 )
                  ( -1.0000000  0.0000000  0.0000000 )
                  (  0.0000000  1.0000000  0.0000000 )


     double point group O_h (m-3m) 
     there are 16 classes and  6 irreducible representations
     the character table:

       E     -E    8C3   -8C3   3C2  6C4   -6C4   6C2' i     -i    8S6   -8S6 
                               -3C2              -6C2'                        
G_6+   2.00 -2.00  1.00 -1.00  0.00  1.41 -1.41  0.00  2.00 -2.00  1.00 -1.00
G_7+   2.00 -2.00  1.00 -1.00  0.00 -1.41  1.41  0.00  2.00 -2.00  1.00 -1.00
G_8+   4.00 -4.00 -1.00  1.00  0.00  0.00  0.00  0.00  4.00 -4.00 -1.00  1.00
G_6-   2.00 -2.00  1.00 -1.00  0.00  1.41 -1.41  0.00 -2.00  2.00 -1.00  1.00
G_7-   2.00 -2.00  1.00 -1.00  0.00 -1.41  1.41  0.00 -2.00  2.00 -1.00  1.00
G_8-   4.00 -4.00 -1.00  1.00  0.00  0.00  0.00  0.00 -4.00  4.00  1.00 -1.00

        3s_h 6S4   -6S4   6s_d
       -3s_h             -6s_d
G_6+   0.00  1.41 -1.41  0.00
G_7+   0.00 -1.41  1.41  0.00
G_8+   0.00  0.00  0.00  0.00
G_6-   0.00 -1.41  1.41  0.00
G_7-   0.00  1.41 -1.41  0.00
G_8-   0.00  0.00  0.00  0.00

     the symmetry operations in each class and the name of the first element:

     E             1
          identity                                               
     -E           -1
          identity E                                             
     8C3          17   19   20   18   24   21   22   23
          120 deg rotation - cart. axis [-1,-1,-1]               
     -8C3        -17  -19  -20  -18  -24  -21  -22  -23
          120 deg rotation - cart. axis [-1,-1,-1] E             
      3C2 -3C2     2   -2    4   -4    3   -3
          180 deg rotation - cart. axis [0,0,1]                  
     6C4           7    8   15   16   12   11
           90 deg rotation - cart. axis [0,0,-1]                 
     -6C4         -7   -8  -15  -16  -12  -11
           90 deg rotation - cart. axis [0,0,-1] E               
      6C2'-6C2'    5   -5   -6    6   14  -13  -14   13   10   -9  -10    9
          180 deg rotation - cart. axis [1,1,0]                  
     i            25
          inversion                                              
     -i          -25
          inversion E                                            
     8S6          41   43   44   42   48   45   46   47
          inv. 120 deg rotation - cart. axis [-1,-1,-1]          
     -8S6        -41  -43  -44  -42  -48  -45  -46  -47
          inv. 120 deg rotation - cart. axis [-1,-1,-1] E        
      3s_h-3s_h   26  -26   28  -28   27  -27
          inv. 180 deg rotation - cart. axis [0,0,1]             
     6S4          31   32   39   40   36   35
          inv.  90 deg rotation - cart. axis [0,0,-1]            
     -6S4        -31  -32  -39  -40  -36  -35
          inv.  90 deg rotation - cart. axis [0,0,-1] E          
      6s_d-6s_d   29  -29  -30   30   38  -37  -38   37   34  -33  -34   33
          inv. 180 deg rotation - cart. axis [1,1,0]             

   Cartesian axes

     site n.     atom                  positions (alat units)
         1           Cs  tau(   1) = (   0.0000000   0.0000000   0.0000000  )
         2           Cs  tau(   2) = (   0.0000000   0.5000000   0.5000000  )
         3           Cs  tau(   3) = (   0.5000000   0.0000000   0.5000000  )
         4           Cs  tau(   4) = (   0.5000000   0.5000000   0.0000000  )
         5           I   tau(   5) = (   0.5000000   0.0000000   0.0000000  )
         6           I   tau(   6) = (   0.5000000   0.5000000   0.5000000  )
         7           I   tau(   7) = (   0.0000000   0.0000000   0.5000000  )
         8           I   tau(   8) = (   0.0000000   0.5000000   0.0000000  )

   Crystallographic axes

     site n.     atom                  positions (cryst. coord.)
         1           Cs  tau(   1) = (  0.0000000  0.0000000  0.0000000  )
         2           Cs  tau(   2) = (  0.0000000  0.5000000  0.5000000  )
         3           Cs  tau(   3) = (  0.5000000  0.0000000  0.5000000  )
         4           Cs  tau(   4) = (  0.5000000  0.5000000  0.0000000  )
         5           I   tau(   5) = (  0.5000000  0.0000000  0.0000000  )
         6           I   tau(   6) = (  0.5000000  0.5000000  0.5000000  )
         7           I   tau(   7) = (  0.0000000  0.0000000  0.5000000  )
         8           I   tau(   8) = (  0.0000000  0.5000000  0.0000000  )

     number of k points=    56
                       cart. coord. in units 2pi/alat
        k(    1) = (   0.0416667   0.0416667   0.0416667), wk =   0.0046296
        k(    2) = (   0.0416667   0.0416667   0.1250000), wk =   0.0138889
        k(    3) = (   0.0416667   0.0416667   0.2083333), wk =   0.0138889
        k(    4) = (   0.0416667   0.0416667   0.2916667), wk =   0.0138889
        k(    5) = (   0.0416667   0.0416667   0.3750000), wk =   0.0138889
        k(    6) = (   0.0416667   0.0416667   0.4583333), wk =   0.0138889
        k(    7) = (   0.0416667   0.1250000   0.1250000), wk =   0.0138889
        k(    8) = (   0.0416667   0.1250000   0.2083333), wk =   0.0277778
        k(    9) = (   0.0416667   0.1250000   0.2916667), wk =   0.0277778
        k(   10) = (   0.0416667   0.1250000   0.3750000), wk =   0.0277778
        k(   11) = (   0.0416667   0.1250000   0.4583333), wk =   0.0277778
        k(   12) = (   0.0416667   0.2083333   0.2083333), wk =   0.0138889
        k(   13) = (   0.0416667   0.2083333   0.2916667), wk =   0.0277778
        k(   14) = (   0.0416667   0.2083333   0.3750000), wk =   0.0277778
        k(   15) = (   0.0416667   0.2083333   0.4583333), wk =   0.0277778
        k(   16) = (   0.0416667   0.2916667   0.2916667), wk =   0.0138889
        k(   17) = (   0.0416667   0.2916667   0.3750000), wk =   0.0277778
        k(   18) = (   0.0416667   0.2916667   0.4583333), wk =   0.0277778
        k(   19) = (   0.0416667   0.3750000   0.3750000), wk =   0.0138889
        k(   20) = (   0.0416667   0.3750000   0.4583333), wk =   0.0277778
        k(   21) = (   0.0416667   0.4583333   0.4583333), wk =   0.0138889
        k(   22) = (   0.1250000   0.1250000   0.1250000), wk =   0.0046296
        k(   23) = (   0.1250000   0.1250000   0.2083333), wk =   0.0138889
        k(   24) = (   0.1250000   0.1250000   0.2916667), wk =   0.0138889
        k(   25) = (   0.1250000   0.1250000   0.3750000), wk =   0.0138889
        k(   26) = (   0.1250000   0.1250000   0.4583333), wk =   0.0138889
        k(   27) = (   0.1250000   0.2083333   0.2083333), wk =   0.0138889
        k(   28) = (   0.1250000   0.2083333   0.2916667), wk =   0.0277778
        k(   29) = (   0.1250000   0.2083333   0.3750000), wk =   0.0277778
        k(   30) = (   0.1250000   0.2083333   0.4583333), wk =   0.0277778
        k(   31) = (   0.1250000   0.2916667   0.2916667), wk =   0.0138889
        k(   32) = (   0.1250000   0.2916667   0.3750000), wk =   0.0277778
        k(   33) = (   0.1250000   0.2916667   0.4583333), wk =   0.0277778
        k(   34) = (   0.1250000   0.3750000   0.3750000), wk =   0.0138889
        k(   35) = (   0.1250000   0.3750000   0.4583333), wk =   0.0277778
        k(   36) = (   0.1250000   0.4583333   0.4583333), wk =   0.0138889
        k(   37) = (   0.2083333   0.2083333   0.2083333), wk =   0.0046296
        k(   38) = (   0.2083333   0.2083333   0.2916667), wk =   0.0138889
        k(   39) = (   0.2083333   0.2083333   0.3750000), wk =   0.0138889
        k(   40) = (   0.2083333   0.2083333   0.4583333), wk =   0.0138889
        k(   41) = (   0.2083333   0.2916667   0.2916667), wk =   0.0138889
        k(   42) = (   0.2083333   0.2916667   0.3750000), wk =   0.0277778
        k(   43) = (   0.2083333   0.2916667   0.4583333), wk =   0.0277778
        k(   44) = (   0.2083333   0.3750000   0.3750000), wk =   0.0138889
        k(   45) = (   0.2083333   0.3750000   0.4583333), wk =   0.0277778
        k(   46) = (   0.2083333   0.4583333   0.4583333), wk =   0.0138889
        k(   47) = (   0.2916667   0.2916667   0.2916667), wk =   0.0046296
        k(   48) = (   0.2916667   0.2916667   0.3750000), wk =   0.0138889
        k(   49) = (   0.2916667   0.2916667   0.4583333), wk =   0.0138889
        k(   50) = (   0.2916667   0.3750000   0.3750000), wk =   0.0138889
        k(   51) = (   0.2916667   0.3750000   0.4583333), wk =   0.0277778
        k(   52) = (   0.2916667   0.4583333   0.4583333), wk =   0.0138889
        k(   53) = (   0.3750000   0.3750000   0.3750000), wk =   0.0046296
        k(   54) = (   0.3750000   0.3750000   0.4583333), wk =   0.0138889
        k(   55) = (   0.3750000   0.4583333   0.4583333), wk =   0.0138889
        k(   56) = (   0.4583333   0.4583333   0.4583333), wk =   0.0046296

                       cryst. coord.
        k(    1) = (   0.0416667   0.0416667   0.0416667), wk =   0.0046296
        k(    2) = (   0.0416667   0.0416667   0.1250000), wk =   0.0138889
        k(    3) = (   0.0416667   0.0416667   0.2083333), wk =   0.0138889
        k(    4) = (   0.0416667   0.0416667   0.2916667), wk =   0.0138889
        k(    5) = (   0.0416667   0.0416667   0.3750000), wk =   0.0138889
        k(    6) = (   0.0416667   0.0416667   0.4583333), wk =   0.0138889
        k(    7) = (   0.0416667   0.1250000   0.1250000), wk =   0.0138889
        k(    8) = (   0.0416667   0.1250000   0.2083333), wk =   0.0277778
        k(    9) = (   0.0416667   0.1250000   0.2916667), wk =   0.0277778
        k(   10) = (   0.0416667   0.1250000   0.3750000), wk =   0.0277778
        k(   11) = (   0.0416667   0.1250000   0.4583333), wk =   0.0277778
        k(   12) = (   0.0416667   0.2083333   0.2083333), wk =   0.0138889
        k(   13) = (   0.0416667   0.2083333   0.2916667), wk =   0.0277778
        k(   14) = (   0.0416667   0.2083333   0.3750000), wk =   0.0277778
        k(   15) = (   0.0416667   0.2083333   0.4583333), wk =   0.0277778
        k(   16) = (   0.0416667   0.2916667   0.2916667), wk =   0.0138889
        k(   17) = (   0.0416667   0.2916667   0.3750000), wk =   0.0277778
        k(   18) = (   0.0416667   0.2916667   0.4583333), wk =   0.0277778
        k(   19) = (   0.0416667   0.3750000   0.3750000), wk =   0.0138889
        k(   20) = (   0.0416667   0.3750000   0.4583333), wk =   0.0277778
        k(   21) = (   0.0416667   0.4583333   0.4583333), wk =   0.0138889
        k(   22) = (   0.1250000   0.1250000   0.1250000), wk =   0.0046296
        k(   23) = (   0.1250000   0.1250000   0.2083333), wk =   0.0138889
        k(   24) = (   0.1250000   0.1250000   0.2916667), wk =   0.0138889
        k(   25) = (   0.1250000   0.1250000   0.3750000), wk =   0.0138889
        k(   26) = (   0.1250000   0.1250000   0.4583333), wk =   0.0138889
        k(   27) = (   0.1250000   0.2083333   0.2083333), wk =   0.0138889
        k(   28) = (   0.1250000   0.2083333   0.2916667), wk =   0.0277778
        k(   29) = (   0.1250000   0.2083333   0.3750000), wk =   0.0277778
        k(   30) = (   0.1250000   0.2083333   0.4583333), wk =   0.0277778
        k(   31) = (   0.1250000   0.2916667   0.2916667), wk =   0.0138889
        k(   32) = (   0.1250000   0.2916667   0.3750000), wk =   0.0277778
        k(   33) = (   0.1250000   0.2916667   0.4583333), wk =   0.0277778
        k(   34) = (   0.1250000   0.3750000   0.3750000), wk =   0.0138889
        k(   35) = (   0.1250000   0.3750000   0.4583333), wk =   0.0277778
        k(   36) = (   0.1250000   0.4583333   0.4583333), wk =   0.0138889
        k(   37) = (   0.2083333   0.2083333   0.2083333), wk =   0.0046296
        k(   38) = (   0.2083333   0.2083333   0.2916667), wk =   0.0138889
        k(   39) = (   0.2083333   0.2083333   0.3750000), wk =   0.0138889
        k(   40) = (   0.2083333   0.2083333   0.4583333), wk =   0.0138889
        k(   41) = (   0.2083333   0.2916667   0.2916667), wk =   0.0138889
        k(   42) = (   0.2083333   0.2916667   0.3750000), wk =   0.0277778
        k(   43) = (   0.2083333   0.2916667   0.4583333), wk =   0.0277778
        k(   44) = (   0.2083333   0.3750000   0.3750000), wk =   0.0138889
        k(   45) = (   0.2083333   0.3750000   0.4583333), wk =   0.0277778
        k(   46) = (   0.2083333   0.4583333   0.4583333), wk =   0.0138889
        k(   47) = (   0.2916667   0.2916667   0.2916667), wk =   0.0046296
        k(   48) = (   0.2916667   0.2916667   0.3750000), wk =   0.0138889
        k(   49) = (   0.2916667   0.2916667   0.4583333), wk =   0.0138889
        k(   50) = (   0.2916667   0.3750000   0.3750000), wk =   0.0138889
        k(   51) = (   0.2916667   0.3750000   0.4583333), wk =   0.0277778
        k(   52) = (   0.2916667   0.4583333   0.4583333), wk =   0.0138889
        k(   53) = (   0.3750000   0.3750000   0.3750000), wk =   0.0046296
        k(   54) = (   0.3750000   0.3750000   0.4583333), wk =   0.0138889
        k(   55) = (   0.3750000   0.4583333   0.4583333), wk =   0.0138889
        k(   56) = (   0.4583333   0.4583333   0.4583333), wk =   0.0046296

     Dense  grid:    78997 G-vectors     FFT dimensions: (  54,  54,  54)

     Smooth grid:    43003 G-vectors     FFT dimensions: (  45,  45,  45)

     Dynamical RAM for                 wfc:       0.44 MB

     Dynamical RAM for     wfc (w. buffer):      24.94 MB

     Dynamical RAM for           str. fact:       0.10 MB

     Dynamical RAM for           local pot:       0.00 MB

     Dynamical RAM for          nlocal pot:       1.33 MB

     Dynamical RAM for                qrad:      34.17 MB

     Dynamical RAM for          rho,v,vnew:       1.40 MB

     Dynamical RAM for               rhoin:       0.47 MB

     Dynamical RAM for            rho*nmix:       3.21 MB

     Dynamical RAM for           G-vectors:       0.20 MB

     Dynamical RAM for          h,s,v(r/c):       0.33 MB

     Dynamical RAM for          <psi|beta>:       0.76 MB

     Dynamical RAM for                 psi:       1.75 MB

     Dynamical RAM for                hpsi:       1.75 MB

     Dynamical RAM for                spsi:       1.75 MB

     Dynamical RAM for      wfcinit/wfcrot:       0.86 MB

     Dynamical RAM for           addusdens:     102.76 MB

     Dynamical RAM for          addusforce:     104.06 MB

     Dynamical RAM for         addusstress:     104.07 MB

     Estimated static dynamical RAM per process >      66.51 MB

     Estimated max dynamical RAM per process >     170.57 MB

     Estimated total dynamical RAM >       4.00 GB

     Initial potential from superposition of free atoms

     starting charge   63.84620, renormalised to   64.00000
     Starting wfcs are   72 randomized atomic wfcs
     Checking if some PAW data can be deallocated... 
       PAW data deallocated on   12 nodes for type:  1
       PAW data deallocated on   12 nodes for type:  2

     total cpu time spent up to now is       27.8 secs

     Self-consistent Calculation

     iteration #  1     ecut=    60.00 Ry     beta= 0.50
     Davidson diagonalization with overlap
     ethr =  1.00E-02,  avg # of iterations =  6.4

     Threshold (ethr) on eigenvalues was too large:
     Diagonalizing with lowered threshold

     Davidson diagonalization with overlap
     c_bands:  1 eigenvalues not converged
     ethr =  1.55E-04,  avg # of iterations =  9.7

     total cpu time spent up to now is      287.1 secs

     total energy              =   -3131.14523211 Ry
     Harris-Foulkes estimate   =   -3131.18543460 Ry
     estimated scf accuracy    <       0.11925499 Ry

     iteration #  2     ecut=    60.00 Ry     beta= 0.50
     Davidson diagonalization with overlap
     ethr =  1.86E-04,  avg # of iterations =  1.6

     total cpu time spent up to now is      348.2 secs

     total energy              =   -3131.14739986 Ry
     Harris-Foulkes estimate   =   -3131.15168699 Ry
     estimated scf accuracy    <       0.02039441 Ry

     iteration #  3     ecut=    60.00 Ry     beta= 0.50
     Davidson diagonalization with overlap
     ethr =  3.19E-05,  avg # of iterations =  5.2

     total cpu time spent up to now is      461.9 secs

     total energy              =   -3131.15896332 Ry
     Harris-Foulkes estimate   =   -3131.16158761 Ry
     estimated scf accuracy    <       0.00511491 Ry

     iteration #  4     ecut=    60.00 Ry     beta= 0.50
     Davidson diagonalization with overlap
     c_bands:  1 eigenvalues not converged
     c_bands:  1 eigenvalues not converged
     ethr =  7.99E-06,  avg # of iterations =  3.7

     total cpu time spent up to now is      543.3 secs

     total energy              =   -3131.15989157 Ry
     Harris-Foulkes estimate   =   -3131.16012195 Ry
     estimated scf accuracy    <       0.00135526 Ry

     iteration #  5     ecut=    60.00 Ry     beta= 0.50
     Davidson diagonalization with overlap
     ethr =  2.12E-06,  avg # of iterations =  5.7

     total cpu time spent up to now is      655.7 secs

     total energy              =   -3131.16067134 Ry
     Harris-Foulkes estimate   =   -3131.16070321 Ry
     estimated scf accuracy    <       0.00006637 Ry

     iteration #  6     ecut=    60.00 Ry     beta= 0.50
     Davidson diagonalization with overlap
     c_bands:  1 eigenvalues not converged
     ethr =  1.04E-07,  avg # of iterations =  5.1

     total cpu time spent up to now is      775.0 secs

     total energy              =   -3131.16074470 Ry
     Harris-Foulkes estimate   =   -3131.16085823 Ry
     estimated scf accuracy    <       0.00014454 Ry

     iteration #  7     ecut=    60.00 Ry     beta= 0.50
     Davidson diagonalization with overlap
     c_bands:  1 eigenvalues not converged
     ethr =  1.04E-07,  avg # of iterations =  4.9

     total cpu time spent up to now is      887.2 secs

     total energy              =   -3131.16085376 Ry
     Harris-Foulkes estimate   =   -3131.16088059 Ry
     estimated scf accuracy    <       0.00005416 Ry

     iteration #  8     ecut=    60.00 Ry     beta= 0.50
     Davidson diagonalization with overlap
     c_bands:  2 eigenvalues not converged
     c_bands:  1 eigenvalues not converged
     c_bands:  1 eigenvalues not converged
     ethr =  8.46E-08,  avg # of iterations =  6.1

     total cpu time spent up to now is      993.1 secs

     total energy              =   -3131.16086739 Ry
     Harris-Foulkes estimate   =   -3131.16086802 Ry
     estimated scf accuracy    <       0.00000127 Ry

     iteration #  9     ecut=    60.00 Ry     beta= 0.50
     Davidson diagonalization with overlap
     c_bands:  2 eigenvalues not converged
     c_bands:  1 eigenvalues not converged
     c_bands:  1 eigenvalues not converged
     c_bands:  2 eigenvalues not converged
     c_bands:  2 eigenvalues not converged
     c_bands:  2 eigenvalues not converged
     c_bands:  1 eigenvalues not converged
     c_bands:  1 eigenvalues not converged
     c_bands:  2 eigenvalues not converged
     c_bands:  2 eigenvalues not converged
     c_bands:  1 eigenvalues not converged
     c_bands:  1 eigenvalues not converged
     c_bands:  1 eigenvalues not converged
     c_bands:  2 eigenvalues not converged
     c_bands:  2 eigenvalues not converged
     ethr =  1.98E-09,  avg # of iterations = 12.8

     total cpu time spent up to now is     1152.0 secs

     total energy              =   -3131.16086891 Ry
     Harris-Foulkes estimate   =   -3131.16086979 Ry
     estimated scf accuracy    <       0.00000171 Ry

     iteration # 10     ecut=    60.00 Ry     beta= 0.50
     Davidson diagonalization with overlap
     c_bands:  2 eigenvalues not converged
     c_bands:  2 eigenvalues not converged
     c_bands:  1 eigenvalues not converged
     ethr =  1.98E-09,  avg # of iterations =  6.6

     total cpu time spent up to now is     1261.7 secs

     End of self-consistent calculation

          k = 0.0417 0.0417 0.0417 (  5395 PWs)   bands (ev):

    -1.9022  -1.9022   2.6009   2.6009   2.6023   2.6023   2.6023   2.6023
     8.7865   8.7865   8.7866   8.7866   8.7867   8.7867  10.9096  10.9096
    10.9096  10.9096  10.9096  10.9096  12.2794  12.2794  12.2796  12.2796
    12.2798  12.2798  13.2152  13.2152  13.2152  13.2152  13.2156  13.2156
    14.6944  14.6944  16.2376  16.2376  16.6316  16.6316  18.8242  18.8242
    22.2752  22.2752  22.2752  22.2752  22.2752  22.2752  25.2402  25.2402
    26.5816  26.5816  26.6410  26.6410  26.8471  26.8471  26.8826  26.8826
    27.0370  27.0370  29.6555  29.6555  29.6557  29.6557  29.6558  29.6558

     occupation numbers 
     1.0000   1.0000   1.0000   1.0000   1.0000   1.0000   1.0000   1.0000
     1.0000   1.0000   1.0000   1.0000   1.0000   1.0000   1.0000   1.0000
     1.0000   1.0000   1.0000   1.0000   1.0000   1.0000   1.0000   1.0000
     1.0000   1.0000   1.0000   1.0000   1.0000   1.0000   1.0000   1.0000
     1.0000   1.0000   1.0000   1.0000   1.0000   1.0000   1.0000   1.0000
     1.0000   1.0000   1.0000   1.0000   1.0000   1.0000   1.0000   1.0000
     1.0000   1.0000   1.0000   1.0000   1.0000   1.0000   1.0000   1.0000
     1.0000   1.0000   1.0000   1.0000   1.0000   1.0000   1.0000   1.0000

          k = 0.0417 0.0417 0.1250 (  5377 PWs)   bands (ev):

    -1.8111  -1.8111   2.2817   2.2817   2.6457   2.6457   2.6467   2.6467
     8.8506   8.8506   8.8508   8.8508   9.0891   9.0891  10.1337  10.1337
    10.1338  10.1338  11.1974  11.1974  12.3275  12.3275  12.3276  12.3276
    12.3865  12.3865  13.3132  13.3132  14.0226  14.0226  14.0230  14.0230
    14.3092  14.3092  15.7567  15.7567  16.5116  16.5116  19.6508  19.6508
    22.3547  22.3547  22.6360  22.6360  22.6360  22.6360  24.6061  24.6061
    26.0564  26.0564  26.3133  26.3133  26.7468  26.7468  27.1981  27.1981
    27.4165  27.4165  28.8803  28.8803  28.8806  28.8806  29.4146  29.4146

     occupation numbers 
     1.0000   1.0000   1.0000   1.0000   1.0000   1.0000   1.0000   1.0000
     1.0000   1.0000   1.0000   1.0000   1.0000   1.0000   1.0000   1.0000
     1.0000   1.0000   1.0000   1.0000   1.0000   1.0000   1.0000   1.0000
     1.0000   1.0000   1.0000   1.0000   1.0000   1.0000   1.0000   1.0000
     1.0000   1.0000   1.0000   1.0000   1.0000   1.0000   1.0000   1.0000
     1.0000   1.0000   1.0000   1.0000   1.0000   1.0000   1.0000   1.0000
     1.0000   1.0000   1.0000   1.0000   1.0000   1.0000   1.0000   1.0000
     1.0000   1.0000   1.0000   1.0000   1.0000   1.0000   1.0000   1.0000

          k = 0.0417 0.0417 0.2083 (  5376 PWs)   bands (ev):

    -1.6296  -1.6296   1.7564   1.7564   2.7268   2.7268   2.7278   2.7278
     8.8792   8.8792   8.8794   8.8794   9.4780   9.4780   9.4781   9.4781
     9.5338   9.5338  11.7760  11.7760  12.0207  12.0207  12.0208  12.0208
    12.6290  12.6290  13.5165  13.5165  13.6642  13.6642  15.2634  15.2634
    15.2905  15.2905  15.2908  15.2908  16.1951  16.1951  20.7723  20.7723
    22.5136  22.5136  23.2340  23.2340  23.3109  23.3109  23.3109  23.3109
    25.6371  25.6371  26.0364  26.0364  26.8428  26.8428  27.3860  27.3860
    27.3863  27.3863  27.8759  27.8759  28.1022  28.1022  28.9918  28.9918

     occupation numbers 
     1.0000   1.0000   1.0000   1.0000   1.0000   1.0000   1.0000   1.0000
     1.0000   1.0000   1.0000   1.0000   1.0000   1.0000   1.0000   1.0000
     1.0000   1.0000   1.0000   1.0000   1.0000   1.0000   1.0000   1.0000
     1.0000   1.0000   1.0000   1.0000   1.0000   1.0000   1.0000   1.0000
     1.0000   1.0000   1.0000   1.0000   1.0000   1.0000   1.0000   1.0000
     1.0000   1.0000   1.0000   1.0000   1.0000   1.0000   1.0000   1.0000
     1.0000   1.0000   1.0000   1.0000   1.0000   1.0000   1.0000   1.0000
     1.0000   1.0000   1.0000   1.0000   1.0000   1.0000   1.0000   1.0000

          k = 0.0417 0.0417 0.2917 (  5358 PWs)   bands (ev):

    -1.3588  -1.3588   1.1470   1.1470   2.8281   2.8281   2.8292   2.8292
     8.4959   8.4959   8.4960   8.4960   9.4520   9.4520   9.4522   9.4522
     9.9996   9.9996  11.5810  11.5810  11.5812  11.5812  12.4418  12.4418
    12.9380  12.9380  13.1464  13.1464  13.8763  13.8763  14.7787  14.7787
    15.7680  15.7680  16.7272  16.7272  16.7276  16.7276  20.8830  20.8830
    22.7512  22.7512  22.8111  22.8111  24.2318  24.2318  24.2318  24.2318
    25.0409  25.0409  25.6607  25.6607  25.6610  25.6610  26.1734  26.1734
    27.1001  27.1001  28.4649  28.4649  28.7676  28.7676  28.9877  28.9877

     occupation numbers 
     1.0000   1.0000   1.0000   1.0000   1.0000   1.0000   1.0000   1.0000
     1.0000   1.0000   1.0000   1.0000   1.0000   1.0000   1.0000   1.0000
     1.0000   1.0000   1.0000   1.0000   1.0000   1.0000   1.0000   1.0000
     1.0000   1.0000   1.0000   1.0000   1.0000   1.0000   1.0000   1.0000
     1.0000   1.0000   1.0000   1.0000   1.0000   1.0000   1.0000   1.0000
     1.0000   1.0000   1.0000   1.0000   1.0000   1.0000   1.0000   1.0000
     1.0000   1.0000   1.0000   1.0000   1.0000   1.0000   1.0000   1.0000
     1.0000   1.0000   1.0000   1.0000   1.0000   1.0000   1.0000   1.0000

          k = 0.0417 0.0417 0.3750 (  5373 PWs)   bands (ev):

    -1.0011  -1.0011   0.5317   0.5317   2.9241   2.9241   2.9252   2.9252
     8.0601   8.0601   8.0602   8.0602   9.7380   9.7380   9.7382   9.7382
    10.4789  10.4789  11.0977  11.0977  11.0978  11.0978  12.2315  12.2315
    12.9203  12.9203  13.8265  13.8265  14.2907  14.2907  14.6876  14.6876
    15.2902  15.2902  18.2438  18.2438  18.2442  18.2442  19.3187  19.3187
    23.0664  23.0664  23.8999  23.8999  23.9002  23.9002  24.1630  24.1630
    24.4657  24.4657  25.3582  25.3582  25.3582  25.3582  26.4819  26.4819
    27.4753  27.4753  27.8964  27.8964  28.9551  28.9551  29.3948  29.3948

     occupation numbers 
     1.0000   1.0000   1.0000   1.0000   1.0000   1.0000   1.0000   1.0000
     1.0000   1.0000   1.0000   1.0000   1.0000   1.0000   1.0000   1.0000
     1.0000   1.0000   1.0000   1.0000   1.0000   1.0000   1.0000   1.0000
     1.0000   1.0000   1.0000   1.0000   1.0000   1.0000   1.0000   1.0000
     1.0000   1.0000   1.0000   1.0000   1.0000   1.0000   1.0000   1.0000
     1.0000   1.0000   1.0000   1.0000   1.0000   1.0000   1.0000   1.0000
     1.0000   1.0000   1.0000   1.0000   1.0000   1.0000   1.0000   1.0000
     1.0000   1.0000   1.0000   1.0000   1.0000   1.0000   1.0000   1.0000

          k = 0.0417 0.0417 0.4583 (  5376 PWs)   bands (ev):

    -0.5609  -0.5609  -0.0455  -0.0455   2.9837   2.9837   2.9848   2.9848
     7.8185   7.8185   7.8186   7.8186  10.1007  10.1007  10.1011  10.1011
    10.6380  10.6380  10.6384  10.6384  10.9999  10.9999  11.5823  11.5823
    13.3540  13.3540  13.8108  13.8108  14.3253  14.3253  14.8026  14.8026
    16.0475  16.0475  17.6359  17.6359  19.6476  19.6476  19.6481  19.6481
    22.3756  22.3756  22.3758  22.3758  23.4574  23.4574  23.9207  23.9207
    25.8034  25.8034  26.6071  26.6071  26.6072  26.6072  26.9108  26.9108
    27.2659  27.2659  27.6575  27.6575  27.9495  27.9495  27.9737  27.9737

     occupation numbers 
     1.0000   1.0000   1.0000   1.0000   1.0000   1.0000   1.0000   1.0000
     1.0000   1.0000   1.0000   1.0000   1.0000   1.0000   1.0000   1.0000
     1.0000   1.0000   1.0000   1.0000   1.0000   1.0000   1.0000   1.0000
     1.0000   1.0000   1.0000   1.0000   1.0000   1.0000   1.0000   1.0000
     1.0000   1.0000   1.0000   1.0000   1.0000   1.0000   1.0000   1.0000
     1.0000   1.0000   1.0000   1.0000   1.0000   1.0000   1.0000   1.0000
     1.0000   1.0000   1.0000   1.0000   1.0000   1.0000   1.0000   1.0000
     1.0000   1.0000   1.0000   1.0000   1.0000   1.0000   1.0000   1.0000

          k = 0.0417 0.1250 0.1250 (  5370 PWs)   bands (ev):

    -1.7204  -1.7204   2.3343   2.3343   2.3352   2.3352   2.6840   2.6840
     8.8704   8.8704   9.0092   9.0092   9.0095   9.0095   9.5769   9.5769
    10.5570  10.5570  10.5573  10.5573  12.4243  12.4243  12.4248  12.4248
    12.7065  12.7065  13.7816  13.7816  14.1289  14.1289  14.1291  14.1291
    14.3200  14.3200  15.5469  15.5469  16.6221  16.6221  20.1006  20.1006
    22.7147  22.7147  22.7147  22.7147  23.0057  23.0057  24.3408  24.3408
    25.4704  25.4704  26.1114  26.1114  26.9611  26.9611  27.0138  27.0138
    27.6151  27.6151  28.5191  28.5191  28.6007  28.6007  28.6008  28.6008

     occupation numbers 
     1.0000   1.0000   1.0000   1.0000   1.0000   1.0000   1.0000   1.0000
     1.0000   1.0000   1.0000   1.0000   1.0000   1.0000   1.0000   1.0000
     1.0000   1.0000   1.0000   1.0000   1.0000   1.0000   1.0000   1.0000
     1.0000   1.0000   1.0000   1.0000   1.0000   1.0000   1.0000   1.0000
     1.0000   1.0000   1.0000   1.0000   1.0000   1.0000   1.0000   1.0000
     1.0000   1.0000   1.0000   1.0000   1.0000   1.0000   1.0000   1.0000
     1.0000   1.0000   1.0000   1.0000   1.0000   1.0000   1.0000   1.0000
     1.0000   1.0000   1.0000   1.0000   1.0000   1.0000   1.0000   1.0000

          k = 0.0417 0.1250 0.2083 (  5366 PWs)   bands (ev):

    -1.5394  -1.5394   1.8201   1.8201   2.4344   2.4344   2.7503   2.7503
     8.5952   8.5952   8.7127   8.7127   9.2546   9.2546   9.3157   9.3157
    10.2127  10.2127  11.3431  11.3431  12.1160  12.1160  12.6283  12.6283
    12.6402  12.6402  13.0537  13.0537  14.3500  14.3500  15.2152  15.2152
    15.2539  15.2539  15.3914  15.3914  16.5102  16.5102  20.9303  20.9303
    22.8717  22.8717  23.2045  23.2045  23.3879  23.3879  23.6921  23.6921
    25.1682  25.1682  25.8291  25.8291  26.8006  26.8006  27.0758  27.0758
    27.3198  27.3198  27.6514  27.6514  28.1296  28.1296  28.2910  28.2910

     occupation numbers 
     1.0000   1.0000   1.0000   1.0000   1.0000   1.0000   1.0000   1.0000
     1.0000   1.0000   1.0000   1.0000   1.0000   1.0000   1.0000   1.0000
     1.0000   1.0000   1.0000   1.0000   1.0000   1.0000   1.0000   1.0000
     1.0000   1.0000   1.0000   1.0000   1.0000   1.0000   1.0000   1.0000
     1.0000   1.0000   1.0000   1.0000   1.0000   1.0000   1.0000   1.0000
     1.0000   1.0000   1.0000   1.0000   1.0000   1.0000   1.0000   1.0000
     1.0000   1.0000   1.0000   1.0000   1.0000   1.0000   1.0000   1.0000
     1.0000   1.0000   1.0000   1.0000   1.0000   1.0000   1.0000   1.0000

          k = 0.0417 0.1250 0.2917 (  5367 PWs)   bands (ev):

    -1.2695  -1.2695   1.2193   1.2193   2.5663   2.5663   2.8258   2.8258
     8.0640   8.0640   8.2345   8.2345   9.4992   9.4992   9.5659   9.5659
    10.2504  10.2504  11.6798  11.6798  12.2711  12.2711  12.2825  12.2825
    12.3053  12.3053  13.0062  13.0062  14.7172  14.7172  14.7996  14.7996
    16.1793  16.1793  16.5669  16.5669  16.8202  16.8202  21.0318  21.0318
    22.6420  22.6420  23.1059  23.1059  24.3041  24.3041  24.6038  24.6038
    25.2057  25.2057  25.3471  25.3471  25.4508  25.4508  25.6995  25.6995
    26.9358  26.9358  27.5649  27.5649  28.5356  28.5356  29.2090  29.2090

     occupation numbers 
     1.0000   1.0000   1.0000   1.0000   1.0000   1.0000   1.0000   1.0000
     1.0000   1.0000   1.0000   1.0000   1.0000   1.0000   1.0000   1.0000
     1.0000   1.0000   1.0000   1.0000   1.0000   1.0000   1.0000   1.0000
     1.0000   1.0000   1.0000   1.0000   1.0000   1.0000   1.0000   1.0000
     1.0000   1.0000   1.0000   1.0000   1.0000   1.0000   1.0000   1.0000
     1.0000   1.0000   1.0000   1.0000   1.0000   1.0000   1.0000   1.0000
     1.0000   1.0000   1.0000   1.0000   1.0000   1.0000   1.0000   1.0000
     1.0000   1.0000   1.0000   1.0000   1.0000   1.0000   1.0000   1.0000

          k = 0.0417 0.1250 0.3750 (  5371 PWs)   bands (ev):

    -0.9133  -0.9133   0.6103   0.6103   2.7069   2.7069   2.8814   2.8814
     7.6586   7.6586   7.7952   7.7952   9.8124   9.8124   9.9517   9.9517
    10.4779  10.4779  11.2142  11.2142  11.6025  11.6025  11.8120  11.8120
    12.9520  12.9520  13.7673  13.7673  14.3402  14.3402  15.3364  15.3364
    15.7241  15.7241  18.0321  18.0321  18.3245  18.3245  19.4783  19.4783
    23.4152  23.4152  23.5967  23.5967  23.8695  23.8695  23.9148  23.9148
    24.7818  24.7818  25.4279  25.4279  25.6766  25.6766  25.7862  25.7862
    26.9705  26.9705  27.2673  27.2673  28.6151  28.6151  29.2532  29.2532

     occupation numbers 
     1.0000   1.0000   1.0000   1.0000   1.0000   1.0000   1.0000   1.0000
     1.0000   1.0000   1.0000   1.0000   1.0000   1.0000   1.0000   1.0000
     1.0000   1.0000   1.0000   1.0000   1.0000   1.0000   1.0000   1.0000
     1.0000   1.0000   1.0000   1.0000   1.0000   1.0000   1.0000   1.0000
     1.0000   1.0000   1.0000   1.0000   1.0000   1.0000   1.0000   1.0000
     1.0000   1.0000   1.0000   1.0000   1.0000   1.0000   1.0000   1.0000
     1.0000   1.0000   1.0000   1.0000   1.0000   1.0000   1.0000   1.0000
     1.0000   1.0000   1.0000   1.0000   1.0000   1.0000   1.0000   1.0000

          k = 0.0417 0.1250 0.4583 (  5370 PWs)   bands (ev):

    -0.4751  -0.4751   0.0373   0.0373   2.8239   2.8239   2.8860   2.8860
     7.4688   7.4688   7.5201   7.5201  10.1963  10.1963  10.4193  10.4193
    10.5751  10.5751  10.9704  10.9704  10.9932  10.9932  11.3529  11.3529
    13.4147  13.4147  13.8716  13.8716  14.5749  14.5749  15.1962  15.1962
    16.3954  16.3954  17.8465  17.8465  19.4534  19.4534  19.6739  19.6739
    22.1322  22.1322  22.3633  22.3633  23.7955  23.7955  24.2315  24.2315
    25.3720  25.3720  26.1857  26.1857  26.3503  26.3503  26.6724  26.6724
    27.0231  27.0231  27.3248  27.3248  27.7241  27.7241  28.0337  28.0337

     occupation numbers 
     1.0000   1.0000   1.0000   1.0000   1.0000   1.0000   1.0000   1.0000
     1.0000   1.0000   1.0000   1.0000   1.0000   1.0000   1.0000   1.0000
     1.0000   1.0000   1.0000   1.0000   1.0000   1.0000   1.0000   1.0000
     1.0000   1.0000   1.0000   1.0000   1.0000   1.0000   1.0000   1.0000
     1.0000   1.0000   1.0000   1.0000   1.0000   1.0000   1.0000   1.0000
     1.0000   1.0000   1.0000   1.0000   1.0000   1.0000   1.0000   1.0000
     1.0000   1.0000   1.0000   1.0000   1.0000   1.0000   1.0000   1.0000
     1.0000   1.0000   1.0000   1.0000   1.0000   1.0000   1.0000   1.0000

          k = 0.0417 0.2083 0.2083 (  5370 PWs)   bands (ev):

    -1.3596  -1.3596   1.9424   1.9424   1.9433   1.9433   2.7839   2.7839
     8.0375   8.0375   8.7381   8.7381   8.7385   8.7385   9.4173   9.4173
    11.2063  11.2063  11.2069  11.2069  12.2830  12.2830  12.3177  12.3177
    12.3182  12.3182  13.1858  13.1858  14.9437  14.9437  15.5022  15.5022
    15.5968  15.5968  15.5969  15.5969  16.7897  16.7897  21.3620  21.3620
    22.9194  22.9194  23.5409  23.5409  23.5409  23.5409  24.0251  24.0251
    24.3895  24.3895  25.8772  25.8772  26.5703  26.5703  26.5705  26.5705
    26.8566  26.8566  27.2672  27.2672  27.3245  27.3245  28.9849  28.9849

     occupation numbers 
     1.0000   1.0000   1.0000   1.0000   1.0000   1.0000   1.0000   1.0000
     1.0000   1.0000   1.0000   1.0000   1.0000   1.0000   1.0000   1.0000
     1.0000   1.0000   1.0000   1.0000   1.0000   1.0000   1.0000   1.0000
     1.0000   1.0000   1.0000   1.0000   1.0000   1.0000   1.0000   1.0000
     1.0000   1.0000   1.0000   1.0000   1.0000   1.0000   1.0000   1.0000
     1.0000   1.0000   1.0000   1.0000   1.0000   1.0000   1.0000   1.0000
     1.0000   1.0000   1.0000   1.0000   1.0000   1.0000   1.0000   1.0000
     1.0000   1.0000   1.0000   1.0000   1.0000   1.0000   1.0000   1.0000

          k = 0.0417 0.2083 0.2917 (  5368 PWs)   bands (ev):

    -1.0918  -1.0918   1.3608   1.3608   2.1137   2.1137   2.8034   2.8034
     7.5347   7.5347   8.1559   8.1559   8.9246   8.9246   9.6548   9.6548
    11.2838  11.2838  11.5205  11.5205  11.9150  11.9150  12.2194  12.2194
    12.7620  12.7620  13.1829  13.1829  14.5437  14.5437  15.9201  15.9201
    16.3974  16.3974  16.7625  16.7625  17.0063  17.0063  21.3600  21.3600
    22.4315  22.4315  23.7675  23.7675  23.8558  23.8558  24.4372  24.4372
    24.8530  24.8530  25.2170  25.2170  25.7176  25.7176  25.7191  25.7191
    25.9860  25.9860  27.1969  27.1969  28.1089  28.1089  28.8743  28.8743

     occupation numbers 
     1.0000   1.0000   1.0000   1.0000   1.0000   1.0000   1.0000   1.0000
     1.0000   1.0000   1.0000   1.0000   1.0000   1.0000   1.0000   1.0000
     1.0000   1.0000   1.0000   1.0000   1.0000   1.0000   1.0000   1.0000
     1.0000   1.0000   1.0000   1.0000   1.0000   1.0000   1.0000   1.0000
     1.0000   1.0000   1.0000   1.0000   1.0000   1.0000   1.0000   1.0000
     1.0000   1.0000   1.0000   1.0000   1.0000   1.0000   1.0000   1.0000
     1.0000   1.0000   1.0000   1.0000   1.0000   1.0000   1.0000   1.0000
     1.0000   1.0000   1.0000   1.0000   1.0000   1.0000   1.0000   1.0000

          k = 0.0417 0.2083 0.3750 (  5380 PWs)   bands (ev):

    -0.7385  -0.7385   0.7652   0.7652   2.3141   2.3141   2.7762   2.7762
     7.2156   7.2156   7.6453   7.6453   9.2405   9.2405   9.9799   9.9799
    10.8180  10.8180  11.2265  11.2265  11.7466  11.7466  12.7528  12.7528
    12.8482  12.8482  13.8344  13.8344  14.0876  14.0876  16.4027  16.4027
    16.4377  16.4377  17.7079  17.7079  18.4822  18.4822  19.8207  19.8207
    23.1119  23.1119  23.4472  23.4472  23.9550  23.9550  24.0619  24.0619
    24.1994  24.1994  25.3481  25.3481  25.3964  25.3964  25.5656  25.5656
    26.4770  26.4770  27.4242  27.4242  28.3483  28.3483  29.0321  29.0321

     occupation numbers 
     1.0000   1.0000   1.0000   1.0000   1.0000   1.0000   1.0000   1.0000
     1.0000   1.0000   1.0000   1.0000   1.0000   1.0000   1.0000   1.0000
     1.0000   1.0000   1.0000   1.0000   1.0000   1.0000   1.0000   1.0000
     1.0000   1.0000   1.0000   1.0000   1.0000   1.0000   1.0000   1.0000
     1.0000   1.0000   1.0000   1.0000   1.0000   1.0000   1.0000   1.0000
     1.0000   1.0000   1.0000   1.0000   1.0000   1.0000   1.0000   1.0000
     1.0000   1.0000   1.0000   1.0000   1.0000   1.0000   1.0000   1.0000
     1.0000   1.0000   1.0000   1.0000   1.0000   1.0000   1.0000   1.0000

          k = 0.0417 0.2083 0.4583 (  5378 PWs)   bands (ev):

    -0.3047  -0.3047   0.2014   0.2014   2.5146   2.5146   2.6787   2.6787
     7.1312   7.1312   7.2856   7.2856   9.6681   9.6681  10.1969  10.1969
    10.3733  10.3733  10.8121  10.8121  12.0308  12.0308  12.4296  12.4296
    13.1744  13.1744  13.6215  13.6215  14.9867  14.9867  15.8630  15.8630
    17.1577  17.1577  18.3249  18.3249  19.1162  19.1162  19.6960  19.6960
    21.7866  21.7866  22.3902  22.3902  24.2374  24.2374  24.3953  24.3953
    24.8324  24.8324  24.8581  24.8581  25.3098  25.3098  26.7721  26.7721
    26.7952  26.7952  27.6277  27.6277  27.8408  27.8408  28.1647  28.1647

     occupation numbers 
     1.0000   1.0000   1.0000   1.0000   1.0000   1.0000   1.0000   1.0000
     1.0000   1.0000   1.0000   1.0000   1.0000   1.0000   1.0000   1.0000
     1.0000   1.0000   1.0000   1.0000   1.0000   1.0000   1.0000   1.0000
     1.0000   1.0000   1.0000   1.0000   1.0000   1.0000   1.0000   1.0000
     1.0000   1.0000   1.0000   1.0000   1.0000   1.0000   1.0000   1.0000
     1.0000   1.0000   1.0000   1.0000   1.0000   1.0000   1.0000   1.0000
     1.0000   1.0000   1.0000   1.0000   1.0000   1.0000   1.0000   1.0000
     1.0000   1.0000   1.0000   1.0000   1.0000   1.0000   1.0000   1.0000

          k = 0.0417 0.2917 0.2917 (  5390 PWs)   bands (ev):

    -0.8272  -0.8272   1.5636   1.5636   1.5645   1.5645   2.7322   2.7322
     7.1267   7.1267   8.2668   8.2668   8.2672   8.2672   9.9043   9.9043
    10.7530  10.7530  11.9836  11.9836  11.9842  11.9842  12.7331  12.7331
    12.7336  12.7336  13.8514  13.8514  14.1407  14.1407  16.5810  16.5810
    17.1125  17.1125  17.2892  17.2892  17.2894  17.2894  21.5549  21.5549
    22.3226  22.3226  22.6934  22.6934  24.2283  24.2283  24.2286  24.2286
    24.6996  24.6996  24.6997  24.6997  25.0985  25.0985  26.0130  26.0130
    26.1707  26.1707  27.7025  27.7025  27.8868  27.8868  28.0942  28.0942

     occupation numbers 
     1.0000   1.0000   1.0000   1.0000   1.0000   1.0000   1.0000   1.0000
     1.0000   1.0000   1.0000   1.0000   1.0000   1.0000   1.0000   1.0000
     1.0000   1.0000   1.0000   1.0000   1.0000   1.0000   1.0000   1.0000
     1.0000   1.0000   1.0000   1.0000   1.0000   1.0000   1.0000   1.0000
     1.0000   1.0000   1.0000   1.0000   1.0000   1.0000   1.0000   1.0000
     1.0000   1.0000   1.0000   1.0000   1.0000   1.0000   1.0000   1.0000
     1.0000   1.0000   1.0000   1.0000   1.0000   1.0000   1.0000   1.0000
     1.0000   1.0000   1.0000   1.0000   1.0000   1.0000   1.0000   1.0000

          k = 0.0417 0.2917 0.3750 (  5373 PWs)   bands (ev):

    -0.4789  -0.4789   0.9914   0.9914   1.8156   1.8156   2.5858   2.5858
     6.9328   6.9328   7.6887   7.6887   8.5339   8.5339  10.0529  10.0529
    10.2340  10.2340  11.5492  11.5492  12.3601  12.3601  12.9614  12.9614
    13.6793  13.6793  13.9274  13.9274  14.0389  14.0389  17.0235  17.0235
    17.4554  17.4554  17.6839  17.6839  18.7103  18.7103  20.3402  20.3402
    22.4739  22.4739  22.5728  22.5728  23.3075  23.3075  23.6710  23.6710
    23.9242  23.9242  24.9624  24.9624  25.7622  25.7622  25.9892  25.9892
    26.8684  26.8684  27.7630  27.7630  27.7979  27.7979  28.3518  28.3518

     occupation numbers 
     1.0000   1.0000   1.0000   1.0000   1.0000   1.0000   1.0000   1.0000
     1.0000   1.0000   1.0000   1.0000   1.0000   1.0000   1.0000   1.0000
     1.0000   1.0000   1.0000   1.0000   1.0000   1.0000   1.0000   1.0000
     1.0000   1.0000   1.0000   1.0000   1.0000   1.0000   1.0000   1.0000
     1.0000   1.0000   1.0000   1.0000   1.0000   1.0000   1.0000   1.0000
     1.0000   1.0000   1.0000   1.0000   1.0000   1.0000   1.0000   1.0000
     1.0000   1.0000   1.0000   1.0000   1.0000   1.0000   1.0000   1.0000
     1.0000   1.0000   1.0000   1.0000   1.0000   1.0000   1.0000   1.0000

          k = 0.0417 0.2917 0.4583 (  5372 PWs)   bands (ev):

    -0.0523  -0.0523   0.4432   0.4432   2.0930   2.0930   2.3631   2.3631
     6.9788   6.9788   7.2444   7.2444   8.9309   8.9309   9.4413   9.4413
    10.6311  10.6311  11.0786  11.0786  12.7641  12.7641  13.2098  13.2098
    13.2922  13.2922  13.6511  13.6511  15.3524  15.3524  16.4255  16.4255
    18.2427  18.2427  18.7393  18.7393  19.0990  19.0990  19.6564  19.6564
    21.5106  21.5106  22.4578  22.4578  22.7479  22.7479  23.1611  23.1611
    24.5599  24.5599  25.2461  25.2461  25.7355  25.7355  26.2020  26.2020
    26.9390  26.9390  27.3971  27.3971  28.1321  28.1321  28.1388  28.1388

     occupation numbers 
     1.0000   1.0000   1.0000   1.0000   1.0000   1.0000   1.0000   1.0000
     1.0000   1.0000   1.0000   1.0000   1.0000   1.0000   1.0000   1.0000
     1.0000   1.0000   1.0000   1.0000   1.0000   1.0000   1.0000   1.0000
     1.0000   1.0000   1.0000   1.0000   1.0000   1.0000   1.0000   1.0000
     1.0000   1.0000   1.0000   1.0000   1.0000   1.0000   1.0000   1.0000
     1.0000   1.0000   1.0000   1.0000   1.0000   1.0000   1.0000   1.0000
     1.0000   1.0000   1.0000   1.0000   1.0000   1.0000   1.0000   1.0000
     1.0000   1.0000   1.0000   1.0000   1.0000   1.0000   1.0000   1.0000

          k = 0.0417 0.3750 0.3750 (  5374 PWs)   bands (ev):

    -0.1381  -0.1381   1.2792   1.2792   1.2800   1.2800   2.3073   2.3073
     6.8764   6.8764   7.9063   7.9063   7.9066   7.9066   9.3595   9.3595
    10.5658  10.5658  11.8914  11.8914  11.8920  11.8920  13.2120  13.2120
    14.3191  14.3191  14.3197  14.3197  14.6947  14.6947  17.1998  17.1998
    17.6212  17.6212  19.0026  19.0026  19.0028  19.0028  20.7197  20.7197
    21.2379  21.2379  22.0686  22.0686  22.0687  22.0687  23.4230  23.4230
    23.5006  23.5006  25.9777  25.9777  25.9777  25.9777  26.3353  26.3353
    26.4815  26.4815  27.1869  27.1869  27.1869  27.1869  28.2718  28.2718

     occupation numbers 
     1.0000   1.0000   1.0000   1.0000   1.0000   1.0000   1.0000   1.0000
     1.0000   1.0000   1.0000   1.0000   1.0000   1.0000   1.0000   1.0000
     1.0000   1.0000   1.0000   1.0000   1.0000   1.0000   1.0000   1.0000
     1.0000   1.0000   1.0000   1.0000   1.0000   1.0000   1.0000   1.0000
     1.0000   1.0000   1.0000   1.0000   1.0000   1.0000   1.0000   1.0000
     1.0000   1.0000   1.0000   1.0000   1.0000   1.0000   1.0000   1.0000
     1.0000   1.0000   1.0000   1.0000   1.0000   1.0000   1.0000   1.0000
     1.0000   1.0000   1.0000   1.0000   1.0000   1.0000   1.0000   1.0000

          k = 0.0417 0.3750 0.4583 (  5369 PWs)   bands (ev):

     0.2774   0.2774   0.7563   0.7563   1.6141   1.6141   1.9691   1.9691
     7.0427   7.0427   7.3982   7.3982   8.2707   8.2707   8.7603   8.7603
    10.9642  10.9642  11.4140  11.4140  12.2913  12.2913  12.7384  12.7384
    14.6222  14.6222  14.8403  14.8403  15.6592  15.6592  16.7351  16.7351
    18.4916  18.4916  19.3756  19.3756  19.5353  19.5353  19.9446  19.9446
    21.3552  21.3552  21.3966  21.3966  21.6588  21.6588  22.4566  22.4566
    24.2311  24.2311  25.4833  25.4833  26.2206  26.2206  26.4229  26.4229
    26.4751  26.4751  26.5716  26.5716  27.3320  27.3320  28.4384  28.4384

     occupation numbers 
     1.0000   1.0000   1.0000   1.0000   1.0000   1.0000   1.0000   1.0000
     1.0000   1.0000   1.0000   1.0000   1.0000   1.0000   1.0000   1.0000
     1.0000   1.0000   1.0000   1.0000   1.0000   1.0000   1.0000   1.0000
     1.0000   1.0000   1.0000   1.0000   1.0000   1.0000   1.0000   1.0000
     1.0000   1.0000   1.0000   1.0000   1.0000   1.0000   1.0000   1.0000
     1.0000   1.0000   1.0000   1.0000   1.0000   1.0000   1.0000   1.0000
     1.0000   1.0000   1.0000   1.0000   1.0000   1.0000   1.0000   1.0000
     1.0000   1.0000   1.0000   1.0000   1.0000   1.0000   1.0000   1.0000

          k = 0.0417 0.4583 0.4583 (  5366 PWs)   bands (ev):

     0.6759   0.6759   1.1289   1.1289   1.1297   1.1297   1.5436   1.5436
     7.3003   7.3003   7.7188   7.7188   7.7191   7.7191   8.1800   8.1800
    11.3631  11.3631  11.8126  11.8126  11.8131  11.8131  12.2616  12.2616
    15.6656  15.6656  15.8481  15.8481  15.8488  15.8488  16.6237  16.6237
    18.6955  18.6955  19.4863  19.4863  19.4864  19.4864  19.8371  19.8371
    21.1142  21.1142  21.3470  21.3470  21.3473  21.3473  22.1090  22.1090
    24.3690  24.3690  25.2057  25.2057  25.2057  25.2057  25.3598  25.3598
    27.2271  27.2271  27.4047  27.4047  27.4047  27.4047  28.1997  28.1997

     occupation numbers 
     1.0000   1.0000   1.0000   1.0000   1.0000   1.0000   1.0000   1.0000
     1.0000   1.0000   1.0000   1.0000   1.0000   1.0000   1.0000   1.0000
     1.0000   1.0000   1.0000   1.0000   1.0000   1.0000   1.0000   1.0000
     1.0000   1.0000   1.0000   1.0000   1.0000   1.0000   1.0000   1.0000
     1.0000   1.0000   1.0000   1.0000   1.0000   1.0000   1.0000   1.0000
     1.0000   1.0000   1.0000   1.0000   1.0000   1.0000   1.0000   1.0000
     1.0000   1.0000   1.0000   1.0000   1.0000   1.0000   1.0000   1.0000
     1.0000   1.0000   1.0000   1.0000   1.0000   1.0000   1.0000   1.0000

          k = 0.1250 0.1250 0.1250 (  5386 PWs)   bands (ev):

    -1.6299  -1.6299   2.3816   2.3816   2.3830   2.3830   2.3830   2.3830
     8.8102   8.8102   8.8104   8.8104   8.8108   8.8108  10.2082  10.2082
    10.2087  10.2087  10.2088  10.2088  12.7999  12.7999  12.7999  12.7999
    12.8004  12.8004  13.2198  13.2198  14.4289  14.4289  14.4290  14.4290
    14.4291  14.4291  15.5978  15.5978  16.6528  16.6528  20.3762  20.3762
    23.0830  23.0830  23.0830  23.0830  23.0830  23.0830  24.1586  24.1586
    25.2653  25.2653  25.7106  25.7106  26.8813  26.8813  27.3366  27.3366
    27.4125  27.4125  28.2518  28.2518  28.2519  28.2519  28.2521  28.2521

     occupation numbers 
     1.0000   1.0000   1.0000   1.0000   1.0000   1.0000   1.0000   1.0000
     1.0000   1.0000   1.0000   1.0000   1.0000   1.0000   1.0000   1.0000
     1.0000   1.0000   1.0000   1.0000   1.0000   1.0000   1.0000   1.0000
     1.0000   1.0000   1.0000   1.0000   1.0000   1.0000   1.0000   1.0000
     1.0000   1.0000   1.0000   1.0000   1.0000   1.0000   1.0000   1.0000
     1.0000   1.0000   1.0000   1.0000   1.0000   1.0000   1.0000   1.0000
     1.0000   1.0000   1.0000   1.0000   1.0000   1.0000   1.0000   1.0000
     1.0000   1.0000   1.0000   1.0000   1.0000   1.0000   1.0000   1.0000

          k = 0.1250 0.1250 0.2083 (  5368 PWs)   bands (ev):

    -1.4495  -1.4495   1.8801   1.8801   2.4697   2.4697   2.4706   2.4706
     8.3587   8.3587   8.3590   8.3590   8.8942   8.8942  10.1045  10.1045
    10.1049  10.1049  11.1485  11.1485  12.4807  12.4807  12.7348  12.7348
    12.7349  12.7349  12.9912  12.9912  14.6555  14.6555  15.3570  15.3570
    15.3573  15.3573  15.4216  15.4216  16.5818  16.5818  20.9928  20.9928
    23.1833  23.1833  23.2366  23.2366  23.7658  23.7658  23.7658  23.7658
    24.9114  24.9114  25.6543  25.6543  26.6311  26.6311  27.0273  27.0273
    27.0276  27.0276  27.8003  27.8003  27.8182  27.8182  28.0558  28.0558

     occupation numbers 
     1.0000   1.0000   1.0000   1.0000   1.0000   1.0000   1.0000   1.0000
     1.0000   1.0000   1.0000   1.0000   1.0000   1.0000   1.0000   1.0000
     1.0000   1.0000   1.0000   1.0000   1.0000   1.0000   1.0000   1.0000
     1.0000   1.0000   1.0000   1.0000   1.0000   1.0000   1.0000   1.0000
     1.0000   1.0000   1.0000   1.0000   1.0000   1.0000   1.0000   1.0000
     1.0000   1.0000   1.0000   1.0000   1.0000   1.0000   1.0000   1.0000
     1.0000   1.0000   1.0000   1.0000   1.0000   1.0000   1.0000   1.0000
     1.0000   1.0000   1.0000   1.0000   1.0000   1.0000   1.0000   1.0000

          k = 0.1250 0.1250 0.2917 (  5371 PWs)   bands (ev):

    -1.1807  -1.1807   1.2893   1.2893   2.5802   2.5802   2.5812   2.5812
     7.8340   7.8340   7.8342   7.8342   9.1141   9.1141  10.2441  10.2441
    10.2445  10.2445  11.7346  11.7346  12.2251  12.2251  12.3720  12.3720
    12.3721  12.3721  13.3039  13.3039  15.0283  15.0283  15.0748  15.0748
    16.3011  16.3011  16.6615  16.6615  16.6618  16.6618  21.1328  21.1328
    22.4449  22.4449  23.4640  23.4640  24.6539  24.6539  24.6539  24.6539
    25.0042  25.0042  25.4121  25.4121  25.4123  25.4123  25.5864  25.5864
    26.4051  26.4051  27.2589  27.2589  28.4590  28.4590  28.7405  28.7405

     occupation numbers 
     1.0000   1.0000   1.0000   1.0000   1.0000   1.0000   1.0000   1.0000
     1.0000   1.0000   1.0000   1.0000   1.0000   1.0000   1.0000   1.0000
     1.0000   1.0000   1.0000   1.0000   1.0000   1.0000   1.0000   1.0000
     1.0000   1.0000   1.0000   1.0000   1.0000   1.0000   1.0000   1.0000
     1.0000   1.0000   1.0000   1.0000   1.0000   1.0000   1.0000   1.0000
     1.0000   1.0000   1.0000   1.0000   1.0000   1.0000   1.0000   1.0000
     1.0000   1.0000   1.0000   1.0000   1.0000   1.0000   1.0000   1.0000
     1.0000   1.0000   1.0000   1.0000   1.0000   1.0000   1.0000   1.0000

          k = 0.1250 0.1250 0.3750 (  5367 PWs)   bands (ev):

    -0.8260  -0.8260   0.6872   0.6872   2.6859   2.6859   2.6870   2.6870
     7.4107   7.4107   7.4109   7.4109   9.4491   9.4491  10.5107  10.5107
    10.5111  10.5111  11.0396  11.0396  11.9281  11.9281  11.9283  11.9283
    13.1514  13.1514  13.8605  13.8605  14.6474  14.6474  15.6324  15.6324
    15.8602  15.8602  18.1154  18.1154  18.1157  18.1157  19.6058  19.6058
    23.5197  23.5197  23.6165  23.6165  23.6167  23.6167  23.7592  23.7592
    25.1205  25.1205  25.4194  25.4194  25.8454  25.8454  25.8454  25.8454
    26.6186  26.6186  26.6948  26.6948  27.6834  27.6834  29.0224  29.0224

     occupation numbers 
     1.0000   1.0000   1.0000   1.0000   1.0000   1.0000   1.0000   1.0000
     1.0000   1.0000   1.0000   1.0000   1.0000   1.0000   1.0000   1.0000
     1.0000   1.0000   1.0000   1.0000   1.0000   1.0000   1.0000   1.0000
     1.0000   1.0000   1.0000   1.0000   1.0000   1.0000   1.0000   1.0000
     1.0000   1.0000   1.0000   1.0000   1.0000   1.0000   1.0000   1.0000
     1.0000   1.0000   1.0000   1.0000   1.0000   1.0000   1.0000   1.0000
     1.0000   1.0000   1.0000   1.0000   1.0000   1.0000   1.0000   1.0000
     1.0000   1.0000   1.0000   1.0000   1.0000   1.0000   1.0000   1.0000

          k = 0.1250 0.1250 0.4583 (  5363 PWs)   bands (ev):

    -0.3901  -0.3901   0.1191   0.1191   2.7522   2.7522   2.7533   2.7533
     7.1773   7.1773   7.1775   7.1775   9.8869   9.8869  10.4197  10.4197
    10.8091  10.8091  10.8098  10.8098  11.5333  11.5333  11.5338  11.5338
    13.7205  13.7205  14.1906  14.1906  14.6438  14.6438  15.3128  15.3128
    16.6229  16.6229  18.0084  18.0084  19.4946  19.4946  19.4950  19.4950
    22.1090  22.1090  22.1091  22.1091  24.1035  24.1035  24.3548  24.3548
    25.2937  25.2937  25.7732  25.7732  26.1339  26.1339  26.6528  26.6528
    27.0690  27.0690  27.0690  27.0690  27.0913  27.0913  27.8180  27.8180

     occupation numbers 
     1.0000   1.0000   1.0000   1.0000   1.0000   1.0000   1.0000   1.0000
     1.0000   1.0000   1.0000   1.0000   1.0000   1.0000   1.0000   1.0000
     1.0000   1.0000   1.0000   1.0000   1.0000   1.0000   1.0000   1.0000
     1.0000   1.0000   1.0000   1.0000   1.0000   1.0000   1.0000   1.0000
     1.0000   1.0000   1.0000   1.0000   1.0000   1.0000   1.0000   1.0000
     1.0000   1.0000   1.0000   1.0000   1.0000   1.0000   1.0000   1.0000
     1.0000   1.0000   1.0000   1.0000   1.0000   1.0000   1.0000   1.0000
     1.0000   1.0000   1.0000   1.0000   1.0000   1.0000   1.0000   1.0000

          k = 0.1250 0.2083 0.2083 (  5369 PWs)   bands (ev):

    -1.2705  -1.2705   1.9940   1.9940   1.9949   1.9949   2.5309   2.5309
     7.8203   7.8203   8.3249   8.3249   8.3252   8.3252  10.1615  10.1615
    11.1409  11.1409  11.1414  11.1414  11.7345  11.7345  12.9299  12.9299
    12.9304  12.9304  13.2755  13.2755  15.3456  15.3456  15.5685  15.5685
    15.5687  15.5687  15.6069  15.6069  16.7300  16.7300  21.2725  21.2725
    22.9191  22.9191  23.9105  23.9105  23.9106  23.9106  24.0035  24.0035
    24.4545  24.4545  25.5433  25.5433  26.5452  26.5452  26.5455  26.5455
    26.5921  26.5921  27.0375  27.0375  27.6396  27.6396  28.5812  28.5812

     occupation numbers 
     1.0000   1.0000   1.0000   1.0000   1.0000   1.0000   1.0000   1.0000
     1.0000   1.0000   1.0000   1.0000   1.0000   1.0000   1.0000   1.0000
     1.0000   1.0000   1.0000   1.0000   1.0000   1.0000   1.0000   1.0000
     1.0000   1.0000   1.0000   1.0000   1.0000   1.0000   1.0000   1.0000
     1.0000   1.0000   1.0000   1.0000   1.0000   1.0000   1.0000   1.0000
     1.0000   1.0000   1.0000   1.0000   1.0000   1.0000   1.0000   1.0000
     1.0000   1.0000   1.0000   1.0000   1.0000   1.0000   1.0000   1.0000
     1.0000   1.0000   1.0000   1.0000   1.0000   1.0000   1.0000   1.0000

          k = 0.1250 0.2083 0.2917 (  5373 PWs)   bands (ev):

    -1.0039  -1.0039   1.4253   1.4253   2.1502   2.1502   2.5939   2.5939
     7.3100   7.3100   7.7363   7.7363   8.4709   8.4709  10.3620  10.3620
    10.9874  10.9874  11.2842  11.2842  12.2757  12.2757  12.5927  12.5927
    13.2652  13.2652  13.2762  13.2762  15.0255  15.0255  15.9039  15.9039
    16.4956  16.4956  16.6937  16.6937  16.8524  16.8524  21.3774  21.3774
    22.2038  22.2038  23.8404  23.8404  24.1181  24.1181  24.6438  24.6438
    25.0592  25.0592  25.1232  25.1232  25.5817  25.5817  25.6727  25.6727
    25.9847  25.9847  26.7982  26.7982  28.2475  28.2475  28.3478  28.3478

     occupation numbers 
     1.0000   1.0000   1.0000   1.0000   1.0000   1.0000   1.0000   1.0000
     1.0000   1.0000   1.0000   1.0000   1.0000   1.0000   1.0000   1.0000
     1.0000   1.0000   1.0000   1.0000   1.0000   1.0000   1.0000   1.0000
     1.0000   1.0000   1.0000   1.0000   1.0000   1.0000   1.0000   1.0000
     1.0000   1.0000   1.0000   1.0000   1.0000   1.0000   1.0000   1.0000
[...]
     1.0000   1.0000   1.0000   1.0000   1.0000   1.0000   1.0000   1.0000
     1.0000   1.0000   1.0000   1.0000   1.0000   1.0000   1.0000   1.0000
     1.0000   1.0000   1.0000   1.0000   1.0000   1.0000   1.0000   1.0000
     1.0000   1.0000   1.0000   1.0000   1.0000   1.0000   1.0000   1.0000
     1.0000   1.0000   1.0000   1.0000   1.0000   1.0000   1.0000   1.0000
     1.0000   1.0000   1.0000   1.0000   1.0000   1.0000   1.0000   1.0000

          k = 0.2917 0.2917 0.4583 (  5393 PWs)   bands (ev):

     0.4198   0.4198   0.8775   0.8775   2.0568   2.0568   2.0579   2.0579
     5.9366   5.9366   5.9370   5.9370   7.1231   7.1231   7.5832   7.5832
    13.3365  13.3365  13.3374  13.3374  14.3826  14.3826  14.3830  14.3830
    14.7810  14.7810  15.2300  15.2300  15.6245  15.6245  16.4487  16.4487
    18.3044  18.3044  19.1493  19.1493  19.1496  19.1496  19.2758  19.2758
    21.3228  21.3228  21.3229  21.3229  22.4179  22.4179  22.7029  22.7029
    22.8851  22.8851  23.6127  23.6127  24.6520  24.6520  25.3029  25.3029
    25.3035  25.3035  25.4866  25.4866  27.1804  27.1804  27.1809  27.1809

     occupation numbers 
     1.0000   1.0000   1.0000   1.0000   1.0000   1.0000   1.0000   1.0000
     1.0000   1.0000   1.0000   1.0000   1.0000   1.0000   1.0000   1.0000
     1.0000   1.0000   1.0000   1.0000   1.0000   1.0000   1.0000   1.0000
     1.0000   1.0000   1.0000   1.0000   1.0000   1.0000   1.0000   1.0000
     1.0000   1.0000   1.0000   1.0000   1.0000   1.0000   1.0000   1.0000
     1.0000   1.0000   1.0000   1.0000   1.0000   1.0000   1.0000   1.0000
     1.0000   1.0000   1.0000   1.0000   1.0000   1.0000   1.0000   1.0000
     1.0000   1.0000   1.0000   1.0000   1.0000   1.0000   1.0000   1.0000

          k = 0.2917 0.3750 0.3750 (  5392 PWs)   bands (ev):

     0.3364   0.3364   1.5748   1.5748   1.5757   1.5757   1.9931   1.9931
     5.8453   5.8453   6.2645   6.2645   6.2648   6.2648   7.5088   7.5088
    13.4592  13.4592  14.1826  14.1826  14.1830  14.1830  15.0546  15.0546
    15.0553  15.0553  15.2007  15.2007  15.5558  15.5558  17.0211  17.0211
    18.1920  18.1920  18.4037  18.4037  18.4040  18.4040  20.5107  20.5107
    21.4354  21.4354  21.7972  21.7972  22.1794  22.1794  22.1797  22.1797
    22.3783  22.3783  24.0381  24.0381  24.2455  24.2455  24.3049  24.3049
    24.3050  24.3050  26.1742  26.1742  26.1743  26.1743  26.8236  26.8236

     occupation numbers 
     1.0000   1.0000   1.0000   1.0000   1.0000   1.0000   1.0000   1.0000
     1.0000   1.0000   1.0000   1.0000   1.0000   1.0000   1.0000   1.0000
     1.0000   1.0000   1.0000   1.0000   1.0000   1.0000   1.0000   1.0000
     1.0000   1.0000   1.0000   1.0000   1.0000   1.0000   1.0000   1.0000
     1.0000   1.0000   1.0000   1.0000   1.0000   1.0000   1.0000   1.0000
     1.0000   1.0000   1.0000   1.0000   1.0000   1.0000   1.0000   1.0000
     1.0000   1.0000   1.0000   1.0000   1.0000   1.0000   1.0000   1.0000
     1.0000   1.0000   1.0000   1.0000   1.0000   1.0000   1.0000   1.0000

          k = 0.2917 0.3750 0.4583 (  5388 PWs)   bands (ev):

     0.7169   0.7169   1.1403   1.1403   1.7777   1.7777   1.9285   1.9285
     5.7434   5.7434   5.8946   5.8946   6.5344   6.5344   6.9592   6.9592
    13.7923  13.7923  14.0739  14.0739  14.8091  14.8091  15.2316  15.2316
    15.2351  15.2351  15.3708  15.3708  16.0005  16.0005  16.7978  16.7978
    18.9436  18.9436  18.9799  18.9799  19.3717  19.3717  19.7238  19.7238
    20.9472  20.9472  21.3620  21.3620  21.4070  21.4070  21.7285  21.7285
    22.3298  22.3298  23.2941  23.2941  24.0802  24.0802  24.2175  24.2175
    24.4494  24.4494  25.1517  25.1517  26.0787  26.0787  26.3362  26.3362

     occupation numbers 
     1.0000   1.0000   1.0000   1.0000   1.0000   1.0000   1.0000   1.0000
     1.0000   1.0000   1.0000   1.0000   1.0000   1.0000   1.0000   1.0000
     1.0000   1.0000   1.0000   1.0000   1.0000   1.0000   1.0000   1.0000
     1.0000   1.0000   1.0000   1.0000   1.0000   1.0000   1.0000   1.0000
     1.0000   1.0000   1.0000   1.0000   1.0000   1.0000   1.0000   1.0000
     1.0000   1.0000   1.0000   1.0000   1.0000   1.0000   1.0000   1.0000
     1.0000   1.0000   1.0000   1.0000   1.0000   1.0000   1.0000   1.0000
     1.0000   1.0000   1.0000   1.0000   1.0000   1.0000   1.0000   1.0000

          k = 0.2917 0.4583 0.4583 (  5393 PWs)   bands (ev):

     1.0626   1.0626   1.4294   1.4294   1.4303   1.4303   1.7084   1.7084
     5.7974   5.7974   6.0765   6.0765   6.0768   6.0768   6.4449   6.4449
    14.1797  14.1797  14.5391  14.5391  14.5394  14.5394  14.9324  14.9324
    16.1071  16.1071  16.2537  16.2537  16.2545  16.2545  16.8583  16.8583
    19.2014  19.2014  19.6478  19.6478  19.6479  19.6479  20.0725  20.0725
    20.5719  20.5719  20.7099  20.7099  20.7100  20.7100  21.1166  21.1166
    22.3573  22.3573  23.0868  23.0868  23.0869  23.0869  23.2072  23.2072
    24.7382  24.7382  25.2861  25.2861  25.2862  25.2862  25.7107  25.7107

     occupation numbers 
     1.0000   1.0000   1.0000   1.0000   1.0000   1.0000   1.0000   1.0000
     1.0000   1.0000   1.0000   1.0000   1.0000   1.0000   1.0000   1.0000
     1.0000   1.0000   1.0000   1.0000   1.0000   1.0000   1.0000   1.0000
     1.0000   1.0000   1.0000   1.0000   1.0000   1.0000   1.0000   1.0000
     1.0000   1.0000   1.0000   1.0000   1.0000   1.0000   1.0000   1.0000
     1.0000   1.0000   1.0000   1.0000   1.0000   1.0000   1.0000   1.0000
     1.0000   1.0000   1.0000   1.0000   1.0000   1.0000   1.0000   1.0000
     1.0000   1.0000   1.0000   1.0000   1.0000   1.0000   1.0000   1.0000

          k = 0.3750 0.3750 0.3750 (  5382 PWs)   bands (ev):

     0.6354   0.6354   1.7069   1.7069   1.7084   1.7084   1.7084   1.7084
     5.8086   5.8086   5.8086   5.8086   5.8091   5.8091   6.8840   6.8840
    14.6317  14.6317  14.6326  14.6326  14.6326  14.6326  15.5899  15.5899
    15.5899  15.5899  15.5905  15.5905  15.9469  15.9469  17.0683  17.0683
    18.5845  18.5845  18.5845  18.5845  18.5848  18.5848  20.3951  20.3951
    21.2150  21.2150  21.5725  21.5725  21.8919  21.8919  21.8919  21.8919
    21.8922  21.8922  23.3632  23.3632  23.4060  23.4060  23.4065  23.4065
    23.4066  23.4066  25.4276  25.4276  25.4276  25.4276  25.4280  25.4280

     occupation numbers 
     1.0000   1.0000   1.0000   1.0000   1.0000   1.0000   1.0000   1.0000
     1.0000   1.0000   1.0000   1.0000   1.0000   1.0000   1.0000   1.0000
     1.0000   1.0000   1.0000   1.0000   1.0000   1.0000   1.0000   1.0000
     1.0000   1.0000   1.0000   1.0000   1.0000   1.0000   1.0000   1.0000
     1.0000   1.0000   1.0000   1.0000   1.0000   1.0000   1.0000   1.0000
     1.0000   1.0000   1.0000   1.0000   1.0000   1.0000   1.0000   1.0000
     1.0000   1.0000   1.0000   1.0000   1.0000   1.0000   1.0000   1.0000
     1.0000   1.0000   1.0000   1.0000   1.0000   1.0000   1.0000   1.0000

          k = 0.3750 0.3750 0.4583 (  5389 PWs)   bands (ev):

     0.9838   0.9838   1.3550   1.3550   1.7928   1.7928   1.7939   1.7939
     5.5562   5.5562   5.5566   5.5566   5.9957   5.9957   6.3676   6.3676
    14.8531  14.8531  14.8539  14.8539  15.4200  15.4200  15.8123  15.8123
    15.8278  15.8278  15.8280  15.8280  16.2832  16.2832  16.9417  16.9417
    19.1143  19.1143  19.2778  19.2778  19.2779  19.2779  19.8187  19.8187
    20.9470  20.9470  20.9471  20.9471  21.1538  21.1538  21.4582  21.4582
    21.8398  21.8398  22.5516  22.5516  23.2023  23.2023  23.2029  23.2029
    23.5751  23.5751  24.3056  24.3056  25.0201  25.0201  25.0205  25.0205

     occupation numbers 
     1.0000   1.0000   1.0000   1.0000   1.0000   1.0000   1.0000   1.0000
     1.0000   1.0000   1.0000   1.0000   1.0000   1.0000   1.0000   1.0000
     1.0000   1.0000   1.0000   1.0000   1.0000   1.0000   1.0000   1.0000
     1.0000   1.0000   1.0000   1.0000   1.0000   1.0000   1.0000   1.0000
     1.0000   1.0000   1.0000   1.0000   1.0000   1.0000   1.0000   1.0000
     1.0000   1.0000   1.0000   1.0000   1.0000   1.0000   1.0000   1.0000
     1.0000   1.0000   1.0000   1.0000   1.0000   1.0000   1.0000   1.0000
     1.0000   1.0000   1.0000   1.0000   1.0000   1.0000   1.0000   1.0000

          k = 0.3750 0.4583 0.4583 (  5406 PWs)   bands (ev):

     1.2792   1.2792   1.5647   1.5647   1.5657   1.5657   1.7238   1.7238
     5.4595   5.4595   5.6181   5.6181   5.6184   5.6184   5.9047   5.9047
    15.2716  15.2716  15.4892  15.4892  15.4896  15.4896  15.8048  15.8048
    16.4397  16.4397  16.5630  16.5630  16.5638  16.5638  17.0405  17.0405
    19.4852  19.4852  19.6283  19.6283  19.6285  19.6285  19.9404  19.9404
    20.6242  20.6242  20.6541  20.6541  20.6542  20.6542  20.7355  20.7355
    21.7850  21.7850  22.3219  22.3219  22.3220  22.3220  22.4414  22.4414
    23.5269  23.5269  24.0604  24.0604  24.0606  24.0606  24.3431  24.3431

     occupation numbers 
     1.0000   1.0000   1.0000   1.0000   1.0000   1.0000   1.0000   1.0000
     1.0000   1.0000   1.0000   1.0000   1.0000   1.0000   1.0000   1.0000
     1.0000   1.0000   1.0000   1.0000   1.0000   1.0000   1.0000   1.0000
     1.0000   1.0000   1.0000   1.0000   1.0000   1.0000   1.0000   1.0000
     1.0000   1.0000   1.0000   1.0000   1.0000   1.0000   1.0000   1.0000
     1.0000   1.0000   1.0000   1.0000   1.0000   1.0000   1.0000   1.0000
     1.0000   1.0000   1.0000   1.0000   1.0000   1.0000   1.0000   1.0000
     1.0000   1.0000   1.0000   1.0000   1.0000   1.0000   1.0000   1.0000

          k = 0.4583 0.4583 0.4583 (  5421 PWs)   bands (ev):

     1.4918   1.4918   1.6517   1.6517   1.6533   1.6533   1.6533   1.6533
     5.3637   5.3637   5.3638   5.3638   5.3643   5.3643   5.5250   5.5250
    15.9473  15.9473  15.9482  15.9482  15.9483  15.9483  16.1255  16.1255
    16.9646  16.9646  16.9650  16.9650  16.9655  16.9655  17.2504  17.2504
    19.7027  19.7027  19.7028  19.7028  19.7032  19.7032  19.7943  19.7943
    20.5225  20.5225  20.5226  20.5226  20.5229  20.5229  20.5785  20.5785
    21.5496  21.5496  21.8030  21.8030  21.8034  21.8034  21.8036  21.8036
    23.0017  23.0017  23.3560  23.3560  23.3561  23.3561  23.3565  23.3565

     occupation numbers 
     1.0000   1.0000   1.0000   1.0000   1.0000   1.0000   1.0000   1.0000
     1.0000   1.0000   1.0000   1.0000   1.0000   1.0000   1.0000   1.0000
     1.0000   1.0000   1.0000   1.0000   1.0000   1.0000   1.0000   1.0000
     1.0000   1.0000   1.0000   1.0000   1.0000   1.0000   1.0000   1.0000
     1.0000   1.0000   1.0000   1.0000   1.0000   1.0000   1.0000   1.0000
     1.0000   1.0000   1.0000   1.0000   1.0000   1.0000   1.0000   1.0000
     1.0000   1.0000   1.0000   1.0000   1.0000   1.0000   1.0000   1.0000
     1.0000   1.0000   1.0000   1.0000   1.0000   1.0000   1.0000   1.0000

     highest occupied level (ev):    29.6558

!    total energy              =   -3131.16086904 Ry
     Harris-Foulkes estimate   =   -3131.16086921 Ry
     estimated scf accuracy    <       0.00000021 Ry

     total all-electron energy =   -119218.216997 Ry

     The total energy is the sum of the following terms:

     one-electron contribution =     153.67849692 Ry
     hartree contribution      =       5.41694451 Ry
     xc contribution           =    -157.41085181 Ry
     ewald contribution        =    -332.73169529 Ry
     one-center paw contrib.   =   -2800.11376338 Ry
      -> PAW hartree energy AE =      42.90076230 Ry
      -> PAW hartree energy PS =     -42.78775094 Ry
      -> PAW xc energy AE      =    -381.08539367 Ry
      -> PAW xc energy PS      =      22.83993608 Ry
      -> total E_H with PAW    =       5.52995588 Ry
      -> total E_XC with PAW   =    -515.65630940 Ry

     convergence has been achieved in  10 iterations

     Forces acting on atoms (cartesian axes, Ry/au):

     atom    1 type  1   force =     0.00000000    0.00000000    0.00000000
     atom    2 type  1   force =     0.00000000    0.00000000    0.00000000
     atom    3 type  1   force =     0.00000000    0.00000000    0.00000000
     atom    4 type  1   force =     0.00000000    0.00000000    0.00000000
     atom    5 type  2   force =     0.00000000    0.00000000    0.00000000
     atom    6 type  2   force =     0.00000000   -0.00000000    0.00000000
     atom    7 type  2   force =     0.00000000    0.00000000    0.00000000
     atom    8 type  2   force =     0.00000000   -0.00000000    0.00000000
     The non-local contrib.  to forces
     atom    1 type  1   force =     0.00000000    0.00000000    0.00000000
     atom    2 type  1   force =     0.00000000    0.00000000    0.00000000
     atom    3 type  1   force =     0.00000000    0.00000000    0.00000000
     atom    4 type  1   force =     0.00000000    0.00000000    0.00000000
     atom    5 type  2   force =     0.00000000    0.00000000    0.00000000
     atom    6 type  2   force =     0.00000000    0.00000000   -0.00000000
     atom    7 type  2   force =     0.00000000    0.00000000    0.00000000
     atom    8 type  2   force =     0.00000000    0.00000000    0.00000000
     The ionic contribution  to forces
     atom    1 type  1   force =    -0.00000000   -0.00000000   -0.00000000
     atom    2 type  1   force =    -0.00000000    0.00000000    0.00000000
     atom    3 type  1   force =     0.00000000   -0.00000000    0.00000000
     atom    4 type  1   force =     0.00000000    0.00000000   -0.00000000
     atom    5 type  2   force =     0.00000000   -0.00000000   -0.00000000
     atom    6 type  2   force =     0.00000000    0.00000000    0.00000000
     atom    7 type  2   force =    -0.00000000   -0.00000000    0.00000000
     atom    8 type  2   force =    -0.00000000    0.00000000   -0.00000000
     The local contribution  to forces
     atom    1 type  1   force =     0.00000000    0.00000000    0.00000000
     atom    2 type  1   force =     0.00000000    0.00000000    0.00000000
     atom    3 type  1   force =     0.00000000    0.00000000    0.00000000
     atom    4 type  1   force =     0.00000000    0.00000000    0.00000000
     atom    5 type  2   force =     0.00000000   -0.00000000    0.00000000
     atom    6 type  2   force =     0.00000000    0.00000000   -0.00000000
     atom    7 type  2   force =     0.00000000   -0.00000000   -0.00000000
     atom    8 type  2   force =     0.00000000    0.00000000    0.00000000
     The core correction contribution to forces
     atom    1 type  1   force =     0.00000000    0.00000000    0.00000000
     atom    2 type  1   force =     0.00000000    0.00000000    0.00000000
     atom    3 type  1   force =     0.00000000    0.00000000    0.00000000
     atom    4 type  1   force =     0.00000000    0.00000000    0.00000000
     atom    5 type  2   force =     0.00000000   -0.00000000    0.00000000
     atom    6 type  2   force =     0.00000000    0.00000000    0.00000000
     atom    7 type  2   force =     0.00000000    0.00000000    0.00000000
     atom    8 type  2   force =     0.00000000    0.00000000    0.00000000
     The Hubbard contrib.    to forces
     atom    1 type  1   force =     0.00000000    0.00000000    0.00000000
     atom    2 type  1   force =     0.00000000    0.00000000    0.00000000
     atom    3 type  1   force =     0.00000000    0.00000000    0.00000000
     atom    4 type  1   force =     0.00000000    0.00000000    0.00000000
     atom    5 type  2   force =     0.00000000    0.00000000    0.00000000
     atom    6 type  2   force =     0.00000000    0.00000000    0.00000000
     atom    7 type  2   force =     0.00000000    0.00000000    0.00000000
     atom    8 type  2   force =     0.00000000    0.00000000    0.00000000
     The SCF correction term to forces
     atom    1 type  1   force =    -0.00000000    0.00000000    0.00000000
     atom    2 type  1   force =    -0.00000000   -0.00000000    0.00000000
     atom    3 type  1   force =     0.00000000   -0.00000000    0.00000000
     atom    4 type  1   force =     0.00000000    0.00000000    0.00000000
     atom    5 type  2   force =     0.00000000   -0.00000000   -0.00000000
     atom    6 type  2   force =     0.00000000    0.00000000    0.00000000
     atom    7 type  2   force =    -0.00000000   -0.00000000   -0.00000000
     atom    8 type  2   force =     0.00000000    0.00000000   -0.00000000

     Total force =     0.000000     Total SCF correction =     0.000000


     Computing stress (Cartesian axis) and pressure

     Message from routine stres:
     noncollinear stress + GGA not implemented

     Writing output data file CsIsalt.save/
 
     init_run     :     13.48s CPU     20.45s WALL (       1 calls)
     electrons    :    803.31s CPU   1234.04s WALL (       1 calls)
     forces       :     25.07s CPU     35.97s WALL (       1 calls)

     Called by init_run:
     wfcinit      :     10.66s CPU     16.71s WALL (       1 calls)
     wfcinit:atom :      0.02s CPU      0.02s WALL (      56 calls)
     wfcinit:wfcr :     10.49s CPU     16.49s WALL (      56 calls)
     potinit      :      0.80s CPU      1.11s WALL (       1 calls)
     hinit0       :      0.72s CPU      1.09s WALL (       1 calls)

     Called by electrons:
     c_bands      :    674.13s CPU   1046.94s WALL (      11 calls)
     sum_band     :    107.18s CPU    159.65s WALL (      11 calls)
     v_of_rho     :      0.09s CPU      0.13s WALL (      11 calls)
     v_h          :      0.01s CPU      0.01s WALL (      11 calls)
     v_xc         :      0.09s CPU      0.13s WALL (      12 calls)
     newd         :     12.12s CPU     14.11s WALL (      11 calls)
     PAW_pot      :      8.24s CPU     10.31s WALL (      11 calls)
     mix_rho      :      0.72s CPU      1.17s WALL (      11 calls)

     Called by c_bands:
     init_us_2    :      1.49s CPU      2.87s WALL (    1344 calls)
     cegterg      :    639.44s CPU    996.36s WALL (     616 calls)

     Called by sum_band:
     sum_band:bec :     31.08s CPU     46.40s WALL (     616 calls)
     addusdens    :      2.73s CPU      3.70s WALL (      11 calls)

     Called by *egterg:
     h_psi        :    310.67s CPU    489.18s WALL (    4468 calls)
     s_psi        :     31.76s CPU     44.44s WALL (    4468 calls)
     g_psi        :      0.42s CPU      0.47s WALL (    3796 calls)
     cdiaghg      :    145.01s CPU    225.86s WALL (    4356 calls)
     cegterg:over :     56.95s CPU     82.57s WALL (    3796 calls)
     cegterg:upda :     54.86s CPU     87.92s WALL (    3796 calls)
     cegterg:last :     12.90s CPU     20.60s WALL (     853 calls)
     cdiaghg:chol :      7.63s CPU     11.56s WALL (    4356 calls)
     cdiaghg:inve :      4.91s CPU      7.43s WALL (    4356 calls)
     cdiaghg:para :     25.30s CPU     38.89s WALL (    8712 calls)

     Called by h_psi:
     h_psi:pot    :    309.24s CPU    487.64s WALL (    4468 calls)
     h_psi:calbec :     10.75s CPU     14.44s WALL (    4468 calls)
     vloc_psi     :    267.30s CPU    429.61s WALL (    4468 calls)
     add_vuspsi   :     31.16s CPU     43.55s WALL (    4468 calls)

     General routines
     calbec       :     17.96s CPU     25.18s WALL (    5308 calls)
     fft          :      2.06s CPU      3.11s WALL (     243 calls)
     ffts         :      1.91s CPU      2.74s WALL (      88 calls)
     fftw         :    329.20s CPU    522.60s WALL (  646408 calls)
     interpolate  :      1.95s CPU      2.99s WALL (      44 calls)
 
     Parallel routines
     fft_scatt_xy :      9.69s CPU     13.05s WALL (  646739 calls)
     fft_scatt_yz :    273.28s CPU    448.49s WALL (  646739 calls)

     PAW routines
     PAW_pot      :      8.24s CPU     10.31s WALL (      11 calls)
     PAW_symme    :      0.41s CPU      0.59s WALL (      22 calls)
 
     PWSCF        :  14m11.13s CPU  21m41.97s WALL

 
   This run was terminated on:  12:41:10  23Jan2021            

=------------------------------------------------------------------------------=
   JOB DONE.
=------------------------------------------------------------------------------=
