
     Program PWSCF v.6.7MaX starts on 14Jan2021 at 15:33:16 

     This program is part of the open-source Quantum ESPRESSO suite
     for quantum simulation of materials; please cite
         "P. Giannozzi et al., J. Phys.:Condens. Matter 21 395502 (2009);
         "P. Giannozzi et al., J. Phys.:Condens. Matter 29 465901 (2017);
          URL http://www.quantum-espresso.org", 
     in publications or presentations arising from this work. More details at
     http://www.quantum-espresso.org/quote

     Parallel version (MPI), running on    19 processors

     MPI processes distributed on     1 nodes
     R & G space division:  proc/nbgrp/npool/nimage =      19
     Waiting for input...
     Reading input from standard input

     Current dimensions of program PWSCF are:
     Max number of different atomic species (ntypx) = 10
     Max number of k-points (npk) =  40000
     Max angular momentum in pseudopotentials (lmaxx) =  3
     file Sn.pbe-dn-kjpaw_psl.1.0.0.UPF: wavefunction(s)  5S 5P 4D renormalized
     file I.pbe-n-kjpaw_psl.1.0.0.UPF: wavefunction(s)  5S renormalized

     Subspace diagonalization in iterative solution of the eigenvalue problem:
     a serial algorithm will be used

     Message from routine setup:
     using ibrav=0 with symmetry is DISCOURAGED, use correct ibrav instead

     Parallelization info
     --------------------
     sticks:   dense  smooth     PW     G-vecs:    dense   smooth      PW
     Min         220     220     60                10744    10744    1540
     Max         221     221     62                10749    10749    1542
     Sum        4197    4197   1153               204205   204205   29279


     Title: 
     SnI4un                                                                     


     bravais-lattice index     =            0
     lattice parameter (alat)  =      13.7130  a.u.
     unit-cell volume          =    2578.6558 (a.u.)^3
     number of atoms/cell      =            5
     number of atomic types    =            2
     number of electrons       =        42.00
     number of Kohn-Sham states=           21
     kinetic-energy cutoff     =      70.0000  Ry
     charge density cutoff     =     280.0000  Ry
     scf convergence threshold =      1.0E-06
     mixing beta               =       0.7000
     number of iterations used =            8  plain     mixing
     Exchange-correlation= SLA  PW   PBX  PBC
                           (   1   4   3   4   0   0   0)

     celldm(1)=  13.712957  celldm(2)=   0.000000  celldm(3)=   0.000000
     celldm(4)=   0.000000  celldm(5)=   0.000000  celldm(6)=   0.000000

     crystal axes: (cart. coord. in units of alat)
               a(1) = (   1.000000   0.000000   0.000000 )  
               a(2) = (   0.000000   1.000000   0.000000 )  
               a(3) = (   0.000000   0.000000   1.000000 )  

     reciprocal axes: (cart. coord. in units 2 pi/alat)
               b(1) = (  1.000000  0.000000  0.000000 )  
               b(2) = (  0.000000  1.000000  0.000000 )  
               b(3) = (  0.000000  0.000000  1.000000 )  


     PseudoPot. # 1 for Sn read from file:
     ../../../pseudo/Sn.pbe-dn-kjpaw_psl.1.0.0.UPF
     MD5 check sum: 67f11dec737d427557dc41ea34975807
     Pseudo is Projector augmented-wave + core cor, Zval = 14.0
     Generated using &quot;atomic&quot; code by A. Dal Corso  v.6.3
     Shape of augmentation charge: PSQ
     Using radial grid of 1243 points,  6 beta functions with: 
                l(1) =   0
                l(2) =   0
                l(3) =   1
                l(4) =   1
                l(5) =   2
                l(6) =   2
     Q(r) pseudized with 0 coefficients 


     PseudoPot. # 2 for I  read from file:
     ../../../pseudo/I.pbe-n-kjpaw_psl.1.0.0.UPF
     MD5 check sum: cd3d296c3308a581e1559a0c8a554cb5
     Pseudo is Projector augmented-wave + core cor, Zval =  7.0
     Generated using &quot;atomic&quot; code by A. Dal Corso  v.6.3
     Shape of augmentation charge: PSQ
     Using radial grid of 1247 points,  6 beta functions with: 
                l(1) =   0
                l(2) =   0
                l(3) =   1
                l(4) =   1
                l(5) =   2
                l(6) =   2
     Q(r) pseudized with 0 coefficients 


     atomic species   valence    mass     pseudopotential
        Sn            14.00   118.70000     Sn( 1.00)
        I              7.00   126.90000     I ( 1.00)

     24 Sym. Ops. (no inversion) found


                                    s                        frac. trans.

      isym =  1     identity                                     

 cryst.   s( 1) = (     1          0          0      )
                  (     0          1          0      )
                  (     0          0          1      )

 cart.    s( 1) = (  1.0000000  0.0000000  0.0000000 )
                  (  0.0000000  1.0000000  0.0000000 )
                  (  0.0000000  0.0000000  1.0000000 )


      isym =  2     180 deg rotation - cart. axis [0,0,1]        

 cryst.   s( 2) = (    -1          0          0      )
                  (     0         -1          0      )
                  (     0          0          1      )

 cart.    s( 2) = ( -1.0000000  0.0000000  0.0000000 )
                  (  0.0000000 -1.0000000  0.0000000 )
                  (  0.0000000  0.0000000  1.0000000 )


      isym =  3     180 deg rotation - cart. axis [0,1,0]        

 cryst.   s( 3) = (    -1          0          0      )
                  (     0          1          0      )
                  (     0          0         -1      )

 cart.    s( 3) = ( -1.0000000  0.0000000  0.0000000 )
                  (  0.0000000  1.0000000  0.0000000 )
                  (  0.0000000  0.0000000 -1.0000000 )


      isym =  4     180 deg rotation - cart. axis [1,0,0]        

 cryst.   s( 4) = (     1          0          0      )
                  (     0         -1          0      )
                  (     0          0         -1      )

 cart.    s( 4) = (  1.0000000  0.0000000  0.0000000 )
                  (  0.0000000 -1.0000000  0.0000000 )
                  (  0.0000000  0.0000000 -1.0000000 )


      isym =  5     120 deg rotation - cart. axis [-1,-1,-1]     

 cryst.   s( 5) = (     0          0          1      )
                  (     1          0          0      )
                  (     0          1          0      )

 cart.    s( 5) = (  0.0000000  1.0000000  0.0000000 )
                  (  0.0000000  0.0000000  1.0000000 )
                  (  1.0000000  0.0000000  0.0000000 )


      isym =  6     120 deg rotation - cart. axis [-1,1,1]       

 cryst.   s( 6) = (     0          0         -1      )
                  (    -1          0          0      )
                  (     0          1          0      )

 cart.    s( 6) = (  0.0000000 -1.0000000  0.0000000 )
                  (  0.0000000  0.0000000  1.0000000 )
                  ( -1.0000000  0.0000000  0.0000000 )


      isym =  7     120 deg rotation - cart. axis [1,1,-1]       

 cryst.   s( 7) = (     0          0         -1      )
                  (     1          0          0      )
                  (     0         -1          0      )

 cart.    s( 7) = (  0.0000000  1.0000000  0.0000000 )
                  (  0.0000000  0.0000000 -1.0000000 )
                  ( -1.0000000  0.0000000  0.0000000 )


      isym =  8     120 deg rotation - cart. axis [1,-1,1]       

 cryst.   s( 8) = (     0          0          1      )
                  (    -1          0          0      )
                  (     0         -1          0      )

 cart.    s( 8) = (  0.0000000 -1.0000000  0.0000000 )
                  (  0.0000000  0.0000000 -1.0000000 )
                  (  1.0000000  0.0000000  0.0000000 )


      isym =  9     120 deg rotation - cart. axis [1,1,1]        

 cryst.   s( 9) = (     0          1          0      )
                  (     0          0          1      )
                  (     1          0          0      )

 cart.    s( 9) = (  0.0000000  0.0000000  1.0000000 )
                  (  1.0000000  0.0000000  0.0000000 )
                  (  0.0000000  1.0000000  0.0000000 )


      isym = 10     120 deg rotation - cart. axis [-1,1,-1]      

 cryst.   s(10) = (     0         -1          0      )
                  (     0          0         -1      )
                  (     1          0          0      )

 cart.    s(10) = (  0.0000000  0.0000000  1.0000000 )
                  ( -1.0000000  0.0000000  0.0000000 )
                  (  0.0000000 -1.0000000  0.0000000 )


      isym = 11     120 deg rotation - cart. axis [1,-1,-1]      

 cryst.   s(11) = (     0         -1          0      )
                  (     0          0          1      )
                  (    -1          0          0      )

 cart.    s(11) = (  0.0000000  0.0000000 -1.0000000 )
                  ( -1.0000000  0.0000000  0.0000000 )
                  (  0.0000000  1.0000000  0.0000000 )


      isym = 12     120 deg rotation - cart. axis [-1,-1,1]      

 cryst.   s(12) = (     0          1          0      )
                  (     0          0         -1      )
                  (    -1          0          0      )

 cart.    s(12) = (  0.0000000  0.0000000 -1.0000000 )
                  (  1.0000000  0.0000000  0.0000000 )
                  (  0.0000000 -1.0000000  0.0000000 )


      isym = 13     inv. 180 deg rotation - cart. axis [1,1,0]   

 cryst.   s(13) = (     0         -1          0      )
                  (    -1          0          0      )
                  (     0          0          1      )

 cart.    s(13) = (  0.0000000 -1.0000000  0.0000000 )
                  ( -1.0000000  0.0000000  0.0000000 )
                  (  0.0000000  0.0000000  1.0000000 )


      isym = 14     inv. 180 deg rotation - cart. axis [1,-1,0]  

 cryst.   s(14) = (     0          1          0      )
                  (     1          0          0      )
                  (     0          0          1      )

 cart.    s(14) = (  0.0000000  1.0000000  0.0000000 )
                  (  1.0000000  0.0000000  0.0000000 )
                  (  0.0000000  0.0000000  1.0000000 )


      isym = 15     inv.  90 deg rotation - cart. axis [0,0,-1]  

 cryst.   s(15) = (     0          1          0      )
                  (    -1          0          0      )
                  (     0          0         -1      )

 cart.    s(15) = (  0.0000000 -1.0000000  0.0000000 )
                  (  1.0000000  0.0000000  0.0000000 )
                  (  0.0000000  0.0000000 -1.0000000 )


      isym = 16     inv.  90 deg rotation - cart. axis [0,0,1]   

 cryst.   s(16) = (     0         -1          0      )
                  (     1          0          0      )
                  (     0          0         -1      )

 cart.    s(16) = (  0.0000000  1.0000000  0.0000000 )
                  ( -1.0000000  0.0000000  0.0000000 )
                  (  0.0000000  0.0000000 -1.0000000 )


      isym = 17     inv. 180 deg rotation - cart. axis [1,0,1]   

 cryst.   s(17) = (     0          0         -1      )
                  (     0          1          0      )
                  (    -1          0          0      )

 cart.    s(17) = (  0.0000000  0.0000000 -1.0000000 )
                  (  0.0000000  1.0000000  0.0000000 )
                  ( -1.0000000  0.0000000  0.0000000 )


      isym = 18     inv. 180 deg rotation - cart. axis [-1,0,1]  

 cryst.   s(18) = (     0          0          1      )
                  (     0          1          0      )
                  (     1          0          0      )

 cart.    s(18) = (  0.0000000  0.0000000  1.0000000 )
                  (  0.0000000  1.0000000  0.0000000 )
                  (  1.0000000  0.0000000  0.0000000 )


      isym = 19     inv.  90 deg rotation - cart. axis [0,1,0]   

 cryst.   s(19) = (     0          0          1      )
                  (     0         -1          0      )
                  (    -1          0          0      )

 cart.    s(19) = (  0.0000000  0.0000000 -1.0000000 )
                  (  0.0000000 -1.0000000  0.0000000 )
                  (  1.0000000  0.0000000  0.0000000 )


      isym = 20     inv.  90 deg rotation - cart. axis [0,-1,0]  

 cryst.   s(20) = (     0          0         -1      )
                  (     0         -1          0      )
                  (     1          0          0      )

 cart.    s(20) = (  0.0000000  0.0000000  1.0000000 )
                  (  0.0000000 -1.0000000  0.0000000 )
                  ( -1.0000000  0.0000000  0.0000000 )


      isym = 21     inv. 180 deg rotation - cart. axis [0,1,1]   

 cryst.   s(21) = (     1          0          0      )
                  (     0          0         -1      )
                  (     0         -1          0      )

 cart.    s(21) = (  1.0000000  0.0000000  0.0000000 )
                  (  0.0000000  0.0000000 -1.0000000 )
                  (  0.0000000 -1.0000000  0.0000000 )


      isym = 22     inv. 180 deg rotation - cart. axis [0,1,-1]  

 cryst.   s(22) = (     1          0          0      )
                  (     0          0          1      )
                  (     0          1          0      )

 cart.    s(22) = (  1.0000000  0.0000000  0.0000000 )
                  (  0.0000000  0.0000000  1.0000000 )
                  (  0.0000000  1.0000000  0.0000000 )


      isym = 23     inv.  90 deg rotation - cart. axis [-1,0,0]  

 cryst.   s(23) = (    -1          0          0      )
                  (     0          0          1      )
                  (     0         -1          0      )

 cart.    s(23) = ( -1.0000000  0.0000000  0.0000000 )
                  (  0.0000000  0.0000000 -1.0000000 )
                  (  0.0000000  1.0000000  0.0000000 )


      isym = 24     inv.  90 deg rotation - cart. axis [1,0,0]   

 cryst.   s(24) = (    -1          0          0      )
                  (     0          0         -1      )
                  (     0          1          0      )

 cart.    s(24) = ( -1.0000000  0.0000000  0.0000000 )
                  (  0.0000000  0.0000000  1.0000000 )
                  (  0.0000000 -1.0000000  0.0000000 )


   Cartesian axes

     site n.     atom                  positions (alat units)
         1           Sn  tau(   1) = (   0.0000000   0.0000000   0.0000000  )
         2           I   tau(   2) = (   0.2339030   0.7660970   0.7660970  )
         3           I   tau(   3) = (   0.7660970   0.2339030   0.7660970  )
         4           I   tau(   4) = (   0.7660970   0.7660970   0.2339030  )
         5           I   tau(   5) = (   0.2339030   0.2339030   0.2339030  )

   Crystallographic axes

     site n.     atom                  positions (cryst. coord.)
         1           Sn  tau(   1) = (  0.0000000  0.0000000  0.0000000  )
         2           I   tau(   2) = (  0.2339030  0.7660970  0.7660970  )
         3           I   tau(   3) = (  0.7660970  0.2339030  0.7660970  )
         4           I   tau(   4) = (  0.7660970  0.7660970  0.2339030  )
         5           I   tau(   5) = (  0.2339030  0.2339030  0.2339030  )

     number of k points=    10
                       cart. coord. in units 2pi/alat
        k(    1) = (   0.0000000   0.0000000   0.0000000), wk =   0.0312500
        k(    2) = (   0.0000000   0.0000000   0.2500000), wk =   0.1875000
        k(    3) = (   0.0000000   0.0000000  -0.5000000), wk =   0.0937500
        k(    4) = (   0.0000000   0.2500000   0.2500000), wk =   0.3750000
        k(    5) = (   0.0000000   0.2500000  -0.5000000), wk =   0.3750000
        k(    6) = (   0.0000000  -0.5000000  -0.5000000), wk =   0.0937500
        k(    7) = (   0.2500000   0.2500000   0.2500000), wk =   0.2500000
        k(    8) = (   0.2500000   0.2500000  -0.5000000), wk =   0.3750000
        k(    9) = (   0.2500000  -0.5000000  -0.5000000), wk =   0.1875000
        k(   10) = (  -0.5000000  -0.5000000  -0.5000000), wk =   0.0312500

                       cryst. coord.
        k(    1) = (   0.0000000   0.0000000   0.0000000), wk =   0.0312500
        k(    2) = (   0.0000000   0.0000000   0.2500000), wk =   0.1875000
        k(    3) = (   0.0000000   0.0000000  -0.5000000), wk =   0.0937500
        k(    4) = (   0.0000000   0.2500000   0.2500000), wk =   0.3750000
        k(    5) = (   0.0000000   0.2500000  -0.5000000), wk =   0.3750000
        k(    6) = (   0.0000000  -0.5000000  -0.5000000), wk =   0.0937500
        k(    7) = (   0.2500000   0.2500000   0.2500000), wk =   0.2500000
        k(    8) = (   0.2500000   0.2500000  -0.5000000), wk =   0.3750000
        k(    9) = (   0.2500000  -0.5000000  -0.5000000), wk =   0.1875000
        k(   10) = (  -0.5000000  -0.5000000  -0.5000000), wk =   0.0312500

     Dense  grid:   204205 G-vectors     FFT dimensions: (  75,  75,  75)

     Dynamical RAM for                 wfc:       0.43 MB

     Dynamical RAM for     wfc (w. buffer):       4.73 MB

     Dynamical RAM for           str. fact:       0.33 MB

     Dynamical RAM for           local pot:       0.00 MB

     Dynamical RAM for          nlocal pot:       1.84 MB

     Dynamical RAM for                qrad:       2.69 MB

     Dynamical RAM for          rho,v,vnew:       1.01 MB

     Dynamical RAM for               rhoin:       0.34 MB

     Dynamical RAM for            rho*nmix:       2.62 MB

     Dynamical RAM for           G-vectors:       0.70 MB

     Dynamical RAM for          h,s,v(r/c):       0.08 MB

     Dynamical RAM for          <psi|beta>:       0.03 MB

     Dynamical RAM for                 psi:       0.86 MB

     Dynamical RAM for                hpsi:       0.86 MB

     Dynamical RAM for                spsi:       0.86 MB

     Dynamical RAM for      wfcinit/wfcrot:       1.04 MB

     Dynamical RAM for           addusdens:      31.16 MB

     Dynamical RAM for          addusforce:      32.24 MB

     Dynamical RAM for         addusstress:      32.97 MB

     Estimated static dynamical RAM per process >      15.60 MB

     Estimated max dynamical RAM per process >      48.57 MB

     Estimated total dynamical RAM >     922.83 MB

     Initial potential from superposition of free atoms

     starting charge   41.99831, renormalised to   42.00000
     Starting wfcs are   25 randomized atomic wfcs
     Checking if some PAW data can be deallocated... 
       PAW data deallocated on   15 nodes for type:  1
       PAW data deallocated on    4 nodes for type:  2

     total cpu time spent up to now is        3.2 secs

     Self-consistent Calculation

     iteration #  1     ecut=    70.00 Ry     beta= 0.70
     Davidson diagonalization with overlap
     ethr =  1.00E-02,  avg # of iterations =  1.0

     Threshold (ethr) on eigenvalues was too large:
     Diagonalizing with lowered threshold

     Davidson diagonalization with overlap
     ethr =  5.04E-04,  avg # of iterations =  2.0

     total cpu time spent up to now is        9.5 secs

     total energy              =   -1957.70927196 Ry
     estimated scf accuracy    <       0.18682555 Ry

     iteration #  2     ecut=    70.00 Ry     beta= 0.70
     Davidson diagonalization with overlap
     ethr =  4.45E-04,  avg # of iterations =  4.0

     total cpu time spent up to now is       14.4 secs

     total energy              =   -1957.74116681 Ry
     estimated scf accuracy    <       0.25242116 Ry

     iteration #  3     ecut=    70.00 Ry     beta= 0.70
     Davidson diagonalization with overlap
     ethr =  4.45E-04,  avg # of iterations =  4.0

     total cpu time spent up to now is       18.8 secs

     total energy              =   -1957.78879671 Ry
     estimated scf accuracy    <       0.00173948 Ry

     iteration #  4     ecut=    70.00 Ry     beta= 0.70
     Davidson diagonalization with overlap
     ethr =  4.14E-06,  avg # of iterations =  6.0

     total cpu time spent up to now is       23.6 secs

     total energy              =   -1957.78977127 Ry
     estimated scf accuracy    <       0.00093981 Ry

     iteration #  5     ecut=    70.00 Ry     beta= 0.70
     Davidson diagonalization with overlap
     ethr =  2.24E-06,  avg # of iterations =  2.3

     total cpu time spent up to now is       27.6 secs

     total energy              =   -1957.78982955 Ry
     estimated scf accuracy    <       0.00010493 Ry

     iteration #  6     ecut=    70.00 Ry     beta= 0.70
     Davidson diagonalization with overlap
     ethr =  2.50E-07,  avg # of iterations =  5.0

     total cpu time spent up to now is       32.6 secs

     total energy              =   -1957.78988564 Ry
     estimated scf accuracy    <       0.00003473 Ry

     iteration #  7     ecut=    70.00 Ry     beta= 0.70
     Davidson diagonalization with overlap
     ethr =  8.27E-08,  avg # of iterations =  1.5

     total cpu time spent up to now is       35.6 secs

     total energy              =   -1957.78988024 Ry
     estimated scf accuracy    <       0.00001174 Ry

     iteration #  8     ecut=    70.00 Ry     beta= 0.70
     Davidson diagonalization with overlap
     ethr =  2.79E-08,  avg # of iterations =  5.0

     total cpu time spent up to now is       39.9 secs

     total energy              =   -1957.78988625 Ry
     estimated scf accuracy    <       0.00000640 Ry

     iteration #  9     ecut=    70.00 Ry     beta= 0.70
     Davidson diagonalization with overlap
     ethr =  1.52E-08,  avg # of iterations =  1.9

     total cpu time spent up to now is       42.9 secs

     total energy              =   -1957.78988568 Ry
     estimated scf accuracy    <       0.00000240 Ry

     iteration # 10     ecut=    70.00 Ry     beta= 0.70
     Davidson diagonalization with overlap
     ethr =  5.72E-09,  avg # of iterations =  4.0

     total cpu time spent up to now is       46.4 secs

     End of self-consistent calculation

          k = 0.0000 0.0000 0.0000 ( 25533 PWs)   bands (ev):

   -22.8868 -22.8868 -22.8868 -22.8680 -22.8680 -12.7139 -12.3720 -12.3720
   -12.3720  -7.5665  -3.4774  -3.4774  -3.4774  -2.3456  -2.3456  -1.8103
    -1.8103  -1.8103  -1.7262  -1.7262  -1.7262

     occupation numbers 
     1.0000   1.0000   1.0000   1.0000   1.0000   1.0000   1.0000   1.0000
     1.0000   1.0000   1.0000   1.0000   1.0000   1.0000   1.0000   1.0000
     1.0000   1.0000   1.0000   1.0000   1.0000

          k = 0.0000 0.0000 0.2500 ( 25497 PWs)   bands (ev):

   -22.8868 -22.8868 -22.8868 -22.8681 -22.8681 -12.7012 -12.3869 -12.3718
   -12.3718  -7.5590  -3.5209  -3.4834  -3.4834  -2.2894  -2.2741  -1.8826
    -1.8540  -1.8352  -1.8352  -1.7138  -1.7138

     occupation numbers 
     1.0000   1.0000   1.0000   1.0000   1.0000   1.0000   1.0000   1.0000
     1.0000   1.0000   1.0000   1.0000   1.0000   1.0000   1.0000   1.0000
     1.0000   1.0000   1.0000   1.0000   1.0000

          k = 0.0000 0.0000-0.5000 ( 25532 PWs)   bands (ev):

   -22.8868 -22.8868 -22.8868 -22.8681 -22.8681 -12.6872 -12.4031 -12.3716
   -12.3716  -7.5514  -3.5623  -3.4894  -3.4894  -2.2015  -2.1125  -2.0621
    -1.9864  -1.8517  -1.8517  -1.7097  -1.7097

     occupation numbers 
     1.0000   1.0000   1.0000   1.0000   1.0000   1.0000   1.0000   1.0000
     1.0000   1.0000   1.0000   1.0000   1.0000   1.0000   1.0000   1.0000
     1.0000   1.0000   1.0000   1.0000   1.0000

          k = 0.0000 0.2500 0.2500 ( 25490 PWs)   bands (ev):

   -22.8868 -22.8868 -22.8868 -22.8680 -22.8680 -12.6901 -12.3872 -12.3823
   -12.3732  -7.5554  -3.5603  -3.4882  -3.4841  -2.2457  -2.2273  -1.9884
    -1.9181  -1.8219  -1.7982  -1.7455  -1.6708

     occupation numbers 
     1.0000   1.0000   1.0000   1.0000   1.0000   1.0000   1.0000   1.0000
     1.0000   1.0000   1.0000   1.0000   1.0000   1.0000   1.0000   1.0000
     1.0000   1.0000   1.0000   1.0000   1.0000

          k = 0.0000 0.2500-0.5000 ( 25532 PWs)   bands (ev):

   -22.8868 -22.8868 -22.8868 -22.8681 -22.8681 -12.6780 -12.3989 -12.3817
   -12.3753  -7.5519  -3.5947  -3.4910  -3.4900  -2.1772  -2.1552  -2.0954
    -1.9815  -1.8174  -1.8079  -1.7445  -1.6572

     occupation numbers 
     1.0000   1.0000   1.0000   1.0000   1.0000   1.0000   1.0000   1.0000
     1.0000   1.0000   1.0000   1.0000   1.0000   1.0000   1.0000   1.0000
     1.0000   1.0000   1.0000   1.0000   1.0000

          k = 0.0000-0.5000-0.5000 ( 25500 PWs)   bands (ev):

   -22.8868 -22.8868 -22.8868 -22.8681 -22.8680 -12.6682 -12.3926 -12.3926
   -12.3813  -7.5523  -3.6243  -3.4922  -3.4922  -2.1908  -2.1908  -2.0748
    -1.9793  -1.7833  -1.7833  -1.7748  -1.6095

     occupation numbers 
     1.0000   1.0000   1.0000   1.0000   1.0000   1.0000   1.0000   1.0000
     1.0000   1.0000   1.0000   1.0000   1.0000   1.0000   1.0000   1.0000
     1.0000   1.0000   1.0000   1.0000   1.0000

          k = 0.2500 0.2500 0.2500 ( 25482 PWs)   bands (ev):

   -22.8868 -22.8868 -22.8868 -22.8680 -22.8680 -12.6807 -12.3885 -12.3821
   -12.3821  -7.5559  -3.5644  -3.5047  -3.5047  -2.2162  -2.2162  -2.0569
    -1.8778  -1.8778  -1.7262  -1.6948  -1.6948

     occupation numbers 
     1.0000   1.0000   1.0000   1.0000   1.0000   1.0000   1.0000   1.0000
     1.0000   1.0000   1.0000   1.0000   1.0000   1.0000   1.0000   1.0000
     1.0000   1.0000   1.0000   1.0000   1.0000

          k = 0.2500 0.2500-0.5000 ( 25530 PWs)   bands (ev):

   -22.8868 -22.8868 -22.8868 -22.8681 -22.8681 -12.6707 -12.3964 -12.3851
   -12.3818  -7.5564  -3.5825  -3.5248  -3.5052  -2.1838  -2.1794  -2.1460
    -1.8966  -1.8072  -1.7397  -1.6870  -1.6743

     occupation numbers 
     1.0000   1.0000   1.0000   1.0000   1.0000   1.0000   1.0000   1.0000
     1.0000   1.0000   1.0000   1.0000   1.0000   1.0000   1.0000   1.0000
     1.0000   1.0000   1.0000   1.0000   1.0000

          k = 0.2500-0.5000-0.5000 ( 25460 PWs)   bands (ev):

   -22.8868 -22.8868 -22.8868 -22.8681 -22.8680 -12.6628 -12.3923 -12.3923
   -12.3865  -7.5610  -3.5918  -3.5273  -3.5273  -2.1948  -2.1948  -2.1704
    -1.8315  -1.7615  -1.7092  -1.7092  -1.6221

     occupation numbers 
     1.0000   1.0000   1.0000   1.0000   1.0000   1.0000   1.0000   1.0000
     1.0000   1.0000   1.0000   1.0000   1.0000   1.0000   1.0000   1.0000
     1.0000   1.0000   1.0000   1.0000   1.0000

          k =-0.5000-0.5000-0.5000 ( 25576 PWs)   bands (ev):

   -22.8868 -22.8868 -22.8868 -22.8681 -22.8681 -12.6572 -12.3920 -12.3920
   -12.3920  -7.5695  -3.5605  -3.5605  -3.5605  -2.1971  -2.1971  -2.1971
    -1.7451  -1.7451  -1.6377  -1.6377  -1.6377

     occupation numbers 
     1.0000   1.0000   1.0000   1.0000   1.0000   1.0000   1.0000   1.0000
     1.0000   1.0000   1.0000   1.0000   1.0000   1.0000   1.0000   1.0000
     1.0000   1.0000   1.0000   1.0000   1.0000

     highest occupied level (ev):    -1.6095

!    total energy              =   -1957.78988600 Ry

     total all-electron energy =    -69286.407447 Ry
     estimated scf accuracy    <       0.00000008 Ry

     The total energy is the sum of the following terms:
     one-electron contribution =    -170.17843905 Ry
     hartree contribution      =      99.93839283 Ry
     xc contribution           =    -110.66939194 Ry
     ewald contribution        =    -110.04903772 Ry
     one-center paw contrib.   =   -1666.83141012 Ry
      -> PAW hartree energy AE =     107.49738034 Ry
      -> PAW hartree energy PS =    -106.73505392 Ry
      -> PAW xc energy AE      =    -328.88616515 Ry
      -> PAW xc energy PS      =      47.18901044 Ry
      -> total E_H with PAW    =     100.70071925 Ry
      -> total E_XC with PAW   =    -392.36654664 Ry

     convergence has been achieved in  10 iterations

     Forces acting on atoms (cartesian axes, Ry/au):

     atom    1 type  1   force =     0.00000000    0.00000000    0.00000000
     atom    2 type  2   force =    -0.02921265    0.02921265    0.02921265
     atom    3 type  2   force =     0.02921265   -0.02921265    0.02921265
     atom    4 type  2   force =     0.02921265    0.02921265   -0.02921265
     atom    5 type  2   force =    -0.02921265   -0.02921265   -0.02921265
     The non-local contrib.  to forces
     atom    1 type  1   force =     0.00000000    0.00000000    0.00000000
     atom    2 type  2   force =    -0.09378308    0.09378308    0.09378308
     atom    3 type  2   force =     0.09378308   -0.09378308    0.09378308
     atom    4 type  2   force =     0.09378308    0.09378308   -0.09378308
     atom    5 type  2   force =    -0.09378308   -0.09378308   -0.09378308
     The ionic contribution  to forces
     atom    1 type  1   force =    -0.00000000   -0.00000000    0.00000000
     atom    2 type  2   force =     3.22132870   -3.22132870   -3.22132870
     atom    3 type  2   force =    -3.22132870    3.22132870   -3.22132870
     atom    4 type  2   force =    -3.22132870   -3.22132870    3.22132870
     atom    5 type  2   force =     3.22132870    3.22132870    3.22132870
     The local contribution  to forces
     atom    1 type  1   force =     0.00000000    0.00000000   -0.00000000
     atom    2 type  2   force =    -3.16919062    3.16919062    3.16919062
     atom    3 type  2   force =     3.16919062   -3.16919062    3.16919062
     atom    4 type  2   force =     3.16919062    3.16919062   -3.16919062
     atom    5 type  2   force =    -3.16919062   -3.16919062   -3.16919062
     The core correction contribution to forces
     atom    1 type  1   force =     0.00000000    0.00000000    0.00000000
     atom    2 type  2   force =     0.01256593   -0.01256593   -0.01256593
     atom    3 type  2   force =    -0.01256593    0.01256593   -0.01256593
     atom    4 type  2   force =    -0.01256593   -0.01256593    0.01256593
     atom    5 type  2   force =     0.01256593    0.01256593    0.01256593
     The Hubbard contrib.    to forces
     atom    1 type  1   force =     0.00000000    0.00000000    0.00000000
     atom    2 type  2   force =     0.00000000    0.00000000    0.00000000
     atom    3 type  2   force =     0.00000000    0.00000000    0.00000000
     atom    4 type  2   force =     0.00000000    0.00000000    0.00000000
     atom    5 type  2   force =     0.00000000    0.00000000    0.00000000
     The SCF correction term to forces
     atom    1 type  1   force =    -0.00000000    0.00000000    0.00000000
     atom    2 type  2   force =    -0.00013359    0.00013359    0.00013359
     atom    3 type  2   force =     0.00013359   -0.00013359    0.00013359
     atom    4 type  2   force =     0.00013359    0.00013359   -0.00013359
     atom    5 type  2   force =    -0.00013359   -0.00013359   -0.00013359

     Total force =     0.101196     Total SCF correction =     0.000463


     Computing stress (Cartesian axis) and pressure

          total   stress  (Ry/bohr**3)                   (kbar)     P=      -22.14
  -0.00015053   0.00000000   0.00000000          -22.14        0.00        0.00
   0.00000000  -0.00015053   0.00000000            0.00      -22.14        0.00
   0.00000000   0.00000000  -0.00015053            0.00        0.00      -22.14

     kinetic stress (kbar)   3113.46      0.00      0.00
                                0.00   3113.46      0.00
                                0.00      0.00   3113.46

     local   stress (kbar)  -2527.91      0.00     -0.00
                                0.00  -2527.91     -0.00
                               -0.00     -0.00  -2527.91

     nonloc. stress (kbar)    610.72      0.00      0.00
                                0.00    610.72      0.00
                                0.00      0.00    610.72

     hartree stress (kbar)   1900.40     -0.00     -0.00
                               -0.00   1900.40     -0.00
                               -0.00     -0.00   1900.40

     exc-cor stress (kbar)   3211.78      0.00      0.00
                                0.00   3211.78      0.00
                                0.00      0.00   3211.78

     corecor stress (kbar)  -4237.93     -0.00     -0.00
                               -0.00  -4237.93     -0.00
                               -0.00     -0.00  -4237.93

     ewald   stress (kbar)  -2092.66     -0.00     -0.00
                               -0.00  -2092.66     -0.00
                               -0.00     -0.00  -2092.66

     hubbard stress (kbar)      0.00      0.00      0.00
                                0.00      0.00      0.00
                                0.00      0.00      0.00

     DFT-D   stress (kbar)      0.00      0.00      0.00
                                0.00      0.00      0.00
                                0.00      0.00      0.00

     XDM     stress (kbar)      0.00      0.00      0.00
                                0.00      0.00      0.00
                                0.00      0.00      0.00

     dft-nl  stress (kbar)      0.00      0.00      0.00
                                0.00      0.00      0.00
                                0.00      0.00      0.00

     TS-vdW  stress (kbar)      0.00      0.00      0.00
                                0.00      0.00      0.00
                                0.00      0.00      0.00



     Writing output data file ./out/SnI4un.save/

     init_run     :      2.23s CPU      2.34s WALL (       1 calls)
     electrons    :     40.35s CPU     43.18s WALL (       1 calls)
     forces       :      0.94s CPU      0.95s WALL (       1 calls)
     stress       :      2.24s CPU      2.25s WALL (       1 calls)

     Called by init_run:
     wfcinit      :      1.25s CPU      1.31s WALL (       1 calls)
     wfcinit:atom :      0.01s CPU      0.01s WALL (      10 calls)
     wfcinit:wfcr :      1.16s CPU      1.17s WALL (      10 calls)
     potinit      :      0.26s CPU      0.28s WALL (       1 calls)
     hinit0       :      0.30s CPU      0.30s WALL (       1 calls)

     Called by electrons:
     c_bands      :     30.44s CPU     33.01s WALL (      11 calls)
     sum_band     :      6.26s CPU      6.36s WALL (      11 calls)
     v_of_rho     :      0.45s CPU      0.46s WALL (      11 calls)
     v_h          :      0.03s CPU      0.03s WALL (      11 calls)
     v_xc         :      0.49s CPU      0.49s WALL (      13 calls)
     newd         :      1.75s CPU      1.79s WALL (      11 calls)
     PAW_pot      :      1.65s CPU      1.67s WALL (      11 calls)
     mix_rho      :      0.10s CPU      0.10s WALL (      11 calls)

     Called by c_bands:
     init_us_2    :      0.50s CPU      0.53s WALL (     250 calls)
     cegterg      :     28.97s CPU     29.21s WALL (     110 calls)

     Called by sum_band:
     sum_band:wei :      0.00s CPU      0.00s WALL (      11 calls)
     sum_band:loo :      4.46s CPU      4.53s WALL (      11 calls)
     sum_band:buf :      0.04s CPU      0.04s WALL (     110 calls)
     sum_band:ini :      0.22s CPU      0.22s WALL (     110 calls)
     sum_band:cal :      1.17s CPU      1.18s WALL (     110 calls)
     sum_band:bec :      0.01s CPU      0.01s WALL (     110 calls)
     addusdens    :      1.69s CPU      1.71s WALL (      11 calls)
     addusd:skk   :      0.01s CPU      0.01s WALL (      22 calls)
     addusd:dgemm :      0.65s CPU      0.67s WALL (      22 calls)
     addusd:qvan2 :      0.82s CPU      0.83s WALL (      22 calls)

     Called by *egterg:
     cdiaghg      :      0.42s CPU      0.42s WALL (     467 calls)
     cegterg:over :      1.52s CPU      1.53s WALL (     367 calls)
     cegterg:upda :      0.76s CPU      0.77s WALL (     367 calls)
     cegterg:last :      1.92s CPU      1.93s WALL (     244 calls)
     h_psi        :     21.67s CPU     21.88s WALL (     487 calls)
     s_psi        :      2.92s CPU      2.93s WALL (     487 calls)
     g_psi        :      0.07s CPU      0.07s WALL (     367 calls)

     Called by h_psi:
     h_psi:calbec :      3.52s CPU      3.54s WALL (     487 calls)
     vloc_psi     :     15.17s CPU     15.34s WALL (     487 calls)
     add_vuspsi   :      2.90s CPU      2.92s WALL (     487 calls)

     General routines
     calbec       :      5.14s CPU      5.17s WALL (     647 calls)
     fft          :      0.32s CPU      0.32s WALL (     147 calls)
     ffts         :      0.02s CPU      0.02s WALL (      11 calls)
     fftw         :     17.00s CPU     17.23s WALL (   14968 calls)

     Parallel routines
     fft_scatt_xy :      1.52s CPU      1.54s WALL (   15126 calls)
     fft_scatt_yz :      2.77s CPU      2.84s WALL (   15126 calls)

     PAW routines
     PAW_pot      :      1.65s CPU      1.67s WALL (      11 calls)
     PAW_symme    :      0.01s CPU      0.01s WALL (      22 calls)

     PWSCF        :     46.70s CPU     50.73s WALL


   This run was terminated on:  15:34: 7  14Jan2021            

=------------------------------------------------------------------------------=
   JOB DONE.
=------------------------------------------------------------------------------=
