
     Program PWSCF v.6.4.1 starts on 25Jan2021 at 15:40:26 

     This program is part of the open-source Quantum ESPRESSO suite
     for quantum simulation of materials; please cite
         "P. Giannozzi et al., J. Phys.:Condens. Matter 21 395502 (2009);
         "P. Giannozzi et al., J. Phys.:Condens. Matter 29 465901 (2017);
          URL http://www.quantum-espresso.org", 
     in publications or presentations arising from this work. More details at
     http://www.quantum-espresso.org/quote

     Parallel version (MPI & OpenMP), running on      48 processor cores
     Number of MPI processes:                24
     Threads/MPI process:                     2

     MPI processes distributed on     1 nodes
     R & G space division:  proc/nbgrp/npool/nimage =      24
     Waiting for input...
     Reading input from standard input

     Current dimensions of program PWSCF are:
     Max number of different atomic species (ntypx) = 10
     Max number of k-points (npk) =  40000
     Max angular momentum in pseudopotentials (lmaxx) =  3
               file Cs.rel-pbesol-spn-rrkjus_psl.1.0.0.UPF: wavefunction(s)  5S 6S renormalized
               file Sn.rel-pbesol-dn-rrkjus_psl.1.0.0.UPF: wavefunction(s)  5S 4D 4D renormalized
               file I.rel-pbesol-n-rrkjus_psl.1.0.0.UPF: wavefunction(s)  5S renormalized

     Subspace diagonalization in iterative solution of the eigenvalue problem:
     one sub-group per band group will be used
     scalapack distributed-memory algorithm (size of sub-group:  3*  3 procs)

 
     Parallelization info
     --------------------
     sticks:   dense  smooth     PW     G-vecs:    dense   smooth      PW
     Min         185     123     32                23287    12683    1716
     Max         186     124     33                23291    12690    1725
     Sum        4443    2963    783               558911   304449   41317
 

     Title: 
     CsSnI3                                                                     


     bravais-lattice index     =            8
     lattice parameter (alat)  =       9.1317  a.u.
     unit-cell volume          =    6370.5385 (a.u.)^3
     number of atoms/cell      =           20
     number of atomic types    =            3
     number of electrons       =       176.00
     number of Kohn-Sham states=          176
     kinetic-energy cutoff     =      50.0000  Ry
     charge density cutoff     =     300.0000  Ry
     convergence threshold     =      1.0E-06
     mixing beta               =       0.3500
     number of iterations used =            8  plain     mixing
     Exchange-correlation      = PBESOL ( 1  4 10  8 0 0)
     Non magnetic calculation with spin-orbit


     celldm(1)=   9.131705  celldm(2)=   2.227728  celldm(3)=   3.755420
     celldm(4)=   0.000000  celldm(5)=   0.000000  celldm(6)=   0.000000

     crystal axes: (cart. coord. in units of alat)
               a(1) = (   1.000000   0.000000   0.000000 )  
               a(2) = (   0.000000   2.227728   0.000000 )  
               a(3) = (   0.000000   0.000000   3.755420 )  

     reciprocal axes: (cart. coord. in units 2 pi/alat)
               b(1) = (  1.000000  0.000000  0.000000 )  
               b(2) = (  0.000000  0.448888  0.000000 )  
               b(3) = (  0.000000  0.000000  0.266282 )  


     PseudoPot. # 1 for Cs read from file:
     /marconi_scratch/userexternal/cmalosso/degironcoli/pseudo/pseudo-usp/Cs.rel-pbesol-spn-rrkjus_psl.1.0.0.UPF
     MD5 check sum: 846889b67fb1b19751b5b37931589d70
     Pseudo is Ultrasoft + core correction, Zval =  9.0
     Generated using "atomic" code by A. Dal Corso v.6.4.1
     Using radial grid of 1251 points, 15 beta functions with: 
                l(1) =   0
                l(2) =   0
                l(3) =   0
                l(4) =   1
                l(5) =   1
                l(6) =   1
                l(7) =   1
                l(8) =   2
                l(9) =   2
               l(10) =   2
               l(11) =   2
               l(12) =   3
               l(13) =   3
               l(14) =   3
               l(15) =   3
     Q(r) pseudized with 0 coefficients 


     PseudoPot. # 2 for Sn read from file:
     /marconi_scratch/userexternal/cmalosso/degironcoli/pseudo/pseudo-usp/Sn.rel-pbesol-dn-rrkjus_psl.1.0.0.UPF
     MD5 check sum: c1cf6ea56b96a3656bdf0d1db379e093
     Pseudo is Ultrasoft + core correction, Zval = 14.0
     Generated using "atomic" code by A. Dal Corso v.6.3
     Using radial grid of 1243 points, 10 beta functions with: 
                l(1) =   0
                l(2) =   0
                l(3) =   1
                l(4) =   1
                l(5) =   1
                l(6) =   1
                l(7) =   2
                l(8) =   2
                l(9) =   2
               l(10) =   2
     Q(r) pseudized with 0 coefficients 


     PseudoPot. # 3 for I  read from file:
     /marconi_scratch/userexternal/cmalosso/degironcoli/pseudo/pseudo-usp/I.rel-pbesol-n-rrkjus_psl.1.0.0.UPF
     MD5 check sum: 0f96c6bfb1b448f280658f96eb466b08
     Pseudo is Ultrasoft + core correction, Zval =  7.0
     Generated using "atomic" code by A. Dal Corso v.6.3
     Using radial grid of 1247 points, 10 beta functions with: 
                l(1) =   0
                l(2) =   0
                l(3) =   1
                l(4) =   1
                l(5) =   1
                l(6) =   1
                l(7) =   2
                l(8) =   2
                l(9) =   2
               l(10) =   2
     Q(r) pseudized with 0 coefficients 


     atomic species   valence    mass     pseudopotential
        Cs             9.00   132.90000     Cs( 1.00)
        Sn            14.00   118.70000     Sn( 1.00)
        I              7.00   126.90000     I ( 1.00)

      8 Sym. Ops., with inversion, found ( 6 have fractional translation)


                                    s                        frac. trans.

      isym =  1     identity                                     

 cryst.   s( 1) = (     1          0          0      )
                  (     0          1          0      )
                  (     0          0          1      )

 cart.    s( 1) = (  1.0000000  0.0000000  0.0000000 )
                  (  0.0000000  1.0000000  0.0000000 )
                  (  0.0000000  0.0000000  1.0000000 )


      isym =  2     180 deg rotation - cart. axis [0,0,1]        

 cryst.   s( 2) = (    -1          0          0      )    f =(  0.0000000 )
                  (     0         -1          0      )       (  0.5000000 )
                  (     0          0          1      )       (  0.5000000 )

 cart.    s( 2) = ( -1.0000000  0.0000000  0.0000000 )    f =(  0.0000000 )
                  (  0.0000000 -1.0000000  0.0000000 )       (  1.1138638 )
                  (  0.0000000  0.0000000  1.0000000 )       (  1.8777098 )


      isym =  3     180 deg rotation - cart. axis [0,1,0]        

 cryst.   s( 3) = (    -1          0          0      )    f =(  0.5000000 )
                  (     0          1          0      )       ( -0.5000000 )
                  (     0          0         -1      )       ( -0.5000000 )

 cart.    s( 3) = ( -1.0000000  0.0000000  0.0000000 )    f =(  0.5000000 )
                  (  0.0000000  1.0000000  0.0000000 )       ( -1.1138638 )
                  (  0.0000000  0.0000000 -1.0000000 )       ( -1.8777098 )


      isym =  4     180 deg rotation - cart. axis [1,0,0]        

 cryst.   s( 4) = (     1          0          0      )    f =( -0.5000000 )
                  (     0         -1          0      )       (  0.0000000 )
                  (     0          0         -1      )       (  0.0000000 )

 cart.    s( 4) = (  1.0000000  0.0000000  0.0000000 )    f =( -0.5000000 )
                  (  0.0000000 -1.0000000  0.0000000 )       (  0.0000000 )
                  (  0.0000000  0.0000000 -1.0000000 )       (  0.0000000 )


      isym =  5     inversion                                    

 cryst.   s( 5) = (    -1          0          0      )
                  (     0         -1          0      )
                  (     0          0         -1      )

 cart.    s( 5) = ( -1.0000000  0.0000000  0.0000000 )
                  (  0.0000000 -1.0000000  0.0000000 )
                  (  0.0000000  0.0000000 -1.0000000 )


      isym =  6     inv. 180 deg rotation - cart. axis [0,0,1]   

 cryst.   s( 6) = (     1          0          0      )    f =(  0.0000000 )
                  (     0          1          0      )       ( -0.5000000 )
                  (     0          0         -1      )       ( -0.5000000 )

 cart.    s( 6) = (  1.0000000  0.0000000  0.0000000 )    f =(  0.0000000 )
                  (  0.0000000  1.0000000  0.0000000 )       ( -1.1138638 )
                  (  0.0000000  0.0000000 -1.0000000 )       ( -1.8777098 )


      isym =  7     inv. 180 deg rotation - cart. axis [0,1,0]   

 cryst.   s( 7) = (     1          0          0      )    f =( -0.5000000 )
                  (     0         -1          0      )       (  0.5000000 )
                  (     0          0          1      )       (  0.5000000 )

 cart.    s( 7) = (  1.0000000  0.0000000  0.0000000 )    f =( -0.5000000 )
                  (  0.0000000 -1.0000000  0.0000000 )       (  1.1138638 )
                  (  0.0000000  0.0000000  1.0000000 )       (  1.8777098 )


      isym =  8     inv. 180 deg rotation - cart. axis [1,0,0]   

 cryst.   s( 8) = (    -1          0          0      )    f =(  0.5000000 )
                  (     0          1          0      )       (  0.0000000 )
                  (     0          0          1      )       (  0.0000000 )

 cart.    s( 8) = ( -1.0000000  0.0000000  0.0000000 )    f =(  0.5000000 )
                  (  0.0000000  1.0000000  0.0000000 )       (  0.0000000 )
                  (  0.0000000  0.0000000  1.0000000 )       (  0.0000000 )


     double point group D_2h (mmm) 
     there are 10 classes and  2 irreducible representations
     the character table:

       E     -E     C2    C2'  C2''  i     -i     s_v   s_v' s_v''
                   -C2   -C2'  -C2''             -s_v  -s_v' -s_v'
G_5+   2.00 -2.00  0.00  0.00  0.00  2.00 -2.00  0.00  0.00  0.00
G_5-   2.00 -2.00  0.00  0.00  0.00 -2.00  2.00  0.00  0.00  0.00

     the symmetry operations in each class and the name of the first element:

     E             1
          identity                                               
     -E           -1
          identity E                                             
      C2  -C2      2   -2
          180 deg rotation - cart. axis [0,0,1]                  
      C2' -C2'     4   -4
          180 deg rotation - cart. axis [1,0,0]                  
     C2'' -C2''    3   -3
          180 deg rotation - cart. axis [0,1,0]                  
     i             5
          inversion                                              
     -i           -5
          inversion E                                            
      s_v -s_v     6   -6
          inv. 180 deg rotation - cart. axis [0,0,1]             
      s_v'-s_v'    8   -8
          inv. 180 deg rotation - cart. axis [1,0,0]             
     s_v''-s_v'    7   -7
          inv. 180 deg rotation - cart. axis [0,1,0]             

   Cartesian axes

     site n.     atom                  positions (alat units)
         1           Cs  tau(   1) = (   0.2500000   0.1859640   2.5168147  )
         2           Cs  tau(   2) = (   0.7500000   2.0417636   1.2386050  )
         3           Cs  tau(   3) = (   0.2500000   1.2998278   3.1163149  )
         4           Cs  tau(   4) = (   0.7500000   0.9278998   0.6391048  )
         5           Sn  tau(   5) = (   0.2500000   0.7615710   1.6485466  )
         6           Sn  tau(   6) = (   0.7500000   1.4661567   2.1068731  )
         7           Sn  tau(   7) = (   0.2500000   1.8754348   0.2291632  )
         8           Sn  tau(   8) = (   0.7500000   0.3522928   3.5262565  )
         9           I   tau(   9) = (   0.7500000   0.0581437   0.4202578  )
        10           I   tau(  10) = (   0.2500000   2.1695839   3.3351619  )
        11           I   tau(  11) = (   0.7500000   1.1720075   1.4574521  )
        12           I   tau(  12) = (   0.2500000   1.0557201   2.2979676  )
        13           I   tau(  13) = (   0.7500000   0.6531118   2.9738192  )
        14           I   tau(  14) = (   0.2500000   1.5746158   0.7816005  )
        15           I   tau(  15) = (   0.7500000   1.7669756   2.6593103  )
        16           I   tau(  16) = (   0.2500000   0.4607520   1.0961094  )
        17           I   tau(  17) = (   0.7500000   0.3753632   1.8734812  )
        18           I   tau(  18) = (   0.2500000   1.8523644   1.8819384  )
        19           I   tau(  19) = (   0.7500000   1.4892270   0.0042286  )
        20           I   tau(  20) = (   0.2500000   0.7385006   3.7511911  )

   Crystallographic axes

     site n.     atom                  positions (cryst. coord.)
         1           Cs  tau(   1) = (  0.2500000  0.0834770  0.6701820  )
         2           Cs  tau(   2) = (  0.7500000  0.9165230  0.3298180  )
         3           Cs  tau(   3) = (  0.2500000  0.5834770  0.8298180  )
         4           Cs  tau(   4) = (  0.7500000  0.4165230  0.1701820  )
         5           Sn  tau(   5) = (  0.2500000  0.3418600  0.4389780  )
         6           Sn  tau(   6) = (  0.7500000  0.6581400  0.5610220  )
         7           Sn  tau(   7) = (  0.2500000  0.8418600  0.0610220  )
         8           Sn  tau(   8) = (  0.7500000  0.1581400  0.9389780  )
         9           I   tau(   9) = (  0.7500000  0.0261000  0.1119070  )
        10           I   tau(  10) = (  0.2500000  0.9739000  0.8880930  )
        11           I   tau(  11) = (  0.7500000  0.5261000  0.3880930  )
        12           I   tau(  12) = (  0.2500000  0.4739000  0.6119070  )
        13           I   tau(  13) = (  0.7500000  0.2931740  0.7918740  )
        14           I   tau(  14) = (  0.2500000  0.7068260  0.2081260  )
        15           I   tau(  15) = (  0.7500000  0.7931740  0.7081260  )
        16           I   tau(  16) = (  0.2500000  0.2068260  0.2918740  )
        17           I   tau(  17) = (  0.7500000  0.1684960  0.4988740  )
        18           I   tau(  18) = (  0.2500000  0.8315040  0.5011260  )
        19           I   tau(  19) = (  0.7500000  0.6684960  0.0011260  )
        20           I   tau(  20) = (  0.2500000  0.3315040  0.9988740  )

     number of k points=     1
                       cart. coord. in units 2pi/alat
        k(    1) = (   0.2500000   0.1122220   0.0665705), wk =   1.0000000

                       cryst. coord.
        k(    1) = (   0.2500000   0.2500000   0.2500000), wk =   1.0000000

     Dense  grid:   558911 G-vectors     FFT dimensions: (  54, 120, 192)

     Smooth grid:   304449 G-vectors     FFT dimensions: (  48,  96, 160)

     Dynamical RAM for                 wfc:       8.51 MB

     Dynamical RAM for     wfc (w. buffer):       8.51 MB

     Dynamical RAM for           str. fact:       1.07 MB

     Dynamical RAM for           local pot:       0.00 MB

     Dynamical RAM for          nlocal pot:      19.24 MB

     Dynamical RAM for                qrad:      48.47 MB

     Dynamical RAM for          rho,v,vnew:       9.01 MB

     Dynamical RAM for               rhoin:       3.00 MB

     Dynamical RAM for            rho*nmix:      22.74 MB

     Dynamical RAM for           G-vectors:       1.43 MB

     Dynamical RAM for          h,s,v(r/c):       2.51 MB

     Dynamical RAM for          <psi|beta>:       4.28 MB

     Dynamical RAM for                 psi:      34.03 MB

     Dynamical RAM for                hpsi:      34.03 MB

     Dynamical RAM for                spsi:      34.03 MB

     Dynamical RAM for      wfcinit/wfcrot:      16.07 MB

     Dynamical RAM for           addusdens:     730.21 MB

     Dynamical RAM for          addusforce:     747.65 MB

     Dynamical RAM for         addusstress:     736.60 MB

     Estimated static dynamical RAM per process >     118.05 MB

     Estimated max dynamical RAM per process >     865.70 MB

     Estimated total dynamical RAM >      20.29 GB

     Initial potential from superposition of free atoms

     starting charge  175.84164, renormalised to  176.00000
     Starting wfcs are  208 randomized atomic wfcs

     total cpu time spent up to now is       17.7 secs

     Self-consistent Calculation

     iteration #  1     ecut=    50.00 Ry     beta= 0.35
     Davidson diagonalization with overlap
     ethr =  1.00E-02,  avg # of iterations =  1.0

     Threshold (ethr) on eigenvalues was too large:
     Diagonalizing with lowered threshold

     Davidson diagonalization with overlap
     ethr =  3.04E-04,  avg # of iterations =  3.0

     total cpu time spent up to now is       52.6 secs

     total energy              =   -1268.04245117 Ry
     Harris-Foulkes estimate   =   -1268.23682122 Ry
     estimated scf accuracy    <       0.41772832 Ry

     iteration #  2     ecut=    50.00 Ry     beta= 0.35
     Davidson diagonalization with overlap
     ethr =  2.37E-04,  avg # of iterations =  2.0

     total cpu time spent up to now is       73.1 secs

     total energy              =   -1268.11390226 Ry
     Harris-Foulkes estimate   =   -1268.12864372 Ry
     estimated scf accuracy    <       0.05349674 Ry

     iteration #  3     ecut=    50.00 Ry     beta= 0.35
     Davidson diagonalization with overlap
     ethr =  3.04E-05,  avg # of iterations =  3.0

     total cpu time spent up to now is       94.8 secs

     total energy              =   -1268.12181155 Ry
     Harris-Foulkes estimate   =   -1268.12228955 Ry
     estimated scf accuracy    <       0.01038181 Ry

     iteration #  4     ecut=    50.00 Ry     beta= 0.35
     Davidson diagonalization with overlap
     ethr =  5.90E-06,  avg # of iterations =  2.0

     total cpu time spent up to now is      115.1 secs

     total energy              =   -1268.12311429 Ry
     Harris-Foulkes estimate   =   -1268.12270184 Ry
     estimated scf accuracy    <       0.00196258 Ry

     iteration #  5     ecut=    50.00 Ry     beta= 0.35
     Davidson diagonalization with overlap
     ethr =  1.12E-06,  avg # of iterations =  3.0

     total cpu time spent up to now is      135.6 secs

     total energy              =   -1268.12335627 Ry
     Harris-Foulkes estimate   =   -1268.12336991 Ry
     estimated scf accuracy    <       0.00021309 Ry

     iteration #  6     ecut=    50.00 Ry     beta= 0.35
     Davidson diagonalization with overlap
     ethr =  1.21E-07,  avg # of iterations =  4.0

     total cpu time spent up to now is      157.8 secs

     total energy              =   -1268.12342794 Ry
     Harris-Foulkes estimate   =   -1268.12342542 Ry
     estimated scf accuracy    <       0.00001897 Ry

     iteration #  7     ecut=    50.00 Ry     beta= 0.35
     Davidson diagonalization with overlap
     ethr =  1.08E-08,  avg # of iterations =  2.0

     total cpu time spent up to now is      180.3 secs

     total energy              =   -1268.12343257 Ry
     Harris-Foulkes estimate   =   -1268.12343049 Ry
     estimated scf accuracy    <       0.00000490 Ry

     iteration #  8     ecut=    50.00 Ry     beta= 0.35
     Davidson diagonalization with overlap
     ethr =  2.78E-09,  avg # of iterations =  4.0

     total cpu time spent up to now is      203.9 secs

     End of self-consistent calculation

          k = 0.2500 0.1122 0.0666 ( 38020 PWs)   bands (ev):

   -18.4180 -18.4180 -18.4180 -18.4180 -18.4179 -18.4179 -18.4179 -18.4179
   -18.4062 -18.4062 -18.4062 -18.4062 -18.4061 -18.4061 -18.4061 -18.4061
   -17.8378 -17.8378 -17.8377 -17.8377 -17.8373 -17.8373 -17.8372 -17.8372
   -17.3809 -17.3809 -17.3809 -17.3809 -17.3809 -17.3809 -17.3809 -17.3809
   -17.3689 -17.3689 -17.3689 -17.3689 -17.3688 -17.3688 -17.3688 -17.3688
   -17.3657 -17.3657 -17.3657 -17.3657 -17.3655 -17.3655 -17.3655 -17.3655
    -8.8086  -8.8086  -8.7973  -8.7973  -8.6587  -8.6587  -8.6428  -8.6428
    -8.5474  -8.5474  -8.5416  -8.5416  -8.4758  -8.4758  -8.4588  -8.4588
    -8.4020  -8.4020  -8.3974  -8.3974  -8.3818  -8.3818  -8.3764  -8.3764
    -5.8017  -5.8017  -5.7978  -5.7978  -5.7941  -5.7941  -5.7900  -5.7900
    -4.2233  -4.2233  -4.2180  -4.2180  -4.2068  -4.2068  -4.1997  -4.1997
    -4.1617  -4.1617  -4.1585  -4.1585  -4.1535  -4.1535  -4.1487  -4.1487
    -3.1721  -3.1721  -3.1681  -3.1681  -3.0797  -3.0797  -3.0697  -3.0697
    -0.0206  -0.0206   0.0395   0.0395   0.1311   0.1311   0.1638   0.1638
     0.2809   0.2809   0.3716   0.3716   0.5003   0.5003   0.5584   0.5584
     0.6746   0.6746   0.7077   0.7077   0.7417   0.7417   0.8081   0.8081
     1.0144   1.0144   1.0804   1.0804   1.2824   1.2824   1.3565   1.3565
     1.4101   1.4101   1.4769   1.4769   1.5950   1.5950   1.6546   1.6546
     1.7281   1.7281   1.7671   1.7671   1.8192   1.8192   1.8473   1.8473
     1.8793   1.8793   1.9584   1.9584   2.0064   2.0064   2.0775   2.0775
     2.1322   2.1322   2.1597   2.1597   2.3128   2.3128   2.3454   2.3454
     2.6540   2.6540   2.7513   2.7513   2.9425   2.9425   2.9902   2.9902

     occupation numbers 
     1.0000   1.0000   1.0000   1.0000   1.0000   1.0000   1.0000   1.0000
     1.0000   1.0000   1.0000   1.0000   1.0000   1.0000   1.0000   1.0000
     1.0000   1.0000   1.0000   1.0000   1.0000   1.0000   1.0000   1.0000
     1.0000   1.0000   1.0000   1.0000   1.0000   1.0000   1.0000   1.0000
     1.0000   1.0000   1.0000   1.0000   1.0000   1.0000   1.0000   1.0000
     1.0000   1.0000   1.0000   1.0000   1.0000   1.0000   1.0000   1.0000
     1.0000   1.0000   1.0000   1.0000   1.0000   1.0000   1.0000   1.0000
     1.0000   1.0000   1.0000   1.0000   1.0000   1.0000   1.0000   1.0000
     1.0000   1.0000   1.0000   1.0000   1.0000   1.0000   1.0000   1.0000
     1.0000   1.0000   1.0000   1.0000   1.0000   1.0000   1.0000   1.0000
     1.0000   1.0000   1.0000   1.0000   1.0000   1.0000   1.0000   1.0000
     1.0000   1.0000   1.0000   1.0000   1.0000   1.0000   1.0000   1.0000
     1.0000   1.0000   1.0000   1.0000   1.0000   1.0000   1.0000   1.0000
     1.0000   1.0000   1.0000   1.0000   1.0000   1.0000   1.0000   1.0000
     1.0000   1.0000   1.0000   1.0000   1.0000   1.0000   1.0000   1.0000
     1.0000   1.0000   1.0000   1.0000   1.0000   1.0000   1.0000   1.0000
     1.0000   1.0000   1.0000   1.0000   1.0000   1.0000   1.0000   1.0000
     1.0000   1.0000   1.0000   1.0000   1.0000   1.0000   1.0000   1.0000
     1.0000   1.0000   1.0000   1.0000   1.0000   1.0000   1.0000   1.0000
     1.0000   1.0000   1.0000   1.0000   1.0000   1.0000   1.0000   1.0000
     1.0000   1.0000   1.0000   1.0000   1.0000   1.0000   1.0000   1.0000
     1.0000   1.0000   1.0000   1.0000   1.0000   1.0000   1.0000   1.0000

     highest occupied level (ev):     2.9902

!    total energy              =   -1268.12343347 Ry
     Harris-Foulkes estimate   =   -1268.12343381 Ry
     estimated scf accuracy    <       0.00000086 Ry

     The total energy is the sum of the following terms:

     one-electron contribution =    -488.08327442 Ry
     hartree contribution      =     316.26719896 Ry
     xc contribution           =    -462.73775639 Ry
     ewald contribution        =    -633.56960162 Ry

     convergence has been achieved in   8 iterations

     Forces acting on atoms (cartesian axes, Ry/au):

     atom    1 type  1   force =     0.00000000   -0.00085872    0.00015582
     atom    2 type  1   force =     0.00000000    0.00085872   -0.00015582
     atom    3 type  1   force =     0.00000000   -0.00085872   -0.00015582
     atom    4 type  1   force =     0.00000000    0.00085872    0.00015582
     atom    5 type  2   force =     0.00000000   -0.00125088   -0.00030226
     atom    6 type  2   force =     0.00000000    0.00125088    0.00030226
     atom    7 type  2   force =     0.00000000   -0.00125088    0.00030226
     atom    8 type  2   force =     0.00000000    0.00125088   -0.00030226
     atom    9 type  3   force =    -0.00000000    0.00105674   -0.00184954
     atom   10 type  3   force =    -0.00000000   -0.00105674    0.00184954
     atom   11 type  3   force =     0.00000000    0.00105674    0.00184954
     atom   12 type  3   force =     0.00000000   -0.00105674   -0.00184954
     atom   13 type  3   force =     0.00000000   -0.00161577    0.00216302
     atom   14 type  3   force =     0.00000000    0.00161577   -0.00216302
     atom   15 type  3   force =     0.00000000   -0.00161577   -0.00216302
     atom   16 type  3   force =     0.00000000    0.00161577    0.00216302
     atom   17 type  3   force =     0.00000000   -0.00209675    0.00060705
     atom   18 type  3   force =    -0.00000000    0.00209675   -0.00060705
     atom   19 type  3   force =     0.00000000   -0.00209675   -0.00060705
     atom   20 type  3   force =     0.00000000    0.00209675    0.00060705
     The non-local contrib.  to forces
     atom    1 type  1   force =     0.00000000    0.00261288   -0.00361883
     atom    2 type  1   force =     0.00000000   -0.00261288    0.00361883
     atom    3 type  1   force =     0.00000000    0.00261288    0.00361883
     atom    4 type  1   force =     0.00000000   -0.00261288   -0.00361883
     atom    5 type  2   force =     0.00000000   -0.08414158   -0.12918620
     atom    6 type  2   force =     0.00000000    0.08414158    0.12918620
     atom    7 type  2   force =     0.00000000   -0.08414158    0.12918620
     atom    8 type  2   force =     0.00000000    0.08414158   -0.12918620
     atom    9 type  3   force =     0.00000000   -0.05025301   -0.04898881
     atom   10 type  3   force =     0.00000000    0.05025301    0.04898881
     atom   11 type  3   force =     0.00000000   -0.05025301    0.04898881
     atom   12 type  3   force =     0.00000000    0.05025301   -0.04898881
     atom   13 type  3   force =     0.00000000   -0.03224613    0.05465193
     atom   14 type  3   force =     0.00000000    0.03224613   -0.05465193
     atom   15 type  3   force =     0.00000000   -0.03224613   -0.05465193
     atom   16 type  3   force =     0.00000000    0.03224613    0.05465193
     atom   17 type  3   force =     0.00000000    0.05652404   -0.01765577
     atom   18 type  3   force =     0.00000000   -0.05652404    0.01765577
     atom   19 type  3   force =     0.00000000    0.05652404    0.01765577
     atom   20 type  3   force =     0.00000000   -0.05652404   -0.01765577
     The ionic contribution  to forces
     atom    1 type  1   force =     0.00000000    0.02273773    0.42856976
     atom    2 type  1   force =    -0.00000000   -0.02273773   -0.42856976
     atom    3 type  1   force =     0.00000000    0.02273773   -0.42856976
     atom    4 type  1   force =    -0.00000000   -0.02273773    0.42856976
     atom    5 type  2   force =    -0.00000000   -2.44382133   -1.60292982
     atom    6 type  2   force =     0.00000000    2.44382133    1.60292982
     atom    7 type  2   force =    -0.00000000   -2.44382133    1.60292982
     atom    8 type  2   force =     0.00000000    2.44382133   -1.60292982
     atom    9 type  3   force =     0.00000000    3.00608889    5.13288889
     atom   10 type  3   force =    -0.00000000   -3.00608889   -5.13288889
     atom   11 type  3   force =    -0.00000000    3.00608889   -5.13288889
     atom   12 type  3   force =    -0.00000000   -3.00608889    5.13288889
     atom   13 type  3   force =    -0.00000000    2.02422847   -3.75281495
     atom   14 type  3   force =     0.00000000   -2.02422847    3.75281495
     atom   15 type  3   force =    -0.00000000    2.02422847    3.75281495
     atom   16 type  3   force =     0.00000000   -2.02422847   -3.75281495
     atom   17 type  3   force =     0.00000000   -4.20564469    2.10270402
     atom   18 type  3   force =    -0.00000000    4.20564469   -2.10270402
     atom   19 type  3   force =     0.00000000   -4.20564469   -2.10270402
     atom   20 type  3   force =     0.00000000    4.20564469    2.10270402
     The local contribution  to forces
     atom    1 type  1   force =    -0.00000000   -0.02601309   -0.42471401
     atom    2 type  1   force =     0.00000000    0.02601309    0.42471401
     atom    3 type  1   force =    -0.00000000   -0.02601309    0.42471401
     atom    4 type  1   force =     0.00000000    0.02601309   -0.42471401
     atom    5 type  2   force =    -0.00000000    2.52638443    1.73134479
     atom    6 type  2   force =    -0.00000000   -2.52638443   -1.73134479
     atom    7 type  2   force =    -0.00000000    2.52638443   -1.73134479
     atom    8 type  2   force =    -0.00000000   -2.52638443    1.73134479
     atom    9 type  3   force =    -0.00000000   -2.95999137   -5.09061094
     atom   10 type  3   force =     0.00000000    2.95999137    5.09061094
     atom   11 type  3   force =    -0.00000000   -2.95999137    5.09061094
     atom   12 type  3   force =     0.00000000    2.95999137   -5.09061094
     atom   13 type  3   force =     0.00000000   -1.99679282    3.70543181
     atom   14 type  3   force =    -0.00000000    1.99679282   -3.70543181
     atom   15 type  3   force =     0.00000000   -1.99679282   -3.70543181
     atom   16 type  3   force =    -0.00000000    1.99679282    3.70543181
     atom   17 type  3   force =    -0.00000000    4.15319801   -2.08636153
     atom   18 type  3   force =    -0.00000000   -4.15319801    2.08636153
     atom   19 type  3   force =    -0.00000000    4.15319801    2.08636153
     atom   20 type  3   force =     0.00000000   -4.15319801   -2.08636153
     The core correction contribution to forces
     atom    1 type  1   force =    -0.00000000   -0.00005866    0.00022916
     atom    2 type  1   force =     0.00000000    0.00005866   -0.00022916
     atom    3 type  1   force =    -0.00000000   -0.00005866   -0.00022916
     atom    4 type  1   force =     0.00000000    0.00005866    0.00022916
     atom    5 type  2   force =     0.00000000    0.00018262    0.00016701
     atom    6 type  2   force =    -0.00000000   -0.00018262   -0.00016701
     atom    7 type  2   force =     0.00000000    0.00018262   -0.00016701
     atom    8 type  2   force =    -0.00000000   -0.00018262    0.00016701
     atom    9 type  3   force =     0.00000000    0.00538946    0.00547979
     atom   10 type  3   force =    -0.00000000   -0.00538946   -0.00547979
     atom   11 type  3   force =     0.00000000    0.00538946   -0.00547979
     atom   12 type  3   force =    -0.00000000   -0.00538946    0.00547979
     atom   13 type  3   force =     0.00000000    0.00318696   -0.00547964
     atom   14 type  3   force =    -0.00000000   -0.00318696    0.00547964
     atom   15 type  3   force =     0.00000000    0.00318696    0.00547964
     atom   16 type  3   force =    -0.00000000   -0.00318696   -0.00547964
     atom   17 type  3   force =     0.00000000   -0.00641547    0.00211057
     atom   18 type  3   force =    -0.00000000    0.00641547   -0.00211057
     atom   19 type  3   force =    -0.00000000   -0.00641547   -0.00211057
     atom   20 type  3   force =    -0.00000000    0.00641547    0.00211057
     The Hubbard contrib.    to forces
     atom    1 type  1   force =     0.00000000    0.00000000    0.00000000
     atom    2 type  1   force =     0.00000000    0.00000000    0.00000000
     atom    3 type  1   force =     0.00000000    0.00000000    0.00000000
     atom    4 type  1   force =     0.00000000    0.00000000    0.00000000
     atom    5 type  2   force =     0.00000000    0.00000000    0.00000000
     atom    6 type  2   force =     0.00000000    0.00000000    0.00000000
     atom    7 type  2   force =     0.00000000    0.00000000    0.00000000
     atom    8 type  2   force =     0.00000000    0.00000000    0.00000000
     atom    9 type  3   force =     0.00000000    0.00000000    0.00000000
     atom   10 type  3   force =     0.00000000    0.00000000    0.00000000
     atom   11 type  3   force =     0.00000000    0.00000000    0.00000000
     atom   12 type  3   force =     0.00000000    0.00000000    0.00000000
     atom   13 type  3   force =     0.00000000    0.00000000    0.00000000
     atom   14 type  3   force =     0.00000000    0.00000000    0.00000000
     atom   15 type  3   force =     0.00000000    0.00000000    0.00000000
     atom   16 type  3   force =     0.00000000    0.00000000    0.00000000
     atom   17 type  3   force =     0.00000000    0.00000000    0.00000000
     atom   18 type  3   force =     0.00000000    0.00000000    0.00000000
     atom   19 type  3   force =     0.00000000    0.00000000    0.00000000
     atom   20 type  3   force =     0.00000000    0.00000000    0.00000000
     The SCF correction term to forces
     atom    1 type  1   force =     0.00000000   -0.00013758   -0.00031026
     atom    2 type  1   force =     0.00000000    0.00013758    0.00031026
     atom    3 type  1   force =     0.00000000   -0.00013758    0.00031026
     atom    4 type  1   force =    -0.00000000    0.00013758   -0.00031026
     atom    5 type  2   force =    -0.00000000    0.00014499    0.00030195
     atom    6 type  2   force =    -0.00000000   -0.00014499   -0.00030195
     atom    7 type  2   force =    -0.00000000    0.00014499   -0.00030195
     atom    8 type  2   force =     0.00000000   -0.00014499    0.00030195
     atom    9 type  3   force =     0.00000000   -0.00017723   -0.00061846
     atom   10 type  3   force =    -0.00000000    0.00017723    0.00061846
     atom   11 type  3   force =     0.00000000   -0.00017723    0.00061846
     atom   12 type  3   force =    -0.00000000    0.00017723   -0.00061846
     atom   13 type  3   force =     0.00000000    0.00000775    0.00037387
     atom   14 type  3   force =    -0.00000000   -0.00000775   -0.00037387
     atom   15 type  3   force =    -0.00000000    0.00000775   -0.00037387
     atom   16 type  3   force =     0.00000000   -0.00000775    0.00037387
     atom   17 type  3   force =    -0.00000000    0.00024136   -0.00019025
     atom   18 type  3   force =     0.00000000   -0.00024136    0.00019025
     atom   19 type  3   force =     0.00000000    0.00024136    0.00019025
     atom   20 type  3   force =    -0.00000000   -0.00024136   -0.00019025

     Total force =     0.008720     Total SCF correction =     0.001871
     SCF correction compared to forces is large: reduce conv_thr to get better values


     Computing stress (Cartesian axis) and pressure

     Message from routine stres:
     noncollinear stress + GGA not implemented

     Writing output data file CsSnI3.save/
 
     init_run     :      7.65s CPU     10.31s WALL (       1 calls)
     electrons    :    133.56s CPU    186.32s WALL (       1 calls)
     forces       :      7.51s CPU      8.68s WALL (       1 calls)

     Called by init_run:
     wfcinit      :      2.26s CPU      3.44s WALL (       1 calls)
     wfcinit:atom :      0.01s CPU      0.01s WALL (       1 calls)
     wfcinit:wfcr :      2.20s CPU      3.35s WALL (       1 calls)
     potinit      :      0.76s CPU      1.15s WALL (       1 calls)
     hinit0       :      1.36s CPU      1.73s WALL (       1 calls)

     Called by electrons:
     c_bands      :     68.97s CPU    101.38s WALL (       9 calls)
     sum_band     :     35.91s CPU     48.92s WALL (       9 calls)
     v_of_rho     :      1.37s CPU      1.90s WALL (       9 calls)
     v_h          :      0.07s CPU      0.13s WALL (       9 calls)
     v_xc         :      1.45s CPU      2.00s WALL (      10 calls)
     newd         :     27.57s CPU     33.75s WALL (       9 calls)
     mix_rho      :      1.97s CPU      3.14s WALL (       9 calls)

     Called by c_bands:
     init_us_2    :      0.25s CPU      0.30s WALL (      19 calls)
     cegterg      :     64.16s CPU     95.97s WALL (       9 calls)

     Called by sum_band:
     sum_band:bec :      0.75s CPU      1.04s WALL (       9 calls)
     addusdens    :     19.77s CPU     24.39s WALL (       9 calls)

     Called by *egterg:
     h_psi        :     44.84s CPU     68.14s WALL (      34 calls)
     s_psi        :      3.34s CPU      3.93s WALL (      34 calls)
     g_psi        :      0.06s CPU      0.07s WALL (      24 calls)
     cdiaghg      :      7.34s CPU     11.93s WALL (      32 calls)
     cegterg:over :      4.18s CPU      5.79s WALL (      24 calls)
     cegterg:upda :      2.63s CPU      3.84s WALL (      24 calls)
     cegterg:last :      1.00s CPU      1.21s WALL (       9 calls)
     cdiaghg:chol :      0.62s CPU      0.91s WALL (      32 calls)
     cdiaghg:inve :      0.31s CPU      0.65s WALL (      32 calls)
     cdiaghg:para :      0.82s CPU      1.27s WALL (      64 calls)

     Called by h_psi:
     h_psi:pot    :     44.75s CPU     67.96s WALL (      34 calls)
     h_psi:calbec :      2.79s CPU      3.27s WALL (      34 calls)
     vloc_psi     :     38.55s CPU     60.72s WALL (      34 calls)
     add_vuspsi   :      3.41s CPU      3.96s WALL (      34 calls)

     General routines
     calbec       :      4.18s CPU      4.91s WALL (      47 calls)
     fft          :      3.32s CPU      5.05s WALL (     199 calls)
     ffts         :      1.62s CPU      2.55s WALL (      72 calls)
     fftw         :     48.36s CPU     77.11s WALL (   20800 calls)
     interpolate  :      0.17s CPU      0.25s WALL (      36 calls)
 
     Parallel routines
     fft_scatt_xy :      1.76s CPU      2.15s WALL (   21071 calls)
     fft_scatt_yz :     44.15s CPU     72.87s WALL (   21071 calls)
 
     PWSCF        :   2m36.19s CPU   3m33.25s WALL

 
   This run was terminated on:  15:43:59  25Jan2021            

=------------------------------------------------------------------------------=
   JOB DONE.
=------------------------------------------------------------------------------=
