
     Program PWSCF v.6.4.1 starts on 25Jan2021 at 15:42:21 

     This program is part of the open-source Quantum ESPRESSO suite
     for quantum simulation of materials; please cite
         "P. Giannozzi et al., J. Phys.:Condens. Matter 21 395502 (2009);
         "P. Giannozzi et al., J. Phys.:Condens. Matter 29 465901 (2017);
          URL http://www.quantum-espresso.org", 
     in publications or presentations arising from this work. More details at
     http://www.quantum-espresso.org/quote

     Parallel version (MPI & OpenMP), running on      48 processor cores
     Number of MPI processes:                24
     Threads/MPI process:                     2

     MPI processes distributed on     1 nodes
     R & G space division:  proc/nbgrp/npool/nimage =      24
     Waiting for input...
     Reading input from standard input

     Current dimensions of program PWSCF are:
     Max number of different atomic species (ntypx) = 10
     Max number of k-points (npk) =  40000
     Max angular momentum in pseudopotentials (lmaxx) =  3
               file Cs.rel-pbesol-spn-rrkjus_psl.1.0.0.UPF: wavefunction(s)  5S 6S renormalized
               file Sn.rel-pbesol-dn-rrkjus_psl.1.0.0.UPF: wavefunction(s)  5S 4D 4D renormalized
               file I.rel-pbesol-n-rrkjus_psl.1.0.0.UPF: wavefunction(s)  5S renormalized

     Subspace diagonalization in iterative solution of the eigenvalue problem:
     one sub-group per band group will be used
     scalapack distributed-memory algorithm (size of sub-group:  3*  3 procs)

 
     Parallelization info
     --------------------
     sticks:   dense  smooth     PW     G-vecs:    dense   smooth      PW
     Min         258     172     45                38578    21000    2815
     Max         259     173     46                38583    21011    2822
     Sum        6211    4145   1087               925941   504115   67611
 

     Title: 
     CsSnI3                                                                     


     bravais-lattice index     =            8
     lattice parameter (alat)  =       9.1317  a.u.
     unit-cell volume          =    6370.5385 (a.u.)^3
     number of atoms/cell      =           20
     number of atomic types    =            3
     number of electrons       =       176.00
     number of Kohn-Sham states=          176
     kinetic-energy cutoff     =      70.0000  Ry
     charge density cutoff     =     420.0000  Ry
     convergence threshold     =      1.0E-06
     mixing beta               =       0.3500
     number of iterations used =            8  plain     mixing
     Exchange-correlation      = PBESOL ( 1  4 10  8 0 0)
     Non magnetic calculation with spin-orbit


     celldm(1)=   9.131705  celldm(2)=   2.227728  celldm(3)=   3.755420
     celldm(4)=   0.000000  celldm(5)=   0.000000  celldm(6)=   0.000000

     crystal axes: (cart. coord. in units of alat)
               a(1) = (   1.000000   0.000000   0.000000 )  
               a(2) = (   0.000000   2.227728   0.000000 )  
               a(3) = (   0.000000   0.000000   3.755420 )  

     reciprocal axes: (cart. coord. in units 2 pi/alat)
               b(1) = (  1.000000  0.000000  0.000000 )  
               b(2) = (  0.000000  0.448888  0.000000 )  
               b(3) = (  0.000000  0.000000  0.266282 )  


     PseudoPot. # 1 for Cs read from file:
     /marconi_scratch/userexternal/cmalosso/degironcoli/pseudo/pseudo-usp/Cs.rel-pbesol-spn-rrkjus_psl.1.0.0.UPF
     MD5 check sum: 846889b67fb1b19751b5b37931589d70
     Pseudo is Ultrasoft + core correction, Zval =  9.0
     Generated using "atomic" code by A. Dal Corso v.6.4.1
     Using radial grid of 1251 points, 15 beta functions with: 
                l(1) =   0
                l(2) =   0
                l(3) =   0
                l(4) =   1
                l(5) =   1
                l(6) =   1
                l(7) =   1
                l(8) =   2
                l(9) =   2
               l(10) =   2
               l(11) =   2
               l(12) =   3
               l(13) =   3
               l(14) =   3
               l(15) =   3
     Q(r) pseudized with 0 coefficients 


     PseudoPot. # 2 for Sn read from file:
     /marconi_scratch/userexternal/cmalosso/degironcoli/pseudo/pseudo-usp/Sn.rel-pbesol-dn-rrkjus_psl.1.0.0.UPF
     MD5 check sum: c1cf6ea56b96a3656bdf0d1db379e093
     Pseudo is Ultrasoft + core correction, Zval = 14.0
     Generated using "atomic" code by A. Dal Corso v.6.3
     Using radial grid of 1243 points, 10 beta functions with: 
                l(1) =   0
                l(2) =   0
                l(3) =   1
                l(4) =   1
                l(5) =   1
                l(6) =   1
                l(7) =   2
                l(8) =   2
                l(9) =   2
               l(10) =   2
     Q(r) pseudized with 0 coefficients 


     PseudoPot. # 3 for I  read from file:
     /marconi_scratch/userexternal/cmalosso/degironcoli/pseudo/pseudo-usp/I.rel-pbesol-n-rrkjus_psl.1.0.0.UPF
     MD5 check sum: 0f96c6bfb1b448f280658f96eb466b08
     Pseudo is Ultrasoft + core correction, Zval =  7.0
     Generated using "atomic" code by A. Dal Corso v.6.3
     Using radial grid of 1247 points, 10 beta functions with: 
                l(1) =   0
                l(2) =   0
                l(3) =   1
                l(4) =   1
                l(5) =   1
                l(6) =   1
                l(7) =   2
                l(8) =   2
                l(9) =   2
               l(10) =   2
     Q(r) pseudized with 0 coefficients 


     atomic species   valence    mass     pseudopotential
        Cs             9.00   132.90000     Cs( 1.00)
        Sn            14.00   118.70000     Sn( 1.00)
        I              7.00   126.90000     I ( 1.00)

      8 Sym. Ops., with inversion, found ( 6 have fractional translation)


                                    s                        frac. trans.

      isym =  1     identity                                     

 cryst.   s( 1) = (     1          0          0      )
                  (     0          1          0      )
                  (     0          0          1      )

 cart.    s( 1) = (  1.0000000  0.0000000  0.0000000 )
                  (  0.0000000  1.0000000  0.0000000 )
                  (  0.0000000  0.0000000  1.0000000 )


      isym =  2     180 deg rotation - cart. axis [0,0,1]        

 cryst.   s( 2) = (    -1          0          0      )    f =(  0.0000000 )
                  (     0         -1          0      )       (  0.5000000 )
                  (     0          0          1      )       (  0.5000000 )

 cart.    s( 2) = ( -1.0000000  0.0000000  0.0000000 )    f =(  0.0000000 )
                  (  0.0000000 -1.0000000  0.0000000 )       (  1.1138638 )
                  (  0.0000000  0.0000000  1.0000000 )       (  1.8777098 )


      isym =  3     180 deg rotation - cart. axis [0,1,0]        

 cryst.   s( 3) = (    -1          0          0      )    f =(  0.5000000 )
                  (     0          1          0      )       ( -0.5000000 )
                  (     0          0         -1      )       ( -0.5000000 )

 cart.    s( 3) = ( -1.0000000  0.0000000  0.0000000 )    f =(  0.5000000 )
                  (  0.0000000  1.0000000  0.0000000 )       ( -1.1138638 )
                  (  0.0000000  0.0000000 -1.0000000 )       ( -1.8777098 )


      isym =  4     180 deg rotation - cart. axis [1,0,0]        

 cryst.   s( 4) = (     1          0          0      )    f =( -0.5000000 )
                  (     0         -1          0      )       (  0.0000000 )
                  (     0          0         -1      )       (  0.0000000 )

 cart.    s( 4) = (  1.0000000  0.0000000  0.0000000 )    f =( -0.5000000 )
                  (  0.0000000 -1.0000000  0.0000000 )       (  0.0000000 )
                  (  0.0000000  0.0000000 -1.0000000 )       (  0.0000000 )


      isym =  5     inversion                                    

 cryst.   s( 5) = (    -1          0          0      )
                  (     0         -1          0      )
                  (     0          0         -1      )

 cart.    s( 5) = ( -1.0000000  0.0000000  0.0000000 )
                  (  0.0000000 -1.0000000  0.0000000 )
                  (  0.0000000  0.0000000 -1.0000000 )


      isym =  6     inv. 180 deg rotation - cart. axis [0,0,1]   

 cryst.   s( 6) = (     1          0          0      )    f =(  0.0000000 )
                  (     0          1          0      )       ( -0.5000000 )
                  (     0          0         -1      )       ( -0.5000000 )

 cart.    s( 6) = (  1.0000000  0.0000000  0.0000000 )    f =(  0.0000000 )
                  (  0.0000000  1.0000000  0.0000000 )       ( -1.1138638 )
                  (  0.0000000  0.0000000 -1.0000000 )       ( -1.8777098 )


      isym =  7     inv. 180 deg rotation - cart. axis [0,1,0]   

 cryst.   s( 7) = (     1          0          0      )    f =( -0.5000000 )
                  (     0         -1          0      )       (  0.5000000 )
                  (     0          0          1      )       (  0.5000000 )

 cart.    s( 7) = (  1.0000000  0.0000000  0.0000000 )    f =( -0.5000000 )
                  (  0.0000000 -1.0000000  0.0000000 )       (  1.1138638 )
                  (  0.0000000  0.0000000  1.0000000 )       (  1.8777098 )


      isym =  8     inv. 180 deg rotation - cart. axis [1,0,0]   

 cryst.   s( 8) = (    -1          0          0      )    f =(  0.5000000 )
                  (     0          1          0      )       (  0.0000000 )
                  (     0          0          1      )       (  0.0000000 )

 cart.    s( 8) = ( -1.0000000  0.0000000  0.0000000 )    f =(  0.5000000 )
                  (  0.0000000  1.0000000  0.0000000 )       (  0.0000000 )
                  (  0.0000000  0.0000000  1.0000000 )       (  0.0000000 )


     double point group D_2h (mmm) 
     there are 10 classes and  2 irreducible representations
     the character table:

       E     -E     C2    C2'  C2''  i     -i     s_v   s_v' s_v''
                   -C2   -C2'  -C2''             -s_v  -s_v' -s_v'
G_5+   2.00 -2.00  0.00  0.00  0.00  2.00 -2.00  0.00  0.00  0.00
G_5-   2.00 -2.00  0.00  0.00  0.00 -2.00  2.00  0.00  0.00  0.00

     the symmetry operations in each class and the name of the first element:

     E             1
          identity                                               
     -E           -1
          identity E                                             
      C2  -C2      2   -2
          180 deg rotation - cart. axis [0,0,1]                  
      C2' -C2'     4   -4
          180 deg rotation - cart. axis [1,0,0]                  
     C2'' -C2''    3   -3
          180 deg rotation - cart. axis [0,1,0]                  
     i             5
          inversion                                              
     -i           -5
          inversion E                                            
      s_v -s_v     6   -6
          inv. 180 deg rotation - cart. axis [0,0,1]             
      s_v'-s_v'    8   -8
          inv. 180 deg rotation - cart. axis [1,0,0]             
     s_v''-s_v'    7   -7
          inv. 180 deg rotation - cart. axis [0,1,0]             

   Cartesian axes

     site n.     atom                  positions (alat units)
         1           Cs  tau(   1) = (   0.2500000   0.1859640   2.5168147  )
         2           Cs  tau(   2) = (   0.7500000   2.0417636   1.2386050  )
         3           Cs  tau(   3) = (   0.2500000   1.2998278   3.1163149  )
         4           Cs  tau(   4) = (   0.7500000   0.9278998   0.6391048  )
         5           Sn  tau(   5) = (   0.2500000   0.7615710   1.6485466  )
         6           Sn  tau(   6) = (   0.7500000   1.4661567   2.1068731  )
         7           Sn  tau(   7) = (   0.2500000   1.8754348   0.2291632  )
         8           Sn  tau(   8) = (   0.7500000   0.3522928   3.5262565  )
         9           I   tau(   9) = (   0.7500000   0.0581437   0.4202578  )
        10           I   tau(  10) = (   0.2500000   2.1695839   3.3351619  )
        11           I   tau(  11) = (   0.7500000   1.1720075   1.4574521  )
        12           I   tau(  12) = (   0.2500000   1.0557201   2.2979676  )
        13           I   tau(  13) = (   0.7500000   0.6531118   2.9738192  )
        14           I   tau(  14) = (   0.2500000   1.5746158   0.7816005  )
        15           I   tau(  15) = (   0.7500000   1.7669756   2.6593103  )
        16           I   tau(  16) = (   0.2500000   0.4607520   1.0961094  )
        17           I   tau(  17) = (   0.7500000   0.3753632   1.8734812  )
        18           I   tau(  18) = (   0.2500000   1.8523644   1.8819384  )
        19           I   tau(  19) = (   0.7500000   1.4892270   0.0042286  )
        20           I   tau(  20) = (   0.2500000   0.7385006   3.7511911  )

   Crystallographic axes

     site n.     atom                  positions (cryst. coord.)
         1           Cs  tau(   1) = (  0.2500000  0.0834770  0.6701820  )
         2           Cs  tau(   2) = (  0.7500000  0.9165230  0.3298180  )
         3           Cs  tau(   3) = (  0.2500000  0.5834770  0.8298180  )
         4           Cs  tau(   4) = (  0.7500000  0.4165230  0.1701820  )
         5           Sn  tau(   5) = (  0.2500000  0.3418600  0.4389780  )
         6           Sn  tau(   6) = (  0.7500000  0.6581400  0.5610220  )
         7           Sn  tau(   7) = (  0.2500000  0.8418600  0.0610220  )
         8           Sn  tau(   8) = (  0.7500000  0.1581400  0.9389780  )
         9           I   tau(   9) = (  0.7500000  0.0261000  0.1119070  )
        10           I   tau(  10) = (  0.2500000  0.9739000  0.8880930  )
        11           I   tau(  11) = (  0.7500000  0.5261000  0.3880930  )
        12           I   tau(  12) = (  0.2500000  0.4739000  0.6119070  )
        13           I   tau(  13) = (  0.7500000  0.2931740  0.7918740  )
        14           I   tau(  14) = (  0.2500000  0.7068260  0.2081260  )
        15           I   tau(  15) = (  0.7500000  0.7931740  0.7081260  )
        16           I   tau(  16) = (  0.2500000  0.2068260  0.2918740  )
        17           I   tau(  17) = (  0.7500000  0.1684960  0.4988740  )
        18           I   tau(  18) = (  0.2500000  0.8315040  0.5011260  )
        19           I   tau(  19) = (  0.7500000  0.6684960  0.0011260  )
        20           I   tau(  20) = (  0.2500000  0.3315040  0.9988740  )

     number of k points=     1
                       cart. coord. in units 2pi/alat
        k(    1) = (   0.2500000   0.1122220   0.0665705), wk =   1.0000000

                       cryst. coord.
        k(    1) = (   0.2500000   0.2500000   0.2500000), wk =   1.0000000

     Dense  grid:   925941 G-vectors     FFT dimensions: (  60, 144, 240)

     Smooth grid:   504115 G-vectors     FFT dimensions: (  50, 120, 192)

     Dynamical RAM for                 wfc:      14.10 MB

     Dynamical RAM for     wfc (w. buffer):      14.10 MB

     Dynamical RAM for           str. fact:       1.77 MB

     Dynamical RAM for           local pot:       0.00 MB

     Dynamical RAM for          nlocal pot:      31.88 MB

     Dynamical RAM for                qrad:      57.33 MB

     Dynamical RAM for          rho,v,vnew:      14.97 MB

     Dynamical RAM for               rhoin:       4.99 MB

     Dynamical RAM for            rho*nmix:      37.68 MB

     Dynamical RAM for           G-vectors:       2.37 MB

     Dynamical RAM for          h,s,v(r/c):       2.51 MB

     Dynamical RAM for          <psi|beta>:       4.28 MB

     Dynamical RAM for                 psi:      56.40 MB

     Dynamical RAM for                hpsi:      56.40 MB

     Dynamical RAM for                spsi:      56.40 MB

     Dynamical RAM for      wfcinit/wfcrot:      25.99 MB

     Dynamical RAM for           addusdens:    1209.78 MB

     Dynamical RAM for          addusforce:    1238.07 MB

     Dynamical RAM for         addusstress:    1220.37 MB

     Estimated static dynamical RAM per process >     172.72 MB

     Estimated max dynamical RAM per process >       1.38 GB

     Estimated total dynamical RAM >      33.07 GB

     Initial potential from superposition of free atoms

     starting charge  175.84164, renormalised to  176.00000
     Starting wfcs are  208 randomized atomic wfcs

     total cpu time spent up to now is       25.6 secs

     Self-consistent Calculation

     iteration #  1     ecut=    70.00 Ry     beta= 0.35
     Davidson diagonalization with overlap
     ethr =  1.00E-02,  avg # of iterations =  1.0

     Threshold (ethr) on eigenvalues was too large:
     Diagonalizing with lowered threshold

     Davidson diagonalization with overlap
     ethr =  3.06E-04,  avg # of iterations =  3.0

     total cpu time spent up to now is       94.6 secs

     total energy              =   -1268.07991203 Ry
     Harris-Foulkes estimate   =   -1268.27455608 Ry
     estimated scf accuracy    <       0.41764847 Ry

     iteration #  2     ecut=    70.00 Ry     beta= 0.35
     Davidson diagonalization with overlap
     ethr =  2.37E-04,  avg # of iterations =  2.0

     total cpu time spent up to now is      132.1 secs

     total energy              =   -1268.15157983 Ry
     Harris-Foulkes estimate   =   -1268.16629611 Ry
     estimated scf accuracy    <       0.05325557 Ry

     iteration #  3     ecut=    70.00 Ry     beta= 0.35
     Davidson diagonalization with overlap
     ethr =  3.03E-05,  avg # of iterations =  3.0

     total cpu time spent up to now is      171.3 secs

     total energy              =   -1268.15952440 Ry
     Harris-Foulkes estimate   =   -1268.16003192 Ry
     estimated scf accuracy    <       0.01030357 Ry

     iteration #  4     ecut=    70.00 Ry     beta= 0.35
     Davidson diagonalization with overlap
     ethr =  5.85E-06,  avg # of iterations =  2.0

     total cpu time spent up to now is      207.5 secs

     total energy              =   -1268.16079282 Ry
     Harris-Foulkes estimate   =   -1268.16039849 Ry
     estimated scf accuracy    <       0.00197264 Ry

     iteration #  5     ecut=    70.00 Ry     beta= 0.35
     Davidson diagonalization with overlap
     ethr =  1.12E-06,  avg # of iterations =  3.0

     total cpu time spent up to now is      245.9 secs

     total energy              =   -1268.16103292 Ry
     Harris-Foulkes estimate   =   -1268.16103842 Ry
     estimated scf accuracy    <       0.00019602 Ry

     iteration #  6     ecut=    70.00 Ry     beta= 0.35
     Davidson diagonalization with overlap
     ethr =  1.11E-07,  avg # of iterations =  4.0

     total cpu time spent up to now is      289.4 secs

     total energy              =   -1268.16110294 Ry
     Harris-Foulkes estimate   =   -1268.16110193 Ry
     estimated scf accuracy    <       0.00002143 Ry

     iteration #  7     ecut=    70.00 Ry     beta= 0.35
     Davidson diagonalization with overlap
     ethr =  1.22E-08,  avg # of iterations =  2.0

     total cpu time spent up to now is      325.4 secs

     total energy              =   -1268.16110838 Ry
     Harris-Foulkes estimate   =   -1268.16110608 Ry
     estimated scf accuracy    <       0.00000468 Ry

     iteration #  8     ecut=    70.00 Ry     beta= 0.35
     Davidson diagonalization with overlap
     ethr =  2.66E-09,  avg # of iterations =  3.0

     total cpu time spent up to now is      365.5 secs

     End of self-consistent calculation

          k = 0.2500 0.1122 0.0666 ( 63008 PWs)   bands (ev):

   -18.4220 -18.4220 -18.4220 -18.4220 -18.4218 -18.4218 -18.4218 -18.4218
   -18.4101 -18.4101 -18.4101 -18.4101 -18.4100 -18.4100 -18.4100 -18.4100
   -17.8380 -17.8380 -17.8379 -17.8379 -17.8374 -17.8374 -17.8373 -17.8373
   -17.3841 -17.3841 -17.3841 -17.3841 -17.3841 -17.3841 -17.3841 -17.3841
   -17.3721 -17.3721 -17.3721 -17.3721 -17.3720 -17.3720 -17.3720 -17.3720
   -17.3689 -17.3689 -17.3689 -17.3689 -17.3687 -17.3687 -17.3687 -17.3687
    -8.8091  -8.8091  -8.7979  -8.7979  -8.6592  -8.6592  -8.6434  -8.6434
    -8.5480  -8.5480  -8.5424  -8.5424  -8.4764  -8.4764  -8.4595  -8.4595
    -8.4025  -8.4025  -8.3979  -8.3979  -8.3824  -8.3824  -8.3769  -8.3769
    -5.8018  -5.8018  -5.7979  -5.7979  -5.7943  -5.7943  -5.7902  -5.7902
    -4.2234  -4.2234  -4.2181  -4.2181  -4.2070  -4.2070  -4.1998  -4.1998
    -4.1619  -4.1619  -4.1587  -4.1587  -4.1537  -4.1537  -4.1489  -4.1489
    -3.1728  -3.1728  -3.1688  -3.1688  -3.0804  -3.0804  -3.0704  -3.0704
    -0.0210  -0.0210   0.0391   0.0391   0.1306   0.1306   0.1633   0.1633
     0.2805   0.2805   0.3712   0.3712   0.4999   0.4999   0.5580   0.5580
     0.6742   0.6742   0.7073   0.7073   0.7414   0.7414   0.8077   0.8077
     1.0140   1.0140   1.0800   1.0800   1.2820   1.2820   1.3561   1.3561
     1.4098   1.4098   1.4765   1.4765   1.5946   1.5946   1.6542   1.6542
     1.7278   1.7278   1.7667   1.7667   1.8187   1.8187   1.8468   1.8468
     1.8789   1.8789   1.9580   1.9580   2.0061   2.0061   2.0772   2.0772
     2.1318   2.1318   2.1594   2.1594   2.3123   2.3123   2.3450   2.3450
     2.6535   2.6535   2.7508   2.7508   2.9419   2.9419   2.9897   2.9897

     occupation numbers 
     1.0000   1.0000   1.0000   1.0000   1.0000   1.0000   1.0000   1.0000
     1.0000   1.0000   1.0000   1.0000   1.0000   1.0000   1.0000   1.0000
     1.0000   1.0000   1.0000   1.0000   1.0000   1.0000   1.0000   1.0000
     1.0000   1.0000   1.0000   1.0000   1.0000   1.0000   1.0000   1.0000
     1.0000   1.0000   1.0000   1.0000   1.0000   1.0000   1.0000   1.0000
     1.0000   1.0000   1.0000   1.0000   1.0000   1.0000   1.0000   1.0000
     1.0000   1.0000   1.0000   1.0000   1.0000   1.0000   1.0000   1.0000
     1.0000   1.0000   1.0000   1.0000   1.0000   1.0000   1.0000   1.0000
     1.0000   1.0000   1.0000   1.0000   1.0000   1.0000   1.0000   1.0000
     1.0000   1.0000   1.0000   1.0000   1.0000   1.0000   1.0000   1.0000
     1.0000   1.0000   1.0000   1.0000   1.0000   1.0000   1.0000   1.0000
     1.0000   1.0000   1.0000   1.0000   1.0000   1.0000   1.0000   1.0000
     1.0000   1.0000   1.0000   1.0000   1.0000   1.0000   1.0000   1.0000
     1.0000   1.0000   1.0000   1.0000   1.0000   1.0000   1.0000   1.0000
     1.0000   1.0000   1.0000   1.0000   1.0000   1.0000   1.0000   1.0000
     1.0000   1.0000   1.0000   1.0000   1.0000   1.0000   1.0000   1.0000
     1.0000   1.0000   1.0000   1.0000   1.0000   1.0000   1.0000   1.0000
     1.0000   1.0000   1.0000   1.0000   1.0000   1.0000   1.0000   1.0000
     1.0000   1.0000   1.0000   1.0000   1.0000   1.0000   1.0000   1.0000
     1.0000   1.0000   1.0000   1.0000   1.0000   1.0000   1.0000   1.0000
     1.0000   1.0000   1.0000   1.0000   1.0000   1.0000   1.0000   1.0000
     1.0000   1.0000   1.0000   1.0000   1.0000   1.0000   1.0000   1.0000

     highest occupied level (ev):     2.9897

!    total energy              =   -1268.16110926 Ry
     Harris-Foulkes estimate   =   -1268.16110951 Ry
     estimated scf accuracy    <       0.00000080 Ry

     The total energy is the sum of the following terms:

     one-electron contribution =    -488.14541377 Ry
     hartree contribution      =     316.29690294 Ry
     xc contribution           =    -462.74299682 Ry
     ewald contribution        =    -633.56960162 Ry

     convergence has been achieved in   8 iterations

     Forces acting on atoms (cartesian axes, Ry/au):

     atom    1 type  1   force =     0.00000000   -0.00086050    0.00014140
     atom    2 type  1   force =     0.00000000    0.00086050   -0.00014140
     atom    3 type  1   force =    -0.00000000   -0.00086050   -0.00014140
     atom    4 type  1   force =     0.00000000    0.00086050    0.00014140
     atom    5 type  2   force =     0.00000000   -0.00124120   -0.00038889
     atom    6 type  2   force =     0.00000000    0.00124120    0.00038889
     atom    7 type  2   force =    -0.00000000   -0.00124120    0.00038889
     atom    8 type  2   force =     0.00000000    0.00124120   -0.00038889
     atom    9 type  3   force =     0.00000000    0.00103907   -0.00187541
     atom   10 type  3   force =     0.00000000   -0.00103907    0.00187541
     atom   11 type  3   force =     0.00000000    0.00103907    0.00187541
     atom   12 type  3   force =     0.00000000   -0.00103907   -0.00187541
     atom   13 type  3   force =     0.00000000   -0.00161755    0.00219538
     atom   14 type  3   force =     0.00000000    0.00161755   -0.00219538
     atom   15 type  3   force =     0.00000000   -0.00161755   -0.00219538
     atom   16 type  3   force =     0.00000000    0.00161755    0.00219538
     atom   17 type  3   force =     0.00000000   -0.00208698    0.00059598
     atom   18 type  3   force =     0.00000000    0.00208698   -0.00059598
     atom   19 type  3   force =    -0.00000000   -0.00208698   -0.00059598
     atom   20 type  3   force =    -0.00000000    0.00208698    0.00059598
     The non-local contrib.  to forces
     atom    1 type  1   force =     0.00000000    0.00259168   -0.00366650
     atom    2 type  1   force =     0.00000000   -0.00259168    0.00366650
     atom    3 type  1   force =     0.00000000    0.00259168    0.00366650
     atom    4 type  1   force =     0.00000000   -0.00259168   -0.00366650
     atom    5 type  2   force =     0.00000000   -0.08412096   -0.12921508
     atom    6 type  2   force =     0.00000000    0.08412096    0.12921508
     atom    7 type  2   force =     0.00000000   -0.08412096    0.12921508
     atom    8 type  2   force =     0.00000000    0.08412096   -0.12921508
     atom    9 type  3   force =     0.00000000   -0.05026314   -0.04899581
     atom   10 type  3   force =    -0.00000000    0.05026314    0.04899581
     atom   11 type  3   force =     0.00000000   -0.05026314    0.04899581
     atom   12 type  3   force =     0.00000000    0.05026314   -0.04899581
     atom   13 type  3   force =     0.00000000   -0.03225499    0.05466294
     atom   14 type  3   force =     0.00000000    0.03225499   -0.05466294
     atom   15 type  3   force =     0.00000000   -0.03225499   -0.05466294
     atom   16 type  3   force =     0.00000000    0.03225499    0.05466294
     atom   17 type  3   force =     0.00000000    0.05652775   -0.01765042
     atom   18 type  3   force =     0.00000000   -0.05652775    0.01765042
     atom   19 type  3   force =     0.00000000    0.05652775    0.01765042
     atom   20 type  3   force =     0.00000000   -0.05652775   -0.01765042
     The ionic contribution  to forces
     atom    1 type  1   force =     0.00000000    0.02273773    0.42856976
     atom    2 type  1   force =    -0.00000000   -0.02273773   -0.42856976
     atom    3 type  1   force =    -0.00000000    0.02273773   -0.42856976
     atom    4 type  1   force =    -0.00000000   -0.02273773    0.42856976
     atom    5 type  2   force =    -0.00000000   -2.44382133   -1.60292982
     atom    6 type  2   force =     0.00000000    2.44382133    1.60292982
     atom    7 type  2   force =    -0.00000000   -2.44382133    1.60292982
     atom    8 type  2   force =     0.00000000    2.44382133   -1.60292982
     atom    9 type  3   force =     0.00000000    3.00608889    5.13288889
     atom   10 type  3   force =    -0.00000000   -3.00608889   -5.13288889
     atom   11 type  3   force =     0.00000000    3.00608889   -5.13288889
     atom   12 type  3   force =    -0.00000000   -3.00608889    5.13288889
     atom   13 type  3   force =     0.00000000    2.02422847   -3.75281495
     atom   14 type  3   force =    -0.00000000   -2.02422847    3.75281495
     atom   15 type  3   force =     0.00000000    2.02422847    3.75281495
     atom   16 type  3   force =    -0.00000000   -2.02422847   -3.75281495
     atom   17 type  3   force =    -0.00000000   -4.20564469    2.10270402
     atom   18 type  3   force =     0.00000000    4.20564469   -2.10270402
     atom   19 type  3   force =     0.00000000   -4.20564469   -2.10270402
     atom   20 type  3   force =     0.00000000    4.20564469    2.10270402
     The local contribution  to forces
     atom    1 type  1   force =    -0.00000000   -0.02604044   -0.42479303
     atom    2 type  1   force =     0.00000000    0.02604044    0.42479303
     atom    3 type  1   force =    -0.00000000   -0.02604044    0.42479303
     atom    4 type  1   force =     0.00000000    0.02604044   -0.42479303
     atom    5 type  2   force =    -0.00000000    2.52620938    1.73140969
     atom    6 type  2   force =    -0.00000000   -2.52620938   -1.73140969
     atom    7 type  2   force =    -0.00000000    2.52620938   -1.73140969
     atom    8 type  2   force =    -0.00000000   -2.52620938    1.73140969
     atom    9 type  3   force =    -0.00000000   -2.96001969   -5.09072331
     atom   10 type  3   force =     0.00000000    2.96001969    5.09072331
     atom   11 type  3   force =     0.00000000   -2.96001969    5.09072331
     atom   12 type  3   force =    -0.00000000    2.96001969   -5.09072331
     atom   13 type  3   force =    -0.00000000   -1.99676834    3.70554171
     atom   14 type  3   force =     0.00000000    1.99676834   -3.70554171
     atom   15 type  3   force =     0.00000000   -1.99676834   -3.70554171
     atom   16 type  3   force =     0.00000000    1.99676834    3.70554171
     atom   17 type  3   force =     0.00000000    4.15316107   -2.08642167
     atom   18 type  3   force =    -0.00000000   -4.15316107    2.08642167
     atom   19 type  3   force =     0.00000000    4.15316107    2.08642167
     atom   20 type  3   force =    -0.00000000   -4.15316107   -2.08642167
     The core correction contribution to forces
     atom    1 type  1   force =     0.00000000   -0.00005739    0.00023221
     atom    2 type  1   force =    -0.00000000    0.00005739   -0.00023221
     atom    3 type  1   force =    -0.00000000   -0.00005739   -0.00023221
     atom    4 type  1   force =     0.00000000    0.00005739    0.00023221
     atom    5 type  2   force =     0.00000000    0.00017670    0.00016666
     atom    6 type  2   force =    -0.00000000   -0.00017670   -0.00016666
     atom    7 type  2   force =    -0.00000000    0.00017670   -0.00016666
     atom    8 type  2   force =    -0.00000000   -0.00017670    0.00016666
     atom    9 type  3   force =    -0.00000000    0.00539043    0.00547859
     atom   10 type  3   force =     0.00000000   -0.00539043   -0.00547859
     atom   11 type  3   force =    -0.00000000    0.00539043   -0.00547859
     atom   12 type  3   force =     0.00000000   -0.00539043    0.00547859
     atom   13 type  3   force =    -0.00000000    0.00318910   -0.00547915
     atom   14 type  3   force =    -0.00000000   -0.00318910    0.00547915
     atom   15 type  3   force =     0.00000000    0.00318910    0.00547915
     atom   16 type  3   force =     0.00000000   -0.00318910   -0.00547915
     atom   17 type  3   force =     0.00000000   -0.00641700    0.00210847
     atom   18 type  3   force =    -0.00000000    0.00641700   -0.00210847
     atom   19 type  3   force =     0.00000000   -0.00641700   -0.00210847
     atom   20 type  3   force =    -0.00000000    0.00641700    0.00210847
     The Hubbard contrib.    to forces
     atom    1 type  1   force =     0.00000000    0.00000000    0.00000000
     atom    2 type  1   force =     0.00000000    0.00000000    0.00000000
     atom    3 type  1   force =     0.00000000    0.00000000    0.00000000
     atom    4 type  1   force =     0.00000000    0.00000000    0.00000000
     atom    5 type  2   force =     0.00000000    0.00000000    0.00000000
     atom    6 type  2   force =     0.00000000    0.00000000    0.00000000
     atom    7 type  2   force =     0.00000000    0.00000000    0.00000000
     atom    8 type  2   force =     0.00000000    0.00000000    0.00000000
     atom    9 type  3   force =     0.00000000    0.00000000    0.00000000
     atom   10 type  3   force =     0.00000000    0.00000000    0.00000000
     atom   11 type  3   force =     0.00000000    0.00000000    0.00000000
     atom   12 type  3   force =     0.00000000    0.00000000    0.00000000
     atom   13 type  3   force =     0.00000000    0.00000000    0.00000000
     atom   14 type  3   force =     0.00000000    0.00000000    0.00000000
     atom   15 type  3   force =     0.00000000    0.00000000    0.00000000
     atom   16 type  3   force =     0.00000000    0.00000000    0.00000000
     atom   17 type  3   force =     0.00000000    0.00000000    0.00000000
     atom   18 type  3   force =     0.00000000    0.00000000    0.00000000
     atom   19 type  3   force =     0.00000000    0.00000000    0.00000000
     atom   20 type  3   force =     0.00000000    0.00000000    0.00000000
     The SCF correction term to forces
     atom    1 type  1   force =     0.00000000   -0.00009207   -0.00020104
     atom    2 type  1   force =    -0.00000000    0.00009207    0.00020104
     atom    3 type  1   force =     0.00000000   -0.00009207    0.00020104
     atom    4 type  1   force =    -0.00000000    0.00009207   -0.00020104
     atom    5 type  2   force =    -0.00000000    0.00031500    0.00017966
     atom    6 type  2   force =     0.00000000   -0.00031500   -0.00017966
     atom    7 type  2   force =     0.00000000    0.00031500   -0.00017966
     atom    8 type  2   force =    -0.00000000   -0.00031500    0.00017966
     atom    9 type  3   force =     0.00000000   -0.00015742   -0.00052377
     atom   10 type  3   force =    -0.00000000    0.00015742    0.00052377
     atom   11 type  3   force =     0.00000000   -0.00015742    0.00052377
     atom   12 type  3   force =    -0.00000000    0.00015742   -0.00052377
     atom   13 type  3   force =     0.00000000   -0.00001178    0.00028483
     atom   14 type  3   force =    -0.00000000    0.00001178   -0.00028483
     atom   15 type  3   force =    -0.00000000   -0.00001178   -0.00028483
     atom   16 type  3   force =     0.00000000    0.00001178    0.00028483
     atom   17 type  3   force =    -0.00000000    0.00028588   -0.00014442
     atom   18 type  3   force =     0.00000000   -0.00028588    0.00014442
     atom   19 type  3   force =    -0.00000000    0.00028588    0.00014442
     atom   20 type  3   force =    -0.00000000   -0.00028588   -0.00014442

     Total force =     0.008763     Total SCF correction =     0.001629
     SCF correction compared to forces is large: reduce conv_thr to get better values


     Computing stress (Cartesian axis) and pressure

     Message from routine stres:
     noncollinear stress + GGA not implemented

     Writing output data file CsSnI3.save/
 
     init_run     :     13.32s CPU     18.20s WALL (       1 calls)
     electrons    :    232.61s CPU    340.01s WALL (       1 calls)
     forces       :     10.19s CPU     11.77s WALL (       1 calls)

     Called by init_run:
     wfcinit      :      5.67s CPU      8.75s WALL (       1 calls)
     wfcinit:atom :      0.01s CPU      0.02s WALL (       1 calls)
     wfcinit:wfcr :      5.58s CPU      8.61s WALL (       1 calls)
     potinit      :      1.10s CPU      1.42s WALL (       1 calls)
     hinit0       :      1.81s CPU      2.16s WALL (       1 calls)

     Called by electrons:
     c_bands      :    123.44s CPU    192.16s WALL (       9 calls)
     sum_band     :     67.64s CPU     94.69s WALL (       9 calls)
     v_of_rho     :      1.76s CPU      2.53s WALL (       9 calls)
     v_h          :      0.16s CPU      0.28s WALL (       9 calls)
     v_xc         :      1.68s CPU      2.35s WALL (      10 calls)
     newd         :     40.40s CPU     49.89s WALL (       9 calls)
     mix_rho      :      2.29s CPU      3.79s WALL (       9 calls)

     Called by c_bands:
     init_us_2    :      0.33s CPU      0.39s WALL (      19 calls)
     cegterg      :    115.84s CPU    183.94s WALL (       9 calls)

     Called by sum_band:
     sum_band:bec :      0.89s CPU      1.17s WALL (       9 calls)
     addusdens    :     34.24s CPU     42.09s WALL (       9 calls)

     Called by *egterg:
     h_psi        :     95.68s CPU    157.22s WALL (      33 calls)
     s_psi        :      4.60s CPU      5.27s WALL (      33 calls)
     g_psi        :      0.09s CPU      0.09s WALL (      23 calls)
     cdiaghg      :      5.38s CPU      8.31s WALL (      31 calls)
     cegterg:over :      5.67s CPU      7.69s WALL (      23 calls)
     cegterg:upda :      4.61s CPU      6.30s WALL (      23 calls)
     cegterg:last :      1.29s CPU      1.48s WALL (       9 calls)
     cdiaghg:chol :      0.92s CPU      1.18s WALL (      31 calls)
     cdiaghg:inve :      0.27s CPU      0.42s WALL (      31 calls)
     cdiaghg:para :      0.50s CPU      0.80s WALL (      62 calls)

     Called by h_psi:
     h_psi:pot    :     95.51s CPU    156.91s WALL (      33 calls)
     h_psi:calbec :      4.46s CPU      5.32s WALL (      33 calls)
     vloc_psi     :     86.42s CPU    146.40s WALL (      33 calls)
     add_vuspsi   :      4.63s CPU      5.19s WALL (      33 calls)

     General routines
     calbec       :      6.78s CPU      7.92s WALL (      46 calls)
     fft          :      4.54s CPU      7.20s WALL (     199 calls)
     ffts         :      1.74s CPU      3.07s WALL (      72 calls)
     fftw         :    106.03s CPU    182.78s WALL (   20832 calls)
     interpolate  :      1.21s CPU      1.94s WALL (      36 calls)
 
     Parallel routines
     fft_scatt_xy :      3.36s CPU      3.78s WALL (   21103 calls)
     fft_scatt_yz :     93.65s CPU    167.27s WALL (   21103 calls)
 
     PWSCF        :   4m23.70s CPU   6m18.19s WALL

 
   This run was terminated on:  15:48:39  25Jan2021            

=------------------------------------------------------------------------------=
   JOB DONE.
=------------------------------------------------------------------------------=
