
     Program PWSCF v.6.0 (svn rev. 13079) starts on 31Jan2021 at 17:24: 7 

     This program is part of the open-source Quantum ESPRESSO suite
     for quantum simulation of materials; please cite
         "P. Giannozzi et al., J. Phys.:Condens. Matter 21 395502 (2009);
          URL http://www.quantum-espresso.org", 
     in publications or presentations arising from this work. More details at
     http://www.quantum-espresso.org/quote

     Parallel version (MPI & OpenMP), running on      96 processor cores
     Number of MPI processes:                48
     Threads/MPI process:                     2
     R & G space division:  proc/nbgrp/npool/nimage =      48
     Waiting for input...
     Reading input from standard input

     Current dimensions of program PWSCF are:
     Max number of different atomic species (ntypx) = 10
     Max number of k-points (npk) =  40000
     Max angular momentum in pseudopotentials (lmaxx) =  3
               file Cs.rel-pbesol-spn-rrkjus_psl.1.0.0.UPF: wavefunction(s)  5S 6S renormalized
               file Sn.rel-pbesol-dn-rrkjus_psl.1.0.0.UPF: wavefunction(s)  5S 4D 4D renormalized
               file I.rel-pbesol-n-rrkjus_psl.1.0.0.UPF: wavefunction(s)  5S renormalized

     Subspace diagonalization in iterative solution of the eigenvalue problem:
     a serial algorithm will be used


     Parallelization info
     --------------------
     sticks:   dense  smooth     PW     G-vecs:    dense   smooth      PW
     Min         160     128     34                15246    10914    1514
     Max         161     130     35                15253    10919    1521
     Sum        7701    6167   1651               731927   523933   72739


     Title: 
     CsSnI3                                                                     


     bravais-lattice index     =            8
     lattice parameter (alat)  =      16.5033  a.u.
     unit-cell volume          =    6621.2472 (a.u.)^3
     number of atoms/cell      =           20
     number of atomic types    =            3
     number of electrons       =       176.00
     number of Kohn-Sham states=          176
     kinetic-energy cutoff     =      70.0000  Ry
     charge density cutoff     =     350.0000  Ry
     convergence threshold     =      1.0E-06
     mixing beta               =       0.3500
     number of iterations used =            8  plain     mixing
     Exchange-correlation      = PBESOL ( 1  4 10  8 0 0)
     Non magnetic calculation with spin-orbit


     celldm(1)=  16.503301  celldm(2)=   1.015921  celldm(3)=   1.449998
     celldm(4)=   0.000000  celldm(5)=   0.000000  celldm(6)=   0.000000

     crystal axes: (cart. coord. in units of alat)
               a(1) = (   1.000000   0.000000   0.000000 )  
               a(2) = (   0.000000   1.015921   0.000000 )  
               a(3) = (   0.000000   0.000000   1.449998 )  

     reciprocal axes: (cart. coord. in units 2 pi/alat)
               b(1) = (  1.000000  0.000000  0.000000 )  
               b(2) = (  0.000000  0.984329  0.000000 )  
               b(3) = (  0.000000  0.000000  0.689656 )  


     PseudoPot. # 1 for Cs read from file:
     /scratch/cmalosso/degironcoli/pseudo/pseudo-usp/Cs.rel-pbesol-spn-rrkjus_psl.1.0.0.UPF
     MD5 check sum: 846889b67fb1b19751b5b37931589d70
     Pseudo is Ultrasoft + core correction, Zval =  9.0
     Generated using "atomic" code by A. Dal Corso  v.6.4.1
     Using radial grid of 1251 points, 15 beta functions with: 
                l(1) =   0
                l(2) =   0
                l(3) =   0
                l(4) =   1
                l(5) =   1
                l(6) =   1
                l(7) =   1
                l(8) =   2
                l(9) =   2
               l(10) =   2
               l(11) =   2
               l(12) =   3
               l(13) =   3
               l(14) =   3
               l(15) =   3
     Q(r) pseudized with 0 coefficients 


     PseudoPot. # 2 for Sn read from file:
     /scratch/cmalosso/degironcoli/pseudo/pseudo-usp/Sn.rel-pbesol-dn-rrkjus_psl.1.0.0.UPF
     MD5 check sum: c1cf6ea56b96a3656bdf0d1db379e093
     Pseudo is Ultrasoft + core correction, Zval = 14.0
     Generated using "atomic" code by A. Dal Corso  v.6.3
     Using radial grid of 1243 points, 10 beta functions with: 
                l(1) =   0
                l(2) =   0
                l(3) =   1
                l(4) =   1
                l(5) =   1
                l(6) =   1
                l(7) =   2
                l(8) =   2
                l(9) =   2
               l(10) =   2
     Q(r) pseudized with 0 coefficients 


     PseudoPot. # 3 for  I read from file:
     /scratch/cmalosso/degironcoli/pseudo/pseudo-usp/I.rel-pbesol-n-rrkjus_psl.1.0.0.UPF
     MD5 check sum: 0f96c6bfb1b448f280658f96eb466b08
     Pseudo is Ultrasoft + core correction, Zval =  7.0
     Generated using "atomic" code by A. Dal Corso  v.6.3
     Using radial grid of 1247 points, 10 beta functions with: 
                l(1) =   0
                l(2) =   0
                l(3) =   1
                l(4) =   1
                l(5) =   1
                l(6) =   1
                l(7) =   2
                l(8) =   2
                l(9) =   2
               l(10) =   2
     Q(r) pseudized with 0 coefficients 


     atomic species   valence    mass     pseudopotential
        Cs             9.00   132.90000     Cs( 1.00)
        Sn            14.00   118.70000     Sn( 1.00)
        I              7.00   126.90000      I( 1.00)

      8 Sym. Ops., with inversion, found ( 6 have fractional translation)


                                    s                        frac. trans.

      isym =  1     identity                                     

 cryst.   s( 1) = (     1          0          0      )
                  (     0          1          0      )
                  (     0          0          1      )

 cart.    s( 1) = (  1.0000000  0.0000000  0.0000000 )
                  (  0.0000000  1.0000000  0.0000000 )
                  (  0.0000000  0.0000000  1.0000000 )


      isym =  2     180 deg rotation - cart. axis [0,0,1]        

 cryst.   s( 2) = (    -1          0          0      )    f =(  0.0000000 )
                  (     0         -1          0      )       (  0.0000000 )
                  (     0          0          1      )       ( -0.5000000 )

 cart.    s( 2) = ( -1.0000000  0.0000000  0.0000000 )    f =(  0.0000000 )
                  (  0.0000000 -1.0000000  0.0000000 )       (  0.0000000 )
                  (  0.0000000  0.0000000  1.0000000 )       ( -0.7249991 )


      isym =  3     180 deg rotation - cart. axis [0,1,0]        

 cryst.   s( 3) = (    -1          0          0      )    f =(  0.5000000 )
                  (     0          1          0      )       ( -0.5000000 )
                  (     0          0         -1      )       (  0.0000000 )

 cart.    s( 3) = ( -1.0000000  0.0000000  0.0000000 )    f =(  0.5000000 )
                  (  0.0000000  1.0000000  0.0000000 )       ( -0.5079604 )
                  (  0.0000000  0.0000000 -1.0000000 )       (  0.0000000 )


      isym =  4     180 deg rotation - cart. axis [1,0,0]        

 cryst.   s( 4) = (     1          0          0      )    f =( -0.5000000 )
                  (     0         -1          0      )       (  0.5000000 )
                  (     0          0         -1      )       ( -0.5000000 )

 cart.    s( 4) = (  1.0000000  0.0000000  0.0000000 )    f =( -0.5000000 )
                  (  0.0000000 -1.0000000  0.0000000 )       (  0.5079604 )
                  (  0.0000000  0.0000000 -1.0000000 )       ( -0.7249991 )


      isym =  5     inversion                                    

 cryst.   s( 5) = (    -1          0          0      )
                  (     0         -1          0      )
                  (     0          0         -1      )

 cart.    s( 5) = ( -1.0000000  0.0000000  0.0000000 )
                  (  0.0000000 -1.0000000  0.0000000 )
                  (  0.0000000  0.0000000 -1.0000000 )


      isym =  6     inv. 180 deg rotation - cart. axis [0,0,1]   

 cryst.   s( 6) = (     1          0          0      )    f =(  0.0000000 )
                  (     0          1          0      )       (  0.0000000 )
                  (     0          0         -1      )       ( -0.5000000 )

 cart.    s( 6) = (  1.0000000  0.0000000  0.0000000 )    f =(  0.0000000 )
                  (  0.0000000  1.0000000  0.0000000 )       (  0.0000000 )
                  (  0.0000000  0.0000000 -1.0000000 )       ( -0.7249991 )


      isym =  7     inv. 180 deg rotation - cart. axis [0,1,0]   

 cryst.   s( 7) = (     1          0          0      )    f =( -0.5000000 )
                  (     0         -1          0      )       (  0.5000000 )
                  (     0          0          1      )       (  0.0000000 )

 cart.    s( 7) = (  1.0000000  0.0000000  0.0000000 )    f =( -0.5000000 )
                  (  0.0000000 -1.0000000  0.0000000 )       (  0.5079604 )
                  (  0.0000000  0.0000000  1.0000000 )       (  0.0000000 )


      isym =  8     inv. 180 deg rotation - cart. axis [1,0,0]   

 cryst.   s( 8) = (    -1          0          0      )    f =(  0.5000000 )
                  (     0          1          0      )       ( -0.5000000 )
                  (     0          0          1      )       ( -0.5000000 )

 cart.    s( 8) = ( -1.0000000  0.0000000  0.0000000 )    f =(  0.5000000 )
                  (  0.0000000  1.0000000  0.0000000 )       ( -0.5079604 )
                  (  0.0000000  0.0000000  1.0000000 )       ( -0.7249991 )


     double point group D_2h (mmm) 
     there are 10 classes and  2 irreducible representations
     the character table:

       E     -E     C2    C2'  C2''  i     -i     s_v   s_v' s_v''
                   -C2   -C2'  -C2''             -s_v  -s_v' -s_v'
G_5+   2.00 -2.00  0.00  0.00  0.00  2.00 -2.00  0.00  0.00  0.00
G_5-   2.00 -2.00  0.00  0.00  0.00 -2.00  2.00  0.00  0.00  0.00

     the symmetry operations in each class and the name of the first element:

     E             1
          identity                                               
     -E           -1
          identity E                                             
      C2  -C2      2   -2
          180 deg rotation - cart. axis [0,0,1]                  
      C2' -C2'     3   -3
          180 deg rotation - cart. axis [0,1,0]                  
     C2'' -C2''    4   -4
          180 deg rotation - cart. axis [1,0,0]                  
     i             5
          inversion                                              
     -i           -5
          inversion E                                            
      s_v -s_v     6   -6
          inv. 180 deg rotation - cart. axis [0,0,1]             
      s_v'-s_v'    7   -7
          inv. 180 deg rotation - cart. axis [0,1,0]             
     s_v''-s_v'    8   -8
          inv. 180 deg rotation - cart. axis [1,0,0]             

   Cartesian axes

     site n.     atom                  positions (alat units)
         1           Cs  tau(   1) = (   0.0046830   0.0237045   1.0874986  )
         2           Cs  tau(   2) = (   0.5046830   0.4842559   1.0874986  )
         3           Cs  tau(   3) = (   0.9953170   0.9922163   0.3624995  )
         4           Cs  tau(   4) = (   0.4953170   0.5316649   0.3624995  )
         5           Sn  tau(   5) = (   0.5000000   0.0000000   0.0000000  )
         6           Sn  tau(   6) = (   0.0000000   0.5079604   0.7249991  )
         7           Sn  tau(   7) = (   0.0000000   0.5079604   0.0000000  )
         8           Sn  tau(   8) = (   0.5000000   0.0000000   0.7249991  )
         9           I   tau(   9) = (   0.7030980   0.7148750   1.4390304  )
        10           I   tau(  10) = (   0.2969020   0.3010458   0.7140313  )
        11           I   tau(  11) = (   0.7030980   0.7148750   0.7359669  )
        12           I   tau(  12) = (   0.2969020   0.3010458   0.0109678  )
        13           I   tau(  13) = (   0.5026480   0.9956207   0.3624995  )
        14           I   tau(  14) = (   0.2030980   0.8090062   0.7359669  )
        15           I   tau(  15) = (   0.9973520   0.4876603   1.0874986  )
        16           I   tau(  16) = (   0.7969020   0.2069146   0.7140313  )
        17           I   tau(  17) = (   0.7969020   0.2069146   0.0109678  )
        18           I   tau(  18) = (   0.4973520   0.0203001   1.0874986  )
        19           I   tau(  19) = (   0.0026480   0.5282605   0.3624995  )
        20           I   tau(  20) = (   0.2030980   0.8090062   1.4390304  )

   Crystallographic axes

     site n.     atom                  positions (cryst. coord.)
         1           Cs  tau(   1) = (  0.0046830  0.0233330  0.7500000  )
         2           Cs  tau(   2) = (  0.5046830  0.4766670  0.7500000  )
         3           Cs  tau(   3) = (  0.9953170  0.9766670  0.2500000  )
         4           Cs  tau(   4) = (  0.4953170  0.5233330  0.2500000  )
         5           Sn  tau(   5) = (  0.5000000  0.0000000  0.0000000  )
         6           Sn  tau(   6) = (  0.0000000  0.5000000  0.5000000  )
         7           Sn  tau(   7) = (  0.0000000  0.5000000  0.0000000  )
         8           Sn  tau(   8) = (  0.5000000  0.0000000  0.5000000  )
         9           I   tau(   9) = (  0.7030980  0.7036720  0.9924360  )
        10           I   tau(  10) = (  0.2969020  0.2963280  0.4924360  )
        11           I   tau(  11) = (  0.7030980  0.7036720  0.5075640  )
        12           I   tau(  12) = (  0.2969020  0.2963280  0.0075640  )
        13           I   tau(  13) = (  0.5026480  0.9800180  0.2500000  )
        14           I   tau(  14) = (  0.2030980  0.7963280  0.5075640  )
        15           I   tau(  15) = (  0.9973520  0.4800180  0.7500000  )
        16           I   tau(  16) = (  0.7969020  0.2036720  0.4924360  )
        17           I   tau(  17) = (  0.7969020  0.2036720  0.0075640  )
        18           I   tau(  18) = (  0.4973520  0.0199820  0.7500000  )
        19           I   tau(  19) = (  0.0026480  0.5199820  0.2500000  )
        20           I   tau(  20) = (  0.2030980  0.7963280  0.9924360  )

     number of k points=    27
                       cart. coord. in units 2pi/alat
        k(    1) = (   0.1000000   0.0984329   0.0689656), wk =   0.0640000
        k(    2) = (   0.1000000   0.0984329   0.2068968), wk =   0.0640000
        k(    3) = (   0.1000000   0.0984329  -0.3448280), wk =   0.0320000
        k(    4) = (   0.1000000   0.2952986   0.0689656), wk =   0.0640000
        k(    5) = (   0.1000000   0.2952986   0.2068968), wk =   0.0640000
        k(    6) = (   0.1000000   0.2952986  -0.3448280), wk =   0.0320000
        k(    7) = (   0.1000000  -0.4921644   0.0689656), wk =   0.0320000
        k(    8) = (   0.1000000  -0.4921644   0.2068968), wk =   0.0320000
        k(    9) = (   0.1000000  -0.4921644  -0.3448280), wk =   0.0160000
        k(   10) = (   0.3000000   0.0984329   0.0689656), wk =   0.0640000
        k(   11) = (   0.3000000   0.0984329   0.2068968), wk =   0.0640000
        k(   12) = (   0.3000000   0.0984329  -0.3448280), wk =   0.0320000
        k(   13) = (   0.3000000   0.2952986   0.0689656), wk =   0.0640000
        k(   14) = (   0.3000000   0.2952986   0.2068968), wk =   0.0640000
        k(   15) = (   0.3000000   0.2952986  -0.3448280), wk =   0.0320000
        k(   16) = (   0.3000000  -0.4921644   0.0689656), wk =   0.0320000
        k(   17) = (   0.3000000  -0.4921644   0.2068968), wk =   0.0320000
        k(   18) = (   0.3000000  -0.4921644  -0.3448280), wk =   0.0160000
        k(   19) = (  -0.5000000   0.0984329   0.0689656), wk =   0.0320000
        k(   20) = (  -0.5000000   0.0984329   0.2068968), wk =   0.0320000
        k(   21) = (  -0.5000000   0.0984329  -0.3448280), wk =   0.0160000
        k(   22) = (  -0.5000000   0.2952986   0.0689656), wk =   0.0320000
        k(   23) = (  -0.5000000   0.2952986   0.2068968), wk =   0.0320000
        k(   24) = (  -0.5000000   0.2952986  -0.3448280), wk =   0.0160000
        k(   25) = (  -0.5000000  -0.4921644   0.0689656), wk =   0.0160000
        k(   26) = (  -0.5000000  -0.4921644   0.2068968), wk =   0.0160000
        k(   27) = (  -0.5000000  -0.4921644  -0.3448280), wk =   0.0080000

                       cryst. coord.
        k(    1) = (   0.1000000   0.1000000   0.1000000), wk =   0.0640000
        k(    2) = (   0.1000000   0.1000000   0.3000000), wk =   0.0640000
        k(    3) = (   0.1000000   0.1000000  -0.5000000), wk =   0.0320000
        k(    4) = (   0.1000000   0.3000000   0.1000000), wk =   0.0640000
        k(    5) = (   0.1000000   0.3000000   0.3000000), wk =   0.0640000
        k(    6) = (   0.1000000   0.3000000  -0.5000000), wk =   0.0320000
        k(    7) = (   0.1000000  -0.5000000   0.1000000), wk =   0.0320000
        k(    8) = (   0.1000000  -0.5000000   0.3000000), wk =   0.0320000
        k(    9) = (   0.1000000  -0.5000000  -0.5000000), wk =   0.0160000
        k(   10) = (   0.3000000   0.1000000   0.1000000), wk =   0.0640000
        k(   11) = (   0.3000000   0.1000000   0.3000000), wk =   0.0640000
        k(   12) = (   0.3000000   0.1000000  -0.5000000), wk =   0.0320000
        k(   13) = (   0.3000000   0.3000000   0.1000000), wk =   0.0640000
        k(   14) = (   0.3000000   0.3000000   0.3000000), wk =   0.0640000
        k(   15) = (   0.3000000   0.3000000  -0.5000000), wk =   0.0320000
        k(   16) = (   0.3000000  -0.5000000   0.1000000), wk =   0.0320000
        k(   17) = (   0.3000000  -0.5000000   0.3000000), wk =   0.0320000
        k(   18) = (   0.3000000  -0.5000000  -0.5000000), wk =   0.0160000
        k(   19) = (  -0.5000000   0.1000000   0.1000000), wk =   0.0320000
        k(   20) = (  -0.5000000   0.1000000   0.3000000), wk =   0.0320000
        k(   21) = (  -0.5000000   0.1000000  -0.5000000), wk =   0.0160000
        k(   22) = (  -0.5000000   0.3000000   0.1000000), wk =   0.0320000
        k(   23) = (  -0.5000000   0.3000000   0.3000000), wk =   0.0320000
        k(   24) = (  -0.5000000   0.3000000  -0.5000000), wk =   0.0160000
        k(   25) = (  -0.5000000  -0.5000000   0.1000000), wk =   0.0160000
        k(   26) = (  -0.5000000  -0.5000000   0.3000000), wk =   0.0160000
        k(   27) = (  -0.5000000  -0.5000000  -0.5000000), wk =   0.0080000

     Dense  grid:   731927 G-vectors     FFT dimensions: ( 100, 100, 144)

     Smooth grid:   523933 G-vectors     FFT dimensions: (  90,  90, 128)

     Estimated max dynamical RAM per process >     325.70Mb

     Estimated total allocated dynamical RAM >   15633.73Mb

     Initial potential from superposition of free atoms

     starting charge  175.84164, renormalised to  176.00000
     Starting wfc are  208 randomized atomic wfcs

     total cpu time spent up to now is       60.0 secs

     per-process dynamical memory:   446.8 Mb

     Self-consistent Calculation

     iteration #  1     ecut=    70.00 Ry     beta=0.35
     Davidson diagonalization with overlap
     ethr =  1.00E-02,  avg # of iterations =  1.4

     Threshold (ethr) on eigenvalues was too large:
     Diagonalizing with lowered threshold

     Davidson diagonalization with overlap
     ethr =  2.55E-04,  avg # of iterations =  3.0

     total cpu time spent up to now is      320.2 secs

     total energy              =   -1268.10176876 Ry
     Harris-Foulkes estimate   =   -1268.25310919 Ry
     estimated scf accuracy    <       0.34070572 Ry

     iteration #  2     ecut=    70.00 Ry     beta=0.35
     Davidson diagonalization with overlap
     ethr =  1.94E-04,  avg # of iterations =  2.0

     total cpu time spent up to now is      440.5 secs

     total energy              =   -1268.13865867 Ry
     Harris-Foulkes estimate   =   -1268.14535772 Ry
     estimated scf accuracy    <       0.03124299 Ry

     iteration #  3     ecut=    70.00 Ry     beta=0.35
     Davidson diagonalization with overlap
     ethr =  1.78E-05,  avg # of iterations =  3.9

     total cpu time spent up to now is      567.9 secs

     total energy              =   -1268.14433909 Ry
     Harris-Foulkes estimate   =   -1268.14347617 Ry
     estimated scf accuracy    <       0.00533414 Ry

     iteration #  4     ecut=    70.00 Ry     beta=0.35
     Davidson diagonalization with overlap
     ethr =  3.03E-06,  avg # of iterations =  3.9

     total cpu time spent up to now is      707.1 secs

     total energy              =   -1268.14550703 Ry
     Harris-Foulkes estimate   =   -1268.14538488 Ry
     estimated scf accuracy    <       0.00045737 Ry

     iteration #  5     ecut=    70.00 Ry     beta=0.35
     Davidson diagonalization with overlap
     ethr =  2.60E-07,  avg # of iterations =  2.7

     total cpu time spent up to now is      835.5 secs

     total energy              =   -1268.14561253 Ry
     Harris-Foulkes estimate   =   -1268.14559896 Ry
     estimated scf accuracy    <       0.00006178 Ry

     iteration #  6     ecut=    70.00 Ry     beta=0.35
     Davidson diagonalization with overlap
     ethr =  3.51E-08,  avg # of iterations =  3.4

     total cpu time spent up to now is      984.8 secs

     total energy              =   -1268.14563222 Ry
     Harris-Foulkes estimate   =   -1268.14562816 Ry
     estimated scf accuracy    <       0.00000453 Ry

     iteration #  7     ecut=    70.00 Ry     beta=0.35
     Davidson diagonalization with overlap
     ethr =  2.57E-09,  avg # of iterations =  3.3

     total cpu time spent up to now is     1133.1 secs

     End of self-consistent calculation

          k = 0.1000 0.0984 0.0690 ( 65479 PWs)   bands (ev):

   -18.8106 -18.8106 -18.8105 -18.8105 -18.8103 -18.8103 -18.8102 -18.8102
   -18.8090 -18.8090 -18.8089 -18.8089 -18.8086 -18.8086 -18.8085 -18.8085
   -18.2052 -18.2052 -18.2048 -18.2048 -18.2043 -18.2043 -18.2039 -18.2039
   -17.7728 -17.7728 -17.7725 -17.7725 -17.7722 -17.7722 -17.7721 -17.7721
   -17.7718 -17.7718 -17.7715 -17.7715 -17.7707 -17.7707 -17.7707 -17.7707
   -17.7634 -17.7634 -17.7633 -17.7633 -17.7632 -17.7632 -17.7632 -17.7632
    -9.2370  -9.2370  -9.0811  -9.0811  -8.9301  -8.9301  -8.8516  -8.8516
    -8.8435  -8.8435  -8.8269  -8.8269  -8.8208  -8.8208  -8.8091  -8.8091
    -8.7802  -8.7802  -8.6669  -8.6669  -8.6619  -8.6619  -8.6527  -8.6527
    -6.1533  -6.1533  -6.1448  -6.1448  -6.1436  -6.1436  -6.1374  -6.1374
    -4.5483  -4.5483  -4.5296  -4.5296  -4.5255  -4.5255  -4.5206  -4.5206
    -4.5148  -4.5148  -4.5110  -4.5110  -4.5030  -4.5030  -4.4980  -4.4980
    -4.3757  -4.3757  -3.8296  -3.8296  -3.3416  -3.3416  -2.6799  -2.6799
    -0.7435  -0.7435  -0.6678  -0.6678  -0.6316  -0.6316  -0.4834  -0.4834
    -0.4466  -0.4466  -0.3860  -0.3860   0.2975   0.2975   0.3762   0.3762
     0.3872   0.3872   0.6372   0.6372   0.8140   0.8140   0.8986   0.8986
     0.9649   0.9649   1.0228   1.0228   1.0680   1.0680   1.1854   1.1854
     1.2538   1.2538   1.3076   1.3076   1.3659   1.3659   1.4262   1.4262
     1.4520   1.4520   1.4724   1.4724   1.5412   1.5412   1.5787   1.5787
     1.6679   1.6679   1.7004   1.7004   1.8816   1.8816   1.9081   1.9081
     1.9762   1.9762   2.0633   2.0633   2.0850   2.0850   2.1366   2.1366
     2.2766   2.2766   2.4528   2.4528   2.7857   2.7857   3.2412   3.2412

     occupation numbers 
     1.0000   1.0000   1.0000   1.0000   1.0000   1.0000   1.0000   1.0000
     1.0000   1.0000   1.0000   1.0000   1.0000   1.0000   1.0000   1.0000
     1.0000   1.0000   1.0000   1.0000   1.0000   1.0000   1.0000   1.0000
     1.0000   1.0000   1.0000   1.0000   1.0000   1.0000   1.0000   1.0000
     1.0000   1.0000   1.0000   1.0000   1.0000   1.0000   1.0000   1.0000
     1.0000   1.0000   1.0000   1.0000   1.0000   1.0000   1.0000   1.0000
     1.0000   1.0000   1.0000   1.0000   1.0000   1.0000   1.0000   1.0000
     1.0000   1.0000   1.0000   1.0000   1.0000   1.0000   1.0000   1.0000
     1.0000   1.0000   1.0000   1.0000   1.0000   1.0000   1.0000   1.0000
     1.0000   1.0000   1.0000   1.0000   1.0000   1.0000   1.0000   1.0000
     1.0000   1.0000   1.0000   1.0000   1.0000   1.0000   1.0000   1.0000
     1.0000   1.0000   1.0000   1.0000   1.0000   1.0000   1.0000   1.0000
     1.0000   1.0000   1.0000   1.0000   1.0000   1.0000   1.0000   1.0000
     1.0000   1.0000   1.0000   1.0000   1.0000   1.0000   1.0000   1.0000
     1.0000   1.0000   1.0000   1.0000   1.0000   1.0000   1.0000   1.0000
     1.0000   1.0000   1.0000   1.0000   1.0000   1.0000   1.0000   1.0000
     1.0000   1.0000   1.0000   1.0000   1.0000   1.0000   1.0000   1.0000
     1.0000   1.0000   1.0000   1.0000   1.0000   1.0000   1.0000   1.0000
     1.0000   1.0000   1.0000   1.0000   1.0000   1.0000   1.0000   1.0000
     1.0000   1.0000   1.0000   1.0000   1.0000   1.0000   1.0000   1.0000
     1.0000   1.0000   1.0000   1.0000   1.0000   1.0000   1.0000   1.0000
     1.0000   1.0000   1.0000   1.0000   1.0000   1.0000   1.0000   1.0000

          k = 0.1000 0.0984 0.2069 ( 65474 PWs)   bands (ev):

   -18.8106 -18.8106 -18.8105 -18.8105 -18.8103 -18.8103 -18.8102 -18.8102
   -18.8090 -18.8090 -18.8090 -18.8090 -18.8085 -18.8085 -18.8085 -18.8085
   -18.2051 -18.2051 -18.2049 -18.2049 -18.2043 -18.2043 -18.2040 -18.2040
   -17.7727 -17.7727 -17.7724 -17.7724 -17.7723 -17.7723 -17.7722 -17.7722
   -17.7718 -17.7718 -17.7716 -17.7716 -17.7707 -17.7707 -17.7707 -17.7707
   -17.7633 -17.7633 -17.7633 -17.7633 -17.7632 -17.7632 -17.7632 -17.7632
    -9.2154  -9.2154  -9.1243  -9.1243  -8.9186  -8.9186  -8.8734  -8.8734
    -8.8275  -8.8275  -8.8228  -8.8228  -8.7986  -8.7986  -8.7930  -8.7930
    -8.7817  -8.7817  -8.6900  -8.6900  -8.6607  -8.6607  -8.6562  -8.6562
    -6.1515  -6.1515  -6.1460  -6.1460  -6.1427  -6.1427  -6.1385  -6.1385
    -4.5436  -4.5436  -4.5306  -4.5306  -4.5229  -4.5229  -4.5200  -4.5200
    -4.5144  -4.5144  -4.5111  -4.5111  -4.5065  -4.5065  -4.5011  -4.5011
    -4.2872  -4.2872  -3.9541  -3.9541  -3.2493  -3.2493  -2.8563  -2.8563
    -0.6969  -0.6969  -0.6531  -0.6531  -0.5396  -0.5396  -0.4296  -0.4296
    -0.2593  -0.2593  -0.2131  -0.2131   0.3150   0.3150   0.3302   0.3302
     0.3708   0.3708   0.5229   0.5229   0.7786   0.7786   0.9120   0.9120
     0.9787   0.9787   0.9986   0.9986   1.0595   1.0595   1.0919   1.0919
     1.2095   1.2095   1.2920   1.2920   1.3173   1.3173   1.3567   1.3567
     1.4104   1.4104   1.4595   1.4595   1.4910   1.4910   1.5543   1.5543
     1.7189   1.7189   1.7807   1.7807   1.8623   1.8623   1.9160   1.9160
     1.9437   1.9437   1.9870   1.9870   2.0671   2.0671   2.1537   2.1537
     2.1965   2.1965   2.3218   2.3218   2.8026   2.8026   2.9751   2.9751

     occupation numbers 
     1.0000   1.0000   1.0000   1.0000   1.0000   1.0000   1.0000   1.0000
     1.0000   1.0000   1.0000   1.0000   1.0000   1.0000   1.0000   1.0000
     1.0000   1.0000   1.0000   1.0000   1.0000   1.0000   1.0000   1.0000
     1.0000   1.0000   1.0000   1.0000   1.0000   1.0000   1.0000   1.0000
     1.0000   1.0000   1.0000   1.0000   1.0000   1.0000   1.0000   1.0000
     1.0000   1.0000   1.0000   1.0000   1.0000   1.0000   1.0000   1.0000
     1.0000   1.0000   1.0000   1.0000   1.0000   1.0000   1.0000   1.0000
     1.0000   1.0000   1.0000   1.0000   1.0000   1.0000   1.0000   1.0000
     1.0000   1.0000   1.0000   1.0000   1.0000   1.0000   1.0000   1.0000
     1.0000   1.0000   1.0000   1.0000   1.0000   1.0000   1.0000   1.0000
     1.0000   1.0000   1.0000   1.0000   1.0000   1.0000   1.0000   1.0000
     1.0000   1.0000   1.0000   1.0000   1.0000   1.0000   1.0000   1.0000
     1.0000   1.0000   1.0000   1.0000   1.0000   1.0000   1.0000   1.0000
     1.0000   1.0000   1.0000   1.0000   1.0000   1.0000   1.0000   1.0000
     1.0000   1.0000   1.0000   1.0000   1.0000   1.0000   1.0000   1.0000
     1.0000   1.0000   1.0000   1.0000   1.0000   1.0000   1.0000   1.0000
     1.0000   1.0000   1.0000   1.0000   1.0000   1.0000   1.0000   1.0000
     1.0000   1.0000   1.0000   1.0000   1.0000   1.0000   1.0000   1.0000
     1.0000   1.0000   1.0000   1.0000   1.0000   1.0000   1.0000   1.0000
     1.0000   1.0000   1.0000   1.0000   1.0000   1.0000   1.0000   1.0000
     1.0000   1.0000   1.0000   1.0000   1.0000   1.0000   1.0000   1.0000
     1.0000   1.0000   1.0000   1.0000   1.0000   1.0000   1.0000   1.0000

          k = 0.1000 0.0984-0.3448 ( 65512 PWs)   bands (ev):

   -18.8105 -18.8105 -18.8105 -18.8105 -18.8103 -18.8103 -18.8103 -18.8103
   -18.8090 -18.8090 -18.8090 -18.8090 -18.8085 -18.8085 -18.8085 -18.8085
   -18.2050 -18.2050 -18.2050 -18.2050 -18.2041 -18.2041 -18.2041 -18.2041
   -17.7725 -17.7725 -17.7725 -17.7725 -17.7723 -17.7723 -17.7723 -17.7723
   -17.7717 -17.7717 -17.7717 -17.7717 -17.7707 -17.7707 -17.7707 -17.7707
   -17.7633 -17.7633 -17.7633 -17.7633 -17.7632 -17.7632 -17.7632 -17.7632
    -9.1753  -9.1753  -9.1753  -9.1753  -8.8983  -8.8983  -8.8980  -8.8980
    -8.8249  -8.8249  -8.8241  -8.8241  -8.7892  -8.7892  -8.7888  -8.7888
    -8.7356  -8.7356  -8.7356  -8.7356  -8.6587  -8.6587  -8.6587  -8.6587
    -6.1489  -6.1489  -6.1485  -6.1485  -6.1406  -6.1406  -6.1405  -6.1405
    -4.5368  -4.5368  -4.5357  -4.5357  -4.5207  -4.5207  -4.5200  -4.5200
    -4.5126  -4.5126  -4.5114  -4.5114  -4.5068  -4.5068  -4.5059  -4.5059
    -4.1313  -4.1313  -4.1312  -4.1312  -3.0757  -3.0757  -3.0757  -3.0757
    -0.6746  -0.6746  -0.6712  -0.6712  -0.4778  -0.4778  -0.4711  -0.4711
     0.1173   0.1173   0.1203   0.1203   0.1834   0.1834   0.1882   0.1882
     0.3428   0.3428   0.3449   0.3449   0.8223   0.8223   0.8237   0.8237
     0.9552   0.9552   0.9577   0.9577   1.0225   1.0225   1.0236   1.0236
     1.2446   1.2446   1.2474   1.2474   1.3313   1.3313   1.3349   1.3349
     1.4183   1.4183   1.4225   1.4225   1.4995   1.4995   1.5062   1.5062
     1.7621   1.7621   1.7808   1.7808   1.8844   1.8844   1.8936   1.8936
     1.9620   1.9620   1.9852   1.9852   2.0755   2.0755   2.0790   2.0790
     2.2199   2.2199   2.2207   2.2207   2.8472   2.8472   2.8527   2.8527

     occupation numbers 
     1.0000   1.0000   1.0000   1.0000   1.0000   1.0000   1.0000   1.0000
     1.0000   1.0000   1.0000   1.0000   1.0000   1.0000   1.0000   1.0000
     1.0000   1.0000   1.0000   1.0000   1.0000   1.0000   1.0000   1.0000
     1.0000   1.0000   1.0000   1.0000   1.0000   1.0000   1.0000   1.0000
     1.0000   1.0000   1.0000   1.0000   1.0000   1.0000   1.0000   1.0000
     1.0000   1.0000   1.0000   1.0000   1.0000   1.0000   1.0000   1.0000
     1.0000   1.0000   1.0000   1.0000   1.0000   1.0000   1.0000   1.0000
     1.0000   1.0000   1.0000   1.0000   1.0000   1.0000   1.0000   1.0000
     1.0000   1.0000   1.0000   1.0000   1.0000   1.0000   1.0000   1.0000
     1.0000   1.0000   1.0000   1.0000   1.0000   1.0000   1.0000   1.0000
     1.0000   1.0000   1.0000   1.0000   1.0000   1.0000   1.0000   1.0000
     1.0000   1.0000   1.0000   1.0000   1.0000   1.0000   1.0000   1.0000
     1.0000   1.0000   1.0000   1.0000   1.0000   1.0000   1.0000   1.0000
     1.0000   1.0000   1.0000   1.0000   1.0000   1.0000   1.0000   1.0000
     1.0000   1.0000   1.0000   1.0000   1.0000   1.0000   1.0000   1.0000
     1.0000   1.0000   1.0000   1.0000   1.0000   1.0000   1.0000   1.0000
     1.0000   1.0000   1.0000   1.0000   1.0000   1.0000   1.0000   1.0000
     1.0000   1.0000   1.0000   1.0000   1.0000   1.0000   1.0000   1.0000
     1.0000   1.0000   1.0000   1.0000   1.0000   1.0000   1.0000   1.0000
     1.0000   1.0000   1.0000   1.0000   1.0000   1.0000   1.0000   1.0000
     1.0000   1.0000   1.0000   1.0000   1.0000   1.0000   1.0000   1.0000
     1.0000   1.0000   1.0000   1.0000   1.0000   1.0000   1.0000   1.0000

          k = 0.1000 0.2953 0.0690 ( 65473 PWs)   bands (ev):

   -18.8106 -18.8106 -18.8104 -18.8104 -18.8103 -18.8103 -18.8102 -18.8102
   -18.8089 -18.8089 -18.8089 -18.8089 -18.8086 -18.8086 -18.8086 -18.8086
   -18.2051 -18.2051 -18.2048 -18.2048 -18.2043 -18.2043 -18.2040 -18.2040
   -17.7728 -17.7728 -17.7725 -17.7725 -17.7721 -17.7721 -17.7720 -17.7720
   -17.7716 -17.7716 -17.7714 -17.7714 -17.7709 -17.7709 -17.7709 -17.7709
   -17.7633 -17.7633 -17.7633 -17.7633 -17.7632 -17.7632 -17.7632 -17.7632
    -9.1944  -9.1944  -9.0387  -9.0387  -9.0195  -9.0195  -8.8907  -8.8907
    -8.8409  -8.8409  -8.8370  -8.8370  -8.7968  -8.7968  -8.7825  -8.7825
    -8.7273  -8.7273  -8.6993  -8.6993  -8.6909  -8.6909  -8.6631  -8.6631
    -6.1492  -6.1492  -6.1440  -6.1440  -6.1420  -6.1420  -6.1378  -6.1378
    -4.5398  -4.5398  -4.5281  -4.5281  -4.5200  -4.5200  -4.5176  -4.5176
    -4.5157  -4.5157  -4.5072  -4.5072  -4.5029  -4.5029  -4.5004  -4.5004
    -4.2090  -4.2090  -3.6594  -3.6594  -3.5845  -3.5845  -2.9805  -2.9805
    -0.6835  -0.6835  -0.5397  -0.5397  -0.4935  -0.4935  -0.4405  -0.4405
    -0.0641  -0.0641  -0.0506  -0.0506   0.2242   0.2242   0.2644   0.2644
     0.3624   0.3624   0.5809   0.5809   0.6145   0.6145   0.8848   0.8848
     0.9451   0.9451   0.9717   0.9717   1.0158   1.0158   1.0235   1.0235
     1.2107   1.2107   1.2431   1.2431   1.3130   1.3130   1.3486   1.3486
     1.3963   1.3963   1.4594   1.4594   1.4769   1.4769   1.5000   1.5000
     1.7119   1.7119   1.8013   1.8013   1.8198   1.8198   1.8890   1.8890
     1.9456   1.9456   2.0210   2.0210   2.0472   2.0472   2.1324   2.1324
     2.1808   2.1808   2.3992   2.3992   2.4740   2.4740   2.8586   2.8586

     occupation numbers 
     1.0000   1.0000   1.0000   1.0000   1.0000   1.0000   1.0000   1.0000
     1.0000   1.0000   1.0000   1.0000   1.0000   1.0000   1.0000   1.0000
     1.0000   1.0000   1.0000   1.0000   1.0000   1.0000   1.0000   1.0000
     1.0000   1.0000   1.0000   1.0000   1.0000   1.0000   1.0000   1.0000
     1.0000   1.0000   1.0000   1.0000   1.0000   1.0000   1.0000   1.0000
     1.0000   1.0000   1.0000   1.0000   1.0000   1.0000   1.0000   1.0000
     1.0000   1.0000   1.0000   1.0000   1.0000   1.0000   1.0000   1.0000
     1.0000   1.0000   1.0000   1.0000   1.0000   1.0000   1.0000   1.0000
     1.0000   1.0000   1.0000   1.0000   1.0000   1.0000   1.0000   1.0000
     1.0000   1.0000   1.0000   1.0000   1.0000   1.0000   1.0000   1.0000
     1.0000   1.0000   1.0000   1.0000   1.0000   1.0000   1.0000   1.0000
     1.0000   1.0000   1.0000   1.0000   1.0000   1.0000   1.0000   1.0000
     1.0000   1.0000   1.0000   1.0000   1.0000   1.0000   1.0000   1.0000
     1.0000   1.0000   1.0000   1.0000   1.0000   1.0000   1.0000   1.0000
     1.0000   1.0000   1.0000   1.0000   1.0000   1.0000   1.0000   1.0000
     1.0000   1.0000   1.0000   1.0000   1.0000   1.0000   1.0000   1.0000
     1.0000   1.0000   1.0000   1.0000   1.0000   1.0000   1.0000   1.0000
     1.0000   1.0000   1.0000   1.0000   1.0000   1.0000   1.0000   1.0000
     1.0000   1.0000   1.0000   1.0000   1.0000   1.0000   1.0000   1.0000
     1.0000   1.0000   1.0000   1.0000   1.0000   1.0000   1.0000   1.0000
     1.0000   1.0000   1.0000   1.0000   1.0000   1.0000   1.0000   1.0000
     1.0000   1.0000   1.0000   1.0000   1.0000   1.0000   1.0000   1.0000

          k = 0.1000 0.2953 0.2069 ( 65454 PWs)   bands (ev):

   -18.8105 -18.8105 -18.8104 -18.8104 -18.8103 -18.8103 -18.8103 -18.8103
   -18.8089 -18.8089 -18.8089 -18.8089 -18.8086 -18.8086 -18.8086 -18.8086
   -18.2050 -18.2050 -18.2048 -18.2048 -18.2043 -18.2043 -18.2041 -18.2041
   -17.7726 -17.7726 -17.7724 -17.7724 -17.7722 -17.7722 -17.7721 -17.7721
   -17.7716 -17.7716 -17.7715 -17.7715 -17.7709 -17.7709 -17.7709 -17.7709
   -17.7633 -17.7633 -17.7633 -17.7633 -17.7632 -17.7632 -17.7632 -17.7632
    -9.1733  -9.1733  -9.0830  -9.0830  -9.0029  -9.0029  -8.9323  -8.9323
    -8.8109  -8.8109  -8.8012  -8.8012  -8.7917  -8.7917  -8.7738  -8.7738
    -8.7367  -8.7367  -8.7090  -8.7090  -8.6896  -8.6896  -8.6768  -8.6768
    -6.1483  -6.1483  -6.1450  -6.1450  -6.1411  -6.1411  -6.1385  -6.1385
    -4.5368  -4.5368  -4.5288  -4.5288  -4.5195  -4.5195  -4.5168  -4.5168
    -4.5131  -4.5131  -4.5100  -4.5100  -4.5047  -4.5047  -4.5019  -4.5019
    -4.1211  -4.1211  -3.7865  -3.7865  -3.4957  -3.4957  -3.1326  -3.1326
    -0.5532  -0.5532  -0.4718  -0.4718  -0.3719  -0.3719  -0.2871  -0.2871
    -0.1013  -0.1013   0.0278   0.0278   0.2166   0.2166   0.2467   0.2467
     0.3400   0.3400   0.5249   0.5249   0.6203   0.6203   0.8243   0.8243
     0.9380   0.9380   0.9592   0.9592   0.9953   0.9953   1.0362   1.0362
     1.1619   1.1619   1.2303   1.2303   1.2582   1.2582   1.2784   1.2784
     1.3295   1.3295   1.3939   1.3939   1.4636   1.4636   1.4748   1.4748
     1.7672   1.7672   1.7937   1.7937   1.8454   1.8454   1.8989   1.8989
     1.9290   1.9290   2.0137   2.0137   2.0475   2.0475   2.1303   2.1303
     2.1541   2.1541   2.3075   2.3075   2.4092   2.4092   2.5792   2.5792

     occupation numbers 
     1.0000   1.0000   1.0000   1.0000   1.0000   1.0000   1.0000   1.0000
     1.0000   1.0000   1.0000   1.0000   1.0000   1.0000   1.0000   1.0000
     1.0000   1.0000   1.0000   1.0000   1.0000   1.0000   1.0000   1.0000
     1.0000   1.0000   1.0000   1.0000   1.0000   1.0000   1.0000   1.0000
     1.0000   1.0000   1.0000   1.0000   1.0000   1.0000   1.0000   1.0000
     1.0000   1.0000   1.0000   1.0000   1.0000   1.0000   1.0000   1.0000
     1.0000   1.0000   1.0000   1.0000   1.0000   1.0000   1.0000   1.0000
     1.0000   1.0000   1.0000   1.0000   1.0000   1.0000   1.0000   1.0000
     1.0000   1.0000   1.0000   1.0000   1.0000   1.0000   1.0000   1.0000
     1.0000   1.0000   1.0000   1.0000   1.0000   1.0000   1.0000   1.0000
     1.0000   1.0000   1.0000   1.0000   1.0000   1.0000   1.0000   1.0000
     1.0000   1.0000   1.0000   1.0000   1.0000   1.0000   1.0000   1.0000
     1.0000   1.0000   1.0000   1.0000   1.0000   1.0000   1.0000   1.0000
     1.0000   1.0000   1.0000   1.0000   1.0000   1.0000   1.0000   1.0000
     1.0000   1.0000   1.0000   1.0000   1.0000   1.0000   1.0000   1.0000
     1.0000   1.0000   1.0000   1.0000   1.0000   1.0000   1.0000   1.0000
     1.0000   1.0000   1.0000   1.0000   1.0000   1.0000   1.0000   1.0000
     1.0000   1.0000   1.0000   1.0000   1.0000   1.0000   1.0000   1.0000
     1.0000   1.0000   1.0000   1.0000   1.0000   1.0000   1.0000   1.0000
     1.0000   1.0000   1.0000   1.0000   1.0000   1.0000   1.0000   1.0000
     1.0000   1.0000   1.0000   1.0000   1.0000   1.0000   1.0000   1.0000
     1.0000   1.0000   1.0000   1.0000   1.0000   1.0000   1.0000   1.0000

          k = 0.1000 0.2953-0.3448 ( 65440 PWs)   bands (ev):

   -18.8105 -18.8105 -18.8104 -18.8104 -18.8103 -18.8103 -18.8103 -18.8103
   -18.8089 -18.8089 -18.8089 -18.8089 -18.8086 -18.8086 -18.8086 -18.8086
   -18.2049 -18.2049 -18.2049 -18.2049 -18.2042 -18.2042 -18.2042 -18.2042
   -17.7724 -17.7724 -17.7724 -17.7724 -17.7722 -17.7722 -17.7722 -17.7722
   -17.7715 -17.7715 -17.7715 -17.7715 -17.7709 -17.7709 -17.7709 -17.7709
   -17.7633 -17.7633 -17.7633 -17.7633 -17.7632 -17.7632 -17.7632 -17.7632
    -9.1338  -9.1338  -9.1337  -9.1337  -8.9724  -8.9724  -8.9723  -8.9723
    -8.8010  -8.8010  -8.8005  -8.8005  -8.7556  -8.7556  -8.7552  -8.7552
    -8.7419  -8.7419  -8.7419  -8.7419  -8.6864  -8.6864  -8.6863  -8.6863
    -6.1471  -6.1471  -6.1463  -6.1463  -6.1399  -6.1399  -6.1396  -6.1396
    -4.5328  -4.5328  -4.5314  -4.5314  -4.5183  -4.5183  -4.5171  -4.5171
    -4.5122  -4.5122  -4.5100  -4.5100  -4.5057  -4.5057  -4.5041  -4.5041
    -3.9654  -3.9654  -3.9652  -3.9652  -3.3322  -3.3322  -3.3320  -3.3320
    -0.5037  -0.5037  -0.4994  -0.4994  -0.1979  -0.1979  -0.1850  -0.1850
     0.0433   0.0433   0.0452   0.0452   0.2526   0.2526   0.2565   0.2565
     0.3124   0.3124   0.3138   0.3138   0.6771   0.6771   0.6814   0.6814
     0.9214   0.9214   0.9315   0.9315   1.0170   1.0170   1.0179   1.0179
     1.1667   1.1667   1.1682   1.1682   1.2339   1.2339   1.2374   1.2374
     1.3410   1.3410   1.3432   1.3432   1.4584   1.4584   1.4680   1.4680
     1.7665   1.7665   1.7932   1.7932   1.8738   1.8738   1.8754   1.8754
     1.9887   1.9887   1.9998   1.9998   2.0614   2.0614   2.0639   2.0639
     2.2049   2.2049   2.2061   2.2061   2.4384   2.4384   2.4436   2.4436

     occupation numbers 
     1.0000   1.0000   1.0000   1.0000   1.0000   1.0000   1.0000   1.0000
     1.0000   1.0000   1.0000   1.0000   1.0000   1.0000   1.0000   1.0000
     1.0000   1.0000   1.0000   1.0000   1.0000   1.0000   1.0000   1.0000
     1.0000   1.0000   1.0000   1.0000   1.0000   1.0000   1.0000   1.0000
     1.0000   1.0000   1.0000   1.0000   1.0000   1.0000   1.0000   1.0000
     1.0000   1.0000   1.0000   1.0000   1.0000   1.0000   1.0000   1.0000
     1.0000   1.0000   1.0000   1.0000   1.0000   1.0000   1.0000   1.0000
     1.0000   1.0000   1.0000   1.0000   1.0000   1.0000   1.0000   1.0000
     1.0000   1.0000   1.0000   1.0000   1.0000   1.0000   1.0000   1.0000
     1.0000   1.0000   1.0000   1.0000   1.0000   1.0000   1.0000   1.0000
     1.0000   1.0000   1.0000   1.0000   1.0000   1.0000   1.0000   1.0000
     1.0000   1.0000   1.0000   1.0000   1.0000   1.0000   1.0000   1.0000
     1.0000   1.0000   1.0000   1.0000   1.0000   1.0000   1.0000   1.0000
     1.0000   1.0000   1.0000   1.0000   1.0000   1.0000   1.0000   1.0000
     1.0000   1.0000   1.0000   1.0000   1.0000   1.0000   1.0000   1.0000
     1.0000   1.0000   1.0000   1.0000   1.0000   1.0000   1.0000   1.0000
     1.0000   1.0000   1.0000   1.0000   1.0000   1.0000   1.0000   1.0000
     1.0000   1.0000   1.0000   1.0000   1.0000   1.0000   1.0000   1.0000
     1.0000   1.0000   1.0000   1.0000   1.0000   1.0000   1.0000   1.0000
     1.0000   1.0000   1.0000   1.0000   1.0000   1.0000   1.0000   1.0000
     1.0000   1.0000   1.0000   1.0000   1.0000   1.0000   1.0000   1.0000
     1.0000   1.0000   1.0000   1.0000   1.0000   1.0000   1.0000   1.0000

          k = 0.1000-0.4922 0.0690 ( 65452 PWs)   bands (ev):

   -18.8105 -18.8105 -18.8105 -18.8105 -18.8103 -18.8103 -18.8103 -18.8103
   -18.8088 -18.8088 -18.8088 -18.8088 -18.8087 -18.8087 -18.8087 -18.8087
   -18.2049 -18.2049 -18.2049 -18.2049 -18.2042 -18.2042 -18.2042 -18.2042
   -17.7726 -17.7726 -17.7726 -17.7726 -17.7720 -17.7720 -17.7720 -17.7720
   -17.7713 -17.7713 -17.7712 -17.7712 -17.7712 -17.7712 -17.7712 -17.7712
   -17.7633 -17.7633 -17.7633 -17.7633 -17.7632 -17.7632 -17.7632 -17.7632
    -9.1168  -9.1168  -9.1168  -9.1168  -8.9666  -8.9666  -8.9666  -8.9666
    -8.8395  -8.8395  -8.8394  -8.8394  -8.7497  -8.7497  -8.7495  -8.7495
    -8.7374  -8.7374  -8.7372  -8.7372  -8.6868  -8.6868  -8.6866  -8.6866
    -6.1452  -6.1452  -6.1451  -6.1451  -6.1396  -6.1396  -6.1396  -6.1396
    -4.5311  -4.5311  -4.5305  -4.5305  -4.5191  -4.5191  -4.5168  -4.5168
    -4.5095  -4.5095  -4.5084  -4.5084  -4.5033  -4.5033  -4.5010  -4.5010
    -3.9181  -3.9181  -3.9177  -3.9177  -3.3539  -3.3539  -3.3537  -3.3537
    -0.6095  -0.6095  -0.6095  -0.6095  -0.1540  -0.1540  -0.1524  -0.1524
    -0.0949  -0.0949  -0.0909  -0.0909   0.2767   0.2767   0.2841   0.2841
     0.4047   0.4047   0.4119   0.4119   0.6664   0.6664   0.6675   0.6675
     0.9318   0.9318   0.9409   0.9409   0.9701   0.9701   0.9811   0.9811
     1.2409   1.2409   1.2490   1.2490   1.2678   1.2678   1.2721   1.2721
     1.3988   1.3988   1.4012   1.4012   1.4358   1.4358   1.4423   1.4423
     1.7173   1.7173   1.7591   1.7591   1.8634   1.8634   1.9212   1.9212
     1.9265   1.9265   1.9684   1.9684   2.0561   2.0561   2.0586   2.0586
     2.1607   2.1607   2.1722   2.1722   2.5618   2.5618   2.5959   2.5959

     occupation numbers 
     1.0000   1.0000   1.0000   1.0000   1.0000   1.0000   1.0000   1.0000
     1.0000   1.0000   1.0000   1.0000   1.0000   1.0000   1.0000   1.0000
     1.0000   1.0000   1.0000   1.0000   1.0000   1.0000   1.0000   1.0000
     1.0000   1.0000   1.0000   1.0000   1.0000   1.0000   1.0000   1.0000
     1.0000   1.0000   1.0000   1.0000   1.0000   1.0000   1.0000   1.0000
     1.0000   1.0000   1.0000   1.0000   1.0000   1.0000   1.0000   1.0000
     1.0000   1.0000   1.0000   1.0000   1.0000   1.0000   1.0000   1.0000
     1.0000   1.0000   1.0000   1.0000   1.0000   1.0000   1.0000   1.0000
     1.0000   1.0000   1.0000   1.0000   1.0000   1.0000   1.0000   1.0000
     1.0000   1.0000   1.0000   1.0000   1.0000   1.0000   1.0000   1.0000
     1.0000   1.0000   1.0000   1.0000   1.0000   1.0000   1.0000   1.0000
     1.0000   1.0000   1.0000   1.0000   1.0000   1.0000   1.0000   1.0000
     1.0000   1.0000   1.0000   1.0000   1.0000   1.0000   1.0000   1.0000
     1.0000   1.0000   1.0000   1.0000   1.0000   1.0000   1.0000   1.0000
     1.0000   1.0000   1.0000   1.0000   1.0000   1.0000   1.0000   1.0000
     1.0000   1.0000   1.0000   1.0000   1.0000   1.0000   1.0000   1.0000
     1.0000   1.0000   1.0000   1.0000   1.0000   1.0000   1.0000   1.0000
     1.0000   1.0000   1.0000   1.0000   1.0000   1.0000   1.0000   1.0000
     1.0000   1.0000   1.0000   1.0000   1.0000   1.0000   1.0000   1.0000
     1.0000   1.0000   1.0000   1.0000   1.0000   1.0000   1.0000   1.0000
     1.0000   1.0000   1.0000   1.0000   1.0000   1.0000   1.0000   1.0000
     1.0000   1.0000   1.0000   1.0000   1.0000   1.0000   1.0000   1.0000

          k = 0.1000-0.4922 0.2069 ( 65468 PWs)   bands (ev):

   -18.8104 -18.8104 -18.8104 -18.8104 -18.8103 -18.8103 -18.8103 -18.8103
   -18.8088 -18.8088 -18.8088 -18.8088 -18.8087 -18.8087 -18.8087 -18.8087
   -18.2049 -18.2049 -18.2049 -18.2049 -18.2042 -18.2042 -18.2042 -18.2042
   -17.7725 -17.7725 -17.7725 -17.7725 -17.7721 -17.7721 -17.7721 -17.7721
   -17.7712 -17.7712 -17.7712 -17.7712 -17.7712 -17.7712 -17.7712 -17.7712
   -17.7633 -17.7633 -17.7633 -17.7633 -17.7632 -17.7632 -17.7632 -17.7632
    -9.0972  -9.0972  -9.0970  -9.0970  -9.0118  -9.0118  -9.0117  -9.0117
    -8.7992  -8.7992  -8.7991  -8.7991  -8.7526  -8.7526  -8.7520  -8.7520
    -8.7346  -8.7346  -8.7343  -8.7343  -8.7018  -8.7018  -8.7015  -8.7015
    -6.1453  -6.1453  -6.1452  -6.1452  -6.1394  -6.1394  -6.1394  -6.1394
    -4.5304  -4.5304  -4.5295  -4.5295  -4.5193  -4.5193  -4.5149  -4.5149
    -4.5102  -4.5102  -4.5083  -4.5083  -4.5056  -4.5056  -4.5014  -4.5014
    -3.8311  -3.8311  -3.8303  -3.8303  -3.4888  -3.4888  -3.4886  -3.4886
    -0.3876  -0.3876  -0.3823  -0.3823  -0.1310  -0.1310  -0.1242  -0.1242
    -0.1099  -0.1099  -0.0963  -0.0963   0.2169   0.2169   0.2317   0.2317
     0.4231   0.4231   0.4474   0.4474   0.6090   0.6090   0.6294   0.6294
     0.9363   0.9363   0.9598   0.9598   0.9870   0.9870   1.0131   1.0131
     1.2013   1.2013   1.2030   1.2030   1.2376   1.2376   1.2508   1.2508
     1.3020   1.3020   1.3201   1.3201   1.3759   1.3759   1.3793   1.3793
     1.7578   1.7578   1.8108   1.8108   1.8498   1.8498   1.9211   1.9211
     1.9430   1.9430   1.9854   1.9854   2.0512   2.0512   2.0545   2.0545
     2.1658   2.1658   2.1834   2.1834   2.2976   2.2976   2.3716   2.3716

     occupation numbers 
     1.0000   1.0000   1.0000   1.0000   1.0000   1.0000   1.0000   1.0000
     1.0000   1.0000   1.0000   1.0000   1.0000   1.0000   1.0000   1.0000
     1.0000   1.0000   1.0000   1.0000   1.0000   1.0000   1.0000   1.0000
     1.0000   1.0000   1.0000   1.0000   1.0000   1.0000   1.0000   1.0000
     1.0000   1.0000   1.0000   1.0000   1.0000   1.0000   1.0000   1.0000
     1.0000   1.0000   1.0000   1.0000   1.0000   1.0000   1.0000   1.0000
     1.0000   1.0000   1.0000   1.0000   1.0000   1.0000   1.0000   1.0000
     1.0000   1.0000   1.0000   1.0000   1.0000   1.0000   1.0000   1.0000
     1.0000   1.0000   1.0000   1.0000   1.0000   1.0000   1.0000   1.0000
     1.0000   1.0000   1.0000   1.0000   1.0000   1.0000   1.0000   1.0000
     1.0000   1.0000   1.0000   1.0000   1.0000   1.0000   1.0000   1.0000
     1.0000   1.0000   1.0000   1.0000   1.0000   1.0000   1.0000   1.0000
     1.0000   1.0000   1.0000   1.0000   1.0000   1.0000   1.0000   1.0000
     1.0000   1.0000   1.0000   1.0000   1.0000   1.0000   1.0000   1.0000
     1.0000   1.0000   1.0000   1.0000   1.0000   1.0000   1.0000   1.0000
     1.0000   1.0000   1.0000   1.0000   1.0000   1.0000   1.0000   1.0000
     1.0000   1.0000   1.0000   1.0000   1.0000   1.0000   1.0000   1.0000
     1.0000   1.0000   1.0000   1.0000   1.0000   1.0000   1.0000   1.0000
     1.0000   1.0000   1.0000   1.0000   1.0000   1.0000   1.0000   1.0000
     1.0000   1.0000   1.0000   1.0000   1.0000   1.0000   1.0000   1.0000
     1.0000   1.0000   1.0000   1.0000   1.0000   1.0000   1.0000   1.0000
     1.0000   1.0000   1.0000   1.0000   1.0000   1.0000   1.0000   1.0000

          k = 0.1000-0.4922-0.3448 ( 65452 PWs)   bands (ev):

   -18.8104 -18.8104 -18.8104 -18.8104 -18.8104 -18.8104 -18.8104 -18.8104
   -18.8088 -18.8088 -18.8088 -18.8088 -18.8088 -18.8088 -18.8088 -18.8088
   -18.2048 -18.2048 -18.2048 -18.2048 -18.2043 -18.2043 -18.2043 -18.2043
   -17.7723 -17.7723 -17.7723 -17.7723 -17.7723 -17.7723 -17.7723 -17.7723
   -17.7712 -17.7712 -17.7712 -17.7712 -17.7712 -17.7712 -17.7712 -17.7712
   -17.7632 -17.7632 -17.7632 -17.7632 -17.7632 -17.7632 -17.7632 -17.7632
    -9.0628  -9.0628  -9.0628  -9.0628  -9.0574  -9.0574  -9.0574  -9.0574
    -8.7684  -8.7684  -8.7684  -8.7684  -8.7611  -8.7611  -8.7611  -8.7611
    -8.7241  -8.7241  -8.7241  -8.7241  -8.7226  -8.7226  -8.7226  -8.7226
    -6.1453  -6.1453  -6.1453  -6.1453  -6.1393  -6.1393  -6.1393  -6.1393
    -4.5294  -4.5294  -4.5294  -4.5294  -4.5169  -4.5169  -4.5169  -4.5169
    -4.5097  -4.5097  -4.5097  -4.5097  -4.5037  -4.5037  -4.5037  -4.5037
    -3.6759  -3.6759  -3.6759  -3.6759  -3.6712  -3.6712  -3.6712  -3.6712
    -0.1970  -0.1970  -0.1970  -0.1970  -0.1777  -0.1777  -0.1777  -0.1777
     0.0368   0.0368   0.0368   0.0368   0.0800   0.0800   0.0800   0.0800
     0.4870   0.4870   0.4870   0.4870   0.5335   0.5335   0.5335   0.5335
     0.9639   0.9639   0.9639   0.9639   0.9973   0.9973   0.9973   0.9973
     1.1620   1.1620   1.1620   1.1620   1.1968   1.1968   1.1968   1.1968
     1.3074   1.3074   1.3074   1.3074   1.3362   1.3362   1.3362   1.3362
     1.8117   1.8117   1.8117   1.8117   1.8671   1.8671   1.8671   1.8671
     1.9907   1.9907   1.9907   1.9907   2.0341   2.0341   2.0341   2.0341
     2.1929   2.1929   2.1929   2.1929   2.2267   2.2267   2.2267   2.2267

     occupation numbers 
     1.0000   1.0000   1.0000   1.0000   1.0000   1.0000   1.0000   1.0000
     1.0000   1.0000   1.0000   1.0000   1.0000   1.0000   1.0000   1.0000
     1.0000   1.0000   1.0000   1.0000   1.0000   1.0000   1.0000   1.0000
     1.0000   1.0000   1.0000   1.0000   1.0000   1.0000   1.0000   1.0000
     1.0000   1.0000   1.0000   1.0000   1.0000   1.0000   1.0000   1.0000
     1.0000   1.0000   1.0000   1.0000   1.0000   1.0000   1.0000   1.0000
     1.0000   1.0000   1.0000   1.0000   1.0000   1.0000   1.0000   1.0000
     1.0000   1.0000   1.0000   1.0000   1.0000   1.0000   1.0000   1.0000
     1.0000   1.0000   1.0000   1.0000   1.0000   1.0000   1.0000   1.0000
     1.0000   1.0000   1.0000   1.0000   1.0000   1.0000   1.0000   1.0000
     1.0000   1.0000   1.0000   1.0000   1.0000   1.0000   1.0000   1.0000
     1.0000   1.0000   1.0000   1.0000   1.0000   1.0000   1.0000   1.0000
     1.0000   1.0000   1.0000   1.0000   1.0000   1.0000   1.0000   1.0000
     1.0000   1.0000   1.0000   1.0000   1.0000   1.0000   1.0000   1.0000
     1.0000   1.0000   1.0000   1.0000   1.0000   1.0000   1.0000   1.0000
     1.0000   1.0000   1.0000   1.0000   1.0000   1.0000   1.0000   1.0000
     1.0000   1.0000   1.0000   1.0000   1.0000   1.0000   1.0000   1.0000
     1.0000   1.0000   1.0000   1.0000   1.0000   1.0000   1.0000   1.0000
     1.0000   1.0000   1.0000   1.0000   1.0000   1.0000   1.0000   1.0000
     1.0000   1.0000   1.0000   1.0000   1.0000   1.0000   1.0000   1.0000
     1.0000   1.0000   1.0000   1.0000   1.0000   1.0000   1.0000   1.0000
     1.0000   1.0000   1.0000   1.0000   1.0000   1.0000   1.0000   1.0000

          k = 0.3000 0.0984 0.0690 ( 65487 PWs)   bands (ev):

   -18.8106 -18.8106 -18.8105 -18.8105 -18.8103 -18.8103 -18.8102 -18.8102
   -18.8089 -18.8089 -18.8089 -18.8089 -18.8086 -18.8086 -18.8086 -18.8086
   -18.2050 -18.2050 -18.2046 -18.2046 -18.2045 -18.2045 -18.2041 -18.2041
   -17.7728 -17.7728 -17.7725 -17.7725 -17.7721 -17.7721 -17.7720 -17.7720
   -17.7716 -17.7716 -17.7714 -17.7714 -17.7709 -17.7709 -17.7709 -17.7709
   -17.7633 -17.7633 -17.7633 -17.7633 -17.7632 -17.7632 -17.7632 -17.7632
    -9.1927  -9.1927  -9.0360  -9.0360  -9.0140  -9.0140  -8.8810  -8.8810
    -8.8432  -8.8432  -8.8330  -8.8330  -8.8057  -8.8057  -8.7960  -8.7960
    -8.7252  -8.7252  -8.7007  -8.7007  -8.6943  -8.6943  -8.6635  -8.6635
    -6.1480  -6.1480  -6.1429  -6.1429  -6.1420  -6.1420  -6.1380  -6.1380
    -4.5372  -4.5372  -4.5249  -4.5249  -4.5201  -4.5201  -4.5176  -4.5176
    -4.5156  -4.5156  -4.5072  -4.5072  -4.5017  -4.5017  -4.5004  -4.5004
    -4.2078  -4.2078  -3.6578  -3.6578  -3.5825  -3.5825  -2.9772  -2.9772
    -0.6841  -0.6841  -0.5433  -0.5433  -0.5028  -0.5028  -0.4488  -0.4488
    -0.0575  -0.0575  -0.0323  -0.0323   0.2255   0.2255   0.2685   0.2685
     0.3601   0.3601   0.5857   0.5857   0.6172   0.6172   0.8922   0.8922
     0.9482   0.9482   0.9757   0.9757   1.0141   1.0141   1.0280   1.0280
     1.2001   1.2001   1.2422   1.2422   1.3179   1.3179   1.3455   1.3455
     1.3985   1.3985   1.4431   1.4431   1.4785   1.4785   1.5139   1.5139
     1.7109   1.7109   1.7828   1.7828   1.8178   1.8178   1.8924   1.8924
     1.9334   1.9334   2.0110   2.0110   2.0324   2.0324   2.1072   2.1072
     2.1753   2.1753   2.3836   2.3836   2.4620   2.4620   2.8464   2.8464

     occupation numbers 
     1.0000   1.0000   1.0000   1.0000   1.0000   1.0000   1.0000   1.0000
     1.0000   1.0000   1.0000   1.0000   1.0000   1.0000   1.0000   1.0000
     1.0000   1.0000   1.0000   1.0000   1.0000   1.0000   1.0000   1.0000
     1.0000   1.0000   1.0000   1.0000   1.0000   1.0000   1.0000   1.0000
     1.0000   1.0000   1.0000   1.0000   1.0000   1.0000   1.0000   1.0000
     1.0000   1.0000   1.0000   1.0000   1.0000   1.0000   1.0000   1.0000
     1.0000   1.0000   1.0000   1.0000   1.0000   1.0000   1.0000   1.0000
     1.0000   1.0000   1.0000   1.0000   1.0000   1.0000   1.0000   1.0000
     1.0000   1.0000   1.0000   1.0000   1.0000   1.0000   1.0000   1.0000
     1.0000   1.0000   1.0000   1.0000   1.0000   1.0000   1.0000   1.0000
     1.0000   1.0000   1.0000   1.0000   1.0000   1.0000   1.0000   1.0000
     1.0000   1.0000   1.0000   1.0000   1.0000   1.0000   1.0000   1.0000
     1.0000   1.0000   1.0000   1.0000   1.0000   1.0000   1.0000   1.0000
     1.0000   1.0000   1.0000   1.0000   1.0000   1.0000   1.0000   1.0000
     1.0000   1.0000   1.0000   1.0000   1.0000   1.0000   1.0000   1.0000
     1.0000   1.0000   1.0000   1.0000   1.0000   1.0000   1.0000   1.0000
     1.0000   1.0000   1.0000   1.0000   1.0000   1.0000   1.0000   1.0000
     1.0000   1.0000   1.0000   1.0000   1.0000   1.0000   1.0000   1.0000
     1.0000   1.0000   1.0000   1.0000   1.0000   1.0000   1.0000   1.0000
     1.0000   1.0000   1.0000   1.0000   1.0000   1.0000   1.0000   1.0000
     1.0000   1.0000   1.0000   1.0000   1.0000   1.0000   1.0000   1.0000
     1.0000   1.0000   1.0000   1.0000   1.0000   1.0000   1.0000   1.0000

          k = 0.3000 0.0984 0.2069 ( 65506 PWs)   bands (ev):

   -18.8105 -18.8105 -18.8104 -18.8104 -18.8104 -18.8104 -18.8103 -18.8103
   -18.8089 -18.8089 -18.8089 -18.8089 -18.8086 -18.8086 -18.8086 -18.8086
   -18.2050 -18.2050 -18.2047 -18.2047 -18.2044 -18.2044 -18.2042 -18.2042
   -17.7726 -17.7726 -17.7724 -17.7724 -17.7722 -17.7722 -17.7721 -17.7721
   -17.7716 -17.7716 -17.7715 -17.7715 -17.7709 -17.7709 -17.7709 -17.7709
   -17.7633 -17.7633 -17.7633 -17.7633 -17.7632 -17.7632 -17.7632 -17.7632
    -9.1715  -9.1715  -9.0808  -9.0808  -8.9973  -8.9973  -8.9253  -8.9253
    -8.8132  -8.8132  -8.8078  -8.8078  -8.7924  -8.7924  -8.7810  -8.7810
    -8.7355  -8.7355  -8.7092  -8.7092  -8.6929  -8.6929  -8.6785  -8.6785
    -6.1470  -6.1470  -6.1437  -6.1437  -6.1412  -6.1412  -6.1387  -6.1387
    -4.5340  -4.5340  -4.5260  -4.5260  -4.5177  -4.5177  -4.5172  -4.5172
    -4.5144  -4.5144  -4.5092  -4.5092  -4.5040  -4.5040  -4.5019  -4.5019
    -4.1199  -4.1199  -3.7850  -3.7850  -3.4937  -3.4937  -3.1299  -3.1299
    -0.5584  -0.5584  -0.4796  -0.4796  -0.3786  -0.3786  -0.2845  -0.2845
    -0.0929  -0.0929   0.0406   0.0406   0.2185   0.2185   0.2485   0.2485
     0.3406   0.3406   0.5307   0.5307   0.6214   0.6214   0.8344   0.8344
     0.9386   0.9386   0.9599   0.9599   0.9942   0.9942   1.0392   1.0392
     1.1610   1.1610   1.2166   1.2166   1.2597   1.2597   1.2822   1.2822
     1.3313   1.3313   1.3846   1.3846   1.4650   1.4650   1.4816   1.4816
     1.7643   1.7643   1.7848   1.7848   1.8448   1.8448   1.8822   1.8822
     1.9282   1.9282   2.0066   2.0066   2.0386   2.0386   2.1144   2.1144
     2.1439   2.1439   2.2915   2.2915   2.3913   2.3913   2.5651   2.5651

     occupation numbers 
     1.0000   1.0000   1.0000   1.0000   1.0000   1.0000   1.0000   1.0000
     1.0000   1.0000   1.0000   1.0000   1.0000   1.0000   1.0000   1.0000
     1.0000   1.0000   1.0000   1.0000   1.0000   1.0000   1.0000   1.0000
     1.0000   1.0000   1.0000   1.0000   1.0000   1.0000   1.0000   1.0000
     1.0000   1.0000   1.0000   1.0000   1.0000   1.0000   1.0000   1.0000
     1.0000   1.0000   1.0000   1.0000   1.0000   1.0000   1.0000   1.0000
     1.0000   1.0000   1.0000   1.0000   1.0000   1.0000   1.0000   1.0000
     1.0000   1.0000   1.0000   1.0000   1.0000   1.0000   1.0000   1.0000
     1.0000   1.0000   1.0000   1.0000   1.0000   1.0000   1.0000   1.0000
     1.0000   1.0000   1.0000   1.0000   1.0000   1.0000   1.0000   1.0000
     1.0000   1.0000   1.0000   1.0000   1.0000   1.0000   1.0000   1.0000
     1.0000   1.0000   1.0000   1.0000   1.0000   1.0000   1.0000   1.0000
     1.0000   1.0000   1.0000   1.0000   1.0000   1.0000   1.0000   1.0000
     1.0000   1.0000   1.0000   1.0000   1.0000   1.0000   1.0000   1.0000
     1.0000   1.0000   1.0000   1.0000   1.0000   1.0000   1.0000   1.0000
     1.0000   1.0000   1.0000   1.0000   1.0000   1.0000   1.0000   1.0000
     1.0000   1.0000   1.0000   1.0000   1.0000   1.0000   1.0000   1.0000
     1.0000   1.0000   1.0000   1.0000   1.0000   1.0000   1.0000   1.0000
     1.0000   1.0000   1.0000   1.0000   1.0000   1.0000   1.0000   1.0000
     1.0000   1.0000   1.0000   1.0000   1.0000   1.0000   1.0000   1.0000
     1.0000   1.0000   1.0000   1.0000   1.0000   1.0000   1.0000   1.0000
     1.0000   1.0000   1.0000   1.0000   1.0000   1.0000   1.0000   1.0000

          k = 0.3000 0.0984-0.3448 ( 65524 PWs)   bands (ev):

   -18.8105 -18.8105 -18.8105 -18.8105 -18.8103 -18.8103 -18.8103 -18.8103
   -18.8089 -18.8089 -18.8089 -18.8089 -18.8086 -18.8086 -18.8086 -18.8086
   -18.2048 -18.2048 -18.2048 -18.2048 -18.2043 -18.2043 -18.2043 -18.2043
   -17.7724 -17.7724 -17.7724 -17.7724 -17.7723 -17.7723 -17.7723 -17.7723
   -17.7716 -17.7716 -17.7716 -17.7716 -17.7709 -17.7709 -17.7709 -17.7709
   -17.7633 -17.7633 -17.7633 -17.7633 -17.7632 -17.7632 -17.7632 -17.7632
    -9.1319  -9.1319  -9.1318  -9.1318  -8.9663  -8.9663  -8.9663  -8.9663
    -8.8077  -8.8077  -8.8077  -8.8077  -8.7568  -8.7568  -8.7566  -8.7566
    -8.7409  -8.7409  -8.7408  -8.7408  -8.6894  -8.6894  -8.6893  -8.6893
    -6.1455  -6.1455  -6.1452  -6.1452  -6.1400  -6.1400  -6.1399  -6.1399
    -4.5297  -4.5297  -4.5286  -4.5286  -4.5175  -4.5175  -4.5173  -4.5173
    -4.5111  -4.5111  -4.5106  -4.5106  -4.5051  -4.5051  -4.5044  -4.5044
    -3.9641  -3.9641  -3.9640  -3.9640  -3.3298  -3.3298  -3.3298  -3.3298
    -0.5101  -0.5101  -0.5094  -0.5094  -0.1879  -0.1879  -0.1832  -0.1832
     0.0450   0.0450   0.0459   0.0459   0.2586   0.2586   0.2626   0.2626
     0.3128   0.3128   0.3185   0.3185   0.6805   0.6805   0.6839   0.6839
     0.9235   0.9235   0.9285   0.9285   1.0160   1.0160   1.0218   1.0218
     1.1637   1.1637   1.1743   1.1743   1.2282   1.2282   1.2383   1.2383
     1.3338   1.3338   1.3416   1.3416   1.4605   1.4605   1.4717   1.4717
     1.7756   1.7756   1.7816   1.7816   1.8547   1.8547   1.8661   1.8661
     1.9896   1.9896   1.9977   1.9977   2.0564   2.0564   2.0574   2.0574
     2.1846   2.1846   2.1886   2.1886   2.4166   2.4166   2.4296   2.4296

     occupation numbers 
     1.0000   1.0000   1.0000   1.0000   1.0000   1.0000   1.0000   1.0000
     1.0000   1.0000   1.0000   1.0000   1.0000   1.0000   1.0000   1.0000
     1.0000   1.0000   1.0000   1.0000   1.0000   1.0000   1.0000   1.0000
     1.0000   1.0000   1.0000   1.0000   1.0000   1.0000   1.0000   1.0000
     1.0000   1.0000   1.0000   1.0000   1.0000   1.0000   1.0000   1.0000
     1.0000   1.0000   1.0000   1.0000   1.0000   1.0000   1.0000   1.0000
     1.0000   1.0000   1.0000   1.0000   1.0000   1.0000   1.0000   1.0000
     1.0000   1.0000   1.0000   1.0000   1.0000   1.0000   1.0000   1.0000
     1.0000   1.0000   1.0000   1.0000   1.0000   1.0000   1.0000   1.0000
     1.0000   1.0000   1.0000   1.0000   1.0000   1.0000   1.0000   1.0000
     1.0000   1.0000   1.0000   1.0000   1.0000   1.0000   1.0000   1.0000
     1.0000   1.0000   1.0000   1.0000   1.0000   1.0000   1.0000   1.0000
     1.0000   1.0000   1.0000   1.0000   1.0000   1.0000   1.0000   1.0000
     1.0000   1.0000   1.0000   1.0000   1.0000   1.0000   1.0000   1.0000
     1.0000   1.0000   1.0000   1.0000   1.0000   1.0000   1.0000   1.0000
     1.0000   1.0000   1.0000   1.0000   1.0000   1.0000   1.0000   1.0000
     1.0000   1.0000   1.0000   1.0000   1.0000   1.0000   1.0000   1.0000
     1.0000   1.0000   1.0000   1.0000   1.0000   1.0000   1.0000   1.0000
     1.0000   1.0000   1.0000   1.0000   1.0000   1.0000   1.0000   1.0000
     1.0000   1.0000   1.0000   1.0000   1.0000   1.0000   1.0000   1.0000
     1.0000   1.0000   1.0000   1.0000   1.0000   1.0000   1.0000   1.0000
     1.0000   1.0000   1.0000   1.0000   1.0000   1.0000   1.0000   1.0000

          k = 0.3000 0.2953 0.0690 ( 65479 PWs)   bands (ev):

   -18.8105 -18.8105 -18.8105 -18.8105 -18.8103 -18.8103 -18.8102 -18.8102
   -18.8089 -18.8089 -18.8088 -18.8088 -18.8087 -18.8087 -18.8086 -18.8086
   -18.2050 -18.2050 -18.2047 -18.2047 -18.2044 -18.2044 -18.2042 -18.2042
   -17.7728 -17.7728 -17.7726 -17.7726 -17.7722 -17.7722 -17.7720 -17.7720
   -17.7714 -17.7714 -17.7713 -17.7713 -17.7710 -17.7710 -17.7709 -17.7709
   -17.7633 -17.7633 -17.7633 -17.7633 -17.7632 -17.7632 -17.7632 -17.7632
    -9.1566  -9.1566  -9.0378  -9.0378  -8.9962  -8.9962  -8.8764  -8.8764
    -8.8441  -8.8441  -8.8348  -8.8348  -8.8285  -8.8285  -8.8158  -8.8158
    -8.7518  -8.7518  -8.7275  -8.7275  -8.6841  -8.6841  -8.6508  -8.6508
    -6.1448  -6.1448  -6.1419  -6.1419  -6.1405  -6.1405  -6.1377  -6.1377
    -4.5299  -4.5299  -4.5224  -4.5224  -4.5176  -4.5176  -4.5150  -4.5150
    -4.5118  -4.5118  -4.5051  -4.5051  -4.5022  -4.5022  -4.5004  -4.5004
    -4.0845  -4.0845  -3.6939  -3.6939  -3.5244  -3.5244  -3.0971  -3.0971
    -0.7085  -0.7085  -0.5798  -0.5798  -0.5448  -0.5448  -0.5000  -0.5000
    -0.0676  -0.0676  -0.0097  -0.0097   0.2276   0.2276   0.3147   0.3147
     0.3368   0.3368   0.5980   0.5980   0.6329   0.6329   0.8332   0.8332
     0.9219   0.9219   0.9914   0.9914   1.0336   1.0336   1.0883   1.0883
     1.2226   1.2226   1.2676   1.2676   1.3172   1.3172   1.3385   1.3385
     1.4146   1.4146   1.4523   1.4523   1.4771   1.4771   1.5070   1.5070
     1.7085   1.7085   1.7416   1.7416   1.8015   1.8015   1.8546   1.8546
     1.8901   1.8901   1.9546   1.9546   2.0390   2.0390   2.0738   2.0738
     2.1514   2.1514   2.3768   2.3768   2.5353   2.5353   2.9227   2.9227

     occupation numbers 
     1.0000   1.0000   1.0000   1.0000   1.0000   1.0000   1.0000   1.0000
     1.0000   1.0000   1.0000   1.0000   1.0000   1.0000   1.0000   1.0000
     1.0000   1.0000   1.0000   1.0000   1.0000   1.0000   1.0000   1.0000
     1.0000   1.0000   1.0000   1.0000   1.0000   1.0000   1.0000   1.0000
     1.0000   1.0000   1.0000   1.0000   1.0000   1.0000   1.0000   1.0000
     1.0000   1.0000   1.0000   1.0000   1.0000   1.0000   1.0000   1.0000
     1.0000   1.0000   1.0000   1.0000   1.0000   1.0000   1.0000   1.0000
     1.0000   1.0000   1.0000   1.0000   1.0000   1.0000   1.0000   1.0000
     1.0000   1.0000   1.0000   1.0000   1.0000   1.0000   1.0000   1.0000
     1.0000   1.0000   1.0000   1.0000   1.0000   1.0000   1.0000   1.0000
     1.0000   1.0000   1.0000   1.0000   1.0000   1.0000   1.0000   1.0000
     1.0000   1.0000   1.0000   1.0000   1.0000   1.0000   1.0000   1.0000
     1.0000   1.0000   1.0000   1.0000   1.0000   1.0000   1.0000   1.0000
     1.0000   1.0000   1.0000   1.0000   1.0000   1.0000   1.0000   1.0000
     1.0000   1.0000   1.0000   1.0000   1.0000   1.0000   1.0000   1.0000
     1.0000   1.0000   1.0000   1.0000   1.0000   1.0000   1.0000   1.0000
     1.0000   1.0000   1.0000   1.0000   1.0000   1.0000   1.0000   1.0000
     1.0000   1.0000   1.0000   1.0000   1.0000   1.0000   1.0000   1.0000
     1.0000   1.0000   1.0000   1.0000   1.0000   1.0000   1.0000   1.0000
     1.0000   1.0000   1.0000   1.0000   1.0000   1.0000   1.0000   1.0000
     1.0000   1.0000   1.0000   1.0000   1.0000   1.0000   1.0000   1.0000
     1.0000   1.0000   1.0000   1.0000   1.0000   1.0000   1.0000   1.0000

          k = 0.3000 0.2953 0.2069 ( 65488 PWs)   bands (ev):

   -18.8105 -18.8105 -18.8104 -18.8104 -18.8104 -18.8104 -18.8103 -18.8103
   -18.8089 -18.8089 -18.8088 -18.8088 -18.8087 -18.8087 -18.8087 -18.8087
   -18.2049 -18.2049 -18.2047 -18.2047 -18.2044 -18.2044 -18.2042 -18.2042
   -17.7726 -17.7726 -17.7725 -17.7725 -17.7723 -17.7723 -17.7721 -17.7721
   -17.7714 -17.7714 -17.7713 -17.7713 -17.7710 -17.7710 -17.7710 -17.7710
   -17.7633 -17.7633 -17.7632 -17.7632 -17.7632 -17.7632 -17.7632 -17.7632
    -9.1353  -9.1353  -9.0437  -9.0437  -9.0182  -9.0182  -8.9323  -8.9323
    -8.8335  -8.8335  -8.8322  -8.8322  -8.8003  -8.8003  -8.7678  -8.7678
    -8.7555  -8.7555  -8.7190  -8.7190  -8.6981  -8.6981  -8.6685  -8.6685
    -6.1443  -6.1443  -6.1425  -6.1425  -6.1399  -6.1399  -6.1382  -6.1382
    -4.5277  -4.5277  -4.5224  -4.5224  -4.5161  -4.5161  -4.5140  -4.5140
    -4.5109  -4.5109  -4.5076  -4.5076  -4.5045  -4.5045  -4.5020  -4.5020
    -3.9957  -3.9957  -3.6555  -3.6555  -3.6046  -3.6046  -3.2450  -3.2450
    -0.6265  -0.6265  -0.5415  -0.5415  -0.3493  -0.3493  -0.3268  -0.3268
    -0.0513  -0.0513  -0.0055  -0.0055   0.1798   0.1798   0.3223   0.3223
     0.3543   0.3543   0.5708   0.5708   0.5998   0.5998   0.7591   0.7591
     0.9270   0.9270   0.9564   0.9564   0.9800   0.9800   1.0544   1.0544
     1.1915   1.1915   1.2351   1.2351   1.2724   1.2724   1.2938   1.2938
     1.3496   1.3496   1.3788   1.3788   1.4831   1.4831   1.4962   1.4962
     1.7312   1.7312   1.7602   1.7602   1.8370   1.8370   1.8733   1.8733
     1.9003   1.9003   1.9930   1.9930   2.0400   2.0400   2.0685   2.0685
     2.1170   2.1170   2.3095   2.3095   2.4001   2.4001   2.6445   2.6445

     occupation numbers 
     1.0000   1.0000   1.0000   1.0000   1.0000   1.0000   1.0000   1.0000
     1.0000   1.0000   1.0000   1.0000   1.0000   1.0000   1.0000   1.0000
     1.0000   1.0000   1.0000   1.0000   1.0000   1.0000   1.0000   1.0000
     1.0000   1.0000   1.0000   1.0000   1.0000   1.0000   1.0000   1.0000
     1.0000   1.0000   1.0000   1.0000   1.0000   1.0000   1.0000   1.0000
     1.0000   1.0000   1.0000   1.0000   1.0000   1.0000   1.0000   1.0000
     1.0000   1.0000   1.0000   1.0000   1.0000   1.0000   1.0000   1.0000
     1.0000   1.0000   1.0000   1.0000   1.0000   1.0000   1.0000   1.0000
     1.0000   1.0000   1.0000   1.0000   1.0000   1.0000   1.0000   1.0000
     1.0000   1.0000   1.0000   1.0000   1.0000   1.0000   1.0000   1.0000
     1.0000   1.0000   1.0000   1.0000   1.0000   1.0000   1.0000   1.0000
     1.0000   1.0000   1.0000   1.0000   1.0000   1.0000   1.0000   1.0000
     1.0000   1.0000   1.0000   1.0000   1.0000   1.0000   1.0000   1.0000
     1.0000   1.0000   1.0000   1.0000   1.0000   1.0000   1.0000   1.0000
     1.0000   1.0000   1.0000   1.0000   1.0000   1.0000   1.0000   1.0000
     1.0000   1.0000   1.0000   1.0000   1.0000   1.0000   1.0000   1.0000
     1.0000   1.0000   1.0000   1.0000   1.0000   1.0000   1.0000   1.0000
     1.0000   1.0000   1.0000   1.0000   1.0000   1.0000   1.0000   1.0000
     1.0000   1.0000   1.0000   1.0000   1.0000   1.0000   1.0000   1.0000
     1.0000   1.0000   1.0000   1.0000   1.0000   1.0000   1.0000   1.0000
     1.0000   1.0000   1.0000   1.0000   1.0000   1.0000   1.0000   1.0000
     1.0000   1.0000   1.0000   1.0000   1.0000   1.0000   1.0000   1.0000

          k = 0.3000 0.2953-0.3448 ( 65490 PWs)   bands (ev):

   -18.8104 -18.8104 -18.8104 -18.8104 -18.8104 -18.8104 -18.8104 -18.8104
   -18.8088 -18.8088 -18.8088 -18.8088 -18.8087 -18.8087 -18.8087 -18.8087
   -18.2048 -18.2048 -18.2048 -18.2048 -18.2043 -18.2043 -18.2043 -18.2043
   -17.7724 -17.7724 -17.7724 -17.7724 -17.7723 -17.7723 -17.7723 -17.7723
   -17.7714 -17.7714 -17.7714 -17.7714 -17.7710 -17.7710 -17.7710 -17.7710
   -17.7633 -17.7633 -17.7633 -17.7633 -17.7632 -17.7632 -17.7632 -17.7632
    -9.0956  -9.0956  -9.0955  -9.0955  -8.9817  -8.9817  -8.9816  -8.9816
    -8.8326  -8.8326  -8.8325  -8.8325  -8.7698  -8.7698  -8.7698  -8.7698
    -8.7259  -8.7259  -8.7259  -8.7259  -8.6969  -8.6969  -8.6967  -8.6967
    -6.1437  -6.1437  -6.1431  -6.1431  -6.1391  -6.1391  -6.1390  -6.1390
    -4.5251  -4.5251  -4.5232  -4.5232  -4.5149  -4.5149  -4.5143  -4.5143
    -4.5097  -4.5097  -4.5081  -4.5081  -4.5062  -4.5062  -4.5042  -4.5042
    -3.8380  -3.8380  -3.8379  -3.8379  -3.4415  -3.4415  -3.4414  -3.4414
    -0.5787  -0.5787  -0.5786  -0.5786  -0.1368  -0.1368  -0.1352  -0.1352
    -0.0045  -0.0045   0.0039   0.0039   0.1883   0.1883   0.1913   0.1913
     0.4441   0.4441   0.4466   0.4466   0.6121   0.6121   0.6137   0.6137
     0.8935   0.8935   0.8985   0.8985   1.0012   1.0012   1.0012   1.0012
     1.2047   1.2047   1.2100   1.2100   1.2631   1.2631   1.2691   1.2691
     1.3359   1.3359   1.3404   1.3404   1.4812   1.4812   1.4933   1.4933
     1.7521   1.7521   1.7553   1.7553   1.8495   1.8495   1.8618   1.8618
     1.9814   1.9814   1.9882   1.9882   2.0298   2.0298   2.0317   2.0317
     2.1692   2.1692   2.1722   2.1722   2.4608   2.4608   2.4728   2.4728

     occupation numbers 
     1.0000   1.0000   1.0000   1.0000   1.0000   1.0000   1.0000   1.0000
     1.0000   1.0000   1.0000   1.0000   1.0000   1.0000   1.0000   1.0000
     1.0000   1.0000   1.0000   1.0000   1.0000   1.0000   1.0000   1.0000
     1.0000   1.0000   1.0000   1.0000   1.0000   1.0000   1.0000   1.0000
     1.0000   1.0000   1.0000   1.0000   1.0000   1.0000   1.0000   1.0000
     1.0000   1.0000   1.0000   1.0000   1.0000   1.0000   1.0000   1.0000
     1.0000   1.0000   1.0000   1.0000   1.0000   1.0000   1.0000   1.0000
     1.0000   1.0000   1.0000   1.0000   1.0000   1.0000   1.0000   1.0000
     1.0000   1.0000   1.0000   1.0000   1.0000   1.0000   1.0000   1.0000
     1.0000   1.0000   1.0000   1.0000   1.0000   1.0000   1.0000   1.0000
     1.0000   1.0000   1.0000   1.0000   1.0000   1.0000   1.0000   1.0000
     1.0000   1.0000   1.0000   1.0000   1.0000   1.0000   1.0000   1.0000
     1.0000   1.0000   1.0000   1.0000   1.0000   1.0000   1.0000   1.0000
     1.0000   1.0000   1.0000   1.0000   1.0000   1.0000   1.0000   1.0000
     1.0000   1.0000   1.0000   1.0000   1.0000   1.0000   1.0000   1.0000
     1.0000   1.0000   1.0000   1.0000   1.0000   1.0000   1.0000   1.0000
     1.0000   1.0000   1.0000   1.0000   1.0000   1.0000   1.0000   1.0000
     1.0000   1.0000   1.0000   1.0000   1.0000   1.0000   1.0000   1.0000
     1.0000   1.0000   1.0000   1.0000   1.0000   1.0000   1.0000   1.0000
     1.0000   1.0000   1.0000   1.0000   1.0000   1.0000   1.0000   1.0000
     1.0000   1.0000   1.0000   1.0000   1.0000   1.0000   1.0000   1.0000
     1.0000   1.0000   1.0000   1.0000   1.0000   1.0000   1.0000   1.0000

          k = 0.3000-0.4922 0.0690 ( 65474 PWs)   bands (ev):

   -18.8105 -18.8105 -18.8105 -18.8105 -18.8103 -18.8103 -18.8103 -18.8103
   -18.8088 -18.8088 -18.8088 -18.8088 -18.8087 -18.8087 -18.8087 -18.8087
   -18.2048 -18.2048 -18.2048 -18.2048 -18.2043 -18.2043 -18.2043 -18.2043
   -17.7727 -17.7727 -17.7727 -17.7727 -17.7721 -17.7721 -17.7721 -17.7721
   -17.7712 -17.7712 -17.7712 -17.7712 -17.7711 -17.7711 -17.7711 -17.7711
   -17.7633 -17.7633 -17.7633 -17.7633 -17.7632 -17.7632 -17.7632 -17.7632
    -9.0959  -9.0959  -9.0958  -9.0958  -8.9307  -8.9307  -8.9305  -8.9305
    -8.8420  -8.8420  -8.8418  -8.8418  -8.8036  -8.8036  -8.8034  -8.8034
    -8.7785  -8.7785  -8.7785  -8.7785  -8.6578  -8.6578  -8.6578  -8.6578
    -6.1421  -6.1421  -6.1420  -6.1420  -6.1386  -6.1386  -6.1385  -6.1385
    -4.5234  -4.5234  -4.5228  -4.5228  -4.5165  -4.5165  -4.5150  -4.5150
    -4.5065  -4.5065  -4.5054  -4.5054  -4.5018  -4.5018  -4.5005  -4.5005
    -3.8861  -3.8861  -3.8858  -3.8858  -3.3082  -3.3082  -3.3081  -3.3081
    -0.6443  -0.6443  -0.6425  -0.6425  -0.4004  -0.4004  -0.3976  -0.3976
    -0.3386  -0.3386  -0.3364  -0.3364   0.3044   0.3044   0.3088   0.3088
     0.5518   0.5518   0.5538   0.5538   0.8040   0.8040   0.8080   0.8080
     0.9483   0.9483   0.9555   0.9555   1.0693   1.0693   1.0872   1.0872
     1.2466   1.2466   1.2627   1.2627   1.2918   1.2918   1.3025   1.3025
     1.3995   1.3995   1.4252   1.4252   1.5007   1.5007   1.5109   1.5109
     1.7389   1.7389   1.7438   1.7438   1.7792   1.7792   1.7867   1.7867
     1.8847   1.8847   1.9135   1.9135   2.0855   2.0855   2.0961   2.0961
     2.1836   2.1836   2.1861   2.1861   2.7195   2.7195   2.7319   2.7319

     occupation numbers 
     1.0000   1.0000   1.0000   1.0000   1.0000   1.0000   1.0000   1.0000
     1.0000   1.0000   1.0000   1.0000   1.0000   1.0000   1.0000   1.0000
     1.0000   1.0000   1.0000   1.0000   1.0000   1.0000   1.0000   1.0000
     1.0000   1.0000   1.0000   1.0000   1.0000   1.0000   1.0000   1.0000
     1.0000   1.0000   1.0000   1.0000   1.0000   1.0000   1.0000   1.0000
     1.0000   1.0000   1.0000   1.0000   1.0000   1.0000   1.0000   1.0000
     1.0000   1.0000   1.0000   1.0000   1.0000   1.0000   1.0000   1.0000
     1.0000   1.0000   1.0000   1.0000   1.0000   1.0000   1.0000   1.0000
     1.0000   1.0000   1.0000   1.0000   1.0000   1.0000   1.0000   1.0000
     1.0000   1.0000   1.0000   1.0000   1.0000   1.0000   1.0000   1.0000
     1.0000   1.0000   1.0000   1.0000   1.0000   1.0000   1.0000   1.0000
     1.0000   1.0000   1.0000   1.0000   1.0000   1.0000   1.0000   1.0000
     1.0000   1.0000   1.0000   1.0000   1.0000   1.0000   1.0000   1.0000
     1.0000   1.0000   1.0000   1.0000   1.0000   1.0000   1.0000   1.0000
     1.0000   1.0000   1.0000   1.0000   1.0000   1.0000   1.0000   1.0000
     1.0000   1.0000   1.0000   1.0000   1.0000   1.0000   1.0000   1.0000
     1.0000   1.0000   1.0000   1.0000   1.0000   1.0000   1.0000   1.0000
     1.0000   1.0000   1.0000   1.0000   1.0000   1.0000   1.0000   1.0000
     1.0000   1.0000   1.0000   1.0000   1.0000   1.0000   1.0000   1.0000
     1.0000   1.0000   1.0000   1.0000   1.0000   1.0000   1.0000   1.0000
     1.0000   1.0000   1.0000   1.0000   1.0000   1.0000   1.0000   1.0000
     1.0000   1.0000   1.0000   1.0000   1.0000   1.0000   1.0000   1.0000

          k = 0.3000-0.4922 0.2069 ( 65508 PWs)   bands (ev):

   -18.8105 -18.8105 -18.8105 -18.8105 -18.8103 -18.8103 -18.8103 -18.8103
   -18.8088 -18.8088 -18.8088 -18.8088 -18.8087 -18.8087 -18.8087 -18.8087
   -18.2048 -18.2048 -18.2048 -18.2048 -18.2043 -18.2043 -18.2043 -18.2043
   -17.7726 -17.7726 -17.7726 -17.7726 -17.7722 -17.7722 -17.7722 -17.7722
   -17.7712 -17.7712 -17.7712 -17.7712 -17.7711 -17.7711 -17.7711 -17.7711
   -17.7633 -17.7633 -17.7633 -17.7633 -17.7632 -17.7632 -17.7632 -17.7632
    -9.0750  -9.0750  -9.0748  -9.0748  -8.9831  -8.9831  -8.9829  -8.9829
    -8.8200  -8.8200  -8.8196  -8.8196  -8.8058  -8.8058  -8.8055  -8.8055
    -8.7495  -8.7495  -8.7494  -8.7494  -8.6754  -8.6754  -8.6752  -8.6752
    -6.1422  -6.1422  -6.1421  -6.1421  -6.1386  -6.1386  -6.1384  -6.1384
    -4.5224  -4.5224  -4.5211  -4.5211  -4.5159  -4.5159  -4.5129  -4.5129
    -4.5080  -4.5080  -4.5061  -4.5061  -4.5047  -4.5047  -4.5019  -4.5019
    -3.7969  -3.7969  -3.7965  -3.7965  -3.4470  -3.4470  -3.4468  -3.4468
    -0.5037  -0.5037  -0.4960  -0.4960  -0.3776  -0.3776  -0.3739  -0.3739
    -0.2480  -0.2480  -0.2343  -0.2343   0.2817   0.2817   0.2937   0.2937
     0.5463   0.5463   0.5528   0.5528   0.7049   0.7049   0.7052   0.7052
     0.9337   0.9337   0.9484   0.9484   1.0015   1.0015   1.0488   1.0488
     1.2292   1.2292   1.2388   1.2388   1.2759   1.2759   1.2968   1.2968
     1.3523   1.3523   1.3961   1.3961   1.4438   1.4438   1.4673   1.4673
     1.7560   1.7560   1.7651   1.7651   1.8278   1.8278   1.8345   1.8345
     1.8904   1.8904   1.9697   1.9697   2.0435   2.0435   2.0815   2.0815
     2.2057   2.2057   2.2060   2.2060   2.4533   2.4533   2.4784   2.4784

     occupation numbers 
     1.0000   1.0000   1.0000   1.0000   1.0000   1.0000   1.0000   1.0000
     1.0000   1.0000   1.0000   1.0000   1.0000   1.0000   1.0000   1.0000
     1.0000   1.0000   1.0000   1.0000   1.0000   1.0000   1.0000   1.0000
     1.0000   1.0000   1.0000   1.0000   1.0000   1.0000   1.0000   1.0000
     1.0000   1.0000   1.0000   1.0000   1.0000   1.0000   1.0000   1.0000
     1.0000   1.0000   1.0000   1.0000   1.0000   1.0000   1.0000   1.0000
     1.0000   1.0000   1.0000   1.0000   1.0000   1.0000   1.0000   1.0000
     1.0000   1.0000   1.0000   1.0000   1.0000   1.0000   1.0000   1.0000
     1.0000   1.0000   1.0000   1.0000   1.0000   1.0000   1.0000   1.0000
     1.0000   1.0000   1.0000   1.0000   1.0000   1.0000   1.0000   1.0000
     1.0000   1.0000   1.0000   1.0000   1.0000   1.0000   1.0000   1.0000
     1.0000   1.0000   1.0000   1.0000   1.0000   1.0000   1.0000   1.0000
     1.0000   1.0000   1.0000   1.0000   1.0000   1.0000   1.0000   1.0000
     1.0000   1.0000   1.0000   1.0000   1.0000   1.0000   1.0000   1.0000
     1.0000   1.0000   1.0000   1.0000   1.0000   1.0000   1.0000   1.0000
     1.0000   1.0000   1.0000   1.0000   1.0000   1.0000   1.0000   1.0000
     1.0000   1.0000   1.0000   1.0000   1.0000   1.0000   1.0000   1.0000
     1.0000   1.0000   1.0000   1.0000   1.0000   1.0000   1.0000   1.0000
     1.0000   1.0000   1.0000   1.0000   1.0000   1.0000   1.0000   1.0000
     1.0000   1.0000   1.0000   1.0000   1.0000   1.0000   1.0000   1.0000
     1.0000   1.0000   1.0000   1.0000   1.0000   1.0000   1.0000   1.0000
     1.0000   1.0000   1.0000   1.0000   1.0000   1.0000   1.0000   1.0000

          k = 0.3000-0.4922-0.3448 ( 65440 PWs)   bands (ev):

   -18.8104 -18.8104 -18.8104 -18.8104 -18.8104 -18.8104 -18.8104 -18.8104
   -18.8088 -18.8088 -18.8088 -18.8088 -18.8087 -18.8087 -18.8087 -18.8087
   -18.2047 -18.2047 -18.2047 -18.2047 -18.2044 -18.2044 -18.2044 -18.2044
   -17.7724 -17.7724 -17.7724 -17.7724 -17.7724 -17.7724 -17.7724 -17.7724
   -17.7712 -17.7712 -17.7712 -17.7712 -17.7711 -17.7711 -17.7711 -17.7711
   -17.7632 -17.7632 -17.7632 -17.7632 -17.7632 -17.7632 -17.7632 -17.7632
    -9.0376  -9.0376  -9.0376  -9.0376  -9.0332  -9.0332  -9.0332  -9.0332
    -8.8130  -8.8130  -8.8130  -8.8130  -8.8079  -8.8079  -8.8079  -8.8079
[...]
     1.4126   1.4126   1.4126   1.4126   1.5039   1.5039   1.5039   1.5039
     1.7150   1.7150   1.7150   1.7150   1.7715   1.7715   1.7715   1.7715
     1.8989   1.8989   1.8989   1.8989   2.0687   2.0687   2.0687   2.0687
     2.3156   2.3156   2.3156   2.3156   2.6006   2.6006   2.6006   2.6006

     occupation numbers 
     1.0000   1.0000   1.0000   1.0000   1.0000   1.0000   1.0000   1.0000
     1.0000   1.0000   1.0000   1.0000   1.0000   1.0000   1.0000   1.0000
     1.0000   1.0000   1.0000   1.0000   1.0000   1.0000   1.0000   1.0000
     1.0000   1.0000   1.0000   1.0000   1.0000   1.0000   1.0000   1.0000
     1.0000   1.0000   1.0000   1.0000   1.0000   1.0000   1.0000   1.0000
     1.0000   1.0000   1.0000   1.0000   1.0000   1.0000   1.0000   1.0000
     1.0000   1.0000   1.0000   1.0000   1.0000   1.0000   1.0000   1.0000
     1.0000   1.0000   1.0000   1.0000   1.0000   1.0000   1.0000   1.0000
     1.0000   1.0000   1.0000   1.0000   1.0000   1.0000   1.0000   1.0000
     1.0000   1.0000   1.0000   1.0000   1.0000   1.0000   1.0000   1.0000
     1.0000   1.0000   1.0000   1.0000   1.0000   1.0000   1.0000   1.0000
     1.0000   1.0000   1.0000   1.0000   1.0000   1.0000   1.0000   1.0000
     1.0000   1.0000   1.0000   1.0000   1.0000   1.0000   1.0000   1.0000
     1.0000   1.0000   1.0000   1.0000   1.0000   1.0000   1.0000   1.0000
     1.0000   1.0000   1.0000   1.0000   1.0000   1.0000   1.0000   1.0000
     1.0000   1.0000   1.0000   1.0000   1.0000   1.0000   1.0000   1.0000
     1.0000   1.0000   1.0000   1.0000   1.0000   1.0000   1.0000   1.0000
     1.0000   1.0000   1.0000   1.0000   1.0000   1.0000   1.0000   1.0000
     1.0000   1.0000   1.0000   1.0000   1.0000   1.0000   1.0000   1.0000
     1.0000   1.0000   1.0000   1.0000   1.0000   1.0000   1.0000   1.0000
     1.0000   1.0000   1.0000   1.0000   1.0000   1.0000   1.0000   1.0000
     1.0000   1.0000   1.0000   1.0000   1.0000   1.0000   1.0000   1.0000

          k =-0.5000-0.4922-0.3448 ( 65448 PWs)   bands (ev):

   -18.8104 -18.8104 -18.8104 -18.8104 -18.8104 -18.8104 -18.8104 -18.8104
   -18.8088 -18.8088 -18.8088 -18.8088 -18.8087 -18.8087 -18.8087 -18.8087
   -18.2045 -18.2045 -18.2045 -18.2045 -18.2045 -18.2045 -18.2045 -18.2045
   -17.7724 -17.7724 -17.7724 -17.7724 -17.7724 -17.7724 -17.7724 -17.7724
   -17.7711 -17.7711 -17.7711 -17.7711 -17.7711 -17.7711 -17.7711 -17.7711
   -17.7632 -17.7632 -17.7632 -17.7632 -17.7632 -17.7632 -17.7632 -17.7632
    -9.0160  -9.0160  -9.0160  -9.0160  -9.0160  -9.0160  -9.0160  -9.0160
    -8.8379  -8.8379  -8.8379  -8.8379  -8.8377  -8.8377  -8.8377  -8.8377
    -8.7038  -8.7038  -8.7038  -8.7038  -8.7038  -8.7038  -8.7038  -8.7038
    -6.1392  -6.1392  -6.1392  -6.1392  -6.1390  -6.1390  -6.1390  -6.1390
    -4.5141  -4.5141  -4.5141  -4.5141  -4.5124  -4.5124  -4.5124  -4.5124
    -4.5074  -4.5074  -4.5074  -4.5074  -4.5051  -4.5051  -4.5051  -4.5051
    -3.6137  -3.6137  -3.6137  -3.6137  -3.6109  -3.6109  -3.6109  -3.6109
    -0.5344  -0.5344  -0.5344  -0.5344  -0.5313  -0.5313  -0.5313  -0.5313
     0.0984   0.0984   0.0984   0.0984   0.1110   0.1110   0.1110   0.1110
     0.5810   0.5810   0.5810   0.5810   0.5920   0.5920   0.5920   0.5920
     0.9643   0.9643   0.9643   0.9643   0.9802   0.9802   0.9802   0.9802
     1.2615   1.2615   1.2615   1.2615   1.2683   1.2683   1.2683   1.2683
     1.4455   1.4455   1.4455   1.4455   1.4518   1.4518   1.4518   1.4518
     1.7420   1.7420   1.7420   1.7420   1.7575   1.7575   1.7575   1.7575
     1.9880   1.9880   1.9880   1.9880   1.9910   1.9910   1.9910   1.9910
     2.3979   2.3979   2.3979   2.3979   2.4248   2.4248   2.4248   2.4248

     occupation numbers 
     1.0000   1.0000   1.0000   1.0000   1.0000   1.0000   1.0000   1.0000
     1.0000   1.0000   1.0000   1.0000   1.0000   1.0000   1.0000   1.0000
     1.0000   1.0000   1.0000   1.0000   1.0000   1.0000   1.0000   1.0000
     1.0000   1.0000   1.0000   1.0000   1.0000   1.0000   1.0000   1.0000
     1.0000   1.0000   1.0000   1.0000   1.0000   1.0000   1.0000   1.0000
     1.0000   1.0000   1.0000   1.0000   1.0000   1.0000   1.0000   1.0000
     1.0000   1.0000   1.0000   1.0000   1.0000   1.0000   1.0000   1.0000
     1.0000   1.0000   1.0000   1.0000   1.0000   1.0000   1.0000   1.0000
     1.0000   1.0000   1.0000   1.0000   1.0000   1.0000   1.0000   1.0000
     1.0000   1.0000   1.0000   1.0000   1.0000   1.0000   1.0000   1.0000
     1.0000   1.0000   1.0000   1.0000   1.0000   1.0000   1.0000   1.0000
     1.0000   1.0000   1.0000   1.0000   1.0000   1.0000   1.0000   1.0000
     1.0000   1.0000   1.0000   1.0000   1.0000   1.0000   1.0000   1.0000
     1.0000   1.0000   1.0000   1.0000   1.0000   1.0000   1.0000   1.0000
     1.0000   1.0000   1.0000   1.0000   1.0000   1.0000   1.0000   1.0000
     1.0000   1.0000   1.0000   1.0000   1.0000   1.0000   1.0000   1.0000
     1.0000   1.0000   1.0000   1.0000   1.0000   1.0000   1.0000   1.0000
     1.0000   1.0000   1.0000   1.0000   1.0000   1.0000   1.0000   1.0000
     1.0000   1.0000   1.0000   1.0000   1.0000   1.0000   1.0000   1.0000
     1.0000   1.0000   1.0000   1.0000   1.0000   1.0000   1.0000   1.0000
     1.0000   1.0000   1.0000   1.0000   1.0000   1.0000   1.0000   1.0000
     1.0000   1.0000   1.0000   1.0000   1.0000   1.0000   1.0000   1.0000

     highest occupied level (ev):     3.2412

!    total energy              =   -1268.14563418 Ry
     Harris-Foulkes estimate   =   -1268.14563344 Ry
     estimated scf accuracy    <       0.00000050 Ry

     The total energy is the sum of the following terms:

     one-electron contribution =    -489.57607817 Ry
     hartree contribution      =     314.87455215 Ry
     xc contribution           =    -462.81191836 Ry
     ewald contribution        =    -630.63218980 Ry

     convergence has been achieved in   7 iterations

     Forces acting on atoms (Ry/au):

     atom    1 type  1   force =     0.00023069   -0.00012203   -0.00000000
     atom    2 type  1   force =     0.00023069    0.00012203    0.00000000
     atom    3 type  1   force =    -0.00023069    0.00012203    0.00000000
     atom    4 type  1   force =    -0.00023069   -0.00012203    0.00000000
     atom    5 type  2   force =     0.00000000    0.00000000    0.00000000
     atom    6 type  2   force =     0.00000000    0.00000000    0.00000000
     atom    7 type  2   force =     0.00000000    0.00000000   -0.00000000
     atom    8 type  2   force =     0.00000000   -0.00000000    0.00000000
     atom    9 type  3   force =     0.00000681    0.00070359    0.00030995
     atom   10 type  3   force =    -0.00000681   -0.00070359    0.00030995
     atom   11 type  3   force =     0.00000681    0.00070359   -0.00030995
     atom   12 type  3   force =    -0.00000681   -0.00070359   -0.00030995
     atom   13 type  3   force =    -0.00045761   -0.00007171    0.00000000
     atom   14 type  3   force =     0.00000681   -0.00070359   -0.00030995
     atom   15 type  3   force =     0.00045761   -0.00007171    0.00000000
     atom   16 type  3   force =    -0.00000681    0.00070359    0.00030995
     atom   17 type  3   force =    -0.00000681    0.00070359   -0.00030995
     atom   18 type  3   force =     0.00045761    0.00007171   -0.00000000
     atom   19 type  3   force =    -0.00045761    0.00007171    0.00000000
     atom   20 type  3   force =     0.00000681   -0.00070359    0.00030995
     The non-local contrib.  to forces
     atom    1 type  1   force =    -0.00092315   -0.00480957    0.00000000
     atom    2 type  1   force =    -0.00092315    0.00480957    0.00000000
     atom    3 type  1   force =     0.00092315    0.00480957    0.00000000
     atom    4 type  1   force =     0.00092315   -0.00480957    0.00000000
     atom    5 type  2   force =     0.00000000    0.00000000    0.00000000
     atom    6 type  2   force =     0.00000000    0.00000000    0.00000000
     atom    7 type  2   force =     0.00000000    0.00000000   -0.00000000
     atom    8 type  2   force =     0.00000000    0.00000000   -0.00000000
     atom    9 type  3   force =     0.00805878    0.00754549    0.00462485
     atom   10 type  3   force =    -0.00805878   -0.00754549    0.00462485
     atom   11 type  3   force =     0.00805878    0.00754549   -0.00462485
     atom   12 type  3   force =    -0.00805878   -0.00754549   -0.00462485
     atom   13 type  3   force =    -0.00144608   -0.00330497    0.00000000
     atom   14 type  3   force =     0.00805878   -0.00754549   -0.00462485
     atom   15 type  3   force =     0.00144608   -0.00330497    0.00000000
     atom   16 type  3   force =    -0.00805878    0.00754549    0.00462485
     atom   17 type  3   force =    -0.00805878    0.00754549   -0.00462485
     atom   18 type  3   force =     0.00144608    0.00330497    0.00000000
     atom   19 type  3   force =    -0.00144608    0.00330497   -0.00000000
     atom   20 type  3   force =     0.00805878   -0.00754549    0.00462485
     The ionic contribution  to forces
     atom    1 type  1   force =    -0.15384217   -0.81101301   -0.00000000
     atom    2 type  1   force =    -0.15384217    0.81101301    0.00000000
     atom    3 type  1   force =     0.15384217    0.81101301    0.00000000
     atom    4 type  1   force =     0.15384217   -0.81101301    0.00000000
     atom    5 type  2   force =     0.00000000   -0.00000000   -0.00000000
     atom    6 type  2   force =    -0.00000000   -0.00000000    0.00000000
     atom    7 type  2   force =    -0.00000000    0.00000000   -0.00000000
     atom    8 type  2   force =    -0.00000000   -0.00000000    0.00000000
     atom    9 type  3   force =    -0.70474196   -0.63043970   -0.48733617
     atom   10 type  3   force =     0.70474196    0.63043970   -0.48733617
     atom   11 type  3   force =    -0.70474196   -0.63043970    0.48733617
     atom   12 type  3   force =     0.70474196    0.63043970    0.48733617
     atom   13 type  3   force =    -0.06288103    0.21897472    0.00000000
     atom   14 type  3   force =    -0.70474196    0.63043970    0.48733617
     atom   15 type  3   force =     0.06288103    0.21897472   -0.00000000
     atom   16 type  3   force =     0.70474196   -0.63043970   -0.48733617
     atom   17 type  3   force =     0.70474196   -0.63043970    0.48733617
     atom   18 type  3   force =     0.06288103   -0.21897472   -0.00000000
     atom   19 type  3   force =    -0.06288103   -0.21897472    0.00000000
     atom   20 type  3   force =    -0.70474196    0.63043970   -0.48733617
     The local contribution  to forces
     atom    1 type  1   force =     0.15500233    0.81563448   -0.00000000
     atom    2 type  1   force =     0.15500233   -0.81563448   -0.00000000
     atom    3 type  1   force =    -0.15500233   -0.81563448   -0.00000000
     atom    4 type  1   force =    -0.15500233    0.81563448   -0.00000000
     atom    5 type  2   force =    -0.00000000   -0.00000000   -0.00000000
     atom    6 type  2   force =    -0.00000000   -0.00000000   -0.00000000
     atom    7 type  2   force =    -0.00000000   -0.00000000   -0.00000000
     atom    8 type  2   force =    -0.00000000   -0.00000000   -0.00000000
     atom    9 type  3   force =     0.69771804    0.62465014    0.48345448
     atom   10 type  3   force =    -0.69771804   -0.62465014    0.48345448
     atom   11 type  3   force =     0.69771804    0.62465014   -0.48345448
     atom   12 type  3   force =    -0.69771804   -0.62465014   -0.48345448
     atom   13 type  3   force =     0.06366544   -0.21577189    0.00000000
     atom   14 type  3   force =     0.69771804   -0.62465014   -0.48345448
     atom   15 type  3   force =    -0.06366544   -0.21577189    0.00000000
     atom   16 type  3   force =    -0.69771804    0.62465014    0.48345448
     atom   17 type  3   force =    -0.69771804    0.62465014   -0.48345448
     atom   18 type  3   force =    -0.06366544    0.21577189    0.00000000
     atom   19 type  3   force =     0.06366544    0.21577189   -0.00000000
     atom   20 type  3   force =     0.69771804   -0.62465014    0.48345448
     The core correction contribution to forces
     atom    1 type  1   force =     0.00000320    0.00010409    0.00000000
     atom    2 type  1   force =     0.00000320   -0.00010409   -0.00000000
     atom    3 type  1   force =    -0.00000320   -0.00010409   -0.00000000
     atom    4 type  1   force =    -0.00000320    0.00010409   -0.00000000
     atom    5 type  2   force =    -0.00000000    0.00000000   -0.00000000
     atom    6 type  2   force =    -0.00000000    0.00000000   -0.00000000
     atom    7 type  2   force =    -0.00000000   -0.00000000   -0.00000000
     atom    8 type  2   force =    -0.00000000   -0.00000000   -0.00000000
     atom    9 type  3   force =    -0.00101233   -0.00104177   -0.00046235
     atom   10 type  3   force =     0.00101233    0.00104177   -0.00046235
     atom   11 type  3   force =    -0.00101233   -0.00104177    0.00046235
     atom   12 type  3   force =     0.00101233    0.00104177    0.00046235
     atom   13 type  3   force =     0.00020891    0.00008122    0.00000000
     atom   14 type  3   force =    -0.00101233    0.00104177    0.00046235
     atom   15 type  3   force =    -0.00020891    0.00008122    0.00000000
     atom   16 type  3   force =     0.00101233   -0.00104177   -0.00046235
     atom   17 type  3   force =     0.00101233   -0.00104177    0.00046235
     atom   18 type  3   force =    -0.00020891   -0.00008122    0.00000000
     atom   19 type  3   force =     0.00020891   -0.00008122   -0.00000000
     atom   20 type  3   force =    -0.00101233    0.00104177   -0.00046235
     The Hubbard contrib.    to forces
     atom    1 type  1   force =     0.00000000    0.00000000    0.00000000
     atom    2 type  1   force =     0.00000000    0.00000000    0.00000000
     atom    3 type  1   force =     0.00000000    0.00000000    0.00000000
     atom    4 type  1   force =     0.00000000    0.00000000    0.00000000
     atom    5 type  2   force =     0.00000000    0.00000000    0.00000000
     atom    6 type  2   force =     0.00000000    0.00000000    0.00000000
     atom    7 type  2   force =     0.00000000    0.00000000    0.00000000
     atom    8 type  2   force =     0.00000000    0.00000000    0.00000000
     atom    9 type  3   force =     0.00000000    0.00000000    0.00000000
     atom   10 type  3   force =     0.00000000    0.00000000    0.00000000
     atom   11 type  3   force =     0.00000000    0.00000000    0.00000000
     atom   12 type  3   force =     0.00000000    0.00000000    0.00000000
     atom   13 type  3   force =     0.00000000    0.00000000    0.00000000
     atom   14 type  3   force =     0.00000000    0.00000000    0.00000000
     atom   15 type  3   force =     0.00000000    0.00000000    0.00000000
     atom   16 type  3   force =     0.00000000    0.00000000    0.00000000
     atom   17 type  3   force =     0.00000000    0.00000000    0.00000000
     atom   18 type  3   force =     0.00000000    0.00000000    0.00000000
     atom   19 type  3   force =     0.00000000    0.00000000    0.00000000
     atom   20 type  3   force =     0.00000000    0.00000000    0.00000000
     The SCF correction term to forces
     atom    1 type  1   force =    -0.00000953   -0.00003802   -0.00000000
     atom    2 type  1   force =    -0.00000953    0.00003802   -0.00000000
     atom    3 type  1   force =     0.00000953    0.00003802    0.00000000
     atom    4 type  1   force =     0.00000953   -0.00003802    0.00000000
     atom    5 type  2   force =     0.00000000    0.00000000   -0.00000000
     atom    6 type  2   force =     0.00000000    0.00000000   -0.00000000
     atom    7 type  2   force =     0.00000000   -0.00000000   -0.00000000
     atom    8 type  2   force =    -0.00000000   -0.00000000    0.00000000
     atom    9 type  3   force =    -0.00001572   -0.00001057    0.00002915
     atom   10 type  3   force =     0.00001572    0.00001057    0.00002915
     atom   11 type  3   force =    -0.00001572   -0.00001057   -0.00002915
     atom   12 type  3   force =     0.00001572    0.00001057   -0.00002915
     atom   13 type  3   force =    -0.00000485   -0.00005078   -0.00000000
     atom   14 type  3   force =    -0.00001572    0.00001057   -0.00002915
     atom   15 type  3   force =     0.00000485   -0.00005078    0.00000000
     atom   16 type  3   force =     0.00001572   -0.00001057    0.00002915
     atom   17 type  3   force =     0.00001572   -0.00001057   -0.00002915
     atom   18 type  3   force =     0.00000485    0.00005078    0.00000000
     atom   19 type  3   force =    -0.00000485    0.00005078   -0.00000000
     atom   20 type  3   force =    -0.00001572    0.00001057    0.00002915

     Total force =     0.002421     Total SCF correction =     0.000162


     entering subroutine stress ...

     Message from routine stres:
     noncollinear stress + GGA not implemented

     Writing output data file CsSnI3.save

     init_run     :     82.01s CPU     52.74s WALL (       1 calls)
     electrons    :   1807.28s CPU   1074.70s WALL (       1 calls)
     forces       :    175.52s CPU    164.94s WALL (       1 calls)

     Called by init_run:
     wfcinit      :     72.16s CPU     44.91s WALL (       1 calls)
     wfcinit:atom :      0.28s CPU      0.35s WALL (      27 calls)
     wfcinit:wfcr :     69.71s CPU     41.12s WALL (      27 calls)
     potinit      :      0.87s CPU      0.87s WALL (       1 calls)

     Called by electrons:
     c_bands      :   1516.25s CPU    900.51s WALL (       8 calls)
     sum_band     :    255.12s CPU    146.94s WALL (       8 calls)
     v_of_rho     :      0.72s CPU      0.46s WALL (       8 calls)
     v_h          :      0.07s CPU      0.04s WALL (       8 calls)
     v_xc         :      0.76s CPU      0.50s WALL (       9 calls)
     newd         :     38.12s CPU     26.67s WALL (       8 calls)
     mix_rho      :      0.57s CPU      0.40s WALL (       8 calls)

     Called by c_bands:
     init_us_2    :      7.69s CPU      6.39s WALL (     486 calls)
     cegterg      :   1463.55s CPU    848.72s WALL (     216 calls)

     Called by sum_band:
     sum_band:bec :     28.60s CPU     18.14s WALL (     216 calls)
     addusdens    :     27.77s CPU     20.86s WALL (       8 calls)

     Called by *egterg:
     h_psi        :    998.92s CPU    538.35s WALL (     881 calls)
     s_psi        :    157.57s CPU    104.64s WALL (     881 calls)
     g_psi        :      3.02s CPU      1.93s WALL (     638 calls)
     cdiaghg      :     94.97s CPU     59.14s WALL (     827 calls)
     cegterg:over :    116.39s CPU     76.05s WALL (     638 calls)
     cegterg:upda :     60.94s CPU     32.82s WALL (     638 calls)
     cegterg:last :     28.00s CPU     15.31s WALL (     216 calls)

     Called by h_psi:
     h_psi:pot    :    990.76s CPU    531.43s WALL (     881 calls)
     h_psi:calbec :    167.89s CPU     97.16s WALL (     881 calls)
     vloc_psi     :    672.86s CPU    344.67s WALL (     881 calls)
     add_vuspsi   :    149.99s CPU     89.59s WALL (     881 calls)

     General routines
     calbec       :    252.46s CPU    149.48s WALL (    1205 calls)
     fft          :      2.12s CPU      1.49s WALL (     253 calls)
     ffts         :      0.65s CPU      0.50s WALL (      64 calls)
     fftw         :    719.69s CPU    371.65s WALL (  507756 calls)
     interpolate  :      1.12s CPU      0.78s WALL (      64 calls)

     Parallel routines
     fft_scatter  :    488.45s CPU    254.50s WALL (  508073 calls)

     PWSCF        : 34m45.27s CPU    23m19.17s WALL


   This run was terminated on:  17:47:26  31Jan2021            

=------------------------------------------------------------------------------=
   JOB DONE.
=------------------------------------------------------------------------------=
