
     Program PWSCF v.6.7MaX starts on 15Jan2021 at 12:25: 1 

     This program is part of the open-source Quantum ESPRESSO suite
     for quantum simulation of materials; please cite
         "P. Giannozzi et al., J. Phys.:Condens. Matter 21 395502 (2009);
         "P. Giannozzi et al., J. Phys.:Condens. Matter 29 465901 (2017);
          URL http://www.quantum-espresso.org", 
     in publications or presentations arising from this work. More details at
     http://www.quantum-espresso.org/quote

     Parallel version (MPI), running on    32 processors

     MPI processes distributed on     1 nodes
     R & G space division:  proc/nbgrp/npool/nimage =      32
     Waiting for input...
     Reading input from standard input

     Current dimensions of program PWSCF are:
     Max number of different atomic species (ntypx) = 10
     Max number of k-points (npk) =  40000
     Max angular momentum in pseudopotentials (lmaxx) =  3
     file Sn.pbe-dn-kjpaw_psl.1.0.0.UPF: wavefunction(s)  5S 5P 4D renormalized
     file I.pbe-n-kjpaw_psl.1.0.0.UPF: wavefunction(s)  5S renormalized

     Subspace diagonalization in iterative solution of the eigenvalue problem:
     a serial algorithm will be used

     Message from routine setup:
     using ibrav=0 with symmetry is DISCOURAGED, use correct ibrav instead

     Parallelization info
     --------------------
     sticks:   dense  smooth     PW     G-vecs:    dense   smooth      PW
     Min         144     144     40                 4560     4560     671
     Max         145     145     42                 4563     4563     673
     Sum        4637    4637   1305               145963   145963   21497


     Title: 
     SnI2tetr                                                                   


     bravais-lattice index     =            0
     lattice parameter (alat)  =      14.4199  a.u.
     unit-cell volume          =    1845.1511 (a.u.)^3
     number of atoms/cell      =            6
     number of atomic types    =            2
     number of electrons       =        56.00
     number of Kohn-Sham states=           28
     kinetic-energy cutoff     =      70.0000  Ry
     charge density cutoff     =     280.0000  Ry
     scf convergence threshold =      1.0E-06
     mixing beta               =       0.7000
     number of iterations used =            8  plain     mixing
     Exchange-correlation= SLA  PW   PBX  PBC
                           (   1   4   3   4   0   0   0)

     celldm(1)=  14.419944  celldm(2)=   0.000000  celldm(3)=   0.000000
     celldm(4)=   0.000000  celldm(5)=   0.000000  celldm(6)=   0.000000

     crystal axes: (cart. coord. in units of alat)
               a(1) = (   1.000000   0.000000   0.000000 )  
               a(2) = (   0.000000   1.000000   0.000000 )  
               a(3) = (   0.000000   0.000000   0.615377 )  

     reciprocal axes: (cart. coord. in units 2 pi/alat)
               b(1) = (  1.000000  0.000000  0.000000 )  
               b(2) = (  0.000000  1.000000  0.000000 )  
               b(3) = (  0.000000  0.000000  1.625020 )  


     PseudoPot. # 1 for Sn read from file:
     ../../../pseudo/Sn.pbe-dn-kjpaw_psl.1.0.0.UPF
     MD5 check sum: 67f11dec737d427557dc41ea34975807
     Pseudo is Projector augmented-wave + core cor, Zval = 14.0
     Generated using &quot;atomic&quot; code by A. Dal Corso  v.6.3
     Shape of augmentation charge: PSQ
     Using radial grid of 1243 points,  6 beta functions with: 
                l(1) =   0
                l(2) =   0
                l(3) =   1
                l(4) =   1
                l(5) =   2
                l(6) =   2
     Q(r) pseudized with 0 coefficients 


     PseudoPot. # 2 for I  read from file:
     ../../../pseudo/I.pbe-n-kjpaw_psl.1.0.0.UPF
     MD5 check sum: cd3d296c3308a581e1559a0c8a554cb5
     Pseudo is Projector augmented-wave + core cor, Zval =  7.0
     Generated using &quot;atomic&quot; code by A. Dal Corso  v.6.3
     Shape of augmentation charge: PSQ
     Using radial grid of 1247 points,  6 beta functions with: 
                l(1) =   0
                l(2) =   0
                l(3) =   1
                l(4) =   1
                l(5) =   2
                l(6) =   2
     Q(r) pseudized with 0 coefficients 


     atomic species   valence    mass     pseudopotential
        Sn            14.00   118.70000     Sn( 1.00)
        I              7.00   126.90000     I ( 1.00)

     16 Sym. Ops., with inversion, found ( 8 have fractional translation)


                                    s                        frac. trans.

      isym =  1     identity                                     

 cryst.   s( 1) = (     1          0          0      )
                  (     0          1          0      )
                  (     0          0          1      )

 cart.    s( 1) = (  1.0000000  0.0000000  0.0000000 )
                  (  0.0000000  1.0000000  0.0000000 )
                  (  0.0000000  0.0000000  1.0000000 )


      isym =  2     180 deg rotation - cart. axis [0,0,1]        

 cryst.   s( 2) = (    -1          0          0      )
                  (     0         -1          0      )
                  (     0          0          1      )

 cart.    s( 2) = ( -1.0000000  0.0000000  0.0000000 )
                  (  0.0000000 -1.0000000  0.0000000 )
                  (  0.0000000  0.0000000  1.0000000 )


      isym =  3     180 deg rotation - cart. axis [0,1,0]        

 cryst.   s( 3) = (    -1          0          0      )    f =(  0.5000000 )
                  (     0          1          0      )       ( -0.5000000 )
                  (     0          0         -1      )       (  0.5000000 )

 cart.    s( 3) = ( -1.0000000  0.0000000  0.0000000 )    f =(  0.5000000 )
                  (  0.0000000  1.0000000  0.0000000 )       ( -0.5000000 )
                  (  0.0000000  0.0000000 -1.0000000 )       (  0.3076884 )


      isym =  4     180 deg rotation - cart. axis [1,0,0]        

 cryst.   s( 4) = (     1          0          0      )    f =( -0.5000000 )
                  (     0         -1          0      )       (  0.5000000 )
                  (     0          0         -1      )       (  0.5000000 )

 cart.    s( 4) = (  1.0000000  0.0000000  0.0000000 )    f =( -0.5000000 )
                  (  0.0000000 -1.0000000  0.0000000 )       (  0.5000000 )
                  (  0.0000000  0.0000000 -1.0000000 )       (  0.3076884 )


      isym =  5     180 deg rotation - cart. axis [1,1,0]        

 cryst.   s( 5) = (     0          1          0      )
                  (     1          0          0      )
                  (     0          0         -1      )

 cart.    s( 5) = (  0.0000000  1.0000000  0.0000000 )
                  (  1.0000000  0.0000000  0.0000000 )
                  (  0.0000000  0.0000000 -1.0000000 )


      isym =  6     180 deg rotation - cart. axis [1,-1,0]       

 cryst.   s( 6) = (     0         -1          0      )
                  (    -1          0          0      )
                  (     0          0         -1      )

 cart.    s( 6) = (  0.0000000 -1.0000000  0.0000000 )
                  ( -1.0000000  0.0000000  0.0000000 )
                  (  0.0000000  0.0000000 -1.0000000 )


      isym =  7      90 deg rotation - cart. axis [0,0,-1]       

 cryst.   s( 7) = (     0         -1          0      )    f =( -0.5000000 )
                  (     1          0          0      )       (  0.5000000 )
                  (     0          0          1      )       ( -0.5000000 )

 cart.    s( 7) = (  0.0000000  1.0000000  0.0000000 )    f =( -0.5000000 )
                  ( -1.0000000  0.0000000  0.0000000 )       (  0.5000000 )
                  (  0.0000000  0.0000000  1.0000000 )       ( -0.3076884 )


      isym =  8      90 deg rotation - cart. axis [0,0,1]        

 cryst.   s( 8) = (     0          1          0      )    f =(  0.5000000 )
                  (    -1          0          0      )       ( -0.5000000 )
                  (     0          0          1      )       ( -0.5000000 )

 cart.    s( 8) = (  0.0000000 -1.0000000  0.0000000 )    f =(  0.5000000 )
                  (  1.0000000  0.0000000  0.0000000 )       ( -0.5000000 )
                  (  0.0000000  0.0000000  1.0000000 )       ( -0.3076884 )


      isym =  9     inversion                                    

 cryst.   s( 9) = (    -1          0          0      )
                  (     0         -1          0      )
                  (     0          0         -1      )

 cart.    s( 9) = ( -1.0000000  0.0000000  0.0000000 )
                  (  0.0000000 -1.0000000  0.0000000 )
                  (  0.0000000  0.0000000 -1.0000000 )


      isym = 10     inv. 180 deg rotation - cart. axis [0,0,1]   

 cryst.   s(10) = (     1          0          0      )
                  (     0          1          0      )
                  (     0          0         -1      )

 cart.    s(10) = (  1.0000000  0.0000000  0.0000000 )
                  (  0.0000000  1.0000000  0.0000000 )
                  (  0.0000000  0.0000000 -1.0000000 )


      isym = 11     inv. 180 deg rotation - cart. axis [0,1,0]   

 cryst.   s(11) = (     1          0          0      )    f =( -0.5000000 )
                  (     0         -1          0      )       (  0.5000000 )
                  (     0          0          1      )       ( -0.5000000 )

 cart.    s(11) = (  1.0000000  0.0000000  0.0000000 )    f =( -0.5000000 )
                  (  0.0000000 -1.0000000  0.0000000 )       (  0.5000000 )
                  (  0.0000000  0.0000000  1.0000000 )       ( -0.3076884 )


      isym = 12     inv. 180 deg rotation - cart. axis [1,0,0]   

 cryst.   s(12) = (    -1          0          0      )    f =(  0.5000000 )
                  (     0          1          0      )       ( -0.5000000 )
                  (     0          0          1      )       ( -0.5000000 )

 cart.    s(12) = ( -1.0000000  0.0000000  0.0000000 )    f =(  0.5000000 )
                  (  0.0000000  1.0000000  0.0000000 )       ( -0.5000000 )
                  (  0.0000000  0.0000000  1.0000000 )       ( -0.3076884 )


      isym = 13     inv. 180 deg rotation - cart. axis [1,1,0]   

 cryst.   s(13) = (     0         -1          0      )
                  (    -1          0          0      )
                  (     0          0          1      )

 cart.    s(13) = (  0.0000000 -1.0000000  0.0000000 )
                  ( -1.0000000  0.0000000  0.0000000 )
                  (  0.0000000  0.0000000  1.0000000 )


      isym = 14     inv. 180 deg rotation - cart. axis [1,-1,0]  

 cryst.   s(14) = (     0          1          0      )
                  (     1          0          0      )
                  (     0          0          1      )

 cart.    s(14) = (  0.0000000  1.0000000  0.0000000 )
                  (  1.0000000  0.0000000  0.0000000 )
                  (  0.0000000  0.0000000  1.0000000 )


      isym = 15     inv.  90 deg rotation - cart. axis [0,0,-1]  

 cryst.   s(15) = (     0          1          0      )    f =(  0.5000000 )
                  (    -1          0          0      )       ( -0.5000000 )
                  (     0          0         -1      )       (  0.5000000 )

 cart.    s(15) = (  0.0000000 -1.0000000  0.0000000 )    f =(  0.5000000 )
                  (  1.0000000  0.0000000  0.0000000 )       ( -0.5000000 )
                  (  0.0000000  0.0000000 -1.0000000 )       (  0.3076884 )


      isym = 16     inv.  90 deg rotation - cart. axis [0,0,1]   

 cryst.   s(16) = (     0         -1          0      )    f =( -0.5000000 )
                  (     1          0          0      )       (  0.5000000 )
                  (     0          0         -1      )       (  0.5000000 )

 cart.    s(16) = (  0.0000000  1.0000000  0.0000000 )    f =( -0.5000000 )
                  ( -1.0000000  0.0000000  0.0000000 )       (  0.5000000 )
                  (  0.0000000  0.0000000 -1.0000000 )       (  0.3076884 )


   Cartesian axes

     site n.     atom                  positions (alat units)
         1           Sn  tau(   1) = (   0.0000000   0.0000000   0.0000000  )
         2           Sn  tau(   2) = (   0.5000000   0.5000000   0.3076884  )
         3           I   tau(   3) = (   0.2985210   0.2985210   0.0000000  )
         4           I   tau(   4) = (   0.7014790   0.7014790   0.0000000  )
         5           I   tau(   5) = (   0.7985210   0.2014790   0.3076884  )
         6           I   tau(   6) = (   0.2014790   0.7985210   0.3076884  )

   Crystallographic axes

     site n.     atom                  positions (cryst. coord.)
         1           Sn  tau(   1) = (  0.0000000  0.0000000  0.0000000  )
         2           Sn  tau(   2) = (  0.5000000  0.5000000  0.5000000  )
         3           I   tau(   3) = (  0.2985210  0.2985210  0.0000000  )
         4           I   tau(   4) = (  0.7014790  0.7014790  0.0000000  )
         5           I   tau(   5) = (  0.7985210  0.2014790  0.5000000  )
         6           I   tau(   6) = (  0.2014790  0.7985210  0.5000000  )

     number of k points=    75
                       cart. coord. in units 2pi/alat
        k(    1) = (   0.0000000   0.0000000   0.0000000), wk =   0.0039062
        k(    2) = (   0.0000000   0.0000000   0.2031276), wk =   0.0078125
        k(    3) = (   0.0000000   0.0000000   0.4062551), wk =   0.0078125
        k(    4) = (   0.0000000   0.0000000   0.6093827), wk =   0.0078125
        k(    5) = (   0.0000000   0.0000000  -0.8125102), wk =   0.0039062
        k(    6) = (   0.0000000   0.1250000   0.0000000), wk =   0.0156250
        k(    7) = (   0.0000000   0.1250000   0.2031276), wk =   0.0312500
        k(    8) = (   0.0000000   0.1250000   0.4062551), wk =   0.0312500
        k(    9) = (   0.0000000   0.1250000   0.6093827), wk =   0.0312500
        k(   10) = (   0.0000000   0.1250000  -0.8125102), wk =   0.0156250
        k(   11) = (   0.0000000   0.2500000   0.0000000), wk =   0.0156250
        k(   12) = (   0.0000000   0.2500000   0.2031276), wk =   0.0312500
        k(   13) = (   0.0000000   0.2500000   0.4062551), wk =   0.0312500
        k(   14) = (   0.0000000   0.2500000   0.6093827), wk =   0.0312500
        k(   15) = (   0.0000000   0.2500000  -0.8125102), wk =   0.0156250
        k(   16) = (   0.0000000   0.3750000   0.0000000), wk =   0.0156250
        k(   17) = (   0.0000000   0.3750000   0.2031276), wk =   0.0312500
        k(   18) = (   0.0000000   0.3750000   0.4062551), wk =   0.0312500
        k(   19) = (   0.0000000   0.3750000   0.6093827), wk =   0.0312500
        k(   20) = (   0.0000000   0.3750000  -0.8125102), wk =   0.0156250
        k(   21) = (   0.0000000  -0.5000000   0.0000000), wk =   0.0078125
        k(   22) = (   0.0000000  -0.5000000   0.2031276), wk =   0.0156250
        k(   23) = (   0.0000000  -0.5000000   0.4062551), wk =   0.0156250
        k(   24) = (   0.0000000  -0.5000000   0.6093827), wk =   0.0156250
        k(   25) = (   0.0000000  -0.5000000  -0.8125102), wk =   0.0078125
        k(   26) = (   0.1250000   0.1250000   0.0000000), wk =   0.0156250
        k(   27) = (   0.1250000   0.1250000   0.2031276), wk =   0.0312500
        k(   28) = (   0.1250000   0.1250000   0.4062551), wk =   0.0312500
        k(   29) = (   0.1250000   0.1250000   0.6093827), wk =   0.0312500
        k(   30) = (   0.1250000   0.1250000  -0.8125102), wk =   0.0156250
        k(   31) = (   0.1250000   0.2500000   0.0000000), wk =   0.0312500
        k(   32) = (   0.1250000   0.2500000   0.2031276), wk =   0.0625000
        k(   33) = (   0.1250000   0.2500000   0.4062551), wk =   0.0625000
        k(   34) = (   0.1250000   0.2500000   0.6093827), wk =   0.0625000
        k(   35) = (   0.1250000   0.2500000  -0.8125102), wk =   0.0312500
        k(   36) = (   0.1250000   0.3750000   0.0000000), wk =   0.0312500
        k(   37) = (   0.1250000   0.3750000   0.2031276), wk =   0.0625000
        k(   38) = (   0.1250000   0.3750000   0.4062551), wk =   0.0625000
        k(   39) = (   0.1250000   0.3750000   0.6093827), wk =   0.0625000
        k(   40) = (   0.1250000   0.3750000  -0.8125102), wk =   0.0312500
        k(   41) = (   0.1250000  -0.5000000   0.0000000), wk =   0.0156250
        k(   42) = (   0.1250000  -0.5000000   0.2031276), wk =   0.0312500
        k(   43) = (   0.1250000  -0.5000000   0.4062551), wk =   0.0312500
        k(   44) = (   0.1250000  -0.5000000   0.6093827), wk =   0.0312500
        k(   45) = (   0.1250000  -0.5000000  -0.8125102), wk =   0.0156250
        k(   46) = (   0.2500000   0.2500000   0.0000000), wk =   0.0156250
        k(   47) = (   0.2500000   0.2500000   0.2031276), wk =   0.0312500
        k(   48) = (   0.2500000   0.2500000   0.4062551), wk =   0.0312500
        k(   49) = (   0.2500000   0.2500000   0.6093827), wk =   0.0312500
        k(   50) = (   0.2500000   0.2500000  -0.8125102), wk =   0.0156250
        k(   51) = (   0.2500000   0.3750000   0.0000000), wk =   0.0312500
        k(   52) = (   0.2500000   0.3750000   0.2031276), wk =   0.0625000
        k(   53) = (   0.2500000   0.3750000   0.4062551), wk =   0.0625000
        k(   54) = (   0.2500000   0.3750000   0.6093827), wk =   0.0625000
        k(   55) = (   0.2500000   0.3750000  -0.8125102), wk =   0.0312500
        k(   56) = (   0.2500000  -0.5000000   0.0000000), wk =   0.0156250
        k(   57) = (   0.2500000  -0.5000000   0.2031276), wk =   0.0312500
        k(   58) = (   0.2500000  -0.5000000   0.4062551), wk =   0.0312500
        k(   59) = (   0.2500000  -0.5000000   0.6093827), wk =   0.0312500
        k(   60) = (   0.2500000  -0.5000000  -0.8125102), wk =   0.0156250
        k(   61) = (   0.3750000   0.3750000   0.0000000), wk =   0.0156250
        k(   62) = (   0.3750000   0.3750000   0.2031276), wk =   0.0312500
        k(   63) = (   0.3750000   0.3750000   0.4062551), wk =   0.0312500
        k(   64) = (   0.3750000   0.3750000   0.6093827), wk =   0.0312500
        k(   65) = (   0.3750000   0.3750000  -0.8125102), wk =   0.0156250
        k(   66) = (   0.3750000  -0.5000000   0.0000000), wk =   0.0156250
        k(   67) = (   0.3750000  -0.5000000   0.2031276), wk =   0.0312500
        k(   68) = (   0.3750000  -0.5000000   0.4062551), wk =   0.0312500
        k(   69) = (   0.3750000  -0.5000000   0.6093827), wk =   0.0312500
        k(   70) = (   0.3750000  -0.5000000  -0.8125102), wk =   0.0156250
        k(   71) = (  -0.5000000  -0.5000000   0.0000000), wk =   0.0039062
        k(   72) = (  -0.5000000  -0.5000000   0.2031276), wk =   0.0078125
        k(   73) = (  -0.5000000  -0.5000000   0.4062551), wk =   0.0078125
        k(   74) = (  -0.5000000  -0.5000000   0.6093827), wk =   0.0078125
        k(   75) = (  -0.5000000  -0.5000000  -0.8125102), wk =   0.0039062

                       cryst. coord.
        k(    1) = (   0.0000000   0.0000000   0.0000000), wk =   0.0039062
        k(    2) = (   0.0000000   0.0000000   0.1250000), wk =   0.0078125
        k(    3) = (   0.0000000   0.0000000   0.2500000), wk =   0.0078125
        k(    4) = (   0.0000000   0.0000000   0.3750000), wk =   0.0078125
        k(    5) = (   0.0000000   0.0000000  -0.5000000), wk =   0.0039062
        k(    6) = (   0.0000000   0.1250000   0.0000000), wk =   0.0156250
        k(    7) = (   0.0000000   0.1250000   0.1250000), wk =   0.0312500
        k(    8) = (   0.0000000   0.1250000   0.2500000), wk =   0.0312500
        k(    9) = (   0.0000000   0.1250000   0.3750000), wk =   0.0312500
        k(   10) = (   0.0000000   0.1250000  -0.5000000), wk =   0.0156250
        k(   11) = (   0.0000000   0.2500000   0.0000000), wk =   0.0156250
        k(   12) = (   0.0000000   0.2500000   0.1250000), wk =   0.0312500
        k(   13) = (   0.0000000   0.2500000   0.2500000), wk =   0.0312500
        k(   14) = (   0.0000000   0.2500000   0.3750000), wk =   0.0312500
        k(   15) = (   0.0000000   0.2500000  -0.5000000), wk =   0.0156250
        k(   16) = (   0.0000000   0.3750000   0.0000000), wk =   0.0156250
        k(   17) = (   0.0000000   0.3750000   0.1250000), wk =   0.0312500
        k(   18) = (   0.0000000   0.3750000   0.2500000), wk =   0.0312500
        k(   19) = (   0.0000000   0.3750000   0.3750000), wk =   0.0312500
        k(   20) = (   0.0000000   0.3750000  -0.5000000), wk =   0.0156250
        k(   21) = (   0.0000000  -0.5000000   0.0000000), wk =   0.0078125
        k(   22) = (   0.0000000  -0.5000000   0.1250000), wk =   0.0156250
        k(   23) = (   0.0000000  -0.5000000   0.2500000), wk =   0.0156250
        k(   24) = (   0.0000000  -0.5000000   0.3750000), wk =   0.0156250
        k(   25) = (   0.0000000  -0.5000000  -0.5000000), wk =   0.0078125
        k(   26) = (   0.1250000   0.1250000   0.0000000), wk =   0.0156250
        k(   27) = (   0.1250000   0.1250000   0.1250000), wk =   0.0312500
        k(   28) = (   0.1250000   0.1250000   0.2500000), wk =   0.0312500
        k(   29) = (   0.1250000   0.1250000   0.3750000), wk =   0.0312500
        k(   30) = (   0.1250000   0.1250000  -0.5000000), wk =   0.0156250
        k(   31) = (   0.1250000   0.2500000   0.0000000), wk =   0.0312500
        k(   32) = (   0.1250000   0.2500000   0.1250000), wk =   0.0625000
        k(   33) = (   0.1250000   0.2500000   0.2500000), wk =   0.0625000
        k(   34) = (   0.1250000   0.2500000   0.3750000), wk =   0.0625000
        k(   35) = (   0.1250000   0.2500000  -0.5000000), wk =   0.0312500
        k(   36) = (   0.1250000   0.3750000   0.0000000), wk =   0.0312500
        k(   37) = (   0.1250000   0.3750000   0.1250000), wk =   0.0625000
        k(   38) = (   0.1250000   0.3750000   0.2500000), wk =   0.0625000
        k(   39) = (   0.1250000   0.3750000   0.3750000), wk =   0.0625000
        k(   40) = (   0.1250000   0.3750000  -0.5000000), wk =   0.0312500
        k(   41) = (   0.1250000  -0.5000000   0.0000000), wk =   0.0156250
        k(   42) = (   0.1250000  -0.5000000   0.1250000), wk =   0.0312500
        k(   43) = (   0.1250000  -0.5000000   0.2500000), wk =   0.0312500
        k(   44) = (   0.1250000  -0.5000000   0.3750000), wk =   0.0312500
        k(   45) = (   0.1250000  -0.5000000  -0.5000000), wk =   0.0156250
        k(   46) = (   0.2500000   0.2500000   0.0000000), wk =   0.0156250
        k(   47) = (   0.2500000   0.2500000   0.1250000), wk =   0.0312500
        k(   48) = (   0.2500000   0.2500000   0.2500000), wk =   0.0312500
        k(   49) = (   0.2500000   0.2500000   0.3750000), wk =   0.0312500
        k(   50) = (   0.2500000   0.2500000  -0.5000000), wk =   0.0156250
        k(   51) = (   0.2500000   0.3750000   0.0000000), wk =   0.0312500
        k(   52) = (   0.2500000   0.3750000   0.1250000), wk =   0.0625000
        k(   53) = (   0.2500000   0.3750000   0.2500000), wk =   0.0625000
        k(   54) = (   0.2500000   0.3750000   0.3750000), wk =   0.0625000
        k(   55) = (   0.2500000   0.3750000  -0.5000000), wk =   0.0312500
        k(   56) = (   0.2500000  -0.5000000   0.0000000), wk =   0.0156250
        k(   57) = (   0.2500000  -0.5000000   0.1250000), wk =   0.0312500
        k(   58) = (   0.2500000  -0.5000000   0.2500000), wk =   0.0312500
        k(   59) = (   0.2500000  -0.5000000   0.3750000), wk =   0.0312500
        k(   60) = (   0.2500000  -0.5000000  -0.5000000), wk =   0.0156250
        k(   61) = (   0.3750000   0.3750000   0.0000000), wk =   0.0156250
        k(   62) = (   0.3750000   0.3750000   0.1250000), wk =   0.0312500
        k(   63) = (   0.3750000   0.3750000   0.2500000), wk =   0.0312500
        k(   64) = (   0.3750000   0.3750000   0.3750000), wk =   0.0312500
        k(   65) = (   0.3750000   0.3750000  -0.5000000), wk =   0.0156250
        k(   66) = (   0.3750000  -0.5000000   0.0000000), wk =   0.0156250
        k(   67) = (   0.3750000  -0.5000000   0.1250000), wk =   0.0312500
        k(   68) = (   0.3750000  -0.5000000   0.2500000), wk =   0.0312500
        k(   69) = (   0.3750000  -0.5000000   0.3750000), wk =   0.0312500
        k(   70) = (   0.3750000  -0.5000000  -0.5000000), wk =   0.0156250
        k(   71) = (  -0.5000000  -0.5000000   0.0000000), wk =   0.0039062
        k(   72) = (  -0.5000000  -0.5000000   0.1250000), wk =   0.0078125
        k(   73) = (  -0.5000000  -0.5000000   0.2500000), wk =   0.0078125
        k(   74) = (  -0.5000000  -0.5000000   0.3750000), wk =   0.0078125
        k(   75) = (  -0.5000000  -0.5000000  -0.5000000), wk =   0.0039062

     Dense  grid:   145963 G-vectors     FFT dimensions: (  80,  80,  48)

     Dynamical RAM for                 wfc:       0.24 MB

     Dynamical RAM for     wfc (w. buffer):      18.51 MB

     Dynamical RAM for           str. fact:       0.14 MB

     Dynamical RAM for           local pot:       0.00 MB

     Dynamical RAM for          nlocal pot:       0.94 MB

     Dynamical RAM for                qrad:       2.69 MB

     Dynamical RAM for          rho,v,vnew:       0.50 MB

     Dynamical RAM for               rhoin:       0.17 MB

     Dynamical RAM for            rho*nmix:       1.11 MB

     Dynamical RAM for           G-vectors:       0.30 MB

     Dynamical RAM for          h,s,v(r/c):       0.14 MB

     Dynamical RAM for          <psi|beta>:       0.05 MB

     Dynamical RAM for                 psi:       0.49 MB

     Dynamical RAM for                hpsi:       0.49 MB

     Dynamical RAM for                spsi:       0.49 MB

     Dynamical RAM for      wfcinit/wfcrot:       0.62 MB

     Dynamical RAM for           addusdens:      13.23 MB

     Dynamical RAM for          addusforce:      13.70 MB

     Dynamical RAM for         addusstress:      13.99 MB

     Estimated static dynamical RAM per process >      25.05 MB

     Estimated max dynamical RAM per process >      39.04 MB

     Estimated total dynamical RAM >       1.22 GB

     Initial potential from superposition of free atoms

     starting charge   55.99693, renormalised to   56.00000
     Starting wfcs are   34 randomized atomic wfcs
     Checking if some PAW data can be deallocated... 
       PAW data deallocated on   20 nodes for type:  1
       PAW data deallocated on   12 nodes for type:  2

     total cpu time spent up to now is        9.7 secs

     Self-consistent Calculation

     iteration #  1     ecut=    70.00 Ry     beta= 0.70
     Davidson diagonalization with overlap
     ethr =  1.00E-02,  avg # of iterations =  1.1

     Threshold (ethr) on eigenvalues was too large:
     Diagonalizing with lowered threshold

     Davidson diagonalization with overlap
     ethr =  2.36E-04,  avg # of iterations =  2.4

     total cpu time spent up to now is       45.7 secs

     total energy              =   -2399.94197171 Ry
     estimated scf accuracy    <       0.11842089 Ry

     iteration #  2     ecut=    70.00 Ry     beta= 0.70
     Davidson diagonalization with overlap
     ethr =  2.11E-04,  avg # of iterations =  3.8

     total cpu time spent up to now is       68.6 secs

     total energy              =   -2399.98107571 Ry
     estimated scf accuracy    <       0.04981898 Ry

     iteration #  3     ecut=    70.00 Ry     beta= 0.70
     Davidson diagonalization with overlap
     ethr =  8.90E-05,  avg # of iterations =  2.2

     total cpu time spent up to now is       85.3 secs

     total energy              =   -2399.98936543 Ry
     estimated scf accuracy    <       0.00114769 Ry

     iteration #  4     ecut=    70.00 Ry     beta= 0.70
     Davidson diagonalization with overlap
     ethr =  2.05E-06,  avg # of iterations =  5.8

     total cpu time spent up to now is      112.7 secs

     total energy              =   -2399.99036688 Ry
     estimated scf accuracy    <       0.00085031 Ry

     iteration #  5     ecut=    70.00 Ry     beta= 0.70
     Davidson diagonalization with overlap
     ethr =  1.52E-06,  avg # of iterations =  2.0

     total cpu time spent up to now is      129.3 secs

     total energy              =   -2399.99042469 Ry
     estimated scf accuracy    <       0.00007077 Ry

     iteration #  6     ecut=    70.00 Ry     beta= 0.70
     Davidson diagonalization with overlap
     ethr =  1.26E-07,  avg # of iterations =  5.2

     total cpu time spent up to now is      152.1 secs

     total energy              =   -2399.99046743 Ry
     estimated scf accuracy    <       0.00002321 Ry

     iteration #  7     ecut=    70.00 Ry     beta= 0.70
     Davidson diagonalization with overlap
     ethr =  4.15E-08,  avg # of iterations =  2.0

     total cpu time spent up to now is      170.0 secs

     total energy              =   -2399.99046874 Ry
     estimated scf accuracy    <       0.00000208 Ry

     iteration #  8     ecut=    70.00 Ry     beta= 0.70
     Davidson diagonalization with overlap
     ethr =  3.71E-09,  avg # of iterations =  5.1

     total cpu time spent up to now is      192.1 secs

     End of self-consistent calculation

          k = 0.0000 0.0000 0.0000 ( 18231 PWs)   bands (ev):

   -18.3191 -18.3162 -18.3087 -18.3083 -18.3053 -18.3053 -18.3050 -18.3050
   -18.3046 -18.3046  -9.3439  -8.8365  -8.8365  -8.7178  -4.1157  -2.2594
    -0.1084  -0.1084   0.4264   0.7347   1.2464   1.3476   1.5941   1.5941
     2.0023   2.0023   2.3755   2.8709

     occupation numbers 
     1.0000   1.0000   1.0000   1.0000   1.0000   1.0000   1.0000   1.0000
     1.0000   1.0000   1.0000   1.0000   1.0000   1.0000   1.0000   1.0000
     1.0000   1.0000   1.0000   1.0000   1.0000   1.0000   1.0000   1.0000
     1.0000   1.0000   1.0000   1.0000

          k = 0.0000 0.0000 0.2031 ( 18263 PWs)   bands (ev):

   -18.3187 -18.3159 -18.3086 -18.3084 -18.3060 -18.3060 -18.3048 -18.3048
   -18.3045 -18.3045  -9.3034  -8.8191  -8.8191  -8.7169  -4.1026  -2.4022
    -0.0519  -0.0519   0.2438   0.7527   0.7955   1.2548   1.2548   1.8154
     1.9961   1.9961   2.3190   3.0254

     occupation numbers 
     1.0000   1.0000   1.0000   1.0000   1.0000   1.0000   1.0000   1.0000
     1.0000   1.0000   1.0000   1.0000   1.0000   1.0000   1.0000   1.0000
     1.0000   1.0000   1.0000   1.0000   1.0000   1.0000   1.0000   1.0000
     1.0000   1.0000   1.0000   1.0000

          k = 0.0000 0.0000 0.4063 ( 18232 PWs)   bands (ev):

   -18.3176 -18.3155 -18.3085 -18.3083 -18.3076 -18.3076 -18.3052 -18.3052
   -18.3032 -18.3031  -9.1918  -8.7762  -8.7762  -8.7271  -4.0513  -2.7830
    -0.0374   0.0874   0.0874   0.3911   0.6947   0.6947   0.9709   1.8912
     1.8912   2.0375   2.1505   3.0750

     occupation numbers 
     1.0000   1.0000   1.0000   1.0000   1.0000   1.0000   1.0000   1.0000
     1.0000   1.0000   1.0000   1.0000   1.0000   1.0000   1.0000   1.0000
     1.0000   1.0000   1.0000   1.0000   1.0000   1.0000   1.0000   1.0000
     1.0000   1.0000   1.0000   1.0000

          k = 0.0000 0.0000 0.6094 ( 18228 PWs)   bands (ev):

   -18.3165 -18.3154 -18.3092 -18.3092 -18.3085 -18.3083 -18.3055 -18.3055
   -18.3018 -18.3017  -9.0380  -8.7772  -8.7323  -8.7323  -3.9214  -3.2545
    -0.1452   0.0867   0.0867   0.1517   0.4604   0.4604   1.2391   1.7170
     1.7170   1.8846   2.1214   2.7616

     occupation numbers 
     1.0000   1.0000   1.0000   1.0000   1.0000   1.0000   1.0000   1.0000
     1.0000   1.0000   1.0000   1.0000   1.0000   1.0000   1.0000   1.0000
     1.0000   1.0000   1.0000   1.0000   1.0000   1.0000   1.0000   1.0000
     1.0000   1.0000   1.0000   1.0000

          k = 0.0000 0.0000-0.8125 ( 18160 PWs)   bands (ev):

   -18.3156 -18.3156 -18.3098 -18.3098 -18.3083 -18.3083 -18.3056 -18.3056
   -18.3011 -18.3011  -8.8858  -8.8858  -8.7138  -8.7138  -3.6594  -3.6594
    -0.0500  -0.0500  -0.0266  -0.0266   0.5244   0.5244   1.5616   1.5616
     1.6157   1.6157   2.3639   2.3639

     occupation numbers 
     1.0000   1.0000   1.0000   1.0000   1.0000   1.0000   1.0000   1.0000
     1.0000   1.0000   1.0000   1.0000   1.0000   1.0000   1.0000   1.0000
     1.0000   1.0000   1.0000   1.0000   1.0000   1.0000   1.0000   1.0000
     1.0000   1.0000   1.0000   1.0000

          k = 0.0000 0.1250 0.0000 ( 18283 PWs)   bands (ev):

   -18.3190 -18.3163 -18.3087 -18.3084 -18.3054 -18.3054 -18.3050 -18.3050
   -18.3046 -18.3046  -9.3293  -8.8694  -8.8296  -8.7113  -4.0639  -2.3815
    -0.0713   0.0179   0.4494   0.7665   1.1964   1.2689   1.6023   1.6332
     1.9765   2.0039   2.3314   2.7862

     occupation numbers 
     1.0000   1.0000   1.0000   1.0000   1.0000   1.0000   1.0000   1.0000
     1.0000   1.0000   1.0000   1.0000   1.0000   1.0000   1.0000   1.0000
     1.0000   1.0000   1.0000   1.0000   1.0000   1.0000   1.0000   1.0000
     1.0000   1.0000   1.0000   1.0000

          k = 0.0000 0.1250 0.2031 ( 18249 PWs)   bands (ev):

   -18.3186 -18.3161 -18.3086 -18.3084 -18.3060 -18.3060 -18.3048 -18.3048
   -18.3045 -18.3045  -9.2894  -8.8511  -8.8128  -8.7096  -4.0533  -2.5043
    -0.0754   0.0145   0.3301   0.7278   0.8134   1.2759   1.3036   1.7657
     1.9610   1.9944   2.2929   2.9450

     occupation numbers 
     1.0000   1.0000   1.0000   1.0000   1.0000   1.0000   1.0000   1.0000
     1.0000   1.0000   1.0000   1.0000   1.0000   1.0000   1.0000   1.0000
     1.0000   1.0000   1.0000   1.0000   1.0000   1.0000   1.0000   1.0000
     1.0000   1.0000   1.0000   1.0000

          k = 0.0000 0.1250 0.4063 ( 18227 PWs)   bands (ev):

   -18.3176 -18.3156 -18.3085 -18.3083 -18.3076 -18.3076 -18.3051 -18.3051
   -18.3032 -18.3031  -9.1796  -8.8076  -8.7721  -8.7150  -4.0106  -2.8447
    -0.1974  -0.0086   0.3025   0.3917   0.6703   0.8561   1.0416   1.8523
     1.8787   2.0339   2.1441   3.0253

     occupation numbers 
     1.0000   1.0000   1.0000   1.0000   1.0000   1.0000   1.0000   1.0000
     1.0000   1.0000   1.0000   1.0000   1.0000   1.0000   1.0000   1.0000
     1.0000   1.0000   1.0000   1.0000   1.0000   1.0000   1.0000   1.0000
     1.0000   1.0000   1.0000   1.0000

          k = 0.0000 0.1250 0.6094 ( 18231 PWs)   bands (ev):

   -18.3165 -18.3154 -18.3092 -18.3092 -18.3084 -18.3083 -18.3055 -18.3055
   -18.3018 -18.3018  -9.0293  -8.7915  -8.7315  -8.7286  -3.8964  -3.2801
    -0.2869  -0.0747   0.0945   0.1472   0.5930   0.7201   1.2763   1.6843
     1.6917   1.8947   2.1616   2.7677

     occupation numbers 
     1.0000   1.0000   1.0000   1.0000   1.0000   1.0000   1.0000   1.0000
     1.0000   1.0000   1.0000   1.0000   1.0000   1.0000   1.0000   1.0000
     1.0000   1.0000   1.0000   1.0000   1.0000   1.0000   1.0000   1.0000
     1.0000   1.0000   1.0000   1.0000

          k = 0.0000 0.1250-0.8125 ( 18226 PWs)   bands (ev):

   -18.3157 -18.3157 -18.3098 -18.3098 -18.3084 -18.3084 -18.3056 -18.3056
   -18.3012 -18.3012  -8.8831  -8.8831  -8.7166  -8.7166  -3.6568  -3.6568
    -0.2251  -0.2251   0.0068   0.0068   0.7089   0.7089   1.5472   1.5472
     1.6225   1.6225   2.4070   2.4070

     occupation numbers 
     1.0000   1.0000   1.0000   1.0000   1.0000   1.0000   1.0000   1.0000
     1.0000   1.0000   1.0000   1.0000   1.0000   1.0000   1.0000   1.0000
     1.0000   1.0000   1.0000   1.0000   1.0000   1.0000   1.0000   1.0000
     1.0000   1.0000   1.0000   1.0000

          k = 0.0000 0.2500 0.0000 ( 18288 PWs)   bands (ev):

   -18.3187 -18.3166 -18.3087 -18.3084 -18.3054 -18.3054 -18.3050 -18.3050
   -18.3047 -18.3047  -9.2864  -8.9450  -8.8101  -8.7098  -3.9133  -2.6737
     0.0353   0.2955   0.5173   0.8560   1.0810   1.1114   1.6246   1.6803
     1.8950   2.0039   2.2455   2.5642

     occupation numbers 
     1.0000   1.0000   1.0000   1.0000   1.0000   1.0000   1.0000   1.0000
     1.0000   1.0000   1.0000   1.0000   1.0000   1.0000   1.0000   1.0000
     1.0000   1.0000   1.0000   1.0000   1.0000   1.0000   1.0000   1.0000
     1.0000   1.0000   1.0000   1.0000

          k = 0.0000 0.2500 0.2031 ( 18227 PWs)   bands (ev):

   -18.3183 -18.3163 -18.3086 -18.3084 -18.3060 -18.3060 -18.3048 -18.3048
   -18.3045 -18.3045  -9.2483  -8.9231  -8.7952  -8.7067  -3.9101  -2.7590
    -0.0923   0.1049   0.5295   0.7437   0.8607   1.3355   1.3991   1.6220
     1.8884   1.9907   2.2254   2.7274

     occupation numbers 
     1.0000   1.0000   1.0000   1.0000   1.0000   1.0000   1.0000   1.0000
     1.0000   1.0000   1.0000   1.0000   1.0000   1.0000   1.0000   1.0000
     1.0000   1.0000   1.0000   1.0000   1.0000   1.0000   1.0000   1.0000
     1.0000   1.0000   1.0000   1.0000

          k = 0.0000 0.2500 0.4063 ( 18213 PWs)   bands (ev):

   -18.3174 -18.3159 -18.3085 -18.3084 -18.3075 -18.3075 -18.3051 -18.3051
   -18.3032 -18.3031  -9.1442  -8.8694  -8.7603  -8.7072  -3.8927  -3.0106
    -0.3375  -0.1782   0.4324   0.5234   0.7251   1.1375   1.1891   1.7832
     1.8523   2.0032   2.1097   2.8768

     occupation numbers 
     1.0000   1.0000   1.0000   1.0000   1.0000   1.0000   1.0000   1.0000
     1.0000   1.0000   1.0000   1.0000   1.0000   1.0000   1.0000   1.0000
     1.0000   1.0000   1.0000   1.0000   1.0000   1.0000   1.0000   1.0000
     1.0000   1.0000   1.0000   1.0000

          k = 0.0000 0.2500 0.6094 ( 18269 PWs)   bands (ev):

   -18.3165 -18.3157 -18.3092 -18.3091 -18.3085 -18.3084 -18.3055 -18.3055
   -18.3018 -18.3018  -9.0044  -8.8255  -8.7293  -8.7241  -3.8251  -3.3530
    -0.4659  -0.3360   0.1111   0.1648   0.9023   1.0401   1.3529   1.6585
     1.6610   1.9093   2.2373   2.7607

     occupation numbers 
     1.0000   1.0000   1.0000   1.0000   1.0000   1.0000   1.0000   1.0000
     1.0000   1.0000   1.0000   1.0000   1.0000   1.0000   1.0000   1.0000
     1.0000   1.0000   1.0000   1.0000   1.0000   1.0000   1.0000   1.0000
     1.0000   1.0000   1.0000   1.0000

          k = 0.0000 0.2500-0.8125 ( 18256 PWs)   bands (ev):

   -18.3159 -18.3159 -18.3098 -18.3098 -18.3084 -18.3084 -18.3057 -18.3057
   -18.3012 -18.3012  -8.8762  -8.8762  -8.7237  -8.7237  -3.6503  -3.6503
    -0.4435  -0.4435   0.0126   0.0126   1.0107   1.0107   1.5080   1.5080
     1.6914   1.6914   2.4949   2.4949

     occupation numbers 
     1.0000   1.0000   1.0000   1.0000   1.0000   1.0000   1.0000   1.0000
     1.0000   1.0000   1.0000   1.0000   1.0000   1.0000   1.0000   1.0000
     1.0000   1.0000   1.0000   1.0000   1.0000   1.0000   1.0000   1.0000
     1.0000   1.0000   1.0000   1.0000

          k = 0.0000 0.3750 0.0000 ( 18264 PWs)   bands (ev):

   -18.3183 -18.3171 -18.3086 -18.3085 -18.3053 -18.3053 -18.3050 -18.3050
   -18.3047 -18.3046  -9.2189  -9.0380  -8.7818  -8.7242  -3.6765  -3.0260
     0.1966   0.4740   0.6263   0.9364   0.9798   1.0325   1.6550   1.6959
     1.7967   1.9718   2.1862   2.2991

     occupation numbers 
     1.0000   1.0000   1.0000   1.0000   1.0000   1.0000   1.0000   1.0000
     1.0000   1.0000   1.0000   1.0000   1.0000   1.0000   1.0000   1.0000
     1.0000   1.0000   1.0000   1.0000   1.0000   1.0000   1.0000   1.0000
     1.0000   1.0000   1.0000   1.0000

          k = 0.0000 0.3750 0.2031 ( 18234 PWs)   bands (ev):

   -18.3179 -18.3168 -18.3085 -18.3085 -18.3059 -18.3059 -18.3048 -18.3048
   -18.3045 -18.3045  -9.1838  -9.0114  -8.7698  -8.7186  -3.6859  -3.0782
    -0.0658   0.0814   0.7867   0.8585   0.9149   1.3380   1.4216   1.5385
     1.8620   1.9875   2.1539   2.4316

     occupation numbers 
     1.0000   1.0000   1.0000   1.0000   1.0000   1.0000   1.0000   1.0000
     1.0000   1.0000   1.0000   1.0000   1.0000   1.0000   1.0000   1.0000
     1.0000   1.0000   1.0000   1.0000   1.0000   1.0000   1.0000   1.0000
     1.0000   1.0000   1.0000   1.0000

          k = 0.0000 0.3750 0.4063 ( 18246 PWs)   bands (ev):

   -18.3171 -18.3163 -18.3085 -18.3084 -18.3075 -18.3075 -18.3052 -18.3051
   -18.3032 -18.3032  -9.0890  -8.9434  -8.7436  -8.7120  -3.7103  -3.2381
    -0.4043  -0.3172   0.4821   0.5368   1.0280   1.3349   1.3355   1.6485
     1.8484   2.0240   2.0760   2.6369

     occupation numbers 
     1.0000   1.0000   1.0000   1.0000   1.0000   1.0000   1.0000   1.0000
     1.0000   1.0000   1.0000   1.0000   1.0000   1.0000   1.0000   1.0000
     1.0000   1.0000   1.0000   1.0000   1.0000   1.0000   1.0000   1.0000
     1.0000   1.0000   1.0000   1.0000

          k = 0.0000 0.3750 0.6094 ( 18282 PWs)   bands (ev):

   -18.3164 -18.3160 -18.3091 -18.3091 -18.3084 -18.3084 -18.3055 -18.3055
   -18.3018 -18.3018  -8.9662  -8.8704  -8.7265  -8.7227  -3.7177  -3.4620
    -0.5758  -0.5144   0.1306   0.1580   1.2036   1.2048   1.4108   1.6931
     1.7138   1.8942   2.3450   2.6906

     occupation numbers 
     1.0000   1.0000   1.0000   1.0000   1.0000   1.0000   1.0000   1.0000
     1.0000   1.0000   1.0000   1.0000   1.0000   1.0000   1.0000   1.0000
     1.0000   1.0000   1.0000   1.0000   1.0000   1.0000   1.0000   1.0000
     1.0000   1.0000   1.0000   1.0000

          k = 0.0000 0.3750-0.8125 ( 18276 PWs)   bands (ev):

   -18.3160 -18.3160 -18.3097 -18.3097 -18.3084 -18.3084 -18.3057 -18.3057
   -18.3012 -18.3012  -8.8685  -8.8685  -8.7316  -8.7316  -3.6438  -3.6438
    -0.5936  -0.5936   0.0155   0.0155   1.1569   1.1569   1.5964   1.5964
     1.7704   1.7704   2.5729   2.5729

     occupation numbers 
     1.0000   1.0000   1.0000   1.0000   1.0000   1.0000   1.0000   1.0000
     1.0000   1.0000   1.0000   1.0000   1.0000   1.0000   1.0000   1.0000
     1.0000   1.0000   1.0000   1.0000   1.0000   1.0000   1.0000   1.0000
     1.0000   1.0000   1.0000   1.0000

          k = 0.0000-0.5000 0.0000 ( 18230 PWs)   bands (ev):

   -18.3177 -18.3177 -18.3085 -18.3085 -18.3053 -18.3053 -18.3050 -18.3050
   -18.3046 -18.3046  -9.1332  -9.1332  -8.7506  -8.7506  -3.3724  -3.3724
     0.3783   0.3783   0.7695   0.7695   1.0676   1.0676   1.6832   1.6832
     1.8362   1.8362   2.1773   2.1773

     occupation numbers 
     1.0000   1.0000   1.0000   1.0000   1.0000   1.0000   1.0000   1.0000
     1.0000   1.0000   1.0000   1.0000   1.0000   1.0000   1.0000   1.0000
     1.0000   1.0000   1.0000   1.0000   1.0000   1.0000   1.0000   1.0000
     1.0000   1.0000   1.0000   1.0000

          k = 0.0000-0.5000 0.2031 ( 18246 PWs)   bands (ev):

   -18.3174 -18.3174 -18.3085 -18.3085 -18.3059 -18.3059 -18.3048 -18.3048
   -18.3045 -18.3045  -9.1019  -9.1019  -8.7420  -8.7420  -3.3999  -3.3999
     0.0012   0.0012   0.9311   0.9311   1.0702   1.0702   1.5084   1.5084
     1.9588   1.9588   2.1779   2.1779

     occupation numbers 
     1.0000   1.0000   1.0000   1.0000   1.0000   1.0000   1.0000   1.0000
     1.0000   1.0000   1.0000   1.0000   1.0000   1.0000   1.0000   1.0000
     1.0000   1.0000   1.0000   1.0000   1.0000   1.0000   1.0000   1.0000
     1.0000   1.0000   1.0000   1.0000

          k = 0.0000-0.5000 0.4063 ( 18234 PWs)   bands (ev):

   -18.3167 -18.3167 -18.3085 -18.3085 -18.3075 -18.3075 -18.3051 -18.3051
   -18.3032 -18.3032  -9.0195  -9.0195  -8.7259  -8.7259  -3.4832  -3.4832
    -0.3961  -0.3961   0.5167   0.5167   1.3305   1.3305   1.4328   1.4328
     1.9135   1.9135   2.3384   2.3384

     occupation numbers 
     1.0000   1.0000   1.0000   1.0000   1.0000   1.0000   1.0000   1.0000
     1.0000   1.0000   1.0000   1.0000   1.0000   1.0000   1.0000   1.0000
     1.0000   1.0000   1.0000   1.0000   1.0000   1.0000   1.0000   1.0000
     1.0000   1.0000   1.0000   1.0000

          k = 0.0000-0.5000 0.6094 ( 18282 PWs)   bands (ev):

   -18.3162 -18.3162 -18.3090 -18.3090 -18.3084 -18.3084 -18.3055 -18.3055
   -18.3018 -18.3018  -8.9195  -8.9195  -8.7239  -8.7239  -3.5902  -3.5902
    -0.5946  -0.5946   0.1465   0.1465   1.2564   1.2564   1.5944   1.5944
     1.8250   1.8250   2.5297   2.5297

     occupation numbers 
     1.0000   1.0000   1.0000   1.0000   1.0000   1.0000   1.0000   1.0000
     1.0000   1.0000   1.0000   1.0000   1.0000   1.0000   1.0000   1.0000
     1.0000   1.0000   1.0000   1.0000   1.0000   1.0000   1.0000   1.0000
     1.0000   1.0000   1.0000   1.0000

          k = 0.0000-0.5000-0.8125 ( 18288 PWs)   bands (ev):

   -18.3160 -18.3160 -18.3097 -18.3097 -18.3084 -18.3084 -18.3057 -18.3057
   -18.3012 -18.3012  -8.8650  -8.8650  -8.7351  -8.7351  -3.6410  -3.6410
    -0.6461  -0.6461   0.0168   0.0168   1.1681   1.1681   1.6876   1.6876
     1.8038   1.8038   2.6074   2.6074

     occupation numbers 
     1.0000   1.0000   1.0000   1.0000   1.0000   1.0000   1.0000   1.0000
     1.0000   1.0000   1.0000   1.0000   1.0000   1.0000   1.0000   1.0000
     1.0000   1.0000   1.0000   1.0000   1.0000   1.0000   1.0000   1.0000
     1.0000   1.0000   1.0000   1.0000

          k = 0.1250 0.1250 0.0000 ( 18261 PWs)   bands (ev):

   -18.3190 -18.3164 -18.3086 -18.3085 -18.3054 -18.3054 -18.3050 -18.3050
   -18.3046 -18.3046  -9.3149  -8.8824  -8.8384  -8.7088  -4.0143  -2.4793
    -0.0873   0.1660   0.4717   0.7974   1.1496   1.2174   1.5905   1.6650
     1.9631   1.9968   2.2846   2.7189

     occupation numbers 
     1.0000   1.0000   1.0000   1.0000   1.0000   1.0000   1.0000   1.0000
     1.0000   1.0000   1.0000   1.0000   1.0000   1.0000   1.0000   1.0000
     1.0000   1.0000   1.0000   1.0000   1.0000   1.0000   1.0000   1.0000
     1.0000   1.0000   1.0000   1.0000

          k = 0.1250 0.1250 0.2031 ( 18248 PWs)   bands (ev):

   -18.3185 -18.3162 -18.3086 -18.3084 -18.3060 -18.3060 -18.3048 -18.3048
   -18.3045 -18.3045  -9.2756  -8.8641  -8.8209  -8.7065  -4.0063  -2.5896
    -0.0304  -0.0057   0.3873   0.7432   0.8286   1.2695   1.3633   1.7132
     1.9601   1.9634   2.2679   2.8775

     occupation numbers 
     1.0000   1.0000   1.0000   1.0000   1.0000   1.0000   1.0000   1.0000
     1.0000   1.0000   1.0000   1.0000   1.0000   1.0000   1.0000   1.0000
     1.0000   1.0000   1.0000   1.0000   1.0000   1.0000   1.0000   1.0000
     1.0000   1.0000   1.0000   1.0000

          k = 0.1250 0.1250 0.4063 ( 18245 PWs)   bands (ev):

   -18.3175 -18.3157 -18.3086 -18.3084 -18.3076 -18.3075 -18.3052 -18.3051
   -18.3032 -18.3031  -9.1677  -8.8217  -8.7780  -8.7096  -3.9725  -2.9005
    -0.2784   0.1078   0.1574   0.4907   0.6089   1.0243   1.0945   1.8170
     1.8755   2.0255   2.1388   2.9634

     occupation numbers 
     1.0000   1.0000   1.0000   1.0000   1.0000   1.0000   1.0000   1.0000
     1.0000   1.0000   1.0000   1.0000   1.0000   1.0000   1.0000   1.0000
     1.0000   1.0000   1.0000   1.0000   1.0000   1.0000   1.0000   1.0000
     1.0000   1.0000   1.0000   1.0000

          k = 0.1250 0.1250 0.6094 ( 18234 PWs)   bands (ev):

   -18.3165 -18.3155 -18.3092 -18.3091 -18.3084 -18.3083 -18.3055 -18.3055
   -18.3018 -18.3018  -9.0211  -8.8018  -8.7339  -8.7249  -3.8745  -3.3053
    -0.4045  -0.0632   0.0626   0.2480   0.4479   0.9808   1.3130   1.6125
     1.7264   1.9045   2.1940   2.7538

     occupation numbers 
     1.0000   1.0000   1.0000   1.0000   1.0000   1.0000   1.0000   1.0000
     1.0000   1.0000   1.0000   1.0000   1.0000   1.0000   1.0000   1.0000
     1.0000   1.0000   1.0000   1.0000   1.0000   1.0000   1.0000   1.0000
     1.0000   1.0000   1.0000   1.0000

          k = 0.1250 0.1250-0.8125 ( 18232 PWs)   bands (ev):

   -18.3159 -18.3157 -18.3099 -18.3098 -18.3084 -18.3084 -18.3057 -18.3056
   -18.3012 -18.3011  -8.8837  -8.8778  -8.7224  -8.7153  -3.6693  -3.6431
    -0.4085  -0.1904  -0.0628   0.1761   0.5280   1.0135   1.4881   1.5648
     1.5997   1.6869   2.4349   2.4433

     occupation numbers 
     1.0000   1.0000   1.0000   1.0000   1.0000   1.0000   1.0000   1.0000
     1.0000   1.0000   1.0000   1.0000   1.0000   1.0000   1.0000   1.0000
     1.0000   1.0000   1.0000   1.0000   1.0000   1.0000   1.0000   1.0000
     1.0000   1.0000   1.0000   1.0000

          k = 0.1250 0.2500 0.0000 ( 18242 PWs)   bands (ev):

   -18.3186 -18.3167 -18.3086 -18.3085 -18.3054 -18.3053 -18.3050 -18.3050
   -18.3046 -18.3046  -9.2729  -8.9450  -8.8250  -8.7131  -3.8701  -2.7262
    -0.0159   0.4020   0.5374   0.8850   1.0537   1.0908   1.6016   1.6929
     1.8929   1.9968   2.1910   2.5358

     occupation numbers 
     1.0000   1.0000   1.0000   1.0000   1.0000   1.0000   1.0000   1.0000
     1.0000   1.0000   1.0000   1.0000   1.0000   1.0000   1.0000   1.0000
     1.0000   1.0000   1.0000   1.0000   1.0000   1.0000   1.0000   1.0000
     1.0000   1.0000   1.0000   1.0000

          k = 0.1250 0.2500 0.2031 ( 18258 PWs)   bands (ev):

   -18.3183 -18.3164 -18.3086 -18.3084 -18.3060 -18.3060 -18.3048 -18.3048
   -18.3045 -18.3045  -9.2354  -8.9237  -8.8090  -8.7093  -3.8702  -2.8093
    -0.0519   0.0828   0.4798   0.8377   0.8691   1.3175   1.4392   1.5741
     1.8925   1.9693   2.2018   2.6943

     occupation numbers 
     1.0000   1.0000   1.0000   1.0000   1.0000   1.0000   1.0000   1.0000
     1.0000   1.0000   1.0000   1.0000   1.0000   1.0000   1.0000   1.0000
     1.0000   1.0000   1.0000   1.0000   1.0000   1.0000   1.0000   1.0000
     1.0000   1.0000   1.0000   1.0000

          k = 0.1250 0.2500 0.4063 ( 18243 PWs)   bands (ev):

   -18.3174 -18.3160 -18.3085 -18.3084 -18.3076 -18.3075 -18.3052 -18.3051
   -18.3032 -18.3032  -9.1333  -8.8720  -8.7706  -8.7076  -3.8627  -3.0512
    -0.3591  -0.0746   0.3268   0.5484   0.6437   1.2208   1.2788   1.7613
     1.8498   1.9997   2.1081   2.8033

     occupation numbers 
     1.0000   1.0000   1.0000   1.0000   1.0000   1.0000   1.0000   1.0000
     1.0000   1.0000   1.0000   1.0000   1.0000   1.0000   1.0000   1.0000
     1.0000   1.0000   1.0000   1.0000   1.0000   1.0000   1.0000   1.0000
     1.0000   1.0000   1.0000   1.0000

          k = 0.1250 0.2500 0.6094 ( 18262 PWs)   bands (ev):

   -18.3165 -18.3157 -18.3092 -18.3091 -18.3084 -18.3084 -18.3055 -18.3055
   -18.3018 -18.3018  -8.9973  -8.8303  -8.7335  -8.7226  -3.8114  -3.3764
    -0.5297  -0.2165   0.0555   0.2262   0.6809   1.2352   1.3891   1.5855
     1.7283   1.9186   2.2623   2.6953

     occupation numbers 
     1.0000   1.0000   1.0000   1.0000   1.0000   1.0000   1.0000   1.0000
     1.0000   1.0000   1.0000   1.0000   1.0000   1.0000   1.0000   1.0000
     1.0000   1.0000   1.0000   1.0000   1.0000   1.0000   1.0000   1.0000
     1.0000   1.0000   1.0000   1.0000

          k = 0.1250 0.2500-0.8125 ( 18274 PWs)   bands (ev):

   -18.3160 -18.3158 -18.3099 -18.3097 -18.3084 -18.3084 -18.3057 -18.3057
   -18.3012 -18.3012  -8.8795  -8.8703  -8.7301  -8.7193  -3.6737  -3.6365
    -0.5593  -0.3007  -0.0791   0.1456   0.7493   1.2570   1.4122   1.5892
     1.6655   1.7455   2.4714   2.5203

     occupation numbers 
     1.0000   1.0000   1.0000   1.0000   1.0000   1.0000   1.0000   1.0000
     1.0000   1.0000   1.0000   1.0000   1.0000   1.0000   1.0000   1.0000
     1.0000   1.0000   1.0000   1.0000   1.0000   1.0000   1.0000   1.0000
     1.0000   1.0000   1.0000   1.0000

          k = 0.1250 0.3750 0.0000 ( 18251 PWs)   bands (ev):

   -18.3182 -18.3172 -18.3086 -18.3085 -18.3053 -18.3053 -18.3050 -18.3050
   -18.3047 -18.3046  -9.2071  -9.0323  -8.7960  -8.7322  -3.6450  -3.0399
     0.1356   0.4751   0.6422   0.9344   1.0084   1.0611   1.6323   1.6920
     1.8038   1.9658   2.1342   2.3075

     occupation numbers 
     1.0000   1.0000   1.0000   1.0000   1.0000   1.0000   1.0000   1.0000
     1.0000   1.0000   1.0000   1.0000   1.0000   1.0000   1.0000   1.0000
     1.0000   1.0000   1.0000   1.0000   1.0000   1.0000   1.0000   1.0000
     1.0000   1.0000   1.0000   1.0000

          k = 0.1250 0.3750 0.2031 ( 18245 PWs)   bands (ev):

   -18.3178 -18.3169 -18.3085 -18.3085 -18.3060 -18.3059 -18.3048 -18.3048
   -18.3045 -18.3045  -9.1726  -9.0064  -8.7828  -8.7258  -3.6582  -3.0950
    -0.0384   0.0826   0.6574   0.9104   0.9638   1.2824   1.4163   1.5638
     1.8697   1.9880   2.1326   2.4404

     occupation numbers 
     1.0000   1.0000   1.0000   1.0000   1.0000   1.0000   1.0000   1.0000
     1.0000   1.0000   1.0000   1.0000   1.0000   1.0000   1.0000   1.0000
     1.0000   1.0000   1.0000   1.0000   1.0000   1.0000   1.0000   1.0000
     1.0000   1.0000   1.0000   1.0000

          k = 0.1250 0.3750 0.4063 ( 18242 PWs)   bands (ev):

   -18.3171 -18.3163 -18.3085 -18.3084 -18.3076 -18.3075 -18.3052 -18.3051
   -18.3032 -18.3032  -9.0799  -8.9404  -8.7533  -8.7165  -3.6934  -3.2587
    -0.3844  -0.2407   0.4293   0.5204   0.9110   1.3639   1.4060   1.6139
     1.8443   2.0242   2.1064   2.5914

     occupation numbers 
     1.0000   1.0000   1.0000   1.0000   1.0000   1.0000   1.0000   1.0000
     1.0000   1.0000   1.0000   1.0000   1.0000   1.0000   1.0000   1.0000
     1.0000   1.0000   1.0000   1.0000   1.0000   1.0000   1.0000   1.0000
     1.0000   1.0000   1.0000   1.0000

          k = 0.1250 0.3750 0.6094 ( 18260 PWs)   bands (ev):

   -18.3163 -18.3159 -18.3091 -18.3090 -18.3084 -18.3084 -18.3055 -18.3055
   -18.3018 -18.3018  -8.9610  -8.8710  -8.7304  -8.7234  -3.7154  -3.4804
    -0.5739  -0.4010   0.0723   0.1675   1.0378   1.3354   1.4199   1.6512
     1.7361   1.9023   2.3458   2.5852

     occupation numbers 
     1.0000   1.0000   1.0000   1.0000   1.0000   1.0000   1.0000   1.0000
     1.0000   1.0000   1.0000   1.0000   1.0000   1.0000   1.0000   1.0000
     1.0000   1.0000   1.0000   1.0000   1.0000   1.0000   1.0000   1.0000
     1.0000   1.0000   1.0000   1.0000

          k = 0.1250 0.3750-0.8125 ( 18256 PWs)   bands (ev):

   -18.3160 -18.3159 -18.3098 -18.3096 -18.3084 -18.3084 -18.3057 -18.3056
   -18.3012 -18.3012  -8.8722  -8.8652  -8.7349  -8.7267  -3.6673  -3.6409
    -0.6168  -0.4577  -0.0628   0.0582   1.0611   1.2896   1.4432   1.6695
     1.7534   1.7998   2.4818   2.5330

     occupation numbers 
     1.0000   1.0000   1.0000   1.0000   1.0000   1.0000   1.0000   1.0000
     1.0000   1.0000   1.0000   1.0000   1.0000   1.0000   1.0000   1.0000
     1.0000   1.0000   1.0000   1.0000   1.0000   1.0000   1.0000   1.0000
     1.0000   1.0000   1.0000   1.0000

          k = 0.1250-0.5000 0.0000 ( 18248 PWs)   bands (ev):

   -18.3177 -18.3177 -18.3085 -18.3085 -18.3053 -18.3053 -18.3050 -18.3050
   -18.3046 -18.3046  -9.1238  -9.1238  -8.7623  -8.7623  -3.3592  -3.3592
     0.3262   0.3262   0.7785   0.7785   1.1021   1.1021   1.6674   1.6674
     1.8424   1.8424   2.1647   2.1647

     occupation numbers 
     1.0000   1.0000   1.0000   1.0000   1.0000   1.0000   1.0000   1.0000
     1.0000   1.0000   1.0000   1.0000   1.0000   1.0000   1.0000   1.0000
     1.0000   1.0000   1.0000   1.0000   1.0000   1.0000   1.0000   1.0000
     1.0000   1.0000   1.0000   1.0000

          k = 0.1250-0.5000 0.2031 ( 18244 PWs)   bands (ev):

   -18.3174 -18.3174 -18.3085 -18.3085 -18.3059 -18.3059 -18.3048 -18.3048
   -18.3045 -18.3045  -9.0933  -9.0933  -8.7526  -8.7526  -3.3907  -3.3907
     0.0166   0.0166   0.8710   0.8710   1.0652   1.0652   1.5176   1.5176
     1.9583   1.9583   2.1973   2.1973

     occupation numbers 
     1.0000   1.0000   1.0000   1.0000   1.0000   1.0000   1.0000   1.0000
     1.0000   1.0000   1.0000   1.0000   1.0000   1.0000   1.0000   1.0000
     1.0000   1.0000   1.0000   1.0000   1.0000   1.0000   1.0000   1.0000
     1.0000   1.0000   1.0000   1.0000

          k = 0.1250-0.5000 0.4063 ( 18232 PWs)   bands (ev):

   -18.3167 -18.3167 -18.3085 -18.3085 -18.3075 -18.3075 -18.3051 -18.3051
   -18.3032 -18.3032  -9.0129  -9.0129  -8.7334  -8.7334  -3.4836  -3.4836
    -0.3457  -0.3457   0.4818   0.4818   1.2374   1.2374   1.4745   1.4745
     1.9144   1.9144   2.3464   2.3464

     occupation numbers 
     1.0000   1.0000   1.0000   1.0000   1.0000   1.0000   1.0000   1.0000
     1.0000   1.0000   1.0000   1.0000   1.0000   1.0000   1.0000   1.0000
     1.0000   1.0000   1.0000   1.0000   1.0000   1.0000   1.0000   1.0000
     1.0000   1.0000   1.0000   1.0000

          k = 0.1250-0.5000 0.6094 ( 18260 PWs)   bands (ev):

   -18.3162 -18.3162 -18.3091 -18.3091 -18.3084 -18.3084 -18.3055 -18.3055
   -18.3018 -18.3018  -8.9168  -8.9168  -8.7265  -8.7265  -3.5996  -3.5996
    -0.5286  -0.5286   0.1129   0.1129   1.2798   1.2798   1.5406   1.5406
     1.8228   1.8228   2.4618   2.4618

     occupation numbers 
     1.0000   1.0000   1.0000   1.0000   1.0000   1.0000   1.0000   1.0000
     1.0000   1.0000   1.0000   1.0000   1.0000   1.0000   1.0000   1.0000
     1.0000   1.0000   1.0000   1.0000   1.0000   1.0000   1.0000   1.0000
     1.0000   1.0000   1.0000   1.0000

          k = 0.1250-0.5000-0.8125 ( 18268 PWs)   bands (ev):

   -18.3160 -18.3160 -18.3097 -18.3097 -18.3084 -18.3084 -18.3057 -18.3057
   -18.3012 -18.3012  -8.8660  -8.8660  -8.7335  -8.7335  -3.6538  -3.6538
    -0.5771  -0.5771  -0.0143  -0.0143   1.2164   1.2164   1.6154   1.6154
     1.8093   1.8093   2.4898   2.4898

     occupation numbers 
     1.0000   1.0000   1.0000   1.0000   1.0000   1.0000   1.0000   1.0000
     1.0000   1.0000   1.0000   1.0000   1.0000   1.0000   1.0000   1.0000
     1.0000   1.0000   1.0000   1.0000   1.0000   1.0000   1.0000   1.0000
     1.0000   1.0000   1.0000   1.0000

          k = 0.2500 0.2500 0.0000 ( 18253 PWs)   bands (ev):

   -18.3184 -18.3169 -18.3086 -18.3085 -18.3054 -18.3053 -18.3050 -18.3050
   -18.3047 -18.3045  -9.2338  -8.9628  -8.8429  -8.7279  -3.7462  -2.8734
    -0.0300   0.4955   0.5959   0.9670   1.0260   1.0538   1.5817   1.6928
     1.8593   2.0002   2.0725   2.4421

     occupation numbers 
     1.0000   1.0000   1.0000   1.0000   1.0000   1.0000   1.0000   1.0000
     1.0000   1.0000   1.0000   1.0000   1.0000   1.0000   1.0000   1.0000
     1.0000   1.0000   1.0000   1.0000   1.0000   1.0000   1.0000   1.0000
     1.0000   1.0000   1.0000   1.0000

          k = 0.2500 0.2500 0.2031 ( 18240 PWs)   bands (ev):

   -18.3180 -18.3166 -18.3086 -18.3084 -18.3060 -18.3059 -18.3048 -18.3048
   -18.3045 -18.3045  -9.1982  -8.9416  -8.8254  -8.7221  -3.7555  -2.9482
     0.0270   0.0577   0.4470   0.8877   0.9647   1.3454   1.3533   1.5807
     1.8643   1.9770   2.1365   2.5981

     occupation numbers 
     1.0000   1.0000   1.0000   1.0000   1.0000   1.0000   1.0000   1.0000
     1.0000   1.0000   1.0000   1.0000   1.0000   1.0000   1.0000   1.0000
     1.0000   1.0000   1.0000   1.0000   1.0000   1.0000   1.0000   1.0000
     1.0000   1.0000   1.0000   1.0000

          k = 0.2500 0.2500 0.4063 ( 18230 PWs)   bands (ev):

   -18.3172 -18.3161 -18.3085 -18.3084 -18.3076 -18.3075 -18.3051 -18.3051
   -18.3032 -18.3032  -9.1020  -8.8905  -8.7822  -8.7147  -3.7766  -3.1615
    -0.3552   0.1229   0.1598   0.4893   0.6191   1.3252   1.4341   1.6985
     1.8325   2.0243   2.0926   2.6523

     occupation numbers 
     1.0000   1.0000   1.0000   1.0000   1.0000   1.0000   1.0000   1.0000
     1.0000   1.0000   1.0000   1.0000   1.0000   1.0000   1.0000   1.0000
     1.0000   1.0000   1.0000   1.0000   1.0000   1.0000   1.0000   1.0000
     1.0000   1.0000   1.0000   1.0000

          k = 0.2500 0.2500 0.6094 ( 18248 PWs)   bands (ev):

   -18.3164 -18.3158 -18.3092 -18.3090 -18.3084 -18.3084 -18.3055 -18.3055
   -18.3018 -18.3017  -8.9769  -8.8465  -8.7378  -8.7235  -3.7709  -3.4401
    -0.5439  -0.1377  -0.0008   0.3811   0.4432   1.3864   1.4848   1.5641
     1.7556   1.9334   2.3003   2.5223

     occupation numbers 
     1.0000   1.0000   1.0000   1.0000   1.0000   1.0000   1.0000   1.0000
     1.0000   1.0000   1.0000   1.0000   1.0000   1.0000   1.0000   1.0000
     1.0000   1.0000   1.0000   1.0000   1.0000   1.0000   1.0000   1.0000
     1.0000   1.0000   1.0000   1.0000

          k = 0.2500 0.2500-0.8125 ( 18262 PWs)   bands (ev):

   -18.3160 -18.3157 -18.3099 -18.3097 -18.3084 -18.3084 -18.3057 -18.3056
   -18.3012 -18.3012  -8.8787  -8.8653  -8.7348  -8.7191  -3.6927  -3.6408
    -0.5803  -0.2547  -0.1429   0.3336   0.5376   1.3831   1.4356   1.6278
     1.6939   1.7961   2.4404   2.4519

     occupation numbers 
     1.0000   1.0000   1.0000   1.0000   1.0000   1.0000   1.0000   1.0000
     1.0000   1.0000   1.0000   1.0000   1.0000   1.0000   1.0000   1.0000
     1.0000   1.0000   1.0000   1.0000   1.0000   1.0000   1.0000   1.0000
     1.0000   1.0000   1.0000   1.0000

          k = 0.2500 0.3750 0.0000 ( 18238 PWs)   bands (ev):

   -18.3181 -18.3173 -18.3085 -18.3085 -18.3054 -18.3053 -18.3050 -18.3050
   -18.3046 -18.3046  -9.1732  -9.0212  -8.8278  -8.7565  -3.5571  -3.0864
     0.0532   0.3955   0.6874   0.9222   1.0847   1.1618   1.5933   1.6675
     1.7943   1.9344   2.0623   2.2987

     occupation numbers 
     1.0000   1.0000   1.0000   1.0000   1.0000   1.0000   1.0000   1.0000
     1.0000   1.0000   1.0000   1.0000   1.0000   1.0000   1.0000   1.0000
     1.0000   1.0000   1.0000   1.0000   1.0000   1.0000   1.0000   1.0000
     1.0000   1.0000   1.0000   1.0000

          k = 0.2500 0.3750 0.2031 ( 18246 PWs)   bands (ev):

   -18.3177 -18.3170 -18.3085 -18.3085 -18.3060 -18.3060 -18.3048 -18.3048
   -18.3045 -18.3045  -9.1406  -8.9968  -8.8119  -8.7477  -3.5808  -3.1463
     0.0309   0.0858   0.5415   0.9018   1.0032   1.1344   1.4363   1.6378
     1.8387   2.0229   2.0969   2.4444

     occupation numbers 
     1.0000   1.0000   1.0000   1.0000   1.0000   1.0000   1.0000   1.0000
     1.0000   1.0000   1.0000   1.0000   1.0000   1.0000   1.0000   1.0000
     1.0000   1.0000   1.0000   1.0000   1.0000   1.0000   1.0000   1.0000
     1.0000   1.0000   1.0000   1.0000

          k = 0.2500 0.3750 0.4063 ( 18248 PWs)   bands (ev):

   -18.3169 -18.3164 -18.3085 -18.3084 -18.3076 -18.3075 -18.3052 -18.3051
   -18.3032 -18.3032  -9.0539  -8.9360  -8.7740  -8.7312  -3.6452  -3.3153
    -0.3020  -0.0486   0.3317   0.4570   0.6990   1.3126   1.4570   1.6509
     1.8305   2.0252   2.1754   2.5091

     occupation numbers 
     1.0000   1.0000   1.0000   1.0000   1.0000   1.0000   1.0000   1.0000
     1.0000   1.0000   1.0000   1.0000   1.0000   1.0000   1.0000   1.0000
     1.0000   1.0000   1.0000   1.0000   1.0000   1.0000   1.0000   1.0000
     1.0000   1.0000   1.0000   1.0000

          k = 0.2500 0.3750 0.6094 ( 18248 PWs)   bands (ev):

   -18.3162 -18.3159 -18.3092 -18.3091 -18.3084 -18.3084 -18.3055 -18.3055
   -18.3018 -18.3017  -8.9462  -8.8746  -8.7374  -8.7276  -3.7059  -3.5280
    -0.4727  -0.2094  -0.0104   0.1883   0.7501   1.3966   1.5088   1.6097
     1.7597   1.9151   2.2962   2.3925

     occupation numbers 
     1.0000   1.0000   1.0000   1.0000   1.0000   1.0000   1.0000   1.0000
     1.0000   1.0000   1.0000   1.0000   1.0000   1.0000   1.0000   1.0000
     1.0000   1.0000   1.0000   1.0000   1.0000   1.0000   1.0000   1.0000
     1.0000   1.0000   1.0000   1.0000

          k = 0.2500 0.3750-0.8125 ( 18252 PWs)   bands (ev):

   -18.3160 -18.3158 -18.3099 -18.3097 -18.3084 -18.3084 -18.3057 -18.3057
   -18.3012 -18.3012  -8.8743  -8.8645  -8.7346  -8.7232  -3.6968  -3.6607
    -0.5080  -0.3026  -0.1521   0.1405   0.8208   1.4024   1.4336   1.6598
     1.7608   1.8325   2.2945   2.3753

     occupation numbers 
     1.0000   1.0000   1.0000   1.0000   1.0000   1.0000   1.0000   1.0000
     1.0000   1.0000   1.0000   1.0000   1.0000   1.0000   1.0000   1.0000
     1.0000   1.0000   1.0000   1.0000   1.0000   1.0000   1.0000   1.0000
     1.0000   1.0000   1.0000   1.0000

          k = 0.2500-0.5000 0.0000 ( 18210 PWs)   bands (ev):

   -18.3177 -18.3177 -18.3085 -18.3085 -18.3053 -18.3053 -18.3050 -18.3050
   -18.3046 -18.3046  -9.0984  -9.0984  -8.7933  -8.7933  -3.3267  -3.3267
     0.2127   0.2127   0.8016   0.8016   1.1861   1.1861   1.6282   1.6282
     1.8198   1.8198   2.1590   2.1590

     occupation numbers 
     1.0000   1.0000   1.0000   1.0000   1.0000   1.0000   1.0000   1.0000
     1.0000   1.0000   1.0000   1.0000   1.0000   1.0000   1.0000   1.0000
     1.0000   1.0000   1.0000   1.0000   1.0000   1.0000   1.0000   1.0000
     1.0000   1.0000   1.0000   1.0000

          k = 0.2500-0.5000 0.2031 ( 18234 PWs)   bands (ev):

   -18.3173 -18.3173 -18.3085 -18.3085 -18.3060 -18.3060 -18.3048 -18.3048
   -18.3045 -18.3045  -9.0697  -9.0697  -8.7809  -8.7809  -3.3683  -3.3683
     0.0570   0.0570   0.7576   0.7576   1.0199   1.0199   1.5559   1.5559
     1.9276   1.9276   2.2562   2.2562

     occupation numbers 
     1.0000   1.0000   1.0000   1.0000   1.0000   1.0000   1.0000   1.0000
     1.0000   1.0000   1.0000   1.0000   1.0000   1.0000   1.0000   1.0000
     1.0000   1.0000   1.0000   1.0000   1.0000   1.0000   1.0000   1.0000
     1.0000   1.0000   1.0000   1.0000

          k = 0.2500-0.5000 0.4063 ( 18260 PWs)   bands (ev):

   -18.3167 -18.3167 -18.3085 -18.3085 -18.3076 -18.3076 -18.3052 -18.3052
   -18.3032 -18.3032  -8.9954  -8.9954  -8.7534  -8.7534  -3.4846  -3.4846
    -0.1995  -0.1995   0.4079   0.4079   0.9900   0.9900   1.5769   1.5769
     1.9182   1.9182   2.3573   2.3573

     occupation numbers 
     1.0000   1.0000   1.0000   1.0000   1.0000   1.0000   1.0000   1.0000
     1.0000   1.0000   1.0000   1.0000   1.0000   1.0000   1.0000   1.0000
     1.0000   1.0000   1.0000   1.0000   1.0000   1.0000   1.0000   1.0000
     1.0000   1.0000   1.0000   1.0000

          k = 0.2500-0.5000 0.6094 ( 18254 PWs)   bands (ev):

   -18.3161 -18.3161 -18.3091 -18.3091 -18.3084 -18.3084 -18.3055 -18.3055
   -18.3018 -18.3018  -8.9100  -8.9100  -8.7330  -8.7330  -3.6217  -3.6217
    -0.3438  -0.3438   0.0462   0.0462   1.1278   1.1278   1.5738   1.5738
     1.8307   1.8307   2.3334   2.3334

     occupation numbers 
     1.0000   1.0000   1.0000   1.0000   1.0000   1.0000   1.0000   1.0000
     1.0000   1.0000   1.0000   1.0000   1.0000   1.0000   1.0000   1.0000
     1.0000   1.0000   1.0000   1.0000   1.0000   1.0000   1.0000   1.0000
     1.0000   1.0000   1.0000   1.0000

          k = 0.2500-0.5000-0.8125 ( 18252 PWs)   bands (ev):

   -18.3159 -18.3159 -18.3098 -18.3098 -18.3084 -18.3084 -18.3057 -18.3057
   -18.3011 -18.3011  -8.8684  -8.8684  -8.7296  -8.7296  -3.6838  -3.6838
    -0.3942  -0.3942  -0.0647  -0.0647   1.1817   1.1817   1.5462   1.5462
     1.8213   1.8213   2.2896   2.2896

     occupation numbers 
     1.0000   1.0000   1.0000   1.0000   1.0000   1.0000   1.0000   1.0000
     1.0000   1.0000   1.0000   1.0000   1.0000   1.0000   1.0000   1.0000
     1.0000   1.0000   1.0000   1.0000   1.0000   1.0000   1.0000   1.0000
     1.0000   1.0000   1.0000   1.0000

          k = 0.3750 0.3750 0.0000 ( 18241 PWs)   bands (ev):

   -18.3179 -18.3175 -18.3085 -18.3085 -18.3054 -18.3053 -18.3050 -18.3050
   -18.3046 -18.3046  -9.1227  -9.0265  -8.8475  -8.7932  -3.4310  -3.1721
     0.0383   0.2478   0.7538   0.8875   1.1921   1.2749   1.5731   1.6260
     1.7392   1.8337   2.0997   2.2565

     occupation numbers 
     1.0000   1.0000   1.0000   1.0000   1.0000   1.0000   1.0000   1.0000
     1.0000   1.0000   1.0000   1.0000   1.0000   1.0000   1.0000   1.0000
     1.0000   1.0000   1.0000   1.0000   1.0000   1.0000   1.0000   1.0000
     1.0000   1.0000   1.0000   1.0000

          k = 0.3750 0.3750 0.2031 ( 18227 PWs)   bands (ev):

   -18.3175 -18.3171 -18.3085 -18.3085 -18.3060 -18.3060 -18.3048 -18.3047
   -18.3045 -18.3045  -9.0931  -9.0028  -8.8298  -8.7809  -3.4693  -3.2323
     0.0921   0.0937   0.5328   0.8671   0.9140   1.0155   1.5160   1.7349
     1.7546   1.9573   2.1957   2.4094

     occupation numbers 
     1.0000   1.0000   1.0000   1.0000   1.0000   1.0000   1.0000   1.0000
     1.0000   1.0000   1.0000   1.0000   1.0000   1.0000   1.0000   1.0000
     1.0000   1.0000   1.0000   1.0000   1.0000   1.0000   1.0000   1.0000
     1.0000   1.0000   1.0000   1.0000

          k = 0.3750 0.3750 0.4063 ( 18276 PWs)   bands (ev):

   -18.3168 -18.3165 -18.3085 -18.3085 -18.3076 -18.3076 -18.3052 -18.3052
   -18.3032 -18.3032  -9.0158  -8.9441  -8.7863  -8.7540  -3.5726  -3.3955
    -0.1574   0.1913   0.2152   0.4088   0.5241   1.0103   1.5757   1.7762
     1.7809   1.9929   2.2702   2.4402

     occupation numbers 
     1.0000   1.0000   1.0000   1.0000   1.0000   1.0000   1.0000   1.0000
     1.0000   1.0000   1.0000   1.0000   1.0000   1.0000   1.0000   1.0000
     1.0000   1.0000   1.0000   1.0000   1.0000   1.0000   1.0000   1.0000
     1.0000   1.0000   1.0000   1.0000

          k = 0.3750 0.3750 0.6094 ( 18257 PWs)   bands (ev):

   -18.3161 -18.3159 -18.3092 -18.3091 -18.3084 -18.3084 -18.3055 -18.3055
   -18.3018 -18.3018  -8.9251  -8.8846  -8.7417  -8.7342  -3.6831  -3.5879
    -0.2709  -0.1206  -0.0653   0.3338   0.4580   1.1546   1.6492   1.6751
     1.7929   1.9190   2.1834   2.2996

     occupation numbers 
     1.0000   1.0000   1.0000   1.0000   1.0000   1.0000   1.0000   1.0000
     1.0000   1.0000   1.0000   1.0000   1.0000   1.0000   1.0000   1.0000
     1.0000   1.0000   1.0000   1.0000   1.0000   1.0000   1.0000   1.0000
     1.0000   1.0000   1.0000   1.0000

          k = 0.3750 0.3750-0.8125 ( 18278 PWs)   bands (ev):

   -18.3159 -18.3158 -18.3099 -18.3098 -18.3084 -18.3084 -18.3057 -18.3057
   -18.3012 -18.3012  -8.8737  -8.8669  -8.7307  -8.7228  -3.7151  -3.6904
    -0.2845  -0.2551  -0.2151   0.3160   0.5480   1.2205   1.5601   1.7322
     1.7919   1.8548   2.0834   2.2550

     occupation numbers 
     1.0000   1.0000   1.0000   1.0000   1.0000   1.0000   1.0000   1.0000
     1.0000   1.0000   1.0000   1.0000   1.0000   1.0000   1.0000   1.0000
     1.0000   1.0000   1.0000   1.0000   1.0000   1.0000   1.0000   1.0000
     1.0000   1.0000   1.0000   1.0000

          k = 0.3750-0.5000 0.0000 ( 18204 PWs)   bands (ev):

   -18.3177 -18.3177 -18.3085 -18.3085 -18.3053 -18.3053 -18.3050 -18.3050
   -18.3045 -18.3045  -9.0667  -9.0667  -8.8306  -8.8306  -3.2934  -3.2934
     0.1106   0.1106   0.8269   0.8269   1.2869   1.2869   1.5872   1.5872
     1.7393   1.7393   2.1834   2.1834

     occupation numbers 
     1.0000   1.0000   1.0000   1.0000   1.0000   1.0000   1.0000   1.0000
     1.0000   1.0000   1.0000   1.0000   1.0000   1.0000   1.0000   1.0000
     1.0000   1.0000   1.0000   1.0000   1.0000   1.0000   1.0000   1.0000
     1.0000   1.0000   1.0000   1.0000

          k = 0.3750-0.5000 0.2031 ( 18226 PWs)   bands (ev):

   -18.3173 -18.3173 -18.3085 -18.3085 -18.3060 -18.3060 -18.3047 -18.3047
   -18.3045 -18.3045  -9.0406  -9.0406  -8.8147  -8.8147  -3.3455  -3.3455
     0.1033   0.1033   0.6646   0.6646   0.9509   0.9509   1.6312   1.6312
     1.8515   1.8515   2.3215   2.3215

     occupation numbers 
     1.0000   1.0000   1.0000   1.0000   1.0000   1.0000   1.0000   1.0000
     1.0000   1.0000   1.0000   1.0000   1.0000   1.0000   1.0000   1.0000
     1.0000   1.0000   1.0000   1.0000   1.0000   1.0000   1.0000   1.0000
     1.0000   1.0000   1.0000   1.0000

          k = 0.3750-0.5000 0.4063 ( 18270 PWs)   bands (ev):

   -18.3166 -18.3166 -18.3085 -18.3085 -18.3076 -18.3076 -18.3052 -18.3052
   -18.3032 -18.3032  -8.9744  -8.9744  -8.7767  -8.7767  -3.4855  -3.4855
     0.0269   0.0269   0.3455   0.3455   0.6716   0.6716   1.6903   1.6903
     1.9012   1.9012   2.3667   2.3667

     occupation numbers 
     1.0000   1.0000   1.0000   1.0000   1.0000   1.0000   1.0000   1.0000
     1.0000   1.0000   1.0000   1.0000   1.0000   1.0000   1.0000   1.0000
     1.0000   1.0000   1.0000   1.0000   1.0000   1.0000   1.0000   1.0000
     1.0000   1.0000   1.0000   1.0000

          k = 0.3750-0.5000 0.6094 ( 18266 PWs)   bands (ev):

   -18.3160 -18.3160 -18.3092 -18.3092 -18.3085 -18.3085 -18.3055 -18.3055
   -18.3018 -18.3018  -8.9027  -8.9027  -8.7401  -8.7401  -3.6430  -3.6430
    -0.1227  -0.1227   0.0510   0.0510   0.7739   0.7739   1.7245   1.7245
     1.8451   1.8451   2.2135   2.2135

     occupation numbers 
     1.0000   1.0000   1.0000   1.0000   1.0000   1.0000   1.0000   1.0000
     1.0000   1.0000   1.0000   1.0000   1.0000   1.0000   1.0000   1.0000
     1.0000   1.0000   1.0000   1.0000   1.0000   1.0000   1.0000   1.0000
     1.0000   1.0000   1.0000   1.0000

          k = 0.3750-0.5000-0.8125 ( 18268 PWs)   bands (ev):

   -18.3158 -18.3158 -18.3099 -18.3099 -18.3084 -18.3084 -18.3057 -18.3057
   -18.3012 -18.3012  -8.8707  -8.8707  -8.7259  -8.7259  -3.7126  -3.7126
    -0.2505  -0.2505   0.0342   0.0342   0.8481   0.8481   1.6942   1.6942
     1.8330   1.8330   2.1200   2.1200

     occupation numbers 
     1.0000   1.0000   1.0000   1.0000   1.0000   1.0000   1.0000   1.0000
     1.0000   1.0000   1.0000   1.0000   1.0000   1.0000   1.0000   1.0000
     1.0000   1.0000   1.0000   1.0000   1.0000   1.0000   1.0000   1.0000
     1.0000   1.0000   1.0000   1.0000

          k =-0.5000-0.5000 0.0000 ( 18240 PWs)   bands (ev):

   -18.3177 -18.3177 -18.3085 -18.3085 -18.3053 -18.3053 -18.3051 -18.3051
   -18.3045 -18.3045  -9.0502  -9.0502  -8.8494  -8.8494  -3.2794  -3.2794
     0.0705   0.0705   0.8380   0.8380   1.3436   1.3436   1.5695   1.5695
     1.6837   1.6837   2.1988   2.1988

     occupation numbers 
     1.0000   1.0000   1.0000   1.0000   1.0000   1.0000   1.0000   1.0000
     1.0000   1.0000   1.0000   1.0000   1.0000   1.0000   1.0000   1.0000
     1.0000   1.0000   1.0000   1.0000   1.0000   1.0000   1.0000   1.0000
     1.0000   1.0000   1.0000   1.0000

          k =-0.5000-0.5000 0.2031 ( 18224 PWs)   bands (ev):

   -18.3174 -18.3174 -18.3085 -18.3085 -18.3060 -18.3060 -18.3047 -18.3047
   -18.3045 -18.3045  -9.0256  -9.0256  -8.8316  -8.8316  -3.3360  -3.3360
     0.1248   0.1248   0.6300   0.6300   0.9171   0.9171   1.7046   1.7046
     1.7765   1.7765   2.3487   2.3487

     occupation numbers 
     1.0000   1.0000   1.0000   1.0000   1.0000   1.0000   1.0000   1.0000
     1.0000   1.0000   1.0000   1.0000   1.0000   1.0000   1.0000   1.0000
     1.0000   1.0000   1.0000   1.0000   1.0000   1.0000   1.0000   1.0000
     1.0000   1.0000   1.0000   1.0000

          k =-0.5000-0.5000 0.4063 ( 18292 PWs)   bands (ev):

   -18.3166 -18.3166 -18.3085 -18.3085 -18.3076 -18.3076 -18.3052 -18.3052
   -18.3032 -18.3032  -8.9641  -8.9641  -8.7880  -8.7880  -3.4859  -3.4859
     0.2377   0.2377   0.3642   0.3642   0.3830   0.3830   1.7567   1.7567
     1.8706   1.8706   2.3721   2.3721

     occupation numbers 
     1.0000   1.0000   1.0000   1.0000   1.0000   1.0000   1.0000   1.0000
     1.0000   1.0000   1.0000   1.0000   1.0000   1.0000   1.0000   1.0000
     1.0000   1.0000   1.0000   1.0000   1.0000   1.0000   1.0000   1.0000
     1.0000   1.0000   1.0000   1.0000

          k =-0.5000-0.5000 0.6094 ( 18260 PWs)   bands (ev):

   -18.3160 -18.3160 -18.3092 -18.3092 -18.3084 -18.3084 -18.3055 -18.3055
   -18.3018 -18.3018  -8.8994  -8.8994  -8.7433  -8.7433  -3.6516  -3.6516
    -0.0914  -0.0914   0.2716   0.2716   0.4672   0.4672   1.8108   1.8108
     1.8505   1.8505   2.1501   2.1501

     occupation numbers 
     1.0000   1.0000   1.0000   1.0000   1.0000   1.0000   1.0000   1.0000
     1.0000   1.0000   1.0000   1.0000   1.0000   1.0000   1.0000   1.0000
     1.0000   1.0000   1.0000   1.0000   1.0000   1.0000   1.0000   1.0000
     1.0000   1.0000   1.0000   1.0000

          k =-0.5000-0.5000-0.8125 ( 18296 PWs)   bands (ev):

   -18.3158 -18.3158 -18.3099 -18.3099 -18.3085 -18.3085 -18.3057 -18.3057
   -18.3012 -18.3012  -8.8716  -8.8716  -8.7243  -8.7243  -3.7242  -3.7242
    -0.2431  -0.2431   0.2717   0.2717   0.5525   0.5525   1.8183   1.8183
     1.8338   1.8338   2.0147   2.0147

     occupation numbers 
     1.0000   1.0000   1.0000   1.0000   1.0000   1.0000   1.0000   1.0000
     1.0000   1.0000   1.0000   1.0000   1.0000   1.0000   1.0000   1.0000
     1.0000   1.0000   1.0000   1.0000   1.0000   1.0000   1.0000   1.0000
     1.0000   1.0000   1.0000   1.0000

     highest occupied level (ev):     3.0750

!    total energy              =   -2399.99046985 Ry

     total all-electron energy =    -81641.235818 Ry
     estimated scf accuracy    <       0.00000044 Ry

     The total energy is the sum of the following terms:
     one-electron contribution =    -203.79310476 Ry
     hartree contribution      =     130.15790101 Ry
     xc contribution           =    -159.02121262 Ry
     ewald contribution        =    -219.54274839 Ry
     one-center paw contrib.   =   -1947.79130509 Ry
      -> PAW hartree energy AE =     108.41642242 Ry
      -> PAW hartree energy PS =    -107.65026423 Ry
      -> PAW xc energy AE      =    -328.96378379 Ry
      -> PAW xc energy PS      =      47.26248015 Ry
      -> total E_H with PAW    =     130.92405920 Ry
      -> total E_XC with PAW   =    -440.72251626 Ry

     convergence has been achieved in   8 iterations

     Forces acting on atoms (cartesian axes, Ry/au):

     atom    1 type  1   force =     0.00000000    0.00000000    0.00000000
     atom    2 type  1   force =     0.00000000    0.00000000    0.00000000
     atom    3 type  2   force =    -0.00020914   -0.00020914    0.00000000
     atom    4 type  2   force =     0.00020914    0.00020914    0.00000000
     atom    5 type  2   force =    -0.00020914    0.00020914   -0.00000000
     atom    6 type  2   force =     0.00020914   -0.00020914   -0.00000000
     The non-local contrib.  to forces
     atom    1 type  1   force =     0.00000000    0.00000000   -0.00000000
     atom    2 type  1   force =     0.00000000    0.00000000   -0.00000000
     atom    3 type  2   force =     0.01430258    0.01430258    0.00000000
     atom    4 type  2   force =    -0.01430258   -0.01430258    0.00000000
     atom    5 type  2   force =     0.01430258   -0.01430258    0.00000000
     atom    6 type  2   force =    -0.01430258    0.01430258    0.00000000
     The ionic contribution  to forces
     atom    1 type  1   force =    -0.00000000   -0.00000000    0.00000000
     atom    2 type  1   force =    -0.00000000   -0.00000000   -0.00000000
     atom    3 type  2   force =    -0.90990984   -0.90990984   -0.00000000
     atom    4 type  2   force =     0.90990984    0.90990984   -0.00000000
     atom    5 type  2   force =    -0.90990984    0.90990984   -0.00000000
     atom    6 type  2   force =     0.90990984   -0.90990984   -0.00000000
     The local contribution  to forces
     atom    1 type  1   force =     0.00000000    0.00000000    0.00000000
     atom    2 type  1   force =     0.00000000    0.00000000    0.00000000
     atom    3 type  2   force =     0.89714322    0.89714322    0.00000000
     atom    4 type  2   force =    -0.89714322   -0.89714322    0.00000000
     atom    5 type  2   force =     0.89714322   -0.89714322    0.00000000
     atom    6 type  2   force =    -0.89714322    0.89714322    0.00000000
     The core correction contribution to forces
     atom    1 type  1   force =     0.00000000    0.00000000    0.00000000
     atom    2 type  1   force =     0.00000000    0.00000000    0.00000000
     atom    3 type  2   force =    -0.00181406   -0.00181406    0.00000000
     atom    4 type  2   force =     0.00181406    0.00181406    0.00000000
     atom    5 type  2   force =    -0.00181406    0.00181406    0.00000000
     atom    6 type  2   force =     0.00181406   -0.00181406    0.00000000
     The Hubbard contrib.    to forces
     atom    1 type  1   force =     0.00000000    0.00000000    0.00000000
     atom    2 type  1   force =     0.00000000    0.00000000    0.00000000
     atom    3 type  2   force =     0.00000000    0.00000000    0.00000000
     atom    4 type  2   force =     0.00000000    0.00000000    0.00000000
     atom    5 type  2   force =     0.00000000    0.00000000    0.00000000
     atom    6 type  2   force =     0.00000000    0.00000000    0.00000000
     The SCF correction term to forces
     atom    1 type  1   force =    -0.00000000    0.00000000   -0.00000000
     atom    2 type  1   force =    -0.00000000   -0.00000000   -0.00000000
     atom    3 type  2   force =     0.00006896    0.00006896   -0.00000000
     atom    4 type  2   force =    -0.00006896   -0.00006896    0.00000000
     atom    5 type  2   force =     0.00006896   -0.00006896    0.00000000
     atom    6 type  2   force =    -0.00006896    0.00006896    0.00000000

     Total force =     0.000592     Total SCF correction =     0.000195
     SCF correction compared to forces is large: reduce conv_thr to get better values


     Computing stress (Cartesian axis) and pressure

          total   stress  (Ry/bohr**3)                   (kbar)     P=       -1.98
  -0.00001477   0.00000000   0.00000000           -2.17        0.00        0.00
   0.00000000  -0.00001477   0.00000000            0.00       -2.17        0.00
   0.00000000   0.00000000  -0.00001086            0.00        0.00       -1.60

     kinetic stress (kbar)   7315.33      0.00      0.00
                                0.00   7315.33      0.00
                                0.00      0.00   7289.20

     local   stress (kbar)  -1446.28     -0.00     -0.00
                               -0.00  -1446.28     -0.00
                               -0.00     -0.00  -5849.26

     nonloc. stress (kbar)    116.14      0.00      0.00
                                0.00    116.14      0.00
                                0.00      0.00    115.44

     hartree stress (kbar)   2829.29     -0.00      0.00
                               -0.00   2829.29      0.00
                                0.00      0.00   4718.30

     exc-cor stress (kbar)   6161.24      0.00     -0.00
                                0.00   6161.24      0.00
                               -0.00      0.00   6162.29

     corecor stress (kbar)  -8297.12     -0.00      0.00
                               -0.00  -8297.12     -0.00
                                0.00      0.00  -8296.00

     ewald   stress (kbar)  -6680.77      0.00     -0.00
                                0.00  -6680.77     -0.00
                               -0.00     -0.00  -4141.56

     hubbard stress (kbar)      0.00      0.00      0.00
                                0.00      0.00      0.00
                                0.00      0.00      0.00

     DFT-D   stress (kbar)      0.00      0.00      0.00
                                0.00      0.00      0.00
                                0.00      0.00      0.00

     XDM     stress (kbar)      0.00      0.00      0.00
                                0.00      0.00      0.00
                                0.00      0.00      0.00

     dft-nl  stress (kbar)      0.00      0.00      0.00
                                0.00      0.00      0.00
                                0.00      0.00      0.00

     TS-vdW  stress (kbar)      0.00      0.00      0.00
                                0.00      0.00      0.00
                                0.00      0.00      0.00



     Writing output data file ./out/SnI2tetr.save/

     init_run     :      8.57s CPU      8.75s WALL (       1 calls)
     electrons    :    178.99s CPU    182.48s WALL (       1 calls)
     forces       :      3.19s CPU      3.20s WALL (       1 calls)
     stress       :      5.46s CPU      5.47s WALL (       1 calls)

     Called by init_run:
     wfcinit      :      7.43s CPU      7.55s WALL (       1 calls)
     wfcinit:atom :      0.06s CPU      0.06s WALL (      75 calls)
     wfcinit:wfcr :      7.00s CPU      7.11s WALL (      75 calls)
     potinit      :      0.37s CPU      0.39s WALL (       1 calls)
     hinit0       :      0.41s CPU      0.41s WALL (       1 calls)

     Called by electrons:
     c_bands      :    155.10s CPU    158.12s WALL (       9 calls)
     sum_band     :     21.52s CPU     21.93s WALL (       9 calls)
     v_of_rho     :      0.26s CPU      0.26s WALL (       9 calls)
     v_h          :      0.02s CPU      0.02s WALL (       9 calls)
     v_xc         :      0.28s CPU      0.29s WALL (      11 calls)
     newd         :      0.99s CPU      1.02s WALL (       9 calls)
     PAW_pot      :      1.32s CPU      1.35s WALL (       9 calls)
     mix_rho      :      0.04s CPU      0.04s WALL (       9 calls)

     Called by c_bands:
     init_us_2    :      2.14s CPU      2.25s WALL (    1575 calls)
     cegterg      :    150.16s CPU    151.98s WALL (     675 calls)

     Called by sum_band:
     sum_band:wei :      0.00s CPU      0.00s WALL (       9 calls)
     sum_band:loo :     20.55s CPU     20.85s WALL (       9 calls)
     sum_band:buf :      0.21s CPU      0.23s WALL (     675 calls)
     sum_band:ini :      0.94s CPU      0.96s WALL (     675 calls)
     sum_band:cal :      5.05s CPU      5.07s WALL (     675 calls)
     sum_band:bec :      0.11s CPU      0.11s WALL (     675 calls)
     addusdens    :      0.77s CPU      0.85s WALL (       9 calls)
     addusd:skk   :      0.00s CPU      0.00s WALL (      18 calls)
     addusd:dgemm :      0.27s CPU      0.33s WALL (      18 calls)
     addusd:qvan2 :      0.42s CPU      0.43s WALL (      18 calls)

     Called by *egterg:
     cdiaghg      :      5.15s CPU      5.19s WALL (    2826 calls)
     cegterg:over :      8.79s CPU      8.85s WALL (    2226 calls)
     cegterg:upda :      4.23s CPU      4.27s WALL (    2226 calls)
     cegterg:last :     10.25s CPU     10.30s WALL (    1581 calls)
     h_psi        :    111.40s CPU    113.09s WALL (    2976 calls)
     s_psi        :     11.95s CPU     12.01s WALL (    2976 calls)
     g_psi        :      0.24s CPU      0.24s WALL (    2226 calls)

     Called by h_psi:
     h_psi:calbec :     15.94s CPU     16.02s WALL (    2976 calls)
     vloc_psi     :     82.29s CPU     83.85s WALL (    2976 calls)
     add_vuspsi   :     12.70s CPU     12.76s WALL (    2976 calls)

     General routines
     calbec       :     23.80s CPU     23.93s WALL (    4026 calls)
     fft          :      0.22s CPU      0.23s WALL (     125 calls)
     ffts         :      0.01s CPU      0.01s WALL (       9 calls)
     fftw         :     89.67s CPU     91.35s WALL (  131024 calls)

     Parallel routines
     fft_scatt_xy :      5.96s CPU      6.04s WALL (  131158 calls)
     fft_scatt_yz :     31.58s CPU     32.35s WALL (  131158 calls)

     PAW routines
     PAW_pot      :      1.32s CPU      1.35s WALL (       9 calls)
     PAW_symme    :      0.02s CPU      0.02s WALL (      18 calls)

     PWSCF        :   3m20.04s CPU   3m26.31s WALL


   This run was terminated on:  12:28:27  15Jan2021            

=------------------------------------------------------------------------------=
   JOB DONE.
=------------------------------------------------------------------------------=
